 vasp.6.3.2 27Jun22 (build Aug 17 2022 15:43:34) complex                        
  
 executed on           tv2STDVTST date 2025.01.21  16:00:41
 running   20 mpi-ranks, with    1 threads/rank
 distrk:  each k-point on   20 cores,    1 groups
 distr:  one band on NCORE=   5 cores,    4 groups


--------------------------------------------------------------------------------------------------------


 -----------------------------------------------------------------------------
|                                                                             |
|           W    W    AA    RRRRR   N    N  II  N    N   GGGG   !!!           |
|           W    W   A  A   R    R  NN   N  II  NN   N  G    G  !!!           |
|           W    W  A    A  R    R  N N  N  II  N N  N  G       !!!           |
|           W WW W  AAAAAA  RRRRR   N  N N  II  N  N N  G  GGG   !            |
|           WW  WW  A    A  R   R   N   NN  II  N   NN  G    G                |
|           W    W  A    A  R    R  N    N  II  N    N   GGGG   !!!           |
|                                                                             |
|     Found issues when parsing the INCAR file                                |
|     In line 64: Tagname --- R W I G S contains invalid characters.          |
|     Please check if the interpretation in the OUTCAR file is correct.       |
|                                                                             |
 -----------------------------------------------------------------------------

 INCAR:
    = \=\=\=\=\=\=\=\=\=\=\=\=\=\=\=\=\=\=\=\=\=\=\=\=\=\=\=\=\=\=\=\=\=\=\=\=\=\=\=\=\=\=\=\=\=\=\=\=\=\=\=\=\=\=\=\=\=\=\=\=\=\=\=\=\=\=\=\=\=\=\=\=
    = \=\=\=\=\=\=\=\=\=\=\=\=\=\=\=\=\=\=\=\=\=\=\=\=\=\=\=\=\=\=\=\=\=\=\=\=\=\=\=\=\=\=\=\=\=\=\=\=\=\=\=\=\=\=\=\=\=\=\=\=\=\=\=\=\=\=\=\=\=\=\=\=
   ISTART = 0
   ICHARG = 2
   IPIPOL = 3
   IVDW = 11
   IDIPOL = 3
   IVDW = 11
    = \=\=\=\=\=\=\=\=\=\=\=\=\=\=\=\=\=\=\=\=\=\=\=\=\=\=\=\=\=\=\=\=\=\=\=\=\=\=\=\=\=\=\=\=\=\=\=\=\=\=\=\=\=\=\=\=\=\=\=\=\=\=\=\=\=\=\=\=\=\=\=\=
    = \=\=\=\=\=\=\=\=\=\=\=\=\=\=\=\=\=\=\=\=\=\=\=\=\=\=\=\=\=\=\=\=\=\=\=\=\=\=\=\=\=\=\=\=\=\=\=\=\=\=\=\=\=\=\=\=\=\=\=\=\=\=\=\=\=\=\=\=\=\=\=\=
   ISPIN = 2
    = \=\=\=\=\=\=\=\=\=\=\=\=\=\=\=\=\=\=\=\=\=\=\=\=\=\=\=\=\=\=\=\=\=\=\=\=\=\=\=\=\=\=\=\=\=\=\=\=\=\=\=\=\=\=\=\=\=\=\=\=\=\=\=\=\=\=\=\=\=\=\=\=
    = \=\=\=\=\=\=\=\=\=\=\=\=\=\=\=\=\=\=\=\=\=\=\=\=\=\=\=\=\=\=\=\=\=\=\=\=\=\=\=\=\=\=\=\=\=\=\=\=\=\=\=\=\=\=\=\=\=\=\=\=\=\=\=\=\=\=\=\=\=\=\=\=
   ENCUT = 400
   PREC = Normal
   EDIFF = 2E-04
   GGA = PE
   ISMEAR = 1
   SIGMA = 0.2
   LREAL = .FALSE.
    = \=\=\=\=\=\=\=\=\=\=\=\=\=\=\=\=\=\=\=\=\=\=\=\=\=\=\=\=\=\=\=\=\=\=\=\=\=\=\=\=\=\=\=\=\=\=\=\=\=\=\=\=\=\=\=\=\=\=\=\=\=\=\=\=\=\=\=\=\=\=\=\=
    = \=\=\=\=\=\=\=\=\=\=\=\=\=\=\=\=\=\=\=\=\=\=\=\=\=\=\=\=\=\=\=\=\=\=\=\=\=\=\=\=\=\=\=\=\=\=\=\=\=\=\=\=\=\=\=\=\=\=\=\=\=\=\=\=\=\=\=\=\=\=\=\=
   ISYM = 1
   NSW = 800
   IBRION = 2
   POTIM = 0.5
   ISIF = 2
   EDIFFG = -.03
    = \=\=\=\=\=\=\=\=\=\=\=\=\=\=\=\=\=\=\=\=\=\=\=\=\=\=\=\=\=\=\=\=\=\=\=\=\=\=\=\=\=\=\=\=\=\=\=\=\=\=\=\=\=\=\=\=\=\=\=\=\=\=\=\=\=\=\=\=\=\=\=\=
    = \=\=\=\=\=\=\=\=\=\=\=\=\=\=\=\=\=\=\=\=\=\=\=\=\=\=\=\=\=\=\=\=\=\=\=\=\=\=\=\=\=\=\=\=\=\=\=\=\=\=\=\=\=\=\=\=\=\=\=\=\=\=\=\=\=\=\=\=\=\=\=\=
   NPAR = 4
   LWAVE = .FALSE.
   LCHARG = .FALSE.

 POTCAR:    PAW_PBE Cu 22Jun2005                  
 -----------------------------------------------------------------------------
|                                                                             |
|           W    W    AA    RRRRR   N    N  II  N    N   GGGG   !!!           |
|           W    W   A  A   R    R  NN   N  II  NN   N  G    G  !!!           |
|           W    W  A    A  R    R  N N  N  II  N N  N  G       !!!           |
|           W WW W  AAAAAA  RRRRR   N  N N  II  N  N N  G  GGG   !            |
|           WW  WW  A    A  R   R   N   NN  II  N   NN  G    G                |
|           W    W  A    A  R    R  N    N  II  N    N   GGGG   !!!           |
|                                                                             |
|     You use a magnetic or noncollinear calculation, but did not specify     |
|     the initial magnetic moment with the MAGMOM tag. Note that a            |
|     default of 1 will be used for all atoms. This ferromagnetic setup       |
|     may break the symmetry of the crystal, in particular it may rule        |
|     out finding an antiferromagnetic solution. Thence, we recommend         |
|     setting the initial magnetic moment manually or verifying carefully     |
|     that this magnetic setup is desired.                                    |
|                                                                             |
 -----------------------------------------------------------------------------

 POTCAR:    PAW_PBE Cu 22Jun2005                  
   SHA256 =  0e71e558f37a4e8407882b4609ceaae59938afaad9ced71dfe8490308a0ab630 Cu/POTCAR             
   COPYR  = (c) Copyright 22Jun2005 Georg Kresse                                                    
   COPYR  = This file is part of the software VASP. Any use, copying, and all other rights are regul
   COPYR  = If you do not have a valid VASP license, you may not use, copy or distribute this file. 
   VRHFIN =Cu: d10 p1                                                                               
   LEXCH  = PE                                                                                      
   EATOM  =  1390.9808 eV,  102.2342 Ry                                                             
                                                                                                    
   TITEL  = PAW_PBE Cu 22Jun2005                                                                    
   LULTRA =        F    use ultrasoft PP ?                                                          
   IUNSCR =        1    unscreen: 0-lin 1-nonlin 2-no                                               
   RPACOR =    2.000    partial core radius                                                         
   POMASS =   63.546; ZVAL   =   11.000    mass and valenz                                          
   RCORE  =    2.300    outmost cutoff radius                                                       
   RWIGS  =    2.200; RWIGS  =    1.164    wigner-seitz radius (au A)                               
   ENMAX  =  295.446; ENMIN  =  221.585 eV                                                          
   ICORE  =        3    local potential                                                             
   LCOR   =        T    correct aug charges                                                         
   LPAW   =        T    paw PP                                                                      
   EAUG   =  586.980                                                                                
   DEXC   =    0.000                                                                                
   RMAX   =    2.344    core radius for proj-oper                                                   
   RAUG   =    1.300    factor for augmentation sphere                                              
   RDEP   =    2.302    radius for radial grids                                                     
   RDEPT  =    1.771    core radius for aug-charge                                                  
                                                                                                    
   Atomic configuration                                                                             
    9 entries                                                                                       
     n  l   j            E        occ.                                                              
     1  0  0.50     -8850.2468   2.0000                                                             
     2  0  0.50     -1062.3498   2.0000                                                             
     2  1  1.50      -916.8226   6.0000                                                             
     3  0  0.50      -114.6929   2.0000                                                             
     3  1  1.50       -72.1325   6.0000                                                             
     3  2  2.50        -5.0394  10.0000                                                             
     4  0  0.50        -4.6097   1.0000                                                             
     4  1  0.50        -4.0817   0.0000                                                             
     4  3  2.50        -1.3606   0.0000                                                             
   Description                                                                                      
     l       E           TYP  RCUT    TYP  RCUT                                                     
     2     -5.0393973     23  2.200                                                                 
     2     10.8846608     23  2.200                                                                 
     0     -4.6097109     23  2.200                                                                 
     0      8.2520465     23  2.200                                                                 
     1     -2.7211652     23  2.200                                                                 
     1     21.7055443     23  2.200                                                                 
     3      2.7211652     23  2.300                                                                 
  local pseudopotential read in
  partial core-charges read in
  partial kinetic energy density read in
  atomic valenz-charges read in
  non local Contribution for L=           2  read in
    real space projection operators read in
  non local Contribution for L=           2  read in
    real space projection operators read in
  non local Contribution for L=           0  read in
    real space projection operators read in
  non local Contribution for L=           0  read in
    real space projection operators read in
  non local Contribution for L=           1  read in
    real space projection operators read in
  non local Contribution for L=           1  read in
    real space projection operators read in
    PAW grid and wavefunctions read in
 
   number of l-projection  operators is LMAX  =           6
   number of lm-projection operators is LMMAX =          18
 
  PAW_PBE Cu 22Jun2005                  :
 energy of atom  1       EATOM=-1390.9808
 kinetic energy error for atom=    0.0232 (will be added to EATOM!!)
 
 
 POSCAR: FCC Cu
  positions in cartesian coordinates
  velocities in cartesian coordinates
  No initial velocities read in
 exchange correlation table for  LEXCH =        8
   RHO(1)=    0.500       N(1)  =     2000
   RHO(2)=  100.500       N(2)  =     4000

 VTST: version 4.2, (08/11/21)

 CHAIN: initializing optimizer
 
 OPT: Using VASP Conjugate-Gradient optimizer
 CHAIN: Read ICHAIN            0
 
 POSCAR: FCC Cu
  positions in cartesian coordinates
  velocities in cartesian coordinates
  No initial velocities read in
 


--------------------------------------------------------------------------------------------------------


 ion  position               nearest neighbor table
   1  0.000  0.000  0.000-   2 2.57   2 2.57   2 2.57   2 2.57   3 2.57
   2  0.500  0.500  0.060-   3 2.57   3 2.57   3 2.57   1 2.57   3 2.57   1 2.57   1 2.57   1 2.57
                             4 2.57
   3  0.000  0.000  0.120-   2 2.57   2 2.57   2 2.57   4 2.57   2 2.57   4 2.57   4 2.57   4 2.57
                             1 2.57   5 2.57
   4  0.500  0.500  0.180-   3 2.57   5 2.57   3 2.57   5 2.57   3 2.57   5 2.57   3 2.57   5 2.57
                             2 2.57   6 2.57
   5  0.000  0.000  0.240-   6 2.57   6 2.57   6 2.57   4 2.57   6 2.57   4 2.57   4 2.57   4 2.57
                             3 2.57
   6  0.500  0.500  0.300-   5 2.57   5 2.57   5 2.57   5 2.57   4 2.57
 
  LATTYP: Found a simple orthorhombic cell.
 ALAT       =     2.5667977333
 B/A-ratio  =     1.4142135422
 C/A-ratio  =     8.3438572982
  
  Lattice vectors:
  
 A1 = (   0.0000000000,  -2.5667977333,   0.0000000000)
 A2 = (   3.6300001144,   0.0000000000,   0.0000000000)
 A3 = (   0.0000000000,   0.0000000000,  21.4169940000)


Analysis of symmetry for initial positions (statically):
=====================================================================
 Subroutine PRICEL returns:
 Original cell was already a primitive cell.
 

 Routine SETGRP: Setting up the symmetry group for a 
 simple orthorhombic supercell.


 Subroutine GETGRP returns: Found  8 space group operations
 (whereof  4 operations were pure point group operations)
 out of a pool of  8 trial point group operations.


The static configuration has the point symmetry C_2v.
 The point group associated with its full space group is D_2h.


Analysis of symmetry for dynamics (positions and initial velocities):
=====================================================================
 Subroutine PRICEL returns:
 Original cell was already a primitive cell.
 

 Routine SETGRP: Setting up the symmetry group for a 
 simple orthorhombic supercell.


 Subroutine GETGRP returns: Found  8 space group operations
 (whereof  4 operations were pure point group operations)
 out of a pool of  8 trial point group operations.


The dynamic configuration has the point symmetry C_2v.
 The point group associated with its full space group is D_2h.


Analysis of constrained symmetry for selective dynamics:
=====================================================================
 Subroutine PRICEL returns:
 Original cell was already a primitive cell.
 

 Routine SETGRP: Setting up the symmetry group for a 
 simple orthorhombic supercell.


 Subroutine GETGRP returns: Found  4 space group operations
 (whereof  4 operations were pure point group operations)
 out of a pool of  8 trial point group operations.


The constrained configuration has the point symmetry C_2v.


Analysis of structural, dynamic, and magnetic symmetry:
=====================================================================
 Subroutine PRICEL returns:
 Original cell was already a primitive cell.
 

 Routine SETGRP: Setting up the symmetry group for a 
 simple orthorhombic supercell.


 Subroutine GETGRP returns: Found  4 space group operations
 (whereof  4 operations were pure point group operations)
 out of a pool of  8 trial point group operations.


The overall configuration has the point symmetry C_2v.


 Subroutine INISYM returns: Found  4 space group operations
 (whereof  4 operations are pure point group operations),
 and found     1 'primitive' translations


----------------------------------------------------------------------------------------

                                     Primitive cell                                     

  volume of cell :     199.5523

  direct lattice vectors                    reciprocal lattice vectors
     3.630000114  0.000000000  0.000000000     0.275482085  0.000000000  0.000000000
     0.000000000  2.566797733  0.000000000     0.000000000  0.389590495  0.000000000
     0.000000000  0.000000000 21.416994000     0.000000000  0.000000000  0.046691893

  length of vectors
     3.630000114  2.566797733 21.416994000     0.275482085  0.389590495  0.046691893

  position of ions in fractional coordinates (direct lattice)
     0.000000000  0.000000000  0.000000000
     0.500000000  0.500000000  0.059924323
     0.000000000  0.000000000  0.119848646
     0.500000000  0.500000000  0.179772969
     0.000000000  0.000000000  0.239697292
     0.500000000  0.500000000  0.299621615

  ion indices of the primitive-cell ions
   primitive index   ion index
                 1           1
                 2           2
                 3           3
                 4           4
                 5           5
                 6           6

----------------------------------------------------------------------------------------

 
 
 KPOINTS: Auto-mesh                               

Automatic generation of k-mesh.
 Grid dimensions read from file:
 generate k-points for:    3    3    1

 Generating k-lattice:

  Cartesian coordinates                     Fractional coordinates (reciprocal lattice)
     0.091827362  0.000000000  0.000000000     0.333333333  0.000000000  0.000000000
     0.000000000  0.129863498  0.000000000     0.000000000  0.333333333  0.000000000
     0.000000000  0.000000000  0.046691893     0.000000000  0.000000000  1.000000000

  Length of vectors
     0.091827362  0.129863498  0.046691893

  Shift w.r.t. Gamma in fractional coordinates (k-lattice)
     0.000000000  0.000000000  0.000000000

 
 Subroutine IBZKPT returns following result:
 ===========================================
 
 Found      4 irreducible k-points:
 
 Following reciprocal coordinates:
            Coordinates               Weight
  0.000000  0.000000  0.000000      1.000000
  0.333333  0.000000  0.000000      2.000000
  0.000000  0.333333  0.000000      2.000000
  0.333333  0.333333  0.000000      4.000000
 
 Following cartesian coordinates:
            Coordinates               Weight
  0.000000  0.000000  0.000000      1.000000
  0.091827  0.000000  0.000000      2.000000
  0.000000  0.129863  0.000000      2.000000
  0.091827  0.129863  0.000000      4.000000
 


--------------------------------------------------------------------------------------------------------




 Dimension of arrays:
   k-points           NKPTS =      4   k-points in BZ     NKDIM =      4   number of bands    NBANDS=     44
   number of dos      NEDOS =    301   number of ions     NIONS =      6
   non local maximal  LDIM  =      6   non local SUM 2l+1 LMDIM =     18
   total plane-waves  NPLWV =  27216
   max r-space proj   IRMAX =      1   max aug-charges    IRDMAX=   4150
   dimension x,y,z NGX =    18 NGY =   14 NGZ =  108
   dimension x,y,z NGXF=    36 NGYF=   28 NGZF=  216
   support grid    NGXF=    36 NGYF=   28 NGZF=  216
   ions per type =               6
   NGX,Y,Z   is equivalent  to a cutoff of   8.24,  9.07,  8.38 a.u.
   NGXF,Y,Z  is equivalent  to a cutoff of  16.49, 18.13, 16.77 a.u.

 SYSTEM =  unknown system                          
 POSCAR =  FCC Cu                                  

 Startparameter for this run:
   NWRITE =      2    write-flag & timer
   PREC   = normal    normal or accurate (medium, high low for compatibility)
   ISTART =      0    job   : 0-new  1-cont  2-samecut
   ICHARG =      2    charge: 1-file 2-atom 10-const
   ISPIN  =      2    spin polarized calculation?
   LNONCOLLINEAR =      F non collinear calculations
   LSORBIT =      F    spin-orbit coupling
   INIWAV =      1    electr: 0-lowe 1-rand  2-diag
   LASPH  =      F    aspherical Exc in radial PAW
 Electronic Relaxation 1
   ENCUT  =  400.0 eV  29.40 Ry    5.42 a.u.   5.92  4.19 34.93*2*pi/ulx,y,z
   ENINI  =  400.0     initial cutoff
   ENAUG  =  587.0 eV  augmentation charge cutoff
   NELM   =     60;   NELMIN=  2; NELMDL= -5     # of ELM steps 
   EDIFF  = 0.2E-03   stopping-criterion for ELM
   LREAL  =      F    real-space projection
   NLSPLINE    = F    spline interpolate recip. space projectors
   LCOMPAT=      F    compatible to vasp.4.4
   GGA_COMPAT  = T    GGA compatible to vasp.4.4-vasp.4.6
   LMAXPAW     = -100 max onsite density
   LMAXMIX     =    2 max onsite mixed and CHGCAR
   VOSKOWN=      0    Vosko Wilk Nusair interpolation
   ROPT   =    0.00000
 Ionic relaxation
   EDIFFG = -.3E-01   stopping-criterion for IOM
   NSW    =    800    number of steps for IOM
   NBLOCK =      1;   KBLOCK =    800    inner block; outer block 
   IBRION =      2    ionic relax: 0-MD 1-quasi-New 2-CG
   NFREE  =      1    steps in history (QN), initial steepest desc. (CG)
   ISIF   =      2    stress and relaxation
   IWAVPR =     11    prediction:  0-non 1-charg 2-wave 3-comb
   ISYM   =      1    0-nonsym 1-usesym 2-fastsym
   LCORR  =      T    Harris-Foulkes like correction to forces

   POTIM  = 0.5000    time-step for ionic-motion
   TEIN   =    0.0    initial temperature
   TEBEG  =    0.0;   TEEND  =   0.0 temperature during run
   SMASS  =  -3.00    Nose mass-parameter (am)
   estimated Nose-frequenzy (Omega)   =  0.10E-29 period in steps = 0.13E+47 mass=  -0.301E-27a.u.
   SCALEE = 1.0000    scale energy and forces
   NPACO  =    256;   APACO  = 10.0  distance and # of slots for P.C.
   PSTRESS=    0.0 pullay stress

  Mass of Ions in am
   POMASS =  63.55
  Ionic Valenz
   ZVAL   =  11.00
  Atomic Wigner-Seitz radii
   RWIGS  =  -1.00
  virtual crystal weights 
   VCA    =   1.00
   NELECT =      66.0000    total number of electrons
   NUPDOWN=      -1.0000    fix difference up-down

 DOS related values:
   EMIN   =  10.00;   EMAX   =-10.00  energy-range for DOS
   EFERMI =   0.00
   ISMEAR =     1;   SIGMA  =   0.20  broadening in eV -4-tet -1-fermi 0-gaus

 Electronic relaxation 2 (details)
   IALGO  =     38    algorithm
   LDIAG  =      T    sub-space diagonalisation (order eigenvalues)
   LSUBROT=      F    optimize rotation matrix (better conditioning)
   TURBO    =      0    0=normal 1=particle mesh
   IRESTART =      0    0=no restart 2=restart with 2 vectors
   NREBOOT  =      0    no. of reboots
   NMIN     =      0    reboot dimension
   EREF     =   0.00    reference energy to select bands
   IMIX   =      4    mixing-type and parameters
     AMIX     =   0.40;   BMIX     =  1.00
     AMIX_MAG =   1.60;   BMIX_MAG =  1.00
     AMIN     =   0.10
     WC   =   100.;   INIMIX=   1;  MIXPRE=   1;  MAXMIX= -45

 Intra band minimization:
   WEIMIN = 0.0010     energy-eigenvalue tresh-hold
   EBREAK =  0.11E-05  absolut break condition
   DEPER  =   0.30     relativ break condition  

   TIME   =   0.40     timestep for ELM

  volume/ion in A,a.u.               =      33.26       224.44
  Fermi-wavevector in a.u.,A,eV,Ry     =   1.132150  2.139453 17.439445  1.281763
  Thomas-Fermi vector in A             =   2.268850
 
 Write flags
   LWAVE        =      F    write WAVECAR
   LDOWNSAMPLE  =      F    k-point downsampling of WAVECAR
   LCHARG       =      F    write CHGCAR
   LVTOT        =      F    write LOCPOT, total local potential
   LVHAR        =      F    write LOCPOT, Hartree potential only
   LELF         =      F    write electronic localiz. function (ELF)
   LORBIT       =      0    0 simple, 1 ext, 2 COOP (PROOUT), +10 PAW based schemes


 Dipole corrections
   LMONO  =      F    monopole corrections only (constant potential shift)
   LDIPOL =      F    correct potential (dipole corrections)
   IDIPOL =      3    1-x, 2-y, 3-z, 4-all directions 
   EPSILON=  1.0000000 bulk dielectric constant

 Exchange correlation treatment:
   GGA     =    PE    GGA type
   LEXCH   =     8    internal setting for exchange type
   LIBXC   =     F    Libxc                    
   VOSKOWN =     0    Vosko Wilk Nusair interpolation
   LHFCALC =     F    Hartree Fock is set to
   LHFONE  =     F    Hartree Fock one center treatment
   AEXX    =    0.0000 exact exchange contribution

 Linear response parameters
   LEPSILON=     F    determine dielectric tensor
   LRPA    =     F    only Hartree local field effects (RPA)
   LNABLA  =     F    use nabla operator in PAW spheres
   LVEL    =     F    velocity operator in full k-point grid
   CSHIFT  =0.1000    complex shift for real part using Kramers Kronig
   OMEGAMAX=  -1.0    maximum frequency
   DEG_THRESHOLD= 0.2000000E-02 threshold for treating states as degnerate
   RTIME   =   -0.100 relaxation time in fs
  (WPLASMAI=    0.000 imaginary part of plasma frequency in eV, 0.658/RTIME)
   DFIELD  = 0.0000000 0.0000000 0.0000000 field for delta impulse in time
 
  Optional k-point grid parameters
   LKPOINTS_OPT  =     F    use optional k-point grid
   KPOINTS_OPT_MODE=     1    mode for optional k-point grid
 
 Orbital magnetization related:
   ORBITALMAG=     F  switch on orbital magnetization
   LCHIMAG   =     F  perturbation theory with respect to B field
   DQ        =  0.001000  dq finite difference perturbation B field
   LLRAUG    =     F  two centre corrections for induced B field



--------------------------------------------------------------------------------------------------------


 conjugate gradient relaxation of ions
   using selective dynamics as specified on POSCAR
   WARNING: If single coordinates had been selected the selection of coordinates
            is made according to the corresponding   d i r e c t   coordinates!
            Don't support selection of single cartesian coordinates -- sorry ...
  !
 charge density and potential will be updated during run
 spin polarized calculation
 Variant of blocked Davidson
 Davidson routine will perform the subspace rotation
 perform sub-space diagonalisation
    after iterative eigenvector-optimisation
 modified Broyden-mixing scheme, WC =      100.0
 initial mixing is a Kerker type mixing with AMIX =  0.4000 and BMIX =      1.0000
 Hartree-type preconditioning will be used
 using additional bands           11
 reciprocal scheme for non local part
 use partial core corrections
 calculate Harris-corrections to forces 
   (improved forces if not selfconsistent)
 use gradient corrections 
 use of overlap-Matrix (Vanderbilt PP)
 Methfessel and Paxton  Order N= 1 SIGMA  =   0.20


--------------------------------------------------------------------------------------------------------


  energy-cutoff  :      400.00
  volume of cell :      199.55
      direct lattice vectors                 reciprocal lattice vectors
     3.630000114  0.000000000  0.000000000     0.275482085  0.000000000  0.000000000
     0.000000000  2.566797733  0.000000000     0.000000000  0.389590495  0.000000000
     0.000000000  0.000000000 21.416994000     0.000000000  0.000000000  0.046691893

  length of vectors
     3.630000114  2.566797733 21.416994000     0.275482085  0.389590495  0.046691893


 
 k-points in units of 2pi/SCALE and weight: Auto-mesh                               
   0.00000000  0.00000000  0.00000000       0.111
   0.09182736  0.00000000  0.00000000       0.222
   0.00000000  0.12986350  0.00000000       0.222
   0.09182736  0.12986350  0.00000000       0.444
 
 k-points in reciprocal lattice and weights: Auto-mesh                               
   0.00000000  0.00000000  0.00000000       0.111
   0.33333333  0.00000000  0.00000000       0.222
   0.00000000  0.33333333  0.00000000       0.222
   0.33333333  0.33333333  0.00000000       0.444
 
 position of ions in fractional coordinates (direct lattice) 
   0.00000000  0.00000000  0.00000000
   0.50000000  0.50000000  0.05992432
   0.00000000  0.00000000  0.11984865
   0.50000000  0.50000000  0.17977297
   0.00000000  0.00000000  0.23969729
   0.50000000  0.50000000  0.29962162
 
 position of ions in cartesian coordinates  (Angst):
   0.00000000  0.00000000  0.00000000
   1.81500006  1.28339887  1.28339887
   0.00000000  0.00000000  2.56679773
   1.81500006  1.28339887  3.85019660
   0.00000000  0.00000000  5.13359547
   1.81500006  1.28339887  6.41699433
 


--------------------------------------------------------------------------------------------------------


 k-point   1 :   0.0000 0.0000 0.0000  plane waves:    3619
 k-point   2 :   0.3333 0.0000 0.0000  plane waves:    3640
 k-point   3 :   0.0000 0.3333 0.0000  plane waves:    3598
 k-point   4 :   0.3333 0.3333 0.0000  plane waves:    3646

 maximum and minimum number of plane-waves per node :       750      698

 maximum number of plane-waves:      3646
 maximum index in each direction: 
   IXMAX=    5   IYMAX=    4   IZMAX=   34
   IXMIN=   -6   IYMIN=   -4   IZMIN=  -34


 parallel 3D FFT for wavefunctions:
    minimum data exchange during FFTs selected (reduces bandwidth)
 parallel 3D FFT for charge:
    minimum data exchange during FFTs selected (reduces bandwidth)


 total amount of memory used by VASP MPI-rank0    33578. kBytes
=======================================================================

   base      :      30000. kBytes
   nonl-proj :        491. kBytes
   fftplans  :        582. kBytes
   grid      :       1362. kBytes
   one-center:         62. kBytes
   wavefun   :       1081. kBytes
 
     INWAV:  cpu time      0.0000: real time      0.0004
 Broyden mixing: mesh for mixing (old mesh)
   NGX = 11   NGY =  9   NGZ = 69
  (NGX  = 36   NGY  = 28   NGZ  =216)
  gives a total of   6831 points

 initial charge density was supplied:
 charge density of overlapping atoms calculated
 number of electron      66.0000000 magnetization       6.0000000
 keeping initial charge density in first step


--------------------------------------------------------------------------------------------------------


 Maximum index for augmentation-charges          309 (set IRDMAX)


--------------------------------------------------------------------------------------------------------


 First call to EWALD:  gamma=   0.303
 Maximum number of real-space cells 4x 6x 1
 Maximum number of reciprocal cells 2x 1x 9

    FEWALD:  cpu time      0.0018: real time      0.0018


--------------------------------------- Iteration      1(   1)  ---------------------------------------


    POTLOK:  cpu time      0.0175: real time      0.0418
    SETDIJ:  cpu time      0.0061: real time      0.0062
     EDDAV:  cpu time      0.1978: real time      0.1996
       DOS:  cpu time      0.0012: real time      0.0012
    --------------------------------------------
      LOOP:  cpu time      0.2226: real time      0.2488

 eigenvalue-minimisations  :   704
 total energy-change (2. order) : 0.5341881E+03  (-0.2466603E+04)
 number of electron      66.0000000 magnetization       6.0000000
 augmentation part       66.0000000 magnetization       6.0000000

 Free energy of the ion-electron system (eV)
  ---------------------------------------------------
  alpha Z        PSCENC =       131.93436261
  Ewald energy   TEWEN  =     24965.97507473
  -Hartree energ DENC   =    -32970.99453386
  -exchange      EXHF   =         0.00000000
  -V(xc)+E(xc)   XCENC  =       273.33790841
  PAW double counting   =      7368.58497629    -8003.52558915
  entropy T*S    EENTRO =        -0.00109605
  eigenvalues    EBANDS =       423.13119340
  atomic energy  EATOM  =      8345.74584120
  Solvation  Ediel_sol  =         0.00000000
  ---------------------------------------------------
  free energy    TOTEN  =       534.18813758 eV

  energy without entropy =      534.18923364  energy(sigma->0) =      534.18850293


--------------------------------------------------------------------------------------------------------




--------------------------------------- Iteration      1(   2)  ---------------------------------------


     EDDAV:  cpu time      0.1907: real time      0.1932
       DOS:  cpu time      0.0008: real time      0.0008
    --------------------------------------------
      LOOP:  cpu time      0.1915: real time      0.1940

 eigenvalue-minimisations  :   704
 total energy-change (2. order) :-0.5101811E+03  (-0.4883606E+03)
 number of electron      66.0000000 magnetization       6.0000000
 augmentation part       66.0000000 magnetization       6.0000000

 Free energy of the ion-electron system (eV)
  ---------------------------------------------------
  alpha Z        PSCENC =       131.93436261
  Ewald energy   TEWEN  =     24965.97507473
  -Hartree energ DENC   =    -32970.99453386
  -exchange      EXHF   =         0.00000000
  -V(xc)+E(xc)   XCENC  =       273.33790841
  PAW double counting   =      7368.58497629    -8003.52558915
  entropy T*S    EENTRO =        -0.01826282
  eigenvalues    EBANDS =       -87.03270247
  atomic energy  EATOM  =      8345.74584120
  Solvation  Ediel_sol  =         0.00000000
  ---------------------------------------------------
  free energy    TOTEN  =        24.00707494 eV

  energy without entropy =       24.02533776  energy(sigma->0) =       24.01316255


--------------------------------------------------------------------------------------------------------




--------------------------------------- Iteration      1(   3)  ---------------------------------------


     EDDAV:  cpu time      0.1964: real time      0.1981
       DOS:  cpu time      0.0008: real time      0.0009
    --------------------------------------------
      LOOP:  cpu time      0.1972: real time      0.1989

 eigenvalue-minimisations  :   752
 total energy-change (2. order) :-0.4697835E+02  (-0.4364749E+02)
 number of electron      66.0000000 magnetization       6.0000000
 augmentation part       66.0000000 magnetization       6.0000000

 Free energy of the ion-electron system (eV)
  ---------------------------------------------------
  alpha Z        PSCENC =       131.93436261
  Ewald energy   TEWEN  =     24965.97507473
  -Hartree energ DENC   =    -32970.99453386
  -exchange      EXHF   =         0.00000000
  -V(xc)+E(xc)   XCENC  =       273.33790841
  PAW double counting   =      7368.58497629    -8003.52558915
  entropy T*S    EENTRO =         0.01749659
  eigenvalues    EBANDS =      -134.04680824
  atomic energy  EATOM  =      8345.74584120
  Solvation  Ediel_sol  =         0.00000000
  ---------------------------------------------------
  free energy    TOTEN  =       -22.97127141 eV

  energy without entropy =      -22.98876800  energy(sigma->0) =      -22.97710361


--------------------------------------------------------------------------------------------------------




--------------------------------------- Iteration      1(   4)  ---------------------------------------


     EDDAV:  cpu time      0.2049: real time      0.2066
       DOS:  cpu time      0.0008: real time      0.0008
    --------------------------------------------
      LOOP:  cpu time      0.2057: real time      0.2075

 eigenvalue-minimisations  :   800
 total energy-change (2. order) :-0.1597716E+01  (-0.1590545E+01)
 number of electron      66.0000000 magnetization       6.0000000
 augmentation part       66.0000000 magnetization       6.0000000

 Free energy of the ion-electron system (eV)
  ---------------------------------------------------
  alpha Z        PSCENC =       131.93436261
  Ewald energy   TEWEN  =     24965.97507473
  -Hartree energ DENC   =    -32970.99453386
  -exchange      EXHF   =         0.00000000
  -V(xc)+E(xc)   XCENC  =       273.33790841
  PAW double counting   =      7368.58497629    -8003.52558915
  entropy T*S    EENTRO =         0.01828408
  eigenvalues    EBANDS =      -135.64531185
  atomic energy  EATOM  =      8345.74584120
  Solvation  Ediel_sol  =         0.00000000
  ---------------------------------------------------
  free energy    TOTEN  =       -24.56898754 eV

  energy without entropy =      -24.58727162  energy(sigma->0) =      -24.57508223


--------------------------------------------------------------------------------------------------------




--------------------------------------- Iteration      1(   5)  ---------------------------------------


     EDDAV:  cpu time      0.2076: real time      0.2094
       DOS:  cpu time      0.0008: real time      0.0008
    CHARGE:  cpu time      0.0479: real time      0.0481
    MIXING:  cpu time      0.0005: real time      0.0005
    --------------------------------------------
      LOOP:  cpu time      0.2568: real time      0.2588

 eigenvalue-minimisations  :   816
 total energy-change (2. order) :-0.3572150E-01  (-0.3570925E-01)
 number of electron      66.0000565 magnetization       5.3227819
 augmentation part       39.2695208 magnetization       5.3677838

 Broyden mixing:
  rms(total) = 0.22649E+01    rms(broyden)= 0.22647E+01
  rms(prec ) = 0.23515E+01
  weight for this iteration     100.00

 Free energy of the ion-electron system (eV)
  ---------------------------------------------------
  alpha Z        PSCENC =       131.93436261
  Ewald energy   TEWEN  =     24965.97507473
  -Hartree energ DENC   =    -32970.99453386
  -exchange      EXHF   =         0.00000000
  -V(xc)+E(xc)   XCENC  =       273.33790841
  PAW double counting   =      7368.58497629    -8003.52558915
  entropy T*S    EENTRO =         0.01825630
  eigenvalues    EBANDS =      -135.68100558
  atomic energy  EATOM  =      8345.74584120
  Solvation  Ediel_sol  =         0.00000000
  ---------------------------------------------------
  free energy    TOTEN  =       -24.60470904 eV

  energy without entropy =      -24.62296534  energy(sigma->0) =      -24.61079448


--------------------------------------------------------------------------------------------------------




--------------------------------------- Iteration      1(   6)  ---------------------------------------


    POTLOK:  cpu time      0.0155: real time      0.0157
    SETDIJ:  cpu time      0.0062: real time      0.0062
     EDDAV:  cpu time      0.2056: real time      0.2072
       DOS:  cpu time      0.0010: real time      0.0010
    CHARGE:  cpu time      0.0444: real time      0.0446
    MIXING:  cpu time      0.0006: real time      0.0006
    --------------------------------------------
      LOOP:  cpu time      0.2732: real time      0.2753

 eigenvalue-minimisations  :   752
 total energy-change (2. order) : 0.5562827E+01  (-0.5844128E+01)
 number of electron      66.0000628 magnetization       4.9133071
 augmentation part       43.9493428 magnetization       3.5920715

 Broyden mixing:
  rms(total) = 0.11242E+01    rms(broyden)= 0.11239E+01
  rms(prec ) = 0.11921E+01
  weight for this iteration     100.00

 eigenvalues of (default mixing * dielectric matrix)
  average eigenvalue GAMMA=   0.7962
  0.7962

 Free energy of the ion-electron system (eV)
  ---------------------------------------------------
  alpha Z        PSCENC =       131.93436261
  Ewald energy   TEWEN  =     24965.97507473
  -Hartree energ DENC   =    -32813.49302908
  -exchange      EXHF   =         0.00000000
  -V(xc)+E(xc)   XCENC  =       267.53098683
  PAW double counting   =      7434.06485050    -8037.59320049
  entropy T*S    EENTRO =        -0.00843990
  eigenvalues    EBANDS =      -313.19832811
  atomic energy  EATOM  =      8345.74584120
  Solvation  Ediel_sol  =         0.00000000
  ---------------------------------------------------
  free energy    TOTEN  =       -19.04188173 eV

  energy without entropy =      -19.03344183  energy(sigma->0) =      -19.03906843


--------------------------------------------------------------------------------------------------------




--------------------------------------- Iteration      1(   7)  ---------------------------------------


    POTLOK:  cpu time      0.0153: real time      0.0158
    SETDIJ:  cpu time      0.0056: real time      0.0057
     EDDAV:  cpu time      0.2034: real time      0.2050
       DOS:  cpu time      0.0008: real time      0.0008
    CHARGE:  cpu time      0.0418: real time      0.0419
    MIXING:  cpu time      0.0006: real time      0.0006
    --------------------------------------------
      LOOP:  cpu time      0.2675: real time      0.2699

 eigenvalue-minimisations  :   780
 total energy-change (2. order) : 0.2487496E+01  (-0.1664459E+01)
 number of electron      66.0000607 magnetization       4.4948205
 augmentation part       42.3538979 magnetization       3.1299161

 Broyden mixing:
  rms(total) = 0.57903E+00    rms(broyden)= 0.57892E+00
  rms(prec ) = 0.59360E+00
  weight for this iteration     100.00

 eigenvalues of (default mixing * dielectric matrix)
  average eigenvalue GAMMA=   0.7862
  0.9750  0.5975

 Free energy of the ion-electron system (eV)
  ---------------------------------------------------
  alpha Z        PSCENC =       131.93436261
  Ewald energy   TEWEN  =     24965.97507473
  -Hartree energ DENC   =    -32896.79952730
  -exchange      EXHF   =         0.00000000
  -V(xc)+E(xc)   XCENC  =       270.73233923
  PAW double counting   =      7587.94341854    -8219.97779599
  entropy T*S    EENTRO =         0.00337418
  eigenvalues    EBANDS =      -202.11147290
  atomic energy  EATOM  =      8345.74584120
  Solvation  Ediel_sol  =         0.00000000
  ---------------------------------------------------
  free energy    TOTEN  =       -16.55438571 eV

  energy without entropy =      -16.55775989  energy(sigma->0) =      -16.55551044


--------------------------------------------------------------------------------------------------------




--------------------------------------- Iteration      1(   8)  ---------------------------------------


    POTLOK:  cpu time      0.0148: real time      0.0150
    SETDIJ:  cpu time      0.0054: real time      0.0054
     EDDAV:  cpu time      0.2213: real time      0.2231
       DOS:  cpu time      0.0008: real time      0.0008
    CHARGE:  cpu time      0.0431: real time      0.0438
    MIXING:  cpu time      0.0006: real time      0.0006
    --------------------------------------------
      LOOP:  cpu time      0.2861: real time      0.2888

 eigenvalue-minimisations  :   884
 total energy-change (2. order) : 0.8257256E+00  (-0.2449394E+00)
 number of electron      66.0000604 magnetization       3.7980713
 augmentation part       42.1832506 magnetization       2.3965743

 Broyden mixing:
  rms(total) = 0.46249E+00    rms(broyden)= 0.46248E+00
  rms(prec ) = 0.47637E+00
  weight for this iteration     100.00

 eigenvalues of (default mixing * dielectric matrix)
  average eigenvalue GAMMA=   0.7944
  1.1955  0.6380  0.5497

 Free energy of the ion-electron system (eV)
  ---------------------------------------------------
  alpha Z        PSCENC =       131.93436261
  Ewald energy   TEWEN  =     24965.97507473
  -Hartree energ DENC   =    -32908.48578098
  -exchange      EXHF   =         0.00000000
  -V(xc)+E(xc)   XCENC  =       271.35268459
  PAW double counting   =      7673.08200395    -8311.76039470
  entropy T*S    EENTRO =         0.00619171
  eigenvalues    EBANDS =      -183.57864322
  atomic energy  EATOM  =      8345.74584120
  Solvation  Ediel_sol  =         0.00000000
  ---------------------------------------------------
  free energy    TOTEN  =       -15.72866012 eV

  energy without entropy =      -15.73485183  energy(sigma->0) =      -15.73072402


--------------------------------------------------------------------------------------------------------




--------------------------------------- Iteration      1(   9)  ---------------------------------------


    POTLOK:  cpu time      0.0146: real time      0.0148
    SETDIJ:  cpu time      0.0054: real time      0.0054
     EDDAV:  cpu time      0.2462: real time      0.2483
       DOS:  cpu time      0.0008: real time      0.0008
    CHARGE:  cpu time      0.0443: real time      0.0445
    MIXING:  cpu time      0.0006: real time      0.0006
    --------------------------------------------
      LOOP:  cpu time      0.3119: real time      0.3146

 eigenvalue-minimisations  :  1012
 total energy-change (2. order) : 0.6593637E+00  (-0.1411764E+00)
 number of electron      66.0000603 magnetization       2.2519937
 augmentation part       42.0713816 magnetization       0.8412394

 Broyden mixing:
  rms(total) = 0.37788E+00    rms(broyden)= 0.37787E+00
  rms(prec ) = 0.38057E+00
  weight for this iteration     100.00

 eigenvalues of (default mixing * dielectric matrix)
  average eigenvalue GAMMA=   1.3009
  2.7008  1.2977  0.7266  0.4783

 Free energy of the ion-electron system (eV)
  ---------------------------------------------------
  alpha Z        PSCENC =       131.93436261
  Ewald energy   TEWEN  =     24965.97507473
  -Hartree energ DENC   =    -32927.78629474
  -exchange      EXHF   =         0.00000000
  -V(xc)+E(xc)   XCENC  =       271.52593987
  PAW double counting   =      7776.58412584    -8421.53162396
  entropy T*S    EENTRO =         0.00650318
  eigenvalues    EBANDS =      -157.52322510
  atomic energy  EATOM  =      8345.74584120
  Solvation  Ediel_sol  =         0.00000000
  ---------------------------------------------------
  free energy    TOTEN  =       -15.06929638 eV

  energy without entropy =      -15.07579955  energy(sigma->0) =      -15.07146410


--------------------------------------------------------------------------------------------------------




--------------------------------------- Iteration      1(  10)  ---------------------------------------


    POTLOK:  cpu time      0.0145: real time      0.0148
    SETDIJ:  cpu time      0.0053: real time      0.0053
     EDDAV:  cpu time      0.2081: real time      0.2101
       DOS:  cpu time      0.0008: real time      0.0008
    CHARGE:  cpu time      0.0444: real time      0.0447
    MIXING:  cpu time      0.0008: real time      0.0008
    --------------------------------------------
      LOOP:  cpu time      0.2740: real time      0.2765

 eigenvalue-minimisations  :   816
 total energy-change (2. order) :-0.4685424E-01  (-0.1695060E+00)
 number of electron      66.0000609 magnetization       1.5098133
 augmentation part       42.5014731 magnetization       0.3056642

 Broyden mixing:
  rms(total) = 0.27783E+00    rms(broyden)= 0.27781E+00
  rms(prec ) = 0.28702E+00
  weight for this iteration     100.00

 eigenvalues of (default mixing * dielectric matrix)
  average eigenvalue GAMMA=   1.4559
  4.2493  1.2093  0.6797  0.6797  0.4617

 Free energy of the ion-electron system (eV)
  ---------------------------------------------------
  alpha Z        PSCENC =       131.93436261
  Ewald energy   TEWEN  =     24965.97507473
  -Hartree energ DENC   =    -32930.62770632
  -exchange      EXHF   =         0.00000000
  -V(xc)+E(xc)   XCENC  =       270.49572912
  PAW double counting   =      7864.72229495    -8510.34169663
  entropy T*S    EENTRO =         0.00085806
  eigenvalues    EBANDS =      -153.02090832
  atomic energy  EATOM  =      8345.74584120
  Solvation  Ediel_sol  =         0.00000000
  ---------------------------------------------------
  free energy    TOTEN  =       -15.11615061 eV

  energy without entropy =      -15.11700867  energy(sigma->0) =      -15.11643663


--------------------------------------------------------------------------------------------------------




--------------------------------------- Iteration      1(  11)  ---------------------------------------


    POTLOK:  cpu time      0.0144: real time      0.0147
    SETDIJ:  cpu time      0.0054: real time      0.0054
     EDDAV:  cpu time      0.2131: real time      0.2147
       DOS:  cpu time      0.0008: real time      0.0008
    CHARGE:  cpu time      0.0432: real time      0.0434
    MIXING:  cpu time      0.0008: real time      0.0008
    --------------------------------------------
      LOOP:  cpu time      0.2777: real time      0.2799

 eigenvalue-minimisations  :   840
 total energy-change (2. order) :-0.7297467E+00  (-0.6452723E-01)
 number of electron      66.0000606 magnetization       0.9922824
 augmentation part       42.3070345 magnetization       0.0014957

 Broyden mixing:
  rms(total) = 0.19018E+00    rms(broyden)= 0.19014E+00
  rms(prec ) = 0.20105E+00
  weight for this iteration     100.00

 eigenvalues of (default mixing * dielectric matrix)
  average eigenvalue GAMMA=   1.4864
  4.9949  1.0941  0.9203  0.9203  0.4944  0.4944

 Free energy of the ion-electron system (eV)
  ---------------------------------------------------
  alpha Z        PSCENC =       131.93436261
  Ewald energy   TEWEN  =     24965.97507473
  -Hartree energ DENC   =    -32948.28525053
  -exchange      EXHF   =         0.00000000
  -V(xc)+E(xc)   XCENC  =       270.36557012
  PAW double counting   =      7889.59206143    -8538.83300970
  entropy T*S    EENTRO =        -0.00295174
  eigenvalues    EBANDS =      -132.33759540
  atomic energy  EATOM  =      8345.74584120
  Solvation  Ediel_sol  =         0.00000000
  ---------------------------------------------------
  free energy    TOTEN  =       -15.84589729 eV

  energy without entropy =      -15.84294555  energy(sigma->0) =      -15.84491338


--------------------------------------------------------------------------------------------------------




--------------------------------------- Iteration      1(  12)  ---------------------------------------


    POTLOK:  cpu time      0.0152: real time      0.0155
    SETDIJ:  cpu time      0.0053: real time      0.0053
     EDDAV:  cpu time      0.2004: real time      0.2019
       DOS:  cpu time      0.0008: real time      0.0008
    CHARGE:  cpu time      0.0422: real time      0.0426
    MIXING:  cpu time      0.0008: real time      0.0009
    --------------------------------------------
      LOOP:  cpu time      0.2648: real time      0.2670

 eigenvalue-minimisations  :   780
 total energy-change (2. order) :-0.1188568E+01  (-0.8629135E-01)
 number of electron      66.0000602 magnetization       0.6448354
 augmentation part       42.0548422 magnetization      -0.1794640

 Broyden mixing:
  rms(total) = 0.13326E+00    rms(broyden)= 0.13324E+00
  rms(prec ) = 0.14457E+00
  weight for this iteration     100.00

 eigenvalues of (default mixing * dielectric matrix)
  average eigenvalue GAMMA=   1.6586
  6.0777  2.1494  1.0845  0.6871  0.6871  0.4722  0.4522

 Free energy of the ion-electron system (eV)
  ---------------------------------------------------
  alpha Z        PSCENC =       131.93436261
  Ewald energy   TEWEN  =     24965.97507473
  -Hartree energ DENC   =    -32955.95798862
  -exchange      EXHF   =         0.00000000
  -V(xc)+E(xc)   XCENC  =       269.99704963
  PAW double counting   =      7868.98590550    -8519.49432074
  entropy T*S    EENTRO =        -0.00212739
  eigenvalues    EBANDS =      -124.21826245
  atomic energy  EATOM  =      8345.74584120
  Solvation  Ediel_sol  =         0.00000000
  ---------------------------------------------------
  free energy    TOTEN  =       -17.03446554 eV

  energy without entropy =      -17.03233815  energy(sigma->0) =      -17.03375641


--------------------------------------------------------------------------------------------------------




--------------------------------------- Iteration      1(  13)  ---------------------------------------


    POTLOK:  cpu time      0.0146: real time      0.0148
    SETDIJ:  cpu time      0.0055: real time      0.0056
     EDDAV:  cpu time      0.2120: real time      0.2136
       DOS:  cpu time      0.0008: real time      0.0008
    CHARGE:  cpu time      0.0433: real time      0.0435
    MIXING:  cpu time      0.0010: real time      0.0010
    --------------------------------------------
      LOOP:  cpu time      0.2773: real time      0.2794

 eigenvalue-minimisations  :   840
 total energy-change (2. order) :-0.1969745E+01  (-0.1533805E+00)
 number of electron      66.0000602 magnetization       0.6724397
 augmentation part       42.0400325 magnetization       0.0324758

 Broyden mixing:
  rms(total) = 0.10446E+00    rms(broyden)= 0.10444E+00
  rms(prec ) = 0.11330E+00
  weight for this iteration     100.00

 eigenvalues of (default mixing * dielectric matrix)
  average eigenvalue GAMMA=   1.6886
  6.3242  3.0499  0.9120  0.9120  0.8012  0.6256  0.4796  0.4040

 Free energy of the ion-electron system (eV)
  ---------------------------------------------------
  alpha Z        PSCENC =       131.93436261
  Ewald energy   TEWEN  =     24965.97507473
  -Hartree energ DENC   =    -32944.77156538
  -exchange      EXHF   =         0.00000000
  -V(xc)+E(xc)   XCENC  =       268.62437558
  PAW double counting   =      7799.69837901    -8446.27021277
  entropy T*S    EENTRO =        -0.00320481
  eigenvalues    EBANDS =      -139.93726081
  atomic energy  EATOM  =      8345.74584120
  Solvation  Ediel_sol  =         0.00000000
  ---------------------------------------------------
  free energy    TOTEN  =       -19.00421064 eV

  energy without entropy =      -19.00100583  energy(sigma->0) =      -19.00314237


--------------------------------------------------------------------------------------------------------




--------------------------------------- Iteration      1(  14)  ---------------------------------------


    POTLOK:  cpu time      0.0145: real time      0.0147
    SETDIJ:  cpu time      0.0053: real time      0.0053
     EDDAV:  cpu time      0.1997: real time      0.2017
       DOS:  cpu time      0.0008: real time      0.0008
    CHARGE:  cpu time      0.0487: real time      0.0489
    MIXING:  cpu time      0.0011: real time      0.0011
    --------------------------------------------
      LOOP:  cpu time      0.2701: real time      0.2726

 eigenvalue-minimisations  :   776
 total energy-change (2. order) :-0.1100505E+01  (-0.1004993E+00)
 number of electron      66.0000603 magnetization       0.6629024
 augmentation part       42.1869041 magnetization       0.1777673

 Broyden mixing:
  rms(total) = 0.59482E-01    rms(broyden)= 0.59439E-01
  rms(prec ) = 0.67008E-01
  weight for this iteration     100.00

 eigenvalues of (default mixing * dielectric matrix)
  average eigenvalue GAMMA=   1.6726
  6.2555  3.8759  1.0160  1.0160  0.7229  0.7229  0.5770  0.4623  0.4047

 Free energy of the ion-electron system (eV)
  ---------------------------------------------------
  alpha Z        PSCENC =       131.93436261
  Ewald energy   TEWEN  =     24965.97507473
  -Hartree energ DENC   =    -32929.47749782
  -exchange      EXHF   =         0.00000000
  -V(xc)+E(xc)   XCENC  =       267.61284397
  PAW double counting   =      7763.35871511    -8406.22331070
  entropy T*S    EENTRO =        -0.00246431
  eigenvalues    EBANDS =      -159.02828007
  atomic energy  EATOM  =      8345.74584120
  Solvation  Ediel_sol  =         0.00000000
  ---------------------------------------------------
  free energy    TOTEN  =       -20.10471527 eV

  energy without entropy =      -20.10225097  energy(sigma->0) =      -20.10389384


--------------------------------------------------------------------------------------------------------




--------------------------------------- Iteration      1(  15)  ---------------------------------------


    POTLOK:  cpu time      0.0153: real time      0.0156
    SETDIJ:  cpu time      0.0056: real time      0.0056
     EDDAV:  cpu time      0.2205: real time      0.2222
       DOS:  cpu time      0.0008: real time      0.0008
    CHARGE:  cpu time      0.0439: real time      0.0441
    MIXING:  cpu time      0.0011: real time      0.0011
    --------------------------------------------
      LOOP:  cpu time      0.2872: real time      0.2895

 eigenvalue-minimisations  :   876
 total energy-change (2. order) :-0.3871585E+00  (-0.3000538E-01)
 number of electron      66.0000604 magnetization       0.5200792
 augmentation part       42.2451964 magnetization       0.2040451

 Broyden mixing:
  rms(total) = 0.64321E-01    rms(broyden)= 0.64286E-01
  rms(prec ) = 0.68323E-01
  weight for this iteration     100.00

 eigenvalues of (default mixing * dielectric matrix)
  average eigenvalue GAMMA=   1.6703
  6.8581  4.2216  1.2824  0.8544  0.8544  0.7991  0.5794  0.4498  0.4498  0.3534

 Free energy of the ion-electron system (eV)
  ---------------------------------------------------
  alpha Z        PSCENC =       131.93436261
  Ewald energy   TEWEN  =     24965.97507473
  -Hartree energ DENC   =    -32921.25086362
  -exchange      EXHF   =         0.00000000
  -V(xc)+E(xc)   XCENC  =       267.29844377
  PAW double counting   =      7752.26903263    -8394.28990279
  entropy T*S    EENTRO =        -0.00525483
  eigenvalues    EBANDS =      -168.16860745
  atomic energy  EATOM  =      8345.74584120
  Solvation  Ediel_sol  =         0.00000000
  ---------------------------------------------------
  free energy    TOTEN  =       -20.49187375 eV

  energy without entropy =      -20.48661893  energy(sigma->0) =      -20.49012214


--------------------------------------------------------------------------------------------------------




--------------------------------------- Iteration      1(  16)  ---------------------------------------


    POTLOK:  cpu time      0.0147: real time      0.0149
    SETDIJ:  cpu time      0.0055: real time      0.0055
     EDDAV:  cpu time      0.2192: real time      0.2211
       DOS:  cpu time      0.0008: real time      0.0008
    CHARGE:  cpu time      0.0443: real time      0.0445
    MIXING:  cpu time      0.0011: real time      0.0011
    --------------------------------------------
      LOOP:  cpu time      0.2855: real time      0.2880

 eigenvalue-minimisations  :   876
 total energy-change (2. order) :-0.1065616E+00  (-0.1520300E-01)
 number of electron      66.0000604 magnetization       0.3752263
 augmentation part       42.2286176 magnetization       0.1451479

 Broyden mixing:
  rms(total) = 0.37673E-01    rms(broyden)= 0.37658E-01
  rms(prec ) = 0.39653E-01
  weight for this iteration     100.00

 eigenvalues of (default mixing * dielectric matrix)
  average eigenvalue GAMMA=   1.7051
  8.0969  3.5346  1.9281  0.9006  0.9006  0.8174  0.7231  0.6300  0.4709  0.4132
  0.3408

 Free energy of the ion-electron system (eV)
  ---------------------------------------------------
  alpha Z        PSCENC =       131.93436261
  Ewald energy   TEWEN  =     24965.97507473
  -Hartree energ DENC   =    -32915.89263945
  -exchange      EXHF   =         0.00000000
  -V(xc)+E(xc)   XCENC  =       267.29084988
  PAW double counting   =      7754.04354765    -8396.83203721
  entropy T*S    EENTRO =        -0.00744233
  eigenvalues    EBANDS =      -172.85599245
  atomic energy  EATOM  =      8345.74584120
  Solvation  Ediel_sol  =         0.00000000
  ---------------------------------------------------
  free energy    TOTEN  =       -20.59843537 eV

  energy without entropy =      -20.59099305  energy(sigma->0) =      -20.59595460


--------------------------------------------------------------------------------------------------------




--------------------------------------- Iteration      1(  17)  ---------------------------------------


    POTLOK:  cpu time      0.0145: real time      0.0147
    SETDIJ:  cpu time      0.0053: real time      0.0053
     EDDAV:  cpu time      0.2020: real time      0.2039
       DOS:  cpu time      0.0008: real time      0.0008
    CHARGE:  cpu time      0.0437: real time      0.0439
    MIXING:  cpu time      0.0012: real time      0.0012
    --------------------------------------------
      LOOP:  cpu time      0.2676: real time      0.2700

 eigenvalue-minimisations  :   792
 total energy-change (2. order) :-0.1067679E+00  (-0.5400467E-02)
 number of electron      66.0000603 magnetization       0.3180750
 augmentation part       42.1781552 magnetization       0.1107164

 Broyden mixing:
  rms(total) = 0.24785E-01    rms(broyden)= 0.24779E-01
  rms(prec ) = 0.30688E-01
  weight for this iteration     100.00

 eigenvalues of (default mixing * dielectric matrix)
  average eigenvalue GAMMA=   1.7172
  8.6369  3.9065  2.1865  0.9410  0.8647  0.8647  0.7920  0.6074  0.6074  0.4652
  0.4108  0.3236

 Free energy of the ion-electron system (eV)
  ---------------------------------------------------
  alpha Z        PSCENC =       131.93436261
  Ewald energy   TEWEN  =     24965.97507473
  -Hartree energ DENC   =    -32916.97377699
  -exchange      EXHF   =         0.00000000
  -V(xc)+E(xc)   XCENC  =       267.21591771
  PAW double counting   =      7775.89821666    -8420.35556298
  entropy T*S    EENTRO =        -0.00910147
  eigenvalues    EBANDS =      -170.13617479
  atomic energy  EATOM  =      8345.74584120
  Solvation  Ediel_sol  =         0.00000000
  ---------------------------------------------------
  free energy    TOTEN  =       -20.70520332 eV

  energy without entropy =      -20.69610186  energy(sigma->0) =      -20.70216950


--------------------------------------------------------------------------------------------------------




--------------------------------------- Iteration      1(  18)  ---------------------------------------


    POTLOK:  cpu time      0.0146: real time      0.0148
    SETDIJ:  cpu time      0.0053: real time      0.0053
     EDDAV:  cpu time      0.2243: real time      0.2261
       DOS:  cpu time      0.0008: real time      0.0008
    CHARGE:  cpu time      0.0437: real time      0.0439
    MIXING:  cpu time      0.0012: real time      0.0012
    --------------------------------------------
      LOOP:  cpu time      0.2899: real time      0.2921

 eigenvalue-minimisations  :   908
 total energy-change (2. order) :-0.3912820E-01  (-0.1808095E-02)
 number of electron      66.0000603 magnetization       0.2475641
 augmentation part       42.1724426 magnetization       0.1000107

 Broyden mixing:
  rms(total) = 0.18328E-01    rms(broyden)= 0.18321E-01
  rms(prec ) = 0.20755E-01
  weight for this iteration     100.00

 eigenvalues of (default mixing * dielectric matrix)
  average eigenvalue GAMMA=   1.7134
  8.9753  3.7263  2.5207  1.3207  0.8868  0.8868  0.8750  0.6863  0.5983  0.5983
  0.4644  0.4149  0.3202

 Free energy of the ion-electron system (eV)
  ---------------------------------------------------
  alpha Z        PSCENC =       131.93436261
  Ewald energy   TEWEN  =     24965.97507473
  -Hartree energ DENC   =    -32912.55943558
  -exchange      EXHF   =         0.00000000
  -V(xc)+E(xc)   XCENC  =       267.18117210
  PAW double counting   =      7777.08575548    -8421.81628508
  entropy T*S    EENTRO =        -0.01386522
  eigenvalues    EBANDS =      -174.27695176
  atomic energy  EATOM  =      8345.74584120
  Solvation  Ediel_sol  =         0.00000000
  ---------------------------------------------------
  free energy    TOTEN  =       -20.74433153 eV

  energy without entropy =      -20.73046631  energy(sigma->0) =      -20.73970979


--------------------------------------------------------------------------------------------------------




--------------------------------------- Iteration      1(  19)  ---------------------------------------


    POTLOK:  cpu time      0.0146: real time      0.0148
    SETDIJ:  cpu time      0.0053: real time      0.0053
     EDDAV:  cpu time      0.2140: real time      0.2156
       DOS:  cpu time      0.0008: real time      0.0008
    CHARGE:  cpu time      0.0452: real time      0.0456
    MIXING:  cpu time      0.0013: real time      0.0013
    --------------------------------------------
      LOOP:  cpu time      0.2812: real time      0.2835

 eigenvalue-minimisations  :   844
 total energy-change (2. order) :-0.8659108E-01  (-0.8676555E-03)
 number of electron      66.0000604 magnetization       0.1899975
 augmentation part       42.1911564 magnetization       0.0802582

 Broyden mixing:
  rms(total) = 0.14902E-01    rms(broyden)= 0.14898E-01
  rms(prec ) = 0.16721E-01
  weight for this iteration     100.00

 eigenvalues of (default mixing * dielectric matrix)
  average eigenvalue GAMMA=   1.7020
  9.1885  3.2798  3.2798  1.6224  0.9602  0.9602  0.7468  0.7468  0.6320  0.6320
  0.5824  0.4636  0.4129  0.3212

 Free energy of the ion-electron system (eV)
  ---------------------------------------------------
  alpha Z        PSCENC =       131.93436261
  Ewald energy   TEWEN  =     24965.97507473
  -Hartree energ DENC   =    -32908.64574800
  -exchange      EXHF   =         0.00000000
  -V(xc)+E(xc)   XCENC  =       267.05271194
  PAW double counting   =      7779.23703762    -8423.90991160
  entropy T*S    EENTRO =        -0.01573672
  eigenvalues    EBANDS =      -178.20455439
  atomic energy  EATOM  =      8345.74584120
  Solvation  Ediel_sol  =         0.00000000
  ---------------------------------------------------
  free energy    TOTEN  =       -20.83092261 eV

  energy without entropy =      -20.81518589  energy(sigma->0) =      -20.82567704


--------------------------------------------------------------------------------------------------------




--------------------------------------- Iteration      1(  20)  ---------------------------------------


    POTLOK:  cpu time      0.0145: real time      0.0147
    SETDIJ:  cpu time      0.0054: real time      0.0054
     EDDAV:  cpu time      0.2250: real time      0.2268
       DOS:  cpu time      0.0008: real time      0.0008
    CHARGE:  cpu time      0.0453: real time      0.0455
    MIXING:  cpu time      0.0015: real time      0.0015
    --------------------------------------------
      LOOP:  cpu time      0.2925: real time      0.2947

 eigenvalue-minimisations  :   912
 total energy-change (2. order) :-0.6391872E-01  (-0.3547959E-03)
 number of electron      66.0000604 magnetization       0.1194078
 augmentation part       42.2018518 magnetization       0.0334810

 Broyden mixing:
  rms(total) = 0.14343E-01    rms(broyden)= 0.14342E-01
  rms(prec ) = 0.15824E-01
  weight for this iteration     100.00

 eigenvalues of (default mixing * dielectric matrix)
  average eigenvalue GAMMA=   1.7572
  9.5545  3.7358  3.7358  2.0024  1.0722  1.0722  0.8208  0.8208  0.6776  0.6101
  0.6101  0.4674  0.4131  0.4441  0.3217

 Free energy of the ion-electron system (eV)
  ---------------------------------------------------
  alpha Z        PSCENC =       131.93436261
  Ewald energy   TEWEN  =     24965.97507473
  -Hartree energ DENC   =    -32905.93200031
  -exchange      EXHF   =         0.00000000
  -V(xc)+E(xc)   XCENC  =       266.96411843
  PAW double counting   =      7780.88543662    -8425.53802914
  entropy T*S    EENTRO =        -0.01666689
  eigenvalues    EBANDS =      -180.91297858
  atomic energy  EATOM  =      8345.74584120
  Solvation  Ediel_sol  =         0.00000000
  ---------------------------------------------------
  free energy    TOTEN  =       -20.89484133 eV

  energy without entropy =      -20.87817445  energy(sigma->0) =      -20.88928571


--------------------------------------------------------------------------------------------------------




--------------------------------------- Iteration      1(  21)  ---------------------------------------


    POTLOK:  cpu time      0.0145: real time      0.0148
    SETDIJ:  cpu time      0.0053: real time      0.0054
     EDDAV:  cpu time      0.2168: real time      0.2189
       DOS:  cpu time      0.0008: real time      0.0008
    CHARGE:  cpu time      0.0472: real time      0.0475
    MIXING:  cpu time      0.0015: real time      0.0015
    --------------------------------------------
      LOOP:  cpu time      0.2862: real time      0.2888

 eigenvalue-minimisations  :   868
 total energy-change (2. order) :-0.5918272E-01  (-0.3578984E-03)
 number of electron      66.0000604 magnetization       0.0776721
 augmentation part       42.2002944 magnetization       0.0307182

 Broyden mixing:
  rms(total) = 0.95708E-02    rms(broyden)= 0.95667E-02
  rms(prec ) = 0.10174E-01
  weight for this iteration     100.00

 eigenvalues of (default mixing * dielectric matrix)
  average eigenvalue GAMMA=   1.7994
  9.9448  4.1779  4.1779  2.2413  1.2749  0.9871  0.8629  0.8629  0.7916  0.6568
  0.5964  0.5964  0.3217  0.4664  0.4161  0.4161

 Free energy of the ion-electron system (eV)
  ---------------------------------------------------
  alpha Z        PSCENC =       131.93436261
  Ewald energy   TEWEN  =     24965.97507473
  -Hartree energ DENC   =    -32902.54591732
  -exchange      EXHF   =         0.00000000
  -V(xc)+E(xc)   XCENC  =       266.90871263
  PAW double counting   =      7781.10536420    -8425.82370902
  entropy T*S    EENTRO =        -0.01775308
  eigenvalues    EBANDS =      -184.23599999
  atomic energy  EATOM  =      8345.74584120
  Solvation  Ediel_sol  =         0.00000000
  ---------------------------------------------------
  free energy    TOTEN  =       -20.95402405 eV

  energy without entropy =      -20.93627097  energy(sigma->0) =      -20.94810636


--------------------------------------------------------------------------------------------------------




--------------------------------------- Iteration      1(  22)  ---------------------------------------


    POTLOK:  cpu time      0.0144: real time      0.0146
    SETDIJ:  cpu time      0.0053: real time      0.0053
     EDDAV:  cpu time      0.1998: real time      0.2013
       DOS:  cpu time      0.0008: real time      0.0008
    CHARGE:  cpu time      0.0459: real time      0.0461
    MIXING:  cpu time      0.0017: real time      0.0017
    --------------------------------------------
      LOOP:  cpu time      0.2679: real time      0.2699

 eigenvalue-minimisations  :   764
 total energy-change (2. order) :-0.3363824E-01  (-0.1779588E-03)
 number of electron      66.0000604 magnetization       0.0322123
 augmentation part       42.1838787 magnetization      -0.0021481

 Broyden mixing:
  rms(total) = 0.63166E-02    rms(broyden)= 0.63147E-02
  rms(prec ) = 0.68280E-02
  weight for this iteration     100.00

 eigenvalues of (default mixing * dielectric matrix)
  average eigenvalue GAMMA=   1.8061
 10.3589  4.3555  4.3555  2.2482  1.5568  1.0390  1.0390  0.8128  0.8128  0.6384
  0.6384  0.6583  0.5735  0.3217  0.4650  0.4146  0.4146

 Free energy of the ion-electron system (eV)
  ---------------------------------------------------
  alpha Z        PSCENC =       131.93436261
  Ewald energy   TEWEN  =     24965.97507473
  -Hartree energ DENC   =    -32902.17761631
  -exchange      EXHF   =         0.00000000
  -V(xc)+E(xc)   XCENC  =       266.89818751
  PAW double counting   =      7781.29559289    -8426.12591648
  entropy T*S    EENTRO =        -0.01789071
  eigenvalues    EBANDS =      -184.51529773
  atomic energy  EATOM  =      8345.74584120
  Solvation  Ediel_sol  =         0.00000000
  ---------------------------------------------------
  free energy    TOTEN  =       -20.98766230 eV

  energy without entropy =      -20.96977159  energy(sigma->0) =      -20.98169873


--------------------------------------------------------------------------------------------------------




--------------------------------------- Iteration      1(  23)  ---------------------------------------


    POTLOK:  cpu time      0.0150: real time      0.0152
    SETDIJ:  cpu time      0.0053: real time      0.0053
     EDDAV:  cpu time      0.1734: real time      0.1750
       DOS:  cpu time      0.0008: real time      0.0008
    CHARGE:  cpu time      0.0447: real time      0.0449
    MIXING:  cpu time      0.0016: real time      0.0017
    --------------------------------------------
      LOOP:  cpu time      0.2408: real time      0.2429

 eigenvalue-minimisations  :   624
 total energy-change (2. order) :-0.1592714E-01  (-0.1030384E-03)
 number of electron      66.0000604 magnetization       0.0145510
 augmentation part       42.1832607 magnetization       0.0037739

 Broyden mixing:
  rms(total) = 0.51837E-02    rms(broyden)= 0.51809E-02
  rms(prec ) = 0.55498E-02
  weight for this iteration     100.00

 eigenvalues of (default mixing * dielectric matrix)
  average eigenvalue GAMMA=   1.8859
 10.9509  4.8659  4.8659  2.4307  2.1598  1.0664  1.0664  0.8537  0.8537  0.7250
  0.7250  0.6103  0.6103  0.5470  0.3217  0.4647  0.4140  0.4140

 Free energy of the ion-electron system (eV)
  ---------------------------------------------------
  alpha Z        PSCENC =       131.93436261
  Ewald energy   TEWEN  =     24965.97507473
  -Hartree energ DENC   =    -32900.80978355
  -exchange      EXHF   =         0.00000000
  -V(xc)+E(xc)   XCENC  =       266.88395229
  PAW double counting   =      7780.56833708    -8425.37353954
  entropy T*S    EENTRO =        -0.01814046
  eigenvalues    EBANDS =      -185.90969378
  atomic energy  EATOM  =      8345.74584120
  Solvation  Ediel_sol  =         0.00000000
  ---------------------------------------------------
  free energy    TOTEN  =       -21.00358944 eV

  energy without entropy =      -20.98544898  energy(sigma->0) =      -20.99754262


--------------------------------------------------------------------------------------------------------




--------------------------------------- Iteration      1(  24)  ---------------------------------------


    POTLOK:  cpu time      0.0144: real time      0.0147
    SETDIJ:  cpu time      0.0053: real time      0.0053
     EDDAV:  cpu time      0.1574: real time      0.1585
       DOS:  cpu time      0.0008: real time      0.0008
    CHARGE:  cpu time      0.0443: real time      0.0445
    MIXING:  cpu time      0.0017: real time      0.0018
    --------------------------------------------
      LOOP:  cpu time      0.2240: real time      0.2257

 eigenvalue-minimisations  :   532
 total energy-change (2. order) :-0.7058778E-02  (-0.4464546E-04)
 number of electron      66.0000604 magnetization       0.0107386
 augmentation part       42.1893113 magnetization       0.0044852

 Broyden mixing:
  rms(total) = 0.21868E-02    rms(broyden)= 0.21855E-02
  rms(prec ) = 0.24323E-02
  weight for this iteration     100.00

 eigenvalues of (default mixing * dielectric matrix)
  average eigenvalue GAMMA=   1.8757
 11.3157  5.0380  5.0380  2.7310  2.1457  1.1566  0.9355  0.9355  0.8389  0.8389
  0.7235  0.6179  0.6179  0.5880  0.3217  0.5029  0.4640  0.4139  0.4139

 Free energy of the ion-electron system (eV)
  ---------------------------------------------------
  alpha Z        PSCENC =       131.93436261
  Ewald energy   TEWEN  =     24965.97507473
  -Hartree energ DENC   =    -32900.24451354
  -exchange      EXHF   =         0.00000000
  -V(xc)+E(xc)   XCENC  =       266.86654789
  PAW double counting   =      7780.04149186    -8424.72955602
  entropy T*S    EENTRO =        -0.01816450
  eigenvalues    EBANDS =      -186.58173244
  atomic energy  EATOM  =      8345.74584120
  Solvation  Ediel_sol  =         0.00000000
  ---------------------------------------------------
  free energy    TOTEN  =       -21.01064822 eV

  energy without entropy =      -20.99248372  energy(sigma->0) =      -21.00459339


--------------------------------------------------------------------------------------------------------




--------------------------------------- Iteration      1(  25)  ---------------------------------------


    POTLOK:  cpu time      0.0144: real time      0.0149
    SETDIJ:  cpu time      0.0053: real time      0.0053
     EDDAV:  cpu time      0.1483: real time      0.1494
       DOS:  cpu time      0.0008: real time      0.0008
    CHARGE:  cpu time      0.0441: real time      0.0443
    MIXING:  cpu time      0.0019: real time      0.0020
    --------------------------------------------
      LOOP:  cpu time      0.2148: real time      0.2168

 eigenvalue-minimisations  :   480
 total energy-change (2. order) :-0.1919682E-02  (-0.1864548E-04)
 number of electron      66.0000604 magnetization       0.0058345
 augmentation part       42.1915421 magnetization       0.0003075

 Broyden mixing:
  rms(total) = 0.18160E-02    rms(broyden)= 0.18156E-02
  rms(prec ) = 0.20405E-02
  weight for this iteration     100.00

 eigenvalues of (default mixing * dielectric matrix)
  average eigenvalue GAMMA=   1.8632
 11.5839  5.9586  4.2543  3.0387  2.1401  1.1702  1.1702  1.0400  0.8459  0.8459
  0.7024  0.7024  0.6237  0.6237  0.5710  0.4655  0.3217  0.4149  0.4149  0.3770

 Free energy of the ion-electron system (eV)
  ---------------------------------------------------
  alpha Z        PSCENC =       131.93436261
  Ewald energy   TEWEN  =     24965.97507473
  -Hartree energ DENC   =    -32900.00736363
  -exchange      EXHF   =         0.00000000
  -V(xc)+E(xc)   XCENC  =       266.86156317
  PAW double counting   =      7779.92850108    -8424.58498968
  entropy T*S    EENTRO =        -0.01816839
  eigenvalues    EBANDS =      -186.84738899
  atomic energy  EATOM  =      8345.74584120
  Solvation  Ediel_sol  =         0.00000000
  ---------------------------------------------------
  free energy    TOTEN  =       -21.01256790 eV

  energy without entropy =      -20.99439951  energy(sigma->0) =      -21.00651177


--------------------------------------------------------------------------------------------------------




--------------------------------------- Iteration      1(  26)  ---------------------------------------


    POTLOK:  cpu time      0.0185: real time      0.0187
    SETDIJ:  cpu time      0.0058: real time      0.0058
     EDDAV:  cpu time      0.1555: real time      0.1566
       DOS:  cpu time      0.0008: real time      0.0008
    CHARGE:  cpu time      0.0450: real time      0.0452
    MIXING:  cpu time      0.0022: real time      0.0022
    --------------------------------------------
      LOOP:  cpu time      0.2279: real time      0.2295

 eigenvalue-minimisations  :   508
 total energy-change (2. order) :-0.1278579E-02  (-0.1801958E-04)
 number of electron      66.0000604 magnetization       0.0059930
 augmentation part       42.1914418 magnetization       0.0032661

 Broyden mixing:
  rms(total) = 0.11871E-02    rms(broyden)= 0.11869E-02
  rms(prec ) = 0.14356E-02
  weight for this iteration     100.00

 eigenvalues of (default mixing * dielectric matrix)
  average eigenvalue GAMMA=   1.8614
 11.6553  6.3019  3.9088  3.4751  2.2352  1.7171  1.0037  1.0037  0.8436  0.8436
  0.8788  0.8788  0.6166  0.6166  0.6177  0.5281  0.4641  0.4149  0.4149  0.3217
  0.3488

 Free energy of the ion-electron system (eV)
  ---------------------------------------------------
  alpha Z        PSCENC =       131.93436261
  Ewald energy   TEWEN  =     24965.97507473
  -Hartree energ DENC   =    -32899.75538600
  -exchange      EXHF   =         0.00000000
  -V(xc)+E(xc)   XCENC  =       266.86145176
  PAW double counting   =      7779.94419044    -8424.61384802
  entropy T*S    EENTRO =        -0.01817389
  eigenvalues    EBANDS =      -187.08735930
  atomic energy  EATOM  =      8345.74584120
  Solvation  Ediel_sol  =         0.00000000
  ---------------------------------------------------
  free energy    TOTEN  =       -21.01384648 eV

  energy without entropy =      -20.99567258  energy(sigma->0) =      -21.00778851


--------------------------------------------------------------------------------------------------------




--------------------------------------- Iteration      1(  27)  ---------------------------------------


    POTLOK:  cpu time      0.0149: real time      0.0151
    SETDIJ:  cpu time      0.0054: real time      0.0054
     EDDAV:  cpu time      0.1526: real time      0.1538
       DOS:  cpu time      0.0008: real time      0.0008
    CHARGE:  cpu time      0.0438: real time      0.0442
    MIXING:  cpu time      0.0021: real time      0.0021
    --------------------------------------------
      LOOP:  cpu time      0.2196: real time      0.2214

 eigenvalue-minimisations  :   500
 total energy-change (2. order) :-0.5823661E-03  (-0.8516067E-05)
 number of electron      66.0000604 magnetization       0.0032402
 augmentation part       42.1895729 magnetization       0.0003085

 Broyden mixing:
  rms(total) = 0.59255E-03    rms(broyden)= 0.59208E-03
  rms(prec ) = 0.72835E-03
  weight for this iteration     100.00

 eigenvalues of (default mixing * dielectric matrix)
  average eigenvalue GAMMA=   1.8564
 11.7501  6.4574  3.7583  3.7583  2.5698  1.8414  1.1053  1.1053  0.9576  0.8420
  0.8420  0.7653  0.7653  0.6111  0.6111  0.6081  0.5314  0.4640  0.4148  0.4148
  0.3217  0.3458

 Free energy of the ion-electron system (eV)
  ---------------------------------------------------
  alpha Z        PSCENC =       131.93436261
  Ewald energy   TEWEN  =     24965.97507473
  -Hartree energ DENC   =    -32899.81111658
  -exchange      EXHF   =         0.00000000
  -V(xc)+E(xc)   XCENC  =       266.86347550
  PAW double counting   =      7780.03215541    -8424.72768662
  entropy T*S    EENTRO =        -0.01816227
  eigenvalues    EBANDS =      -187.00837283
  atomic energy  EATOM  =      8345.74584120
  Solvation  Ediel_sol  =         0.00000000
  ---------------------------------------------------
[...]
      4      -5.0112      1.00000
      5      -4.4529      1.00000
      6      -4.3332      1.00000
      7      -3.9054      1.00000
      8      -3.4050      1.00000
      9      -3.2962      1.00000
     10      -3.1730      1.00000
     11      -3.0902      1.00000
     12      -3.0370      1.00000
     13      -2.9913      1.00000
     14      -2.9343      1.00000
     15      -2.8420      1.00000
     16      -2.7382      1.00000
     17      -2.7089      1.00000
     18      -2.6286      1.00000
     19      -2.5219      1.00000
     20      -2.3863      1.00000
     21      -2.2272      1.00000
     22      -2.2238      1.00000
     23      -2.1006      1.00000
     24      -2.0539      1.00000
     25      -2.0266      1.00000
     26      -1.9998      1.00000
     27      -1.9622      1.00000
     28      -1.8417      1.00000
     29      -1.5425      1.00000
     30      -1.5376      1.00000
     31      -1.5228      1.00000
     32      -1.4824      1.00000
     33      -1.4334      1.00000
     34      -1.2053      1.00000
     35      -0.0323      0.44094
     36       0.0844      0.05750
     37       1.7793     -0.00000
     38       2.1239     -0.00000
     39       4.9554     -0.00000
     40       5.1209     -0.00000
     41       5.7207      0.00000
     42       6.7312      0.00000
     43       6.8861      0.00000
     44       7.3107      0.00000

 k-point     3 :       0.0000    0.3333    0.0000
  band No.  band energies     occupation 
      1      -6.4685      1.00000
      2      -5.3587      1.00000
      3      -4.6334      1.00000
      4      -4.2200      1.00000
      5      -4.1887      1.00000
      6      -4.1186      1.00000
      7      -3.7888      1.00000
      8      -3.7309      1.00000
      9      -3.6684      1.00000
     10      -3.6445      1.00000
     11      -3.5638      1.00000
     12      -3.0913      1.00000
     13      -2.9615      1.00000
     14      -2.9388      1.00000
     15      -2.8389      1.00000
     16      -2.5516      1.00000
     17      -2.3215      1.00000
     18      -2.3187      1.00000
     19      -2.2382      1.00000
     20      -2.2183      1.00000
     21      -2.1059      1.00000
     22      -1.9874      1.00000
     23      -1.9627      1.00000
     24      -1.9346      1.00000
     25      -1.8198      1.00000
     26      -1.7115      1.00000
     27      -1.6743      1.00000
     28      -1.6078      1.00000
     29      -1.6051      1.00000
     30      -1.5723      1.00000
     31      -1.5303      1.00000
     32      -1.4941      1.00000
     33      -0.9050      1.00000
     34       1.3864     -0.00000
     35       3.4795     -0.00000
     36       3.5396     -0.00000
     37       5.2605     -0.00000
     38       5.7353      0.00000
     39       6.2800      0.00000
     40       6.7160      0.00000
     41       7.2417      0.00000
     42       7.8130      0.00000
     43       8.0837      0.00000
     44       8.4966      0.00000

 k-point     4 :       0.3333    0.3333    0.0000
  band No.  band energies     occupation 
      1      -5.6343      1.00000
      2      -4.6272      1.00000
      3      -4.4154      1.00000
      4      -4.1364      1.00000
      5      -4.0138      1.00000
      6      -3.9748      1.00000
      7      -3.7248      1.00000
      8      -3.6359      1.00000
      9      -3.4225      1.00000
     10      -3.3173      1.00000
     11      -3.2879      1.00000
     12      -3.1970      1.00000
     13      -3.0313      1.00000
     14      -2.9477      1.00000
     15      -2.8606      1.00000
     16      -2.8490      1.00000
     17      -2.8200      1.00000
     18      -2.6723      1.00000
     19      -2.4055      1.00000
     20      -2.3113      1.00000
     21      -2.1778      1.00000
     22      -2.1450      1.00000
     23      -2.1109      1.00000
     24      -2.0335      1.00000
     25      -1.8876      1.00000
     26      -1.8426      1.00000
     27      -1.7361      1.00000
     28      -1.6783      1.00000
     29      -1.6264      1.00000
     30      -1.6159      1.00000
     31      -1.5948      1.00000
     32      -0.8664      1.00000
     33       0.6749     -0.00000
     34       0.9071     -0.00000
     35       2.4241     -0.00000
     36       2.8983     -0.00000
     37       4.4364     -0.00000
     38       4.9182     -0.00000
     39       5.2899     -0.00000
     40       6.5867      0.00000
     41       7.1183      0.00000
     42       7.2814      0.00000
     43       8.0457      0.00000
     44       8.4031      0.00000


--------------------------------------------------------------------------------------------------------


 soft charge-density along one line, spin component           1
         0         1         2         3         4         5         6         7         8         9
 total charge-density along one line
 
 soft charge-density along one line, spin component           2
         0         1         2         3         4         5         6         7         8         9
 total charge-density along one line
 
 pseudopotential strength for first ion, spin component:           1
 -8.004  -0.000  -0.000   0.000   0.000  -0.878   0.000   0.000
 -0.000  -7.987   0.000   0.000  -0.000   0.000  -0.892  -0.000
 -0.000   0.000  -7.999  -0.000  -0.000   0.000  -0.000  -0.885
  0.000   0.000  -0.000  -7.997  -0.000  -0.000  -0.000   0.000
  0.000  -0.000  -0.000  -0.000  -8.002  -0.000   0.000   0.001
 -0.878   0.000   0.000  -0.000  -0.000   7.613  -0.000  -0.000
  0.000  -0.892  -0.000  -0.000   0.000  -0.000   7.625   0.000
  0.000  -0.000  -0.885   0.000   0.001  -0.000   0.000   7.621
 -0.000  -0.000   0.000  -0.886   0.000   0.000   0.000  -0.000
 -0.000   0.000   0.001   0.000  -0.879   0.000  -0.000  -0.002
 -0.000  -0.000  -0.004   0.000  -0.001  -0.000  -0.000   0.004
 -0.000  -0.000  -0.007   0.000  -0.002  -0.000  -0.000   0.008
  0.000  -0.019   0.000  -0.000   0.000  -0.000   0.014  -0.000
 -0.000  -0.000  -0.020   0.000   0.001  -0.000   0.000   0.013
 -0.000  -0.000  -0.000  -0.017   0.000  -0.000  -0.000   0.000
  0.000  -0.022   0.000   0.000   0.000   0.000   0.015  -0.000
  0.000  -0.000  -0.022   0.000   0.001  -0.000  -0.000   0.014
 -0.000   0.000  -0.000  -0.019   0.000  -0.000  -0.000  -0.000
 pseudopotential strength for first ion, spin component:           2
 -8.004  -0.000  -0.000   0.000   0.000  -0.878   0.000   0.000
 -0.000  -7.987   0.000   0.000  -0.000   0.000  -0.892  -0.000
 -0.000   0.000  -7.999  -0.000  -0.000   0.000  -0.000  -0.885
  0.000   0.000  -0.000  -7.997  -0.000  -0.000  -0.000   0.000
  0.000  -0.000  -0.000  -0.000  -8.002  -0.000   0.000   0.001
 -0.878   0.000   0.000  -0.000  -0.000   7.613  -0.000  -0.000
  0.000  -0.892  -0.000  -0.000   0.000  -0.000   7.625   0.000
  0.000  -0.000  -0.885   0.000   0.001  -0.000   0.000   7.621
 -0.000  -0.000   0.000  -0.886   0.000   0.000   0.000  -0.000
 -0.000   0.000   0.001   0.000  -0.879   0.000  -0.000  -0.002
 -0.000  -0.000  -0.004   0.000  -0.001  -0.000  -0.000   0.004
 -0.000  -0.000  -0.007   0.000  -0.002  -0.000  -0.000   0.008
  0.000  -0.019   0.000   0.000   0.000  -0.000   0.014  -0.000
  0.000  -0.000  -0.020   0.000   0.001   0.000   0.000   0.013
 -0.000   0.000  -0.000  -0.017   0.000  -0.000   0.000   0.000
  0.000  -0.022   0.000  -0.000   0.000   0.000   0.015  -0.000
 -0.000  -0.000  -0.022   0.000   0.001   0.000  -0.000   0.014
 -0.000  -0.000  -0.000  -0.019   0.000  -0.000   0.000  -0.000
 total augmentation occupancy for first ion, spin component:           1
  1.922   0.000   0.000   0.000   0.000  -0.017   0.000   0.000   0.000   0.000   0.000   0.000   0.000   0.000   0.000   0.000
  0.000   1.946   0.000   0.000   0.000   0.000  -0.028   0.000   0.000   0.000   0.000   0.000   0.017   0.000   0.000  -0.023
  0.000   0.000   1.932   0.000   0.001   0.000   0.000  -0.019   0.000   0.007  -0.020   0.012   0.000   0.061   0.000   0.000
  0.000   0.000   0.000   1.938   0.000   0.000   0.000   0.000  -0.026   0.000   0.000   0.000   0.000   0.000   0.066   0.000
  0.000   0.000   0.001   0.000   1.927   0.000   0.000   0.007   0.000  -0.018  -0.058   0.011   0.000   0.022   0.000   0.000
 -0.017   0.000   0.000   0.000   0.000   0.008   0.000   0.000   0.000   0.000   0.000   0.000   0.000   0.000   0.000   0.000
  0.000  -0.028   0.000   0.000   0.000   0.000   0.009   0.000   0.000   0.000   0.000   0.000   0.019   0.000   0.000  -0.001
  0.000   0.000  -0.019   0.000   0.007   0.000   0.000   0.009   0.000   0.001  -0.013  -0.001   0.000   0.018   0.000   0.000
  0.000   0.000   0.000  -0.026   0.000   0.000   0.000   0.000   0.010   0.000   0.000   0.000   0.000   0.000   0.026   0.000
  0.000   0.000   0.007   0.000  -0.018   0.000   0.000   0.001   0.000   0.009  -0.012   0.001   0.000   0.002   0.000   0.000
  0.000   0.000  -0.020   0.000  -0.058   0.000   0.000  -0.013   0.000  -0.012   1.588  -0.117   0.000   0.203   0.000   0.000
  0.000   0.000   0.012   0.000   0.011   0.000   0.000  -0.001   0.000   0.001  -0.117   0.014   0.000  -0.025   0.000   0.000
  0.000   0.017   0.000   0.000   0.000   0.000   0.019   0.000   0.000   0.000   0.000   0.000   0.194   0.000   0.000  -0.011
  0.000   0.000   0.061   0.000   0.022   0.000   0.000   0.018   0.000   0.002   0.203  -0.025   0.000   0.101   0.000   0.000
  0.000   0.000   0.000   0.066   0.000   0.000   0.000   0.000   0.026   0.000   0.000   0.000   0.000   0.000   0.126   0.000
  0.000  -0.023   0.000   0.000   0.000   0.000  -0.001   0.000   0.000   0.000   0.000   0.000  -0.011   0.000   0.000   0.001
  0.000   0.000  -0.028   0.000  -0.001   0.000   0.000  -0.001   0.000  -0.000  -0.027   0.003   0.000  -0.009   0.000   0.000
  0.000   0.000   0.000  -0.026   0.000   0.000   0.000   0.000  -0.001   0.000   0.000   0.000   0.000   0.000  -0.008   0.000
 total augmentation occupancy for first ion, spin component:           2
 -0.000   0.000   0.000   0.000   0.000   0.000   0.000   0.000   0.000   0.000   0.000   0.000   0.000   0.000   0.000   0.000
  0.000  -0.000   0.000   0.000   0.000   0.000   0.000   0.000   0.000   0.000   0.000   0.000  -0.000   0.000   0.000  -0.000
  0.000   0.000  -0.000   0.000  -0.000   0.000   0.000  -0.000   0.000  -0.000   0.000   0.000   0.000  -0.000   0.000   0.000
  0.000   0.000   0.000   0.000   0.000   0.000   0.000   0.000   0.000   0.000   0.000   0.000   0.000   0.000  -0.000   0.000
  0.000   0.000  -0.000   0.000   0.000   0.000   0.000   0.000   0.000  -0.000   0.000   0.000   0.000   0.000   0.000   0.000
  0.000   0.000   0.000   0.000   0.000  -0.000   0.000   0.000   0.000   0.000   0.000   0.000   0.000   0.000   0.000   0.000
  0.000   0.000   0.000   0.000   0.000   0.000   0.000   0.000   0.000   0.000   0.000   0.000  -0.000   0.000   0.000   0.000
  0.000   0.000  -0.000   0.000   0.000   0.000   0.000   0.000   0.000   0.000  -0.000  -0.000   0.000   0.000   0.000   0.000
  0.000   0.000   0.000   0.000   0.000   0.000   0.000   0.000  -0.000   0.000   0.000   0.000   0.000   0.000  -0.000   0.000
  0.000   0.000  -0.000   0.000  -0.000   0.000   0.000   0.000   0.000   0.000  -0.000  -0.000   0.000   0.000   0.000   0.000
  0.000   0.000   0.000   0.000   0.000   0.000   0.000  -0.000   0.000  -0.000   0.000   0.000   0.000  -0.000   0.000   0.000
  0.000   0.000   0.000   0.000   0.000   0.000   0.000  -0.000   0.000  -0.000   0.000   0.000   0.000  -0.000   0.000   0.000
  0.000  -0.000   0.000   0.000   0.000   0.000  -0.000   0.000   0.000   0.000   0.000   0.000  -0.000   0.000   0.000   0.000
  0.000   0.000  -0.000   0.000   0.000   0.000   0.000   0.000   0.000   0.000  -0.000  -0.000   0.000   0.000   0.000   0.000
  0.000   0.000   0.000  -0.000   0.000   0.000   0.000   0.000  -0.000   0.000   0.000   0.000   0.000   0.000   0.000   0.000
  0.000  -0.000   0.000   0.000   0.000   0.000   0.000   0.000   0.000   0.000   0.000   0.000   0.000   0.000   0.000   0.000
  0.000   0.000  -0.000   0.000  -0.000   0.000   0.000   0.000   0.000   0.000  -0.000  -0.000   0.000   0.000   0.000   0.000
  0.000   0.000   0.000  -0.000   0.000   0.000   0.000   0.000   0.000   0.000   0.000   0.000   0.000   0.000   0.000   0.000


------------------------ aborting loop because EDIFF is reached ----------------------------------------



 DIPCOR: dipole corrections for dipol
 direction  3 min pos   146,
 dipolmoment           0.000000      0.000000      0.009752 electrons x Angstroem
 Tr[quadrupol]      -162.490177

 energy correction for charged system         0.000000 eV
 dipol+quadrupol energy correction            0.000043 eV
 added-field ion interaction          0.000000 eV  (added to PSCEN)

 
  *************** adding dipol energy to TOTEN NOW **************** 
    CHARGE:  cpu time      0.0441: real time      0.0443
    FORLOC:  cpu time      0.0006: real time      0.0006
    FORNL :  cpu time      0.0748: real time      0.0754
    STRESS:  cpu time      0.0854: real time      0.0857
    FORCOR:  cpu time      0.0144: real time      0.0145
    FORHAR:  cpu time      0.0021: real time      0.0021
    MIXING:  cpu time      0.0007: real time      0.0007
    OFIELD:  cpu time      0.0000: real time      0.0000

 ---------------------------------------------------------------------------------------------

         DFTD3 V3.0 Rev 1        
 Edisp (eV)   -2.01377

 E6    (eV) :    -0.7868
 E8    (eV) :    -1.2270
 % E8        : 60.93
    FORVDW:  cpu time      0.0221: real time      0.0222

  FORCE on cell =-STRESS in cart. coord.  units (eV):
  Direction    XX          YY          ZZ          XY          YZ          ZX
  --------------------------------------------------------------------------------------
  Alpha Z   131.93436   131.93436   131.93436
  Ewald   29796.37803 29970.07844-34166.97557     0.00000    -0.00000     0.00000
  Hartree 32022.47648 32146.11938-30637.42699    -0.00000    -0.00000    -0.00000
  E(xc)    -385.41885  -385.26094  -385.96325     0.00000     0.00000    -0.00000
  Local  -62536.76378-62840.25553 64084.04845    -0.00000     0.00000    -0.00000
  n-local  -134.30777  -130.14676  -134.60693     4.57397    -0.00000    -0.00000
  augment   565.74523   567.88398   568.10534    -0.00000     0.00000     0.00000
  Kinetic   537.36276   537.75873   540.71546     4.66132     0.00000    -0.00000
  Fock        0.00000     0.00000     0.00000     0.00000     0.00000     0.00000
  vdW        -2.45503    -2.54151    -1.41622     0.00000     0.00000    -0.00000
  -------------------------------------------------------------------------------------
  Total      -5.04856    -4.42986    -1.58533     0.00000     0.00000     0.00000
  in kB     -40.53418   -35.56674   -12.72841     0.00000     0.00000     0.00000
  external pressure =      -29.61 kB  Pullay stress =        0.00 kB


 VOLUME and BASIS-vectors are now :
 -----------------------------------------------------------------------------
  energy-cutoff  :      400.00
  volume of cell :      199.55
      direct lattice vectors                 reciprocal lattice vectors
     3.630000114  0.000000000  0.000000000     0.275482085  0.000000000  0.000000000
     0.000000000  2.566797733  0.000000000     0.000000000  0.389590495  0.000000000
     0.000000000  0.000000000 21.416994000     0.000000000  0.000000000  0.046691893

  length of vectors
     3.630000114  2.566797733 21.416994000     0.275482085  0.389590495  0.046691893


 FORCES acting on ions
    electron-ion (+dipol)            ewald-force                    non-local-force                 convergence-correction
 -----------------------------------------------------------------------------------------------
   -.290E-13 0.266E-12 0.358E+04   -.622E-07 0.258E-07 -.358E+04   0.000E+00 0.000E+00 -.598E+01   0.860E-11 -.984E-12 0.358E-01
   0.745E-06 -.131E-05 0.230E+04   0.126E-06 -.530E-07 -.231E+04   0.000E+00 0.000E+00 0.444E+00   -.546E-10 0.449E-10 0.124E+00
   -.606E-13 0.151E-12 0.761E+03   -.127E-06 0.531E-07 -.761E+03   0.000E+00 0.000E+00 -.396E+00   0.121E-09 -.393E-10 0.262E+00
   0.763E-06 -.133E-05 -.728E+03   0.121E-06 -.503E-07 0.728E+03   0.000E+00 0.000E+00 -.278E-01   -.260E-10 -.581E-10 0.237E+00
   -.612E-13 0.478E-13 -.234E+04   -.134E-06 0.570E-07 0.235E+04   0.000E+00 0.000E+00 -.186E+01   0.868E-10 -.347E-10 0.378E+00
   0.801E-06 -.134E-05 -.358E+04   0.755E-07 -.327E-07 0.357E+04   0.000E+00 0.000E+00 0.603E+01   0.606E-10 -.775E-10 0.236E+00
 -----------------------------------------------------------------------------------------------
   0.231E-05 -.398E-05 0.522E+00   0.499E-13 -.723E-13 -.909E-12   0.000E+00 0.000E+00 -.179E+01   0.196E-09 -.166E-09 0.127E+01
 
 
 POSITION                                       TOTAL-FORCE (eV/Angst)
 -----------------------------------------------------------------------------------
      0.00000      0.00000      0.00000         0.000000      0.000000      0.558333
      1.81500      1.28340      1.28340         0.000000      0.000000     -0.470716
      0.00000      0.00000      2.52780         0.000000      0.000000     -0.029179
      1.81500      1.28340      3.80792         0.000000      0.000000     -0.026846
      0.00000      0.00000      5.12471         0.000000      0.000000     -0.002289
      1.81500      1.28340      6.24527         0.000000      0.000000     -0.029304
 -----------------------------------------------------------------------------------
    total drift:                                0.000002     -0.000004      0.008946


--------------------------------------------------------------------------------------------------------



  FREE ENERGIE OF THE ION-ELECTRON SYSTEM (eV)
  ---------------------------------------------------
  free  energy   TOTEN  =       -23.06123605 eV

  energy  without entropy=      -23.04802973  energy(sigma->0) =      -23.05683394
 
 d Force = 0.3886526E-02[ 0.197E-02, 0.580E-02]  d Energy = 0.3806052E-02 0.805E-04
 d Force =-0.1889510E+03[-0.189E+03,-0.189E+03]  d Ewald  =-0.1889517E+03 0.702E-03


--------------------------------------------------------------------------------------------------------


    POTLOK:  cpu time      0.0209: real time      0.0210


--------------------------------------------------------------------------------------------------------


 stress matrix after NEB project (eV)
     -5.04856      0.00000      0.00000
      0.00000     -4.42986      0.00000
      0.00000      0.00000     -1.58533
  FORCES: max atom, RMS     0.029304    0.020150
  FORCE total and by dimension    0.049356    0.029304
  Stress total and by dimension    6.901082    5.048561


--------------------------------------------------------------------------------------------------------


  
 reached required accuracy - stopping structural energy minimisation
     LOOP+:  cpu time      2.1762: real time      2.2583
    4ORBIT:  cpu time      0.0000: real time      0.0000

 total amount of memory used by VASP MPI-rank0    33578. kBytes
=======================================================================

   base      :      30000. kBytes
   nonl-proj :        491. kBytes
   fftplans  :        582. kBytes
   grid      :       1362. kBytes
   one-center:         62. kBytes
   wavefun   :       1081. kBytes
 
  
  
 General timing and accounting informations for this job:
 ========================================================
  
                  Total CPU time used (sec):       21.690
                            User time (sec):       21.448
                          System time (sec):        0.242
                         Elapsed time (sec):       22.840
  
                   Maximum memory used (kb):      215584.
                   Average memory used (kb):          N/A
  
                          Minor page faults:        49410
                          Major page faults:         6457
                 Voluntary context switches:         1994
