unknown system                          
           1
     3.630000    0.000000    0.000000
     0.000000    2.566798    0.000000
     0.000000    0.000000   21.416994
   Cu
     6
Direct configuration=     1
   0.00000000  0.00000000  0.00000000
   0.50000000  0.50000000  0.05992432
   0.00000000  0.00000000  0.11984865
   0.50000000  0.50000000  0.17977297
   0.00000000  0.00000000  0.23969729
   0.50000000  0.50000000  0.29962162
Direct configuration=     2
   0.00000000  0.00000000  0.00000000
   0.50000000  0.50000000  0.05992432
   0.00000000  0.00000000  0.11957134
   0.50000000  0.50000000  0.18005034
   0.00000000  0.00000000  0.24051344
   0.50000000  0.50000000  0.29822312
Direct configuration=     3
   0.00000000  0.00000000  0.00000000
   0.50000000  0.50000000  0.05992432
   0.00000000  0.00000000  0.11889558
   0.50000000  0.50000000  0.18072623
   0.00000000  0.00000000  0.24250224
   0.50000000  0.50000000  0.29481524
Direct configuration=     4
   0.00000000  0.00000000  0.00000000
   0.50000000  0.50000000  0.05992432
   0.00000000  0.00000000  0.11895626
   0.50000000  0.50000000  0.18066555
   0.00000000  0.00000000  0.24232367
   0.50000000  0.50000000  0.29512122
Direct configuration=     5
   0.00000000  0.00000000  0.00000000
   0.50000000  0.50000000  0.05992432
   0.00000000  0.00000000  0.11893694
   0.50000000  0.50000000  0.18068487
   0.00000000  0.00000000  0.24238053
   0.50000000  0.50000000  0.29502380
Direct configuration=     6
   0.00000000  0.00000000  0.00000000
   0.50000000  0.50000000  0.05992432
   0.00000000  0.00000000  0.11895089
   0.50000000  0.50000000  0.18067091
   0.00000000  0.00000000  0.24233945
   0.50000000  0.50000000  0.29509417
Direct configuration=     7
   0.00000000  0.00000000  0.00000000
   0.50000000  0.50000000  0.05992432
   0.00000000  0.00000000  0.11909120
   0.50000000  0.50000000  0.18011475
   0.00000000  0.00000000  0.24219040
   0.50000000  0.50000000  0.29460010
Direct configuration=     8
   0.00000000  0.00000000  0.00000000
   0.50000000  0.50000000  0.05992432
   0.00000000  0.00000000  0.11932817
   0.50000000  0.50000000  0.17917540
   0.00000000  0.00000000  0.24193866
   0.50000000  0.50000000  0.29376563
Direct configuration=     9
   0.00000000  0.00000000  0.00000000
   0.50000000  0.50000000  0.05992432
   0.00000000  0.00000000  0.11942423
   0.50000000  0.50000000  0.17879463
   0.00000000  0.00000000  0.24183661
   0.50000000  0.50000000  0.29342736
Direct configuration=    10
   0.00000000  0.00000000  0.00000000
   0.50000000  0.50000000  0.05992432
   0.00000000  0.00000000  0.11904170
   0.50000000  0.50000000  0.17852195
   0.00000000  0.00000000  0.24113705
   0.50000000  0.50000000  0.29292779
Direct configuration=    11
   0.00000000  0.00000000  0.00000000
   0.50000000  0.50000000  0.05992432
   0.00000000  0.00000000  0.11802761
   0.50000000  0.50000000  0.17779908
   0.00000000  0.00000000  0.23928251
   0.50000000  0.50000000  0.29160342
