  10  10   0   0
  0.1692928E+02  0.2566798E-09  0.2566798E-09  0.2967047E-08  0.5000000E-15
  1.000000000000000E-004
  CAR 
 unknown system                          
     18.22956832     -8.72186534  301      2.12866677      1.00000000
     -8.722  0.0000E+00  0.0000E+00  0.0000E+00  0.0000E+00
     -8.632  0.0000E+00  0.0000E+00  0.0000E+00  0.0000E+00
     -8.542  0.0000E+00  0.0000E+00  0.0000E+00  0.0000E+00
     -8.452  0.0000E+00  0.0000E+00  0.0000E+00  0.0000E+00
     -8.363 -0.2131E-31 -0.2131E-31 -0.1914E-32 -0.1914E-32
     -8.273 -0.2610E-28 -0.2610E-28 -0.2347E-29 -0.2347E-29
     -8.183 -0.2130E-25 -0.2130E-25 -0.1916E-26 -0.1916E-26
     -8.093 -0.1156E-22 -0.1156E-22 -0.1040E-23 -0.1040E-23
     -8.003 -0.4172E-20 -0.4172E-20 -0.3758E-21 -0.3758E-21
     -7.913 -0.1000E-17 -0.1000E-17 -0.9023E-19 -0.9023E-19
     -7.823 -0.1539E-15 -0.1539E-15 -0.1392E-16 -0.1392E-16
     -7.734 -0.1614E-13 -0.1614E-13 -0.1464E-14 -0.1464E-14
     -7.644 -0.1117E-11 -0.1117E-11 -0.1018E-12 -0.1018E-12
     -7.554 -0.5087E-10 -0.5087E-10 -0.4672E-11 -0.4672E-11
     -7.464 -0.1517E-08 -0.1517E-08 -0.1410E-09 -0.1410E-09
     -7.374 -0.2940E-07 -0.2940E-07 -0.2782E-08 -0.2782E-08
     -7.284 -0.3652E-06 -0.3652E-06 -0.3559E-07 -0.3559E-07
     -7.195 -0.2841E-05 -0.2841E-05 -0.2908E-06 -0.2908E-06
     -7.105 -0.1313E-04 -0.1313E-04 -0.1471E-05 -0.1471E-05
     -7.015 -0.3088E-04 -0.3088E-04 -0.4245E-05 -0.4245E-05
     -6.925 -0.6128E-05 -0.6128E-05 -0.4796E-05 -0.4796E-05
     -6.835  0.1621E-03  0.1621E-03  0.9766E-05  0.9766E-05
     -6.745  0.4596E-03  0.4596E-03  0.5105E-04  0.5105E-04
     -6.656  0.6930E-03  0.6930E-03  0.1133E-03  0.1133E-03
     -6.566  0.7438E-03  0.7438E-03  0.1801E-03  0.1801E-03
     -6.476  0.6200E-03  0.6200E-03  0.2358E-03  0.2358E-03
     -6.386  0.4063E-03  0.4063E-03  0.2723E-03  0.2723E-03
     -6.296  0.3510E-03  0.3510E-03  0.3039E-03  0.3039E-03
     -6.206  0.4972E-03  0.4972E-03  0.3485E-03  0.3485E-03
     -6.117  0.5065E-03  0.5065E-03  0.3940E-03  0.3940E-03
     -6.027  0.2631E-03  0.2631E-03  0.4177E-03  0.4177E-03
     -5.937  0.2694E-04  0.2694E-04  0.4201E-03  0.4201E-03
     -5.847 -0.5736E-04 -0.5736E-04  0.4150E-03  0.4150E-03
     -5.757 -0.2140E-04 -0.2140E-04  0.4130E-03  0.4130E-03
     -5.667  0.1627E-03  0.1627E-03  0.4277E-03  0.4277E-03
     -5.578  0.4520E-03  0.4520E-03  0.4683E-03  0.4683E-03
     -5.488  0.5670E-03  0.5670E-03  0.5192E-03  0.5192E-03
     -5.398  0.3652E-03  0.3652E-03  0.5520E-03  0.5520E-03
     -5.308  0.9404E-04  0.9404E-04  0.5605E-03  0.5605E-03
     -5.218 -0.2247E-04 -0.2247E-04  0.5584E-03  0.5584E-03
     -5.128 -0.2720E-04 -0.2720E-04  0.5560E-03  0.5560E-03
     -5.039 -0.2313E-04 -0.2313E-04  0.5539E-03  0.5539E-03
     -4.949 -0.3382E-04 -0.3382E-04  0.5509E-03  0.5509E-03
     -4.859 -0.8074E-06 -0.8074E-06  0.5508E-03  0.5508E-03
     -4.769  0.1479E-03  0.1479E-03  0.5641E-03  0.5641E-03
     -4.679  0.3504E-03  0.3504E-03  0.5956E-03  0.5956E-03
     -4.589  0.6372E-03  0.6372E-03  0.6528E-03  0.6528E-03
     -4.499  0.1467E-02  0.1467E-02  0.7846E-03  0.7846E-03
     -4.410  0.2750E-02  0.2750E-02  0.1032E-02  0.1032E-02
     -4.320  0.3148E-02  0.3148E-02  0.1314E-02  0.1314E-02
     -4.230  0.2033E-02  0.2033E-02  0.1497E-02  0.1497E-02
     -4.140  0.5888E-03  0.5888E-03  0.1550E-02  0.1550E-02
     -4.050 -0.1189E-03 -0.1189E-03  0.1539E-02  0.1539E-02
     -3.960 -0.2465E-03 -0.2465E-03  0.1517E-02  0.1517E-02
     -3.871 -0.1366E-03 -0.1366E-03  0.1505E-02  0.1505E-02
     -3.781  0.4848E-03  0.4848E-03  0.1548E-02  0.1548E-02
     -3.691  0.1938E-02  0.1938E-02  0.1723E-02  0.1723E-02
     -3.601  0.3363E-02  0.3363E-02  0.2025E-02  0.2025E-02
     -3.511  0.3452E-02  0.3452E-02  0.2335E-02  0.2335E-02
     -3.421  0.2910E-02  0.2910E-02  0.2596E-02  0.2596E-02
     -3.332  0.3097E-02  0.3097E-02  0.2874E-02  0.2874E-02
     -3.242  0.2970E-02  0.2970E-02  0.3141E-02  0.3141E-02
     -3.152  0.1608E-02  0.1608E-02  0.3286E-02  0.3286E-02
     -3.062  0.9594E-03  0.9594E-03  0.3372E-02  0.3372E-02
     -2.972  0.2665E-02  0.2665E-02  0.3611E-02  0.3611E-02
     -2.882  0.4745E-02  0.4745E-02  0.4038E-02  0.4038E-02
     -2.793  0.4184E-02  0.4184E-02  0.4414E-02  0.4414E-02
     -2.703  0.1760E-02  0.1760E-02  0.4572E-02  0.4572E-02
     -2.613  0.8911E-03  0.8911E-03  0.4652E-02  0.4652E-02
     -2.523  0.2577E-02  0.2577E-02  0.4883E-02  0.4883E-02
     -2.433  0.4197E-02  0.4197E-02  0.5260E-02  0.5260E-02
     -2.343  0.3407E-02  0.3407E-02  0.5566E-02  0.5566E-02
     -2.254  0.1710E-02  0.1710E-02  0.5720E-02  0.5720E-02
     -2.164  0.1761E-02  0.1761E-02  0.5878E-02  0.5878E-02
     -2.074  0.2891E-02  0.2891E-02  0.6138E-02  0.6138E-02
     -1.984  0.2760E-02  0.2760E-02  0.6386E-02  0.6386E-02
     -1.894  0.1783E-02  0.1783E-02  0.6546E-02  0.6546E-02
     -1.804  0.1936E-02  0.1936E-02  0.6720E-02  0.6720E-02
     -1.714  0.3262E-02  0.3262E-02  0.7013E-02  0.7013E-02
     -1.625  0.5660E-02  0.5660E-02  0.7521E-02  0.7521E-02
     -1.535  0.1028E-01  0.1028E-01  0.8445E-02  0.8445E-02
     -1.445  0.1603E-01  0.1603E-01  0.9885E-02  0.9885E-02
     -1.355  0.1893E-01  0.1893E-01  0.1159E-01  0.1159E-01
     -1.265  0.1654E-01  0.1654E-01  0.1307E-01  0.1307E-01
     -1.175  0.1149E-01  0.1149E-01  0.1410E-01  0.1410E-01
     -1.086  0.8226E-02  0.8226E-02  0.1484E-01  0.1484E-01
     -0.996  0.7395E-02  0.7395E-02  0.1551E-01  0.1551E-01
     -0.906  0.6894E-02  0.6894E-02  0.1613E-01  0.1613E-01
     -0.816  0.6170E-02  0.6170E-02  0.1668E-01  0.1668E-01
     -0.726  0.7040E-02  0.7040E-02  0.1731E-01  0.1731E-01
     -0.636  0.1044E-01  0.1044E-01  0.1825E-01  0.1825E-01
     -0.547  0.1435E-01  0.1435E-01  0.1954E-01  0.1954E-01
     -0.457  0.1746E-01  0.1746E-01  0.2111E-01  0.2111E-01
     -0.367  0.2054E-01  0.2054E-01  0.2295E-01  0.2295E-01
     -0.277  0.2210E-01  0.2210E-01  0.2494E-01  0.2494E-01
     -0.187  0.1967E-01  0.1967E-01  0.2671E-01  0.2671E-01
     -0.097  0.1496E-01  0.1496E-01  0.2805E-01  0.2805E-01
     -0.008  0.1189E-01  0.1189E-01  0.2912E-01  0.2912E-01
      0.082  0.1124E-01  0.1124E-01  0.3013E-01  0.3013E-01
      0.172  0.1174E-01  0.1174E-01  0.3118E-01  0.3118E-01
      0.262  0.1343E-01  0.1343E-01  0.3239E-01  0.3239E-01
      0.352  0.1649E-01  0.1649E-01  0.3387E-01  0.3387E-01
      0.442  0.1896E-01  0.1896E-01  0.3557E-01  0.3557E-01
      0.531  0.1926E-01  0.1926E-01  0.3730E-01  0.3730E-01
      0.621  0.1966E-01  0.1966E-01  0.3907E-01  0.3907E-01
      0.711  0.2277E-01  0.2277E-01  0.4112E-01  0.4112E-01
      0.801  0.2682E-01  0.2682E-01  0.4353E-01  0.4353E-01
      0.891  0.2800E-01  0.2800E-01  0.4604E-01  0.4604E-01
      0.981  0.2497E-01  0.2497E-01  0.4828E-01  0.4828E-01
      1.070  0.2031E-01  0.2031E-01  0.5011E-01  0.5011E-01
      1.160  0.1771E-01  0.1771E-01  0.5170E-01  0.5170E-01
      1.250  0.1682E-01  0.1682E-01  0.5321E-01  0.5321E-01
      1.340  0.1396E-01  0.1396E-01  0.5446E-01  0.5446E-01
      1.430  0.8546E-02  0.8546E-02  0.5523E-01  0.5523E-01
      1.520  0.3559E-02  0.3559E-02  0.5555E-01  0.5555E-01
      1.610  0.6943E-03  0.6943E-03  0.5561E-01  0.5561E-01
      1.699 -0.3728E-03 -0.3728E-03  0.5558E-01  0.5558E-01
      1.789 -0.4684E-03 -0.4684E-03  0.5554E-01  0.5554E-01
      1.879  0.1192E-03  0.1192E-03  0.5555E-01  0.5555E-01
      1.969  0.1643E-02  0.1643E-02  0.5570E-01  0.5570E-01
      2.059  0.3342E-02  0.3342E-02  0.5600E-01  0.5600E-01
      2.149  0.3492E-02  0.3492E-02  0.5631E-01  0.5631E-01
      2.238  0.2021E-02  0.2021E-02  0.5649E-01  0.5649E-01
      2.328  0.6342E-03  0.6342E-03  0.5655E-01  0.5655E-01
      2.418  0.2730E-03  0.2730E-03  0.5657E-01  0.5657E-01
      2.508  0.4429E-03  0.4429E-03  0.5661E-01  0.5661E-01
      2.598  0.4333E-03  0.4333E-03  0.5665E-01  0.5665E-01
      2.688  0.1750E-03  0.1750E-03  0.5667E-01  0.5667E-01
      2.777 -0.6705E-04 -0.6705E-04  0.5666E-01  0.5666E-01
      2.867 -0.2015E-03 -0.2015E-03  0.5664E-01  0.5664E-01
      2.957 -0.1041E-04 -0.1041E-04  0.5664E-01  0.5664E-01
      3.047  0.1073E-02  0.1073E-02  0.5674E-01  0.5674E-01
      3.137  0.2784E-02  0.2784E-02  0.5699E-01  0.5699E-01
      3.227  0.3384E-02  0.3384E-02  0.5729E-01  0.5729E-01
      3.316  0.2111E-02  0.2111E-02  0.5748E-01  0.5748E-01
      3.406  0.5099E-03  0.5099E-03  0.5753E-01  0.5753E-01
      3.496 -0.1415E-03 -0.1415E-03  0.5752E-01  0.5752E-01
      3.586 -0.1364E-03 -0.1364E-03  0.5750E-01  0.5750E-01
      3.676 -0.4261E-04 -0.4261E-04  0.5750E-01  0.5750E-01
      3.766 -0.7317E-05 -0.7317E-05  0.5750E-01  0.5750E-01
      3.855 -0.8972E-06 -0.8972E-06  0.5750E-01  0.5750E-01
      3.945 -0.1785E-05 -0.1785E-05  0.5750E-01  0.5750E-01
      4.035 -0.1411E-04 -0.1411E-04  0.5750E-01  0.5750E-01
      4.125 -0.6828E-04 -0.6828E-04  0.5749E-01  0.5749E-01
      4.215 -0.1677E-03 -0.1677E-03  0.5748E-01  0.5748E-01
      4.305 -0.2955E-04 -0.2955E-04  0.5747E-01  0.5747E-01
      4.394  0.9734E-03  0.9734E-03  0.5756E-01  0.5756E-01
      4.484  0.2684E-02  0.2684E-02  0.5780E-01  0.5780E-01
      4.574  0.3408E-02  0.3408E-02  0.5811E-01  0.5811E-01
      4.664  0.2227E-02  0.2227E-02  0.5831E-01  0.5831E-01
      4.754  0.5906E-03  0.5906E-03  0.5836E-01  0.5836E-01
      4.844 -0.1266E-03 -0.1266E-03  0.5835E-01  0.5835E-01
      4.934 -0.1434E-03 -0.1434E-03  0.5834E-01  0.5834E-01
      5.023 -0.4697E-04 -0.4697E-04  0.5833E-01  0.5833E-01
      5.113 -0.8366E-05 -0.8366E-05  0.5833E-01  0.5833E-01
      5.203 -0.1201E-05 -0.1201E-05  0.5833E-01  0.5833E-01
      5.293 -0.3560E-05 -0.3560E-05  0.5833E-01  0.5833E-01
      5.383 -0.2555E-04 -0.2554E-04  0.5833E-01  0.5833E-01
      5.473 -0.1114E-03 -0.1114E-03  0.5832E-01  0.5832E-01
      5.562 -0.2501E-03 -0.2501E-03  0.5830E-01  0.5830E-01
      5.652 -0.5206E-04 -0.5211E-04  0.5829E-01  0.5829E-01
      5.742  0.1268E-02  0.1268E-02  0.5841E-01  0.5841E-01
      5.832  0.3843E-02  0.3842E-02  0.5875E-01  0.5875E-01
      5.922  0.6442E-02  0.6442E-02  0.5933E-01  0.5933E-01
      6.012  0.7353E-02  0.7353E-02  0.5999E-01  0.5999E-01
      6.101  0.5780E-02  0.5780E-02  0.6051E-01  0.6051E-01
      6.191  0.3126E-02  0.3126E-02  0.6079E-01  0.6079E-01
      6.281  0.1616E-02  0.1616E-02  0.6094E-01  0.6094E-01
      6.371  0.1423E-02  0.1422E-02  0.6107E-01  0.6107E-01
      6.461  0.1387E-02  0.1387E-02  0.6119E-01  0.6119E-01
      6.551  0.1057E-02  0.1057E-02  0.6128E-01  0.6128E-01
      6.640  0.6623E-03  0.6622E-03  0.6134E-01  0.6134E-01
      6.730  0.4716E-03  0.4718E-03  0.6139E-01  0.6139E-01
      6.820  0.6177E-03  0.6179E-03  0.6144E-01  0.6144E-01
      6.910  0.8602E-03  0.8603E-03  0.6152E-01  0.6152E-01
      7.000  0.1150E-02  0.1150E-02  0.6162E-01  0.6162E-01
      7.090  0.2295E-02  0.2295E-02  0.6183E-01  0.6183E-01
      7.179  0.4049E-02  0.4049E-02  0.6219E-01  0.6219E-01
      7.269  0.4324E-02  0.4323E-02  0.6258E-01  0.6258E-01
      7.359  0.2622E-02  0.2622E-02  0.6282E-01  0.6282E-01
      7.449  0.8605E-03  0.8606E-03  0.6289E-01  0.6289E-01
      7.539  0.3238E-03  0.3241E-03  0.6292E-01  0.6292E-01
      7.629  0.9574E-03  0.9577E-03  0.6301E-01  0.6301E-01
      7.719  0.2102E-02  0.2102E-02  0.6320E-01  0.6320E-01
      7.808  0.2687E-02  0.2687E-02  0.6344E-01  0.6344E-01
      7.898  0.2110E-02  0.2110E-02  0.6363E-01  0.6363E-01
      7.988  0.1004E-02  0.1004E-02  0.6372E-01  0.6372E-01
      8.078  0.6903E-03  0.6903E-03  0.6378E-01  0.6378E-01
      8.168  0.1803E-02  0.1802E-02  0.6394E-01  0.6394E-01
      8.258  0.3637E-02  0.3637E-02  0.6427E-01  0.6427E-01
      8.347  0.4923E-02  0.4923E-02  0.6471E-01  0.6471E-01
      8.437  0.4718E-02  0.4719E-02  0.6514E-01  0.6514E-01
      8.527  0.3154E-02  0.3154E-02  0.6542E-01  0.6542E-01
      8.617  0.1371E-02  0.1371E-02  0.6554E-01  0.6554E-01
      8.707  0.2724E-03  0.2723E-03  0.6557E-01  0.6557E-01
      8.797 -0.1457E-05 -0.1667E-05  0.6557E-01  0.6557E-01
      8.886  0.3879E-03  0.3877E-03  0.6560E-01  0.6560E-01
      8.976  0.1501E-02  0.1501E-02  0.6574E-01  0.6574E-01
      9.066  0.3136E-02  0.3136E-02  0.6602E-01  0.6602E-01
      9.156  0.3970E-02  0.3971E-02  0.6637E-01  0.6637E-01
      9.246  0.3225E-02  0.3225E-02  0.6666E-01  0.6666E-01
      9.336  0.2474E-02  0.2474E-02  0.6689E-01  0.6689E-01
      9.425  0.3193E-02  0.3193E-02  0.6717E-01  0.6717E-01
      9.515  0.4020E-02  0.4020E-02  0.6753E-01  0.6753E-01
      9.605  0.3095E-02  0.3095E-02  0.6781E-01  0.6781E-01
      9.695  0.1449E-02  0.1449E-02  0.6794E-01  0.6794E-01
      9.785  0.1208E-02  0.1208E-02  0.6805E-01  0.6805E-01
      9.875  0.2286E-02  0.2286E-02  0.6826E-01  0.6826E-01
      9.964  0.3234E-02  0.3233E-02  0.6855E-01  0.6855E-01
     10.054  0.3653E-02  0.3653E-02  0.6888E-01  0.6888E-01
     10.144  0.3681E-02  0.3681E-02  0.6921E-01  0.6921E-01
     10.234  0.2819E-02  0.2820E-02  0.6946E-01  0.6946E-01
     10.324  0.1549E-02  0.1550E-02  0.6960E-01  0.6960E-01
     10.414  0.1438E-02  0.1439E-02  0.6973E-01  0.6973E-01
     10.503  0.2651E-02  0.2651E-02  0.6997E-01  0.6997E-01
     10.593  0.3929E-02  0.3929E-02  0.7032E-01  0.7032E-01
     10.683  0.4220E-02  0.4220E-02  0.7070E-01  0.7070E-01
     10.773  0.3635E-02  0.3635E-02  0.7103E-01  0.7102E-01
     10.863  0.3492E-02  0.3492E-02  0.7134E-01  0.7134E-01
     10.953  0.3926E-02  0.3925E-02  0.7169E-01  0.7169E-01
     11.043  0.3234E-02  0.3234E-02  0.7198E-01  0.7198E-01
     11.132  0.1332E-02  0.1333E-02  0.7210E-01  0.7210E-01
     11.222 -0.8725E-04 -0.8696E-04  0.7209E-01  0.7209E-01
     11.312 -0.3166E-03 -0.3168E-03  0.7207E-01  0.7207E-01
     11.402  0.5604E-03  0.5597E-03  0.7212E-01  0.7212E-01
     11.492  0.2213E-02  0.2212E-02  0.7231E-01  0.7231E-01
     11.582  0.3342E-02  0.3342E-02  0.7261E-01  0.7261E-01
     11.671  0.3287E-02  0.3287E-02  0.7291E-01  0.7291E-01
     11.761  0.3153E-02  0.3153E-02  0.7319E-01  0.7319E-01
     11.851  0.3147E-02  0.3147E-02  0.7348E-01  0.7348E-01
     11.941  0.2673E-02  0.2673E-02  0.7372E-01  0.7372E-01
     12.031  0.2647E-02  0.2647E-02  0.7395E-01  0.7395E-01
     12.121  0.3236E-02  0.3236E-02  0.7424E-01  0.7424E-01
     12.210  0.2784E-02  0.2785E-02  0.7449E-01  0.7449E-01
     12.300  0.1207E-02  0.1208E-02  0.7460E-01  0.7460E-01
     12.390  0.6415E-04  0.6437E-04  0.7461E-01  0.7461E-01
     12.480 -0.1766E-03 -0.1766E-03  0.7459E-01  0.7459E-01
     12.570 -0.8551E-04 -0.8554E-04  0.7459E-01  0.7459E-01
     12.660 -0.1978E-04 -0.1979E-04  0.7458E-01  0.7458E-01
     12.749 -0.2819E-05 -0.2821E-05  0.7458E-01  0.7458E-01
     12.839 -0.1598E-05 -0.1597E-05  0.7458E-01  0.7458E-01
     12.929 -0.8455E-05 -0.8450E-05  0.7458E-01  0.7458E-01
     13.019 -0.3012E-04 -0.3011E-04  0.7458E-01  0.7458E-01
     13.109 -0.4621E-04 -0.4621E-04  0.7458E-01  0.7458E-01
     13.199  0.6356E-04  0.6346E-04  0.7458E-01  0.7458E-01
     13.288  0.4417E-03  0.4414E-03  0.7462E-01  0.7462E-01
     13.378  0.9197E-03  0.9195E-03  0.7470E-01  0.7470E-01
     13.468  0.1027E-02  0.1027E-02  0.7480E-01  0.7480E-01
     13.558  0.6383E-03  0.6386E-03  0.7485E-01  0.7485E-01
     13.648  0.1762E-03  0.1764E-03  0.7487E-01  0.7487E-01
     13.738 -0.2898E-04 -0.2893E-04  0.7487E-01  0.7487E-01
     13.828 -0.4078E-04 -0.4079E-04  0.7486E-01  0.7486E-01
     13.917 -0.1480E-04 -0.1482E-04  0.7486E-01  0.7486E-01
     14.007 -0.2928E-05 -0.2932E-05  0.7486E-01  0.7486E-01
     14.097 -0.3539E-06 -0.3545E-06  0.7486E-01  0.7486E-01
     14.187 -0.2720E-07 -0.2725E-07  0.7486E-01  0.7486E-01
     14.277 -0.1353E-08 -0.1356E-08  0.7486E-01  0.7486E-01
     14.367 -0.4402E-10 -0.4412E-10  0.7486E-01  0.7486E-01
     14.456 -0.9411E-12 -0.9436E-12  0.7486E-01  0.7486E-01
     14.546 -0.1328E-13 -0.1332E-13  0.7486E-01  0.7486E-01
     14.636 -0.1239E-15 -0.1243E-15  0.7486E-01  0.7486E-01
     14.726 -0.6866E-18 -0.6866E-18  0.7486E-01  0.7486E-01
     14.816 -0.6109E-24 -0.6093E-24  0.7486E-01  0.7486E-01
     14.906 -0.2677E-21 -0.2670E-21  0.7486E-01  0.7486E-01
     14.995 -0.7794E-19 -0.7776E-19  0.7486E-01  0.7486E-01
     15.085 -0.1464E-16 -0.1461E-16  0.7486E-01  0.7486E-01
     15.175 -0.1864E-14 -0.1860E-14  0.7486E-01  0.7486E-01
     15.265 -0.1572E-12 -0.1569E-12  0.7486E-01  0.7486E-01
     15.355 -0.8738E-11 -0.8723E-11  0.7486E-01  0.7486E-01
     15.445 -0.3189E-09 -0.3184E-09  0.7486E-01  0.7486E-01
     15.534 -0.7590E-08 -0.7580E-08  0.7486E-01  0.7486E-01
     15.624 -0.1166E-06 -0.1165E-06  0.7486E-01  0.7486E-01
     15.714 -0.1135E-05 -0.1134E-05  0.7486E-01  0.7486E-01
     15.804 -0.6740E-05 -0.6736E-05  0.7486E-01  0.7486E-01
     15.894 -0.2212E-04 -0.2211E-04  0.7486E-01  0.7486E-01
     15.984 -0.2469E-04 -0.2471E-04  0.7486E-01  0.7486E-01
     16.073  0.7823E-04  0.7814E-04  0.7486E-01  0.7486E-01
     16.163  0.3415E-03  0.3414E-03  0.7489E-01  0.7489E-01
     16.253  0.5613E-03  0.5612E-03  0.7494E-01  0.7494E-01
     16.343  0.4725E-03  0.4726E-03  0.7499E-01  0.7499E-01
     16.433  0.1886E-03  0.1887E-03  0.7500E-01  0.7500E-01
     16.523  0.3727E-05  0.3768E-05  0.7500E-01  0.7500E-01
     16.612 -0.2896E-04 -0.2896E-04  0.7500E-01  0.7500E-01
     16.702 -0.1290E-04 -0.1291E-04  0.7500E-01  0.7500E-01
     16.792 -0.2822E-05 -0.2824E-05  0.7500E-01  0.7500E-01
     16.882 -0.3641E-06 -0.3644E-06  0.7500E-01  0.7500E-01
     16.972 -0.2934E-07 -0.2937E-07  0.7500E-01  0.7500E-01
     17.062 -0.1515E-08 -0.1517E-08  0.7500E-01  0.7500E-01
     17.152 -0.5079E-10 -0.5087E-10  0.7500E-01  0.7500E-01
     17.241 -0.1115E-11 -0.1117E-11  0.7500E-01  0.7500E-01
     17.331 -0.1611E-13 -0.1614E-13  0.7500E-01  0.7500E-01
     17.421 -0.1538E-15 -0.1538E-15  0.7500E-01  0.7500E-01
     17.511 -0.1030E-17 -0.1030E-17  0.7500E-01  0.7500E-01
     17.601  0.0000E+00  0.0000E+00  0.7500E-01  0.7500E-01
     17.691  0.0000E+00  0.0000E+00  0.7500E-01  0.7500E-01
     17.780  0.0000E+00  0.0000E+00  0.7500E-01  0.7500E-01
     17.870  0.0000E+00  0.0000E+00  0.7500E-01  0.7500E-01
     17.960  0.0000E+00  0.0000E+00  0.7500E-01  0.7500E-01
     18.050  0.0000E+00  0.0000E+00  0.7500E-01  0.7500E-01
     18.140  0.0000E+00  0.0000E+00  0.7500E-01  0.7500E-01
     18.230  0.0000E+00  0.0000E+00  0.7500E-01  0.7500E-01
