   10   10  800    2
  0.1692928E+02  0.2566798E-09  0.2566798E-09  0.2967047E-08  0.5000000E-15
  1.000000000000000E-004
  CAR 
 unknown system                          
     90      4     60
 
  0.0000000E+00  0.0000000E+00  0.0000000E+00  0.1111111E+00
      1         -6.721865       -6.721865   1.000000   1.000000
      2         -6.523588       -6.523588   1.000000   1.000000
      3         -6.202847       -6.202847   1.000000   1.000000
      4         -5.546749       -5.546749   1.000000   1.000000
      5         -4.668554       -4.668554   1.000000   1.000000
      6         -3.720856       -3.720856   1.000000   1.000000
      7         -2.910758       -2.910758   1.000000   1.000000
      8         -2.481345       -2.481345   1.000000   1.000000
      9         -2.403573       -2.403573   1.000000   1.000000
     10         -0.534983       -0.534983   1.000000   1.000000
     11         -0.507096       -0.507096   1.000000   1.000000
     12         -0.426982       -0.426982   1.000000   1.000000
     13         -0.416406       -0.416406   1.000000   1.000000
     14         -0.407319       -0.407319   1.000000   1.000000
     15         -0.406689       -0.406689   1.000000   1.000000
     16         -0.350179       -0.350179   1.000000   1.000000
     17         -0.336810       -0.336810   1.000000   1.000000
     18         -0.336759       -0.336759   1.000000   1.000000
     19         -0.317678       -0.317678   1.000000   1.000000
     20         -0.315311       -0.315311   1.000000   1.000000
     21         -0.274071       -0.274071   1.000000   1.000000
     22         -0.239501       -0.239501   1.000000   1.000000
     23         -0.238484       -0.238484   1.000000   1.000000
     24         -0.206780       -0.206780   1.000000   1.000000
     25         -0.204656       -0.204656   1.000000   1.000000
     26         -0.072465       -0.072465   1.000000   1.000000
     27          0.135980        0.135980   1.000000   1.000000
     28          0.140198        0.140198   1.000000   1.000000
     29          0.163073        0.163073   1.000000   1.000000
     30          0.255137        0.255137   1.000000   1.000000
     31          0.257097        0.257097   1.000000   1.000000
     32          0.427008        0.427008   1.000000   1.000000
     33          0.438863        0.438863   1.000000   1.000000
     34          0.452444        0.452444   1.000000   1.000000
     35          0.464809        0.464809   1.000000   1.000000
     36          0.558335        0.558335   1.000000   1.000000
     37          0.569252        0.569252   1.000000   1.000000
     38          0.681881        0.681881   1.000000   1.000000
     39          0.689986        0.689986   1.000000   1.000000
     40          0.796932        0.796932   1.000000   1.000000
     41          0.799366        0.799366   1.000000   1.000000
     42          0.872747        0.872747   1.000000   1.000000
     43          0.953029        0.953029   1.000000   1.000000
     44          0.970996        0.970996   1.000000   1.000000
     45          1.134707        1.134707   1.000000   1.000000
     46          1.157036        1.157036   1.000000   1.000000
     47          1.294016        1.294016   1.000000   1.000000
     48          1.295755        1.295755   1.000000   1.000000
     49          2.192170        2.192170   0.245724   0.245724
     50          2.489257        2.489257  -0.014318  -0.014318
     51          5.844093        5.844132  -0.000000  -0.000000
     52          6.600893        6.600959  -0.000000  -0.000000
     53          7.400864        7.400969  -0.000000  -0.000000
     54          8.357700        8.357747   0.000000   0.000000
     55          8.885399        8.885460   0.000000   0.000000
     56         10.645585       10.645623   0.000000   0.000000
     57         10.933282       10.933342   0.000000   0.000000
     58         13.350765       13.350799   0.000000   0.000000
     59         13.440463       13.440522   0.000000   0.000000
     60         16.229529       16.229568   0.000000   0.000000
 
  0.3333333E+00  0.5551115E-16  0.0000000E+00  0.4444444E+00
      1         -4.411286       -4.411286   1.000000   1.000000
      2         -3.597058       -3.597058   1.000000   1.000000
      3         -3.313406       -3.313406   1.000000   1.000000
      4         -2.903898       -2.903898   1.000000   1.000000
      5         -2.467273       -2.467273   1.000000   1.000000
      6         -2.084918       -2.084918   1.000000   1.000000
      7         -1.758568       -1.758568   1.000000   1.000000
      8         -1.571256       -1.571256   1.000000   1.000000
      9         -1.504381       -1.504381   1.000000   1.000000
     10         -1.408884       -1.408884   1.000000   1.000000
     11         -1.339327       -1.339327   1.000000   1.000000
     12         -1.122381       -1.122381   1.000000   1.000000
     13         -0.933478       -0.933478   1.000000   1.000000
     14         -0.782988       -0.782988   1.000000   1.000000
     15         -0.612166       -0.612166   1.000000   1.000000
     16         -0.585815       -0.585815   1.000000   1.000000
     17         -0.457227       -0.457227   1.000000   1.000000
     18         -0.395475       -0.395475   1.000000   1.000000
     19         -0.334659       -0.334659   1.000000   1.000000
     20         -0.251576       -0.251576   1.000000   1.000000
     21         -0.228253       -0.228253   1.000000   1.000000
     22         -0.150054       -0.150054   1.000000   1.000000
     23         -0.036989       -0.036989   1.000000   1.000000
     24         -0.001300       -0.001300   1.000000   1.000000
     25          0.144057        0.144057   1.000000   1.000000
     26          0.251223        0.251223   1.000000   1.000000
     27          0.356974        0.356974   1.000000   1.000000
     28          0.453744        0.453744   1.000000   1.000000
     29          0.506290        0.506290   1.000000   1.000000
     30          0.608899        0.608899   1.000000   1.000000
     31          0.617314        0.617314   1.000000   1.000000
     32          0.700247        0.700247   1.000000   1.000000
     33          0.714624        0.714624   1.000000   1.000000
     34          0.769347        0.769347   1.000000   1.000000
     35          0.790604        0.790604   1.000000   1.000000
     36          0.844646        0.844646   1.000000   1.000000
     37          0.864197        0.864197   1.000000   1.000000
     38          0.882623        0.882623   1.000000   1.000000
     39          0.977597        0.977597   1.000000   1.000000
     40          0.999864        0.999864   1.000000   1.000000
     41          1.122132        1.122132   1.000000   1.000000
     42          1.248244        1.248244   1.000000   1.000000
     43          1.249784        1.249784   1.000000   1.000000
     44          1.261186        1.261186   1.000000   1.000000
     45          1.424053        1.424053   1.000004   1.000004
     46          2.054013        2.054013   0.792811   0.792811
     47          3.162420        3.162420  -0.000000  -0.000000
     48          4.515225        4.515225  -0.000000  -0.000000
     49          6.007460        6.007460  -0.000000  -0.000000
     50          7.200189        7.200189  -0.000000  -0.000000
     51          8.377785        8.377791   0.000000   0.000000
     52          9.102411        9.102416   0.000000   0.000000
     53          9.502631        9.502636   0.000000   0.000000
     54          9.929690        9.929731   0.000000   0.000000
     55         10.121398       10.121487   0.000000   0.000000
     56         10.689883       10.689910   0.000000   0.000000
     57         10.930971       10.930985   0.000000   0.000000
     58         11.534561       11.534616   0.000000   0.000000
     59         11.791944       11.791961   0.000000   0.000000
     60         12.097906       12.097939   0.000000   0.000000
 
  0.0000000E+00  0.3333333E+00  0.0000000E+00  0.2222222E+00
      1         -4.327395       -4.327395   1.000000   1.000000
      2         -3.590105       -3.590105   1.000000   1.000000
      3         -3.311203       -3.311203   1.000000   1.000000
      4         -2.906330       -2.906330   1.000000   1.000000
      5         -2.470567       -2.470567   1.000000   1.000000
      6         -2.082657       -2.082657   1.000000   1.000000
      7         -1.749477       -1.749477   1.000000   1.000000
      8         -1.567483       -1.567483   1.000000   1.000000
      9         -1.498627       -1.498627   1.000000   1.000000
     10         -1.387645       -1.387645   1.000000   1.000000
     11         -1.337726       -1.337726   1.000000   1.000000
     12         -1.122121       -1.122121   1.000000   1.000000
     13         -0.931412       -0.931412   1.000000   1.000000
     14         -0.778947       -0.778947   1.000000   1.000000
     15         -0.611220       -0.611220   1.000000   1.000000
     16         -0.596786       -0.596786   1.000000   1.000000
     17         -0.445858       -0.445858   1.000000   1.000000
     18         -0.370680       -0.370680   1.000000   1.000000
     19         -0.350889       -0.350889   1.000000   1.000000
     20         -0.258713       -0.258713   1.000000   1.000000
     21         -0.228994       -0.228994   1.000000   1.000000
     22         -0.173272       -0.173272   1.000000   1.000000
     23         -0.052372       -0.052372   1.000000   1.000000
     24          0.001910        0.001910   1.000000   1.000000
     25          0.122794        0.122794   1.000000   1.000000
     26          0.250108        0.250108   1.000000   1.000000
     27          0.341228        0.341229   1.000000   1.000000
     28          0.450842        0.450842   1.000000   1.000000
     29          0.494798        0.494798   1.000000   1.000000
     30          0.608886        0.608886   1.000000   1.000000
     31          0.610785        0.610785   1.000000   1.000000
     32          0.695399        0.695399   1.000000   1.000000
     33          0.718248        0.718248   1.000000   1.000000
     34          0.765569        0.765569   1.000000   1.000000
     35          0.794752        0.794752   1.000000   1.000000
     36          0.845065        0.845065   1.000000   1.000000
     37          0.867619        0.867619   1.000000   1.000000
     38          0.888017        0.888017   1.000000   1.000000
     39          0.975828        0.975828   1.000000   1.000000
     40          0.999313        0.999313   1.000000   1.000000
     41          1.113051        1.113051   1.000000   1.000000
     42          1.244064        1.244064   1.000000   1.000000
     43          1.248458        1.248458   1.000000   1.000000
     44          1.259861        1.259861   1.000000   1.000000
     45          1.423916        1.423916   1.000004   1.000004
     46          2.052250        2.052250   0.798663   0.798663
     47          3.165598        3.165598  -0.000000  -0.000000
     48          4.520467        4.520467  -0.000000  -0.000000
     49          6.002867        6.002867  -0.000000  -0.000000
     50          7.190810        7.190811  -0.000000  -0.000000
     51          8.193167        8.193171   0.000000   0.000000
     52          9.074538        9.074539   0.000000   0.000000
     53          9.489590        9.489600   0.000000   0.000000
     54          9.815925        9.815996   0.000000   0.000000
     55         10.164361       10.164396   0.000000   0.000000
     56         10.444296       10.444333   0.000000   0.000000
     57         10.949402       10.949442   0.000000   0.000000
     58         11.551964       11.551985   0.000000   0.000000
     59         11.835486       11.835540   0.000000   0.000000
     60         12.116653       12.116683   0.000000   0.000000
 
 -0.3333333E+00  0.3333333E+00  0.0000000E+00  0.2222222E+00
      1         -2.871603       -2.871603   1.000000   1.000000
      2         -1.492791       -1.492791   1.000000   1.000000
      3         -1.474077       -1.474077   1.000000   1.000000
      4         -1.466561       -1.466561   1.000000   1.000000
      5         -1.410912       -1.410912   1.000000   1.000000
      6         -1.370537       -1.370537   1.000000   1.000000
      7         -1.355991       -1.355991   1.000000   1.000000
      8         -1.323381       -1.323381   1.000000   1.000000
      9         -1.315282       -1.315282   1.000000   1.000000
     10         -1.303208       -1.303208   1.000000   1.000000
     11         -1.300586       -1.300586   1.000000   1.000000
     12         -1.268455       -1.268455   1.000000   1.000000
     13         -1.168603       -1.168603   1.000000   1.000000
     14         -1.081719       -1.081719   1.000000   1.000000
     15         -1.003197       -1.003197   1.000000   1.000000
     16         -0.961927       -0.961927   1.000000   1.000000
     17         -0.656224       -0.656224   1.000000   1.000000
     18         -0.613137       -0.613137   1.000000   1.000000
     19         -0.596152       -0.596152   1.000000   1.000000
     20         -0.539339       -0.539339   1.000000   1.000000
     21         -0.387788       -0.387788   1.000000   1.000000
     22         -0.292336       -0.292336   1.000000   1.000000
     23          0.074003        0.074003   1.000000   1.000000
     24          0.083604        0.083604   1.000000   1.000000
     25          0.286103        0.286103   1.000000   1.000000
     26          0.300996        0.300996   1.000000   1.000000
     27          0.380058        0.380058   1.000000   1.000000
     28          0.386920        0.386920   1.000000   1.000000
     29          0.413495        0.413495   1.000000   1.000000
     30          0.425114        0.425114   1.000000   1.000000
     31          0.434620        0.434620   1.000000   1.000000
     32          0.679776        0.679776   1.000000   1.000000
     33          0.781955        0.781955   1.000000   1.000000
     34          0.908478        0.908478   1.000000   1.000000
     35          0.914103        0.914103   1.000000   1.000000
     36          0.930837        0.930837   1.000000   1.000000
     37          1.007286        1.007286   1.000000   1.000000
     38          1.052661        1.052661   1.000000   1.000000
     39          1.077237        1.077237   1.000000   1.000000
     40          1.125447        1.125447   1.000000   1.000000
     41          1.195581        1.195581   1.000000   1.000000
     42          5.834209        5.834209  -0.000000  -0.000000
     43          5.838117        5.838117  -0.000000  -0.000000
     44          5.862035        5.862035  -0.000000  -0.000000
     45          6.006107        6.006107  -0.000000  -0.000000
     46          6.028029        6.028029  -0.000000  -0.000000
     47          6.248310        6.248310  -0.000000  -0.000000
     48          6.406466        6.406466  -0.000000  -0.000000
     49          6.890256        6.890256  -0.000000  -0.000000
     50          7.154953        7.154954  -0.000000  -0.000000
     51          7.681690        7.681690   0.000000   0.000000
     52          7.762946        7.762946   0.000000   0.000000
     53          7.863558        7.863558   0.000000   0.000000
     54          8.204208        8.204208   0.000000   0.000000
     55          8.335558        8.335558   0.000000   0.000000
     56          8.526081        8.526081   0.000000   0.000000
     57          9.212177        9.212177   0.000000   0.000000
     58          9.400670        9.400670   0.000000   0.000000
     59         10.505493       10.505493   0.000000   0.000000
     60         10.600204       10.600204   0.000000   0.000000
