 vasp.6.3.2 27Jun22 (build Aug 17 2022 15:43:34) complex                        
  
 executed on           tv2STDVTST date 2025.02.04  14:32:01
 running   20 mpi-ranks, with    1 threads/rank
 distrk:  each k-point on   20 cores,    1 groups
 distr:  one band on NCORE=   5 cores,    4 groups


--------------------------------------------------------------------------------------------------------


 -----------------------------------------------------------------------------
|                                                                             |
|           W    W    AA    RRRRR   N    N  II  N    N   GGGG   !!!           |
|           W    W   A  A   R    R  NN   N  II  NN   N  G    G  !!!           |
|           W    W  A    A  R    R  N N  N  II  N N  N  G       !!!           |
|           W WW W  AAAAAA  RRRRR   N  N N  II  N  N N  G  GGG   !            |
|           WW  WW  A    A  R   R   N   NN  II  N   NN  G    G                |
|           W    W  A    A  R    R  N    N  II  N    N   GGGG   !!!           |
|                                                                             |
|     Found issues when parsing the INCAR file                                |
|     In line 61: Tagname --- R W I G S contains invalid characters.          |
|     Please check if the interpretation in the OUTCAR file is correct.       |
|                                                                             |
 -----------------------------------------------------------------------------

 INCAR:
    = \=\=\=\=\=\=\=\=\=\=\=\=\=\=\=\=\=\=\=\=\=\=\=\=\=\=\=\=\=\=\=\=\=\=\=\=\=\=\=\=\=\=\=\=\=\=\=\=\=\=\=\=\=\=\=\=\=\=\=\=\=\=\=\=\=\=\=\=\=\=\=\=
    = \=\=\=\=\=\=\=\=\=\=\=\=\=\=\=\=\=\=\=\=\=\=\=\=\=\=\=\=\=\=\=\=\=\=\=\=\=\=\=\=\=\=\=\=\=\=\=\=\=\=\=\=\=\=\=\=\=\=\=\=\=\=\=\=\=\=\=\=\=\=\=\=
   ISTART = 0
   ICHARG = 2
   IPIPOL = 3
   IVDW = 11
    = \=\=\=\=\=\=\=\=\=\=\=\=\=\=\=\=\=\=\=\=\=\=\=\=\=\=\=\=\=\=\=\=\=\=\=\=\=\=\=\=\=\=\=\=\=\=\=\=\=\=\=\=\=\=\=\=\=\=\=\=\=\=\=\=\=\=\=\=\=\=\=\=
    = \=\=\=\=\=\=\=\=\=\=\=\=\=\=\=\=\=\=\=\=\=\=\=\=\=\=\=\=\=\=\=\=\=\=\=\=\=\=\=\=\=\=\=\=\=\=\=\=\=\=\=\=\=\=\=\=\=\=\=\=\=\=\=\=\=\=\=\=\=\=\=\=
   ISPIN = 2
    = \=\=\=\=\=\=\=\=\=\=\=\=\=\=\=\=\=\=\=\=\=\=\=\=\=\=\=\=\=\=\=\=\=\=\=\=\=\=\=\=\=\=\=\=\=\=\=\=\=\=\=\=\=\=\=\=\=\=\=\=\=\=\=\=\=\=\=\=\=\=\=\=
    = \=\=\=\=\=\=\=\=\=\=\=\=\=\=\=\=\=\=\=\=\=\=\=\=\=\=\=\=\=\=\=\=\=\=\=\=\=\=\=\=\=\=\=\=\=\=\=\=\=\=\=\=\=\=\=\=\=\=\=\=\=\=\=\=\=\=\=\=\=\=\=\=
   ENCUT = 400
   PREC = Normal
   EDIFF = 2E-04
   GGA = PE
   ISMEAR = 1
   SIGMA = 0.2
   LREAL = .FALSE.
    = \=\=\=\=\=\=\=\=\=\=\=\=\=\=\=\=\=\=\=\=\=\=\=\=\=\=\=\=\=\=\=\=\=\=\=\=\=\=\=\=\=\=\=\=\=\=\=\=\=\=\=\=\=\=\=\=\=\=\=\=\=\=\=\=\=\=\=\=\=\=\=\=
    = \=\=\=\=\=\=\=\=\=\=\=\=\=\=\=\=\=\=\=\=\=\=\=\=\=\=\=\=\=\=\=\=\=\=\=\=\=\=\=\=\=\=\=\=\=\=\=\=\=\=\=\=\=\=\=\=\=\=\=\=\=\=\=\=\=\=\=\=\=\=\=\=
   ISYM = 1
   NSW = 800
   IBRION = 2
   POTIM = 0.5
   ISIF = 2
   EDIFFG = -.03
    = \=\=\=\=\=\=\=\=\=\=\=\=\=\=\=\=\=\=\=\=\=\=\=\=\=\=\=\=\=\=\=\=\=\=\=\=\=\=\=\=\=\=\=\=\=\=\=\=\=\=\=\=\=\=\=\=\=\=\=\=\=\=\=\=\=\=\=\=\=\=\=\=
    = \=\=\=\=\=\=\=\=\=\=\=\=\=\=\=\=\=\=\=\=\=\=\=\=\=\=\=\=\=\=\=\=\=\=\=\=\=\=\=\=\=\=\=\=\=\=\=\=\=\=\=\=\=\=\=\=\=\=\=\=\=\=\=\=\=\=\=\=\=\=\=\=
   NPAR = 4
   LWAVE = .FALSE.
   LCHARG = .FALSE.

 POTCAR:    PAW_PBE Cu 22Jun2005                  
 POTCAR:    PAW_PBE H 15Jun2001                   
 -----------------------------------------------------------------------------
|                                                                             |
|           W    W    AA    RRRRR   N    N  II  N    N   GGGG   !!!           |
|           W    W   A  A   R    R  NN   N  II  NN   N  G    G  !!!           |
|           W    W  A    A  R    R  N N  N  II  N N  N  G       !!!           |
|           W WW W  AAAAAA  RRRRR   N  N N  II  N  N N  G  GGG   !            |
|           WW  WW  A    A  R   R   N   NN  II  N   NN  G    G                |
|           W    W  A    A  R    R  N    N  II  N    N   GGGG   !!!           |
|                                                                             |
|     You use a magnetic or noncollinear calculation, but did not specify     |
|     the initial magnetic moment with the MAGMOM tag. Note that a            |
|     default of 1 will be used for all atoms. This ferromagnetic setup       |
|     may break the symmetry of the crystal, in particular it may rule        |
|     out finding an antiferromagnetic solution. Thence, we recommend         |
|     setting the initial magnetic moment manually or verifying carefully     |
|     that this magnetic setup is desired.                                    |
|                                                                             |
 -----------------------------------------------------------------------------

 POTCAR:    PAW_PBE Cu 22Jun2005                  
   SHA256 =  0e71e558f37a4e8407882b4609ceaae59938afaad9ced71dfe8490308a0ab630 Cu/POTCAR             
   COPYR  = (c) Copyright 22Jun2005 Georg Kresse                                                    
   COPYR  = This file is part of the software VASP. Any use, copying, and all other rights are regul
   COPYR  = If you do not have a valid VASP license, you may not use, copy or distribute this file. 
   VRHFIN =Cu: d10 p1                                                                               
   LEXCH  = PE                                                                                      
   EATOM  =  1390.9808 eV,  102.2342 Ry                                                             
                                                                                                    
   TITEL  = PAW_PBE Cu 22Jun2005                                                                    
   LULTRA =        F    use ultrasoft PP ?                                                          
   IUNSCR =        1    unscreen: 0-lin 1-nonlin 2-no                                               
   RPACOR =    2.000    partial core radius                                                         
   POMASS =   63.546; ZVAL   =   11.000    mass and valenz                                          
   RCORE  =    2.300    outmost cutoff radius                                                       
   RWIGS  =    2.200; RWIGS  =    1.164    wigner-seitz radius (au A)                               
   ENMAX  =  295.446; ENMIN  =  221.585 eV                                                          
   ICORE  =        3    local potential                                                             
   LCOR   =        T    correct aug charges                                                         
   LPAW   =        T    paw PP                                                                      
   EAUG   =  586.980                                                                                
   DEXC   =    0.000                                                                                
   RMAX   =    2.344    core radius for proj-oper                                                   
   RAUG   =    1.300    factor for augmentation sphere                                              
   RDEP   =    2.302    radius for radial grids                                                     
   RDEPT  =    1.771    core radius for aug-charge                                                  
                                                                                                    
   Atomic configuration                                                                             
    9 entries                                                                                       
     n  l   j            E        occ.                                                              
     1  0  0.50     -8850.2468   2.0000                                                             
     2  0  0.50     -1062.3498   2.0000                                                             
     2  1  1.50      -916.8226   6.0000                                                             
     3  0  0.50      -114.6929   2.0000                                                             
     3  1  1.50       -72.1325   6.0000                                                             
     3  2  2.50        -5.0394  10.0000                                                             
     4  0  0.50        -4.6097   1.0000                                                             
     4  1  0.50        -4.0817   0.0000                                                             
     4  3  2.50        -1.3606   0.0000                                                             
   Description                                                                                      
     l       E           TYP  RCUT    TYP  RCUT                                                     
     2     -5.0393973     23  2.200                                                                 
     2     10.8846608     23  2.200                                                                 
     0     -4.6097109     23  2.200                                                                 
     0      8.2520465     23  2.200                                                                 
     1     -2.7211652     23  2.200                                                                 
     1     21.7055443     23  2.200                                                                 
     3      2.7211652     23  2.300                                                                 
  local pseudopotential read in
  partial core-charges read in
  partial kinetic energy density read in
  atomic valenz-charges read in
  non local Contribution for L=           2  read in
    real space projection operators read in
  non local Contribution for L=           2  read in
    real space projection operators read in
  non local Contribution for L=           0  read in
    real space projection operators read in
  non local Contribution for L=           0  read in
    real space projection operators read in
  non local Contribution for L=           1  read in
    real space projection operators read in
  non local Contribution for L=           1  read in
    real space projection operators read in
    PAW grid and wavefunctions read in
 
   number of l-projection  operators is LMAX  =           6
   number of lm-projection operators is LMMAX =          18
 
 POTCAR:    PAW_PBE H 15Jun2001                   
   SHA256 =  030f79b5d3ab3cf0e668861823c8fb652ff669f3e15e46930bd03bfd63a607b6 H/POTCAR              
   COPYR  = (c) Copyright 15Jun2001 Georg Kresse                                                    
   COPYR  = This file is part of the software VASP. Any use, copying, and all other rights are regul
   COPYR  = If you do not have a valid VASP license, you may not use, copy or distribute this file. 
   VRHFIN =H: ultrasoft test                                                                        
   LEXCH  = PE                                                                                      
   EATOM  =    12.4884 eV,    0.9179 Ry                                                             
                                                                                                    
   TITEL  = PAW_PBE H 15Jun2001                                                                     
   LULTRA =        F    use ultrasoft PP ?                                                          
   IUNSCR =        0    unscreen: 0-lin 1-nonlin 2-no                                               
   RPACOR =    0.000    partial core radius                                                         
   POMASS =    1.000; ZVAL   =    1.000    mass and valenz                                          
   RCORE  =    1.100    outmost cutoff radius                                                       
   RWIGS  =    0.700; RWIGS  =    0.370    wigner-seitz radius (au A)                               
   ENMAX  =  250.000; ENMIN  =  200.000 eV                                                          
   RCLOC  =    0.701    cutoff for local pot                                                        
   LCOR   =        T    correct aug charges                                                         
   LPAW   =        T    paw PP                                                                      
   EAUG   =  400.000                                                                                
   RMAX   =    1.123    core radius for proj-oper                                                   
   RAUG   =    1.200    factor for augmentation sphere                                              
   RDEP   =    1.112    radius for radial grids                                                     
   RDEPT  =    0.926    core radius for aug-charge                                                  
                                                                                                    
   Atomic configuration                                                                             
    2 entries                                                                                       
     n  l   j            E        occ.                                                              
     1  0  0.50        -6.4927   1.0000                                                             
     2  1  0.50        -3.4015   0.0000                                                             
   Description                                                                                      
     l       E           TYP  RCUT    TYP  RCUT                                                     
     0     -6.4927494     23  1.100                                                                 
     0      6.8029130     23  1.100                                                                 
     1     -4.0817478     23  1.100                                                                 
  local pseudopotential read in
  atomic valenz-charges read in
  non local Contribution for L=           0  read in
    real space projection operators read in
  non local Contribution for L=           0  read in
    real space projection operators read in
  non local Contribution for L=           1  read in
    real space projection operators read in
    PAW grid and wavefunctions read in
 
   number of l-projection  operators is LMAX  =           3
   number of lm-projection operators is LMMAX =           5
 
  PAW_PBE Cu 22Jun2005                  :
 energy of atom  1       EATOM=-1390.9808
 kinetic energy error for atom=    0.0232 (will be added to EATOM!!)
  PAW_PBE H 15Jun2001                   :
 energy of atom  2       EATOM=  -12.4884
 kinetic energy error for atom=    0.0098 (will be added to EATOM!!)
 
 
 POSCAR: FCC Cu
  positions in cartesian coordinates
  No initial velocities read in
 exchange correlation table for  LEXCH =        8
   RHO(1)=    0.500       N(1)  =     2000
   RHO(2)=  100.500       N(2)  =     4000

 VTST: version 4.2, (08/11/21)

 CHAIN: initializing optimizer
 
 OPT: Using VASP Conjugate-Gradient optimizer
 CHAIN: Read ICHAIN            0
 
 POSCAR: FCC Cu
  positions in cartesian coordinates
  No initial velocities read in
 


--------------------------------------------------------------------------------------------------------


 ion  position               nearest neighbor table
   1  0.000  0.000  0.000-   2 2.57   2 2.57   2 2.57
   2  0.333  0.333  0.071-   3 2.51   3 2.51   3 2.51   1 2.57   1 2.57   1 2.57
   3  0.667  0.667  0.139-   2 2.51   2 2.51   2 2.51   4 2.53   4 2.53   4 2.53
   4  0.000  0.000  0.208-   5 2.51   5 2.51   5 2.51   3 2.53   3 2.53   3 2.53
   5  0.333  0.333  0.277-   4 2.51   4 2.51   4 2.51   6 2.53   6 2.53   6 2.53
   6  0.667  0.667  0.346-   7 2.51   7 2.51   7 2.51   5 2.53   5 2.53   5 2.53
   7  0.000  0.000  0.414-   8 2.49   8 2.49   8 2.49   6 2.51   6 2.51   6 2.51
   8  0.333  0.333  0.481-   9 1.57   7 2.49   7 2.49   7 2.49
   9  0.333  0.333  0.534-  10 0.75   8 1.57
  10  0.215  0.571  0.552-   9 0.75
 
  LATTYP: Found a hexagonal cell.
 ALAT       =     2.5667977333
 C/A-ratio  =    11.5593335643
  
  Lattice vectors:
  
 A1 = (  -1.2833988667,  -2.2229120434,   0.0000000000)
 A2 = (   2.5667977333,   0.0000000000,   0.0000000000)
 A3 = (   0.0000000000,   0.0000000000,  29.6704711914)


Analysis of symmetry for initial positions (statically):
=====================================================================
 Subroutine PRICEL returns:
 Original cell was already a primitive cell.
 

 Routine SETGRP: Setting up the symmetry group for a 
 hexagonal supercell.


 Subroutine GETGRP returns: Found  2 space group operations
 (whereof  2 operations were pure point group operations)
 out of a pool of 24 trial point group operations.


The static configuration has the point symmetry C_1h.


Analysis of symmetry for dynamics (positions and initial velocities):
=====================================================================
 Subroutine PRICEL returns:
 Original cell was already a primitive cell.
 

 Routine SETGRP: Setting up the symmetry group for a 
 hexagonal supercell.


 Subroutine GETGRP returns: Found  2 space group operations
 (whereof  2 operations were pure point group operations)
 out of a pool of 24 trial point group operations.


The dynamic configuration has the point symmetry C_1h.


Analysis of structural, dynamic, and magnetic symmetry:
=====================================================================
 Subroutine PRICEL returns:
 Original cell was already a primitive cell.
 

 Routine SETGRP: Setting up the symmetry group for a 
 hexagonal supercell.


 Subroutine GETGRP returns: Found  2 space group operations
 (whereof  2 operations were pure point group operations)
 out of a pool of 24 trial point group operations.


The overall configuration has the point symmetry C_1h.


 Subroutine INISYM returns: Found  2 space group operations
 (whereof  2 operations are pure point group operations),
 and found     1 'primitive' translations


----------------------------------------------------------------------------------------

                                     Primitive cell                                     

  volume of cell :     169.2928

  direct lattice vectors                    reciprocal lattice vectors
     2.566797733  0.000000000  0.000000000     0.389590495 -0.224930177  0.000000000
     1.283398867  2.222912043  0.000000000     0.000000000  0.449860355  0.000000000
     0.000000000  0.000000000 29.670471191     0.000000000  0.000000000  0.033703543

  length of vectors
     2.566797733  2.566797733 29.670471191     0.449860355  0.449860355  0.033703543

  position of ions in fractional coordinates (direct lattice)
     0.000000000  0.000000000  0.000000000
     0.333333333  0.333333333  0.070635264
     0.666666667  0.666666667  0.139085938
     0.000000000  0.000000000  0.208165116
     0.333333333  0.333333333  0.276562395
     0.666666667  0.666666667  0.345560339
     0.000000000  0.000000000  0.414005934
     0.333333333  0.333333333  0.481392695
     0.333333334  0.333333333  0.534259303
     0.214682292  0.570635416  0.552037977

  ion indices of the primitive-cell ions
   primitive index   ion index
                 1           1
                 2           2
                 3           3
                 4           4
                 5           5
                 6           6
                 7           7
                 8           8
                 9           9
                10          10

----------------------------------------------------------------------------------------

 
 
 KPOINTS: Auto-mesh                               

Automatic generation of k-mesh.
 Grid dimensions read from file:
 generate k-points for:    3    3    1

 Generating k-lattice:

  Cartesian coordinates                     Fractional coordinates (reciprocal lattice)
     0.129863498 -0.074976726  0.000000000     0.333333333  0.000000000  0.000000000
     0.000000000  0.149953452  0.000000000     0.000000000  0.333333333  0.000000000
     0.000000000  0.000000000  0.033703543     0.000000000  0.000000000  1.000000000

  Length of vectors
     0.149953452  0.149953452  0.033703543

  Shift w.r.t. Gamma in fractional coordinates (k-lattice)
     0.000000000  0.000000000  0.000000000

 
 Subroutine IBZKPT returns following result:
 ===========================================
 
 Found      4 irreducible k-points:
 
 Following reciprocal coordinates:
            Coordinates               Weight
  0.000000  0.000000  0.000000      1.000000
  0.333333  0.000000  0.000000      4.000000
  0.000000  0.333333  0.000000      2.000000
 -0.333333  0.333333  0.000000      2.000000
 
 Following cartesian coordinates:
            Coordinates               Weight
  0.000000  0.000000  0.000000      1.000000
  0.129863 -0.074977  0.000000      4.000000
  0.000000  0.149953  0.000000      2.000000
 -0.129863  0.224930  0.000000      2.000000
 


--------------------------------------------------------------------------------------------------------




 Dimension of arrays:
   k-points           NKPTS =      4   k-points in BZ     NKDIM =      4   number of bands    NBANDS=     60
   number of dos      NEDOS =    301   number of ions     NIONS =     10
   non local maximal  LDIM  =      6   non local SUM 2l+1 LMDIM =     18
   total plane-waves  NPLWV =  29400
   max r-space proj   IRMAX =      1   max aug-charges    IRDMAX=   5229
   dimension x,y,z NGX =    14 NGY =   14 NGZ =  150
   dimension x,y,z NGXF=    28 NGYF=   28 NGZF=  300
   support grid    NGXF=    28 NGYF=   28 NGZF=  300
   ions per type =               8   2
   NGX,Y,Z   is equivalent  to a cutoff of   9.07,  9.07,  8.40 a.u.
   NGXF,Y,Z  is equivalent  to a cutoff of  18.13, 18.13, 16.81 a.u.

 SYSTEM =  unknown system                          
 POSCAR =  FCC Cu                                  

 Startparameter for this run:
   NWRITE =      2    write-flag & timer
   PREC   = normal    normal or accurate (medium, high low for compatibility)
   ISTART =      0    job   : 0-new  1-cont  2-samecut
   ICHARG =      2    charge: 1-file 2-atom 10-const
   ISPIN  =      2    spin polarized calculation?
   LNONCOLLINEAR =      F non collinear calculations
   LSORBIT =      F    spin-orbit coupling
   INIWAV =      1    electr: 0-lowe 1-rand  2-diag
   LASPH  =      F    aspherical Exc in radial PAW
 Electronic Relaxation 1
   ENCUT  =  400.0 eV  29.40 Ry    5.42 a.u.   4.19  4.19 48.39*2*pi/ulx,y,z
   ENINI  =  400.0     initial cutoff
   ENAUG  =  587.0 eV  augmentation charge cutoff
   NELM   =     60;   NELMIN=  2; NELMDL= -5     # of ELM steps 
   EDIFF  = 0.2E-03   stopping-criterion for ELM
   LREAL  =      F    real-space projection
   NLSPLINE    = F    spline interpolate recip. space projectors
   LCOMPAT=      F    compatible to vasp.4.4
   GGA_COMPAT  = T    GGA compatible to vasp.4.4-vasp.4.6
   LMAXPAW     = -100 max onsite density
   LMAXMIX     =    2 max onsite mixed and CHGCAR
   VOSKOWN=      0    Vosko Wilk Nusair interpolation
   ROPT   =    0.00000   0.00000
 Ionic relaxation
   EDIFFG = -.3E-01   stopping-criterion for IOM
   NSW    =    800    number of steps for IOM
   NBLOCK =      1;   KBLOCK =    800    inner block; outer block 
   IBRION =      2    ionic relax: 0-MD 1-quasi-New 2-CG
   NFREE  =      1    steps in history (QN), initial steepest desc. (CG)
   ISIF   =      2    stress and relaxation
   IWAVPR =     11    prediction:  0-non 1-charg 2-wave 3-comb
   ISYM   =      1    0-nonsym 1-usesym 2-fastsym
   LCORR  =      T    Harris-Foulkes like correction to forces

   POTIM  = 0.5000    time-step for ionic-motion
   TEIN   =    0.0    initial temperature
   TEBEG  =    0.0;   TEEND  =   0.0 temperature during run
   SMASS  =  -3.00    Nose mass-parameter (am)
   estimated Nose-frequenzy (Omega)   =  0.10E-29 period in steps = 0.13E+47 mass=  -0.151E-27a.u.
   SCALEE = 1.0000    scale energy and forces
   NPACO  =    256;   APACO  = 10.0  distance and # of slots for P.C.
   PSTRESS=    0.0 pullay stress

  Mass of Ions in am
   POMASS =  63.55  1.00
  Ionic Valenz
   ZVAL   =  11.00  1.00
  Atomic Wigner-Seitz radii
   RWIGS  =  -1.00 -1.00
  virtual crystal weights 
   VCA    =   1.00  1.00
   NELECT =      90.0000    total number of electrons
   NUPDOWN=      -1.0000    fix difference up-down

 DOS related values:
   EMIN   =  10.00;   EMAX   =-10.00  energy-range for DOS
   EFERMI =   0.00
   ISMEAR =     1;   SIGMA  =   0.20  broadening in eV -4-tet -1-fermi 0-gaus

 Electronic relaxation 2 (details)
   IALGO  =     38    algorithm
   LDIAG  =      T    sub-space diagonalisation (order eigenvalues)
   LSUBROT=      F    optimize rotation matrix (better conditioning)
   TURBO    =      0    0=normal 1=particle mesh
   IRESTART =      0    0=no restart 2=restart with 2 vectors
   NREBOOT  =      0    no. of reboots
   NMIN     =      0    reboot dimension
   EREF     =   0.00    reference energy to select bands
   IMIX   =      4    mixing-type and parameters
     AMIX     =   0.40;   BMIX     =  1.00
     AMIX_MAG =   1.60;   BMIX_MAG =  1.00
     AMIN     =   0.10
     WC   =   100.;   INIMIX=   1;  MIXPRE=   1;  MAXMIX= -45

 Intra band minimization:
   WEIMIN = 0.0010     energy-eigenvalue tresh-hold
   EBREAK =  0.83E-06  absolut break condition
   DEPER  =   0.30     relativ break condition  

   TIME   =   0.40     timestep for ELM

  volume/ion in A,a.u.               =      16.93       114.24
  Fermi-wavevector in a.u.,A,eV,Ry     =   1.326202  2.506158 23.930072  1.758811
  Thomas-Fermi vector in A             =   2.455606
 
 Write flags
   LWAVE        =      F    write WAVECAR
   LDOWNSAMPLE  =      F    k-point downsampling of WAVECAR
   LCHARG       =      F    write CHGCAR
   LVTOT        =      F    write LOCPOT, total local potential
   LVHAR        =      F    write LOCPOT, Hartree potential only
   LELF         =      F    write electronic localiz. function (ELF)
   LORBIT       =      0    0 simple, 1 ext, 2 COOP (PROOUT), +10 PAW based schemes


 Dipole corrections
   LMONO  =      F    monopole corrections only (constant potential shift)
   LDIPOL =      F    correct potential (dipole corrections)
   IDIPOL =      0    1-x, 2-y, 3-z, 4-all directions 
   EPSILON=  1.0000000 bulk dielectric constant

 Exchange correlation treatment:
   GGA     =    PE    GGA type
   LEXCH   =     8    internal setting for exchange type
   LIBXC   =     F    Libxc                    
   VOSKOWN =     0    Vosko Wilk Nusair interpolation
   LHFCALC =     F    Hartree Fock is set to
   LHFONE  =     F    Hartree Fock one center treatment
   AEXX    =    0.0000 exact exchange contribution

 Linear response parameters
   LEPSILON=     F    determine dielectric tensor
   LRPA    =     F    only Hartree local field effects (RPA)
   LNABLA  =     F    use nabla operator in PAW spheres
   LVEL    =     F    velocity operator in full k-point grid
   CSHIFT  =0.1000    complex shift for real part using Kramers Kronig
   OMEGAMAX=  -1.0    maximum frequency
   DEG_THRESHOLD= 0.2000000E-02 threshold for treating states as degnerate
   RTIME   =   -0.100 relaxation time in fs
  (WPLASMAI=    0.000 imaginary part of plasma frequency in eV, 0.658/RTIME)
   DFIELD  = 0.0000000 0.0000000 0.0000000 field for delta impulse in time
 
  Optional k-point grid parameters
   LKPOINTS_OPT  =     F    use optional k-point grid
   KPOINTS_OPT_MODE=     1    mode for optional k-point grid
 
 Orbital magnetization related:
   ORBITALMAG=     F  switch on orbital magnetization
   LCHIMAG   =     F  perturbation theory with respect to B field
   DQ        =  0.001000  dq finite difference perturbation B field
   LLRAUG    =     F  two centre corrections for induced B field



--------------------------------------------------------------------------------------------------------


 conjugate gradient relaxation of ions
 charge density and potential will be updated during run
 spin polarized calculation
 Variant of blocked Davidson
 Davidson routine will perform the subspace rotation
 perform sub-space diagonalisation
    after iterative eigenvector-optimisation
 modified Broyden-mixing scheme, WC =      100.0
 initial mixing is a Kerker type mixing with AMIX =  0.4000 and BMIX =      1.0000
 Hartree-type preconditioning will be used
 using additional bands           15
 reciprocal scheme for non local part
 use partial core corrections
 calculate Harris-corrections to forces 
   (improved forces if not selfconsistent)
 use gradient corrections 
 use of overlap-Matrix (Vanderbilt PP)
 Methfessel and Paxton  Order N= 1 SIGMA  =   0.20


--------------------------------------------------------------------------------------------------------


  energy-cutoff  :      400.00
  volume of cell :      169.29
      direct lattice vectors                 reciprocal lattice vectors
     2.566797733  0.000000000  0.000000000     0.389590495 -0.224930177  0.000000000
     1.283398867  2.222912043  0.000000000     0.000000000  0.449860355  0.000000000
     0.000000000  0.000000000 29.670471191     0.000000000  0.000000000  0.033703543

  length of vectors
     2.566797733  2.566797733 29.670471191     0.449860355  0.449860355  0.033703543


 
 k-points in units of 2pi/SCALE and weight: Auto-mesh                               
   0.00000000  0.00000000  0.00000000       0.111
   0.12986350 -0.07497673  0.00000000       0.444
   0.00000000  0.14995345  0.00000000       0.222
  -0.12986350  0.22493018  0.00000000       0.222
 
 k-points in reciprocal lattice and weights: Auto-mesh                               
   0.00000000  0.00000000  0.00000000       0.111
   0.33333333  0.00000000  0.00000000       0.444
   0.00000000  0.33333333  0.00000000       0.222
  -0.33333333  0.33333333  0.00000000       0.222
 
 position of ions in fractional coordinates (direct lattice) 
   0.00000000  0.00000000  0.00000000
   0.33333333  0.33333333  0.07063526
   0.66666667  0.66666667  0.13908594
   0.00000000  0.00000000  0.20816512
   0.33333333  0.33333333  0.27656240
   0.66666667  0.66666667  0.34556034
   0.00000000  0.00000000  0.41400593
   0.33333333  0.33333333  0.48139269
   0.33333333  0.33333333  0.53425930
   0.21468229  0.57063542  0.55203798
 
 position of ions in cartesian coordinates  (Angst):
   0.00000000  0.00000000  0.00000000
   1.28339887  0.74097068  2.09578157
   2.56679773  1.48194136  4.12674532
   0.00000000  0.00000000  6.17635708
   1.28339887  0.74097068  8.20573658
   2.56679773  1.48194136 10.25293808
   0.00000000  0.00000000 12.28375114
   1.28339887  0.74097068 14.28314809
   1.28339887  0.74097068 15.85172525
   1.28339887  1.26847234 16.37922691
 


--------------------------------------------------------------------------------------------------------


 k-point   1 :   0.0000 0.0000 0.0000  plane waves:    3091
 k-point   2 :   0.3333 0.0000 0.0000  plane waves:    3081
 k-point   3 :   0.0000 0.3333 0.0000  plane waves:    3081
 k-point   4 :  -0.3333 0.3333 0.0000  plane waves:    3096

 maximum and minimum number of plane-waves per node :       634      594

 maximum number of plane-waves:      3096
 maximum index in each direction: 
   IXMAX=    4   IYMAX=    4   IZMAX=   48
   IXMIN=   -4   IYMIN=   -4   IZMIN=  -48


 parallel 3D FFT for wavefunctions:
    minimum data exchange during FFTs selected (reduces bandwidth)
 parallel 3D FFT for charge:
    minimum data exchange during FFTs selected (reduces bandwidth)


 total amount of memory used by VASP MPI-rank0    34706. kBytes
=======================================================================

   base      :      30000. kBytes
   nonl-proj :        813. kBytes
   fftplans  :        716. kBytes
   grid      :       1856. kBytes
   one-center:         62. kBytes
   wavefun   :       1259. kBytes
 
     INWAV:  cpu time      0.0000: real time      0.0004
 Broyden mixing: mesh for mixing (old mesh)
   NGX =  9   NGY =  9   NGZ = 97
  (NGX  = 28   NGY  = 28   NGZ  =300)
  gives a total of   7857 points

 initial charge density was supplied:
 charge density of overlapping atoms calculated
 number of electron      90.0000000 magnetization      10.0000000
 keeping initial charge density in first step


--------------------------------------------------------------------------------------------------------


 Maximum index for augmentation-charges          479 (set IRDMAX)


--------------------------------------------------------------------------------------------------------


 First call to EWALD:  gamma=   0.320
 Maximum number of real-space cells 6x 6x 1
 Maximum number of reciprocal cells 2x 2x13

    FEWALD:  cpu time      0.0019: real time      0.0019


--------------------------------------- Iteration      1(   1)  ---------------------------------------


    POTLOK:  cpu time      0.0223: real time      0.0226
    SETDIJ:  cpu time      0.0068: real time      0.0069
     EDDAV:  cpu time      0.2842: real time      0.2870
       DOS:  cpu time      0.0016: real time      0.0016
    --------------------------------------------
      LOOP:  cpu time      0.3150: real time      0.3181

 eigenvalue-minimisations  :   960
 total energy-change (2. order) : 0.7973387E+03  (-0.3350713E+04)
 number of electron      90.0000000 magnetization      10.0000000
 augmentation part       90.0000000 magnetization      10.0000000

 Free energy of the ion-electron system (eV)
  ---------------------------------------------------
  alpha Z        PSCENC =       285.34744303
  Ewald energy   TEWEN  =     52364.20072896
  -Hartree energ DENC   =    -63414.45184156
  -exchange      EXHF   =         0.00000000
  -V(xc)+E(xc)   XCENC  =       372.72360895
  PAW double counting   =      9828.36862813   -10674.97285505
  entropy T*S    EENTRO =         0.01467690
  eigenvalues    EBANDS =       883.48996102
  atomic energy  EATOM  =     11152.61838693
  Solvation  Ediel_sol  =         0.00000000
  ---------------------------------------------------
  free energy    TOTEN  =       797.33873731 eV

  energy without entropy =      797.32406040  energy(sigma->0) =      797.33384501


--------------------------------------------------------------------------------------------------------




--------------------------------------- Iteration      1(   2)  ---------------------------------------


     EDDAV:  cpu time      0.2733: real time      0.2762
       DOS:  cpu time      0.0008: real time      0.0008
    --------------------------------------------
      LOOP:  cpu time      0.2742: real time      0.2770

 eigenvalue-minimisations  :   960
 total energy-change (2. order) :-0.7238837E+03  (-0.6925362E+03)
 number of electron      90.0000000 magnetization      10.0000000
 augmentation part       90.0000000 magnetization      10.0000000

 Free energy of the ion-electron system (eV)
  ---------------------------------------------------
  alpha Z        PSCENC =       285.34744303
  Ewald energy   TEWEN  =     52364.20072896
  -Hartree energ DENC   =    -63414.45184156
  -exchange      EXHF   =         0.00000000
  -V(xc)+E(xc)   XCENC  =       372.72360895
  PAW double counting   =      9828.36862813   -10674.97285505
  entropy T*S    EENTRO =        -0.00632215
  eigenvalues    EBANDS =       159.62728115
  atomic energy  EATOM  =     11152.61838693
  Solvation  Ediel_sol  =         0.00000000
  ---------------------------------------------------
  free energy    TOTEN  =        73.45505838 eV

  energy without entropy =       73.46138053  energy(sigma->0) =       73.45716577


--------------------------------------------------------------------------------------------------------




--------------------------------------- Iteration      1(   3)  ---------------------------------------


     EDDAV:  cpu time      0.2764: real time      0.2798
       DOS:  cpu time      0.0009: real time      0.0009
    --------------------------------------------
      LOOP:  cpu time      0.2773: real time      0.2807

 eigenvalue-minimisations  :   984
 total energy-change (2. order) :-0.1066455E+03  (-0.1001437E+03)
 number of electron      90.0000000 magnetization      10.0000000
 augmentation part       90.0000000 magnetization      10.0000000

 Free energy of the ion-electron system (eV)
  ---------------------------------------------------
  alpha Z        PSCENC =       285.34744303
  Ewald energy   TEWEN  =     52364.20072896
  -Hartree energ DENC   =    -63414.45184156
  -exchange      EXHF   =         0.00000000
  -V(xc)+E(xc)   XCENC  =       372.72360895
  PAW double counting   =      9828.36862813   -10674.97285505
  entropy T*S    EENTRO =         0.01868802
  eigenvalues    EBANDS =        52.95680781
  atomic energy  EATOM  =     11152.61838693
  Solvation  Ediel_sol  =         0.00000000
  ---------------------------------------------------
  free energy    TOTEN  =       -33.19040478 eV

  energy without entropy =      -33.20909280  energy(sigma->0) =      -33.19663412


--------------------------------------------------------------------------------------------------------




--------------------------------------- Iteration      1(   4)  ---------------------------------------


     EDDAV:  cpu time      0.3018: real time      0.3043
       DOS:  cpu time      0.0009: real time      0.0009
    --------------------------------------------
      LOOP:  cpu time      0.3027: real time      0.3051

 eigenvalue-minimisations  :  1104
 total energy-change (2. order) :-0.4501068E+01  (-0.4463393E+01)
 number of electron      90.0000000 magnetization      10.0000000
 augmentation part       90.0000000 magnetization      10.0000000

 Free energy of the ion-electron system (eV)
  ---------------------------------------------------
  alpha Z        PSCENC =       285.34744303
  Ewald energy   TEWEN  =     52364.20072896
  -Hartree energ DENC   =    -63414.45184156
  -exchange      EXHF   =         0.00000000
  -V(xc)+E(xc)   XCENC  =       372.72360895
  PAW double counting   =      9828.36862813   -10674.97285505
  entropy T*S    EENTRO =         0.02819001
  eigenvalues    EBANDS =        48.44623810
  atomic energy  EATOM  =     11152.61838693
  Solvation  Ediel_sol  =         0.00000000
  ---------------------------------------------------
  free energy    TOTEN  =       -37.69147251 eV

  energy without entropy =      -37.71966252  energy(sigma->0) =      -37.70086918


--------------------------------------------------------------------------------------------------------




--------------------------------------- Iteration      1(   5)  ---------------------------------------


     EDDAV:  cpu time      0.3256: real time      0.3285
       DOS:  cpu time      0.0009: real time      0.0009
    CHARGE:  cpu time      0.0579: real time      0.0582
    MIXING:  cpu time      0.0012: real time      0.0012
    --------------------------------------------
      LOOP:  cpu time      0.3856: real time      0.3887

 eigenvalue-minimisations  :  1152
 total energy-change (2. order) :-0.9993312E-01  (-0.9987569E-01)
 number of electron      89.9999965 magnetization       9.3968843
 augmentation part       52.0585964 magnetization       9.0844073

 Broyden mixing:
  rms(total) = 0.27987E+01    rms(broyden)= 0.27985E+01
  rms(prec ) = 0.28648E+01
  weight for this iteration     100.00

 Free energy of the ion-electron system (eV)
  ---------------------------------------------------
  alpha Z        PSCENC =       285.34744303
  Ewald energy   TEWEN  =     52364.20072896
  -Hartree energ DENC   =    -63414.45184156
  -exchange      EXHF   =         0.00000000
  -V(xc)+E(xc)   XCENC  =       372.72360895
  PAW double counting   =      9828.36862813   -10674.97285505
  entropy T*S    EENTRO =         0.02854792
  eigenvalues    EBANDS =        48.34594706
  atomic energy  EATOM  =     11152.61838693
  Solvation  Ediel_sol  =         0.00000000
  ---------------------------------------------------
  free energy    TOTEN  =       -37.79140563 eV

  energy without entropy =      -37.81995355  energy(sigma->0) =      -37.80092161


--------------------------------------------------------------------------------------------------------




--------------------------------------- Iteration      1(   6)  ---------------------------------------


    POTLOK:  cpu time      0.0208: real time      0.0211
    SETDIJ:  cpu time      0.0069: real time      0.0069
     EDDAV:  cpu time      0.3424: real time      0.3452
       DOS:  cpu time      0.0013: real time      0.0013
    CHARGE:  cpu time      0.0551: real time      0.0553
    MIXING:  cpu time      0.0006: real time      0.0006
    --------------------------------------------
      LOOP:  cpu time      0.4272: real time      0.4305

 eigenvalue-minimisations  :  1300
 total energy-change (2. order) : 0.3635181E+01  (-0.1086350E+02)
 number of electron      89.9999985 magnetization       9.1449870
 augmentation part       56.8448379 magnetization       6.8246172

 Broyden mixing:
  rms(total) = 0.20114E+01    rms(broyden)= 0.20110E+01
  rms(prec ) = 0.29259E+01
  weight for this iteration     100.00

 eigenvalues of (default mixing * dielectric matrix)
  average eigenvalue GAMMA=   0.7174
  0.7174

 Free energy of the ion-electron system (eV)
  ---------------------------------------------------
  alpha Z        PSCENC =       285.34744303
  Ewald energy   TEWEN  =     52364.20072896
  -Hartree energ DENC   =    -63207.34617765
  -exchange      EXHF   =         0.00000000
  -V(xc)+E(xc)   XCENC  =       365.48273686
  PAW double counting   =     10014.94075094   -10818.60213595
  entropy T*S    EENTRO =        -0.02768837
  eigenvalues    EBANDS =      -190.77026930
  atomic energy  EATOM  =     11152.61838693
  Solvation  Ediel_sol  =         0.00000000
  ---------------------------------------------------
  free energy    TOTEN  =       -34.15622455 eV

  energy without entropy =      -34.12853618  energy(sigma->0) =      -34.14699510


--------------------------------------------------------------------------------------------------------




--------------------------------------- Iteration      1(   7)  ---------------------------------------


    POTLOK:  cpu time      0.0191: real time      0.0193
    SETDIJ:  cpu time      0.0059: real time      0.0059
     EDDAV:  cpu time      0.3591: real time      0.3622
       DOS:  cpu time      0.0009: real time      0.0009
    CHARGE:  cpu time      0.0569: real time      0.0571
    MIXING:  cpu time      0.0006: real time      0.0007
    --------------------------------------------
      LOOP:  cpu time      0.4425: real time      0.4461

 eigenvalue-minimisations  :  1368
 total energy-change (2. order) :-0.5640156E+02  (-0.2935891E+02)
 number of electron      89.9999970 magnetization       8.9790367
 augmentation part       51.1974412 magnetization       6.1580927

 Broyden mixing:
  rms(total) = 0.57017E+01    rms(broyden)= 0.57014E+01
  rms(prec ) = 0.10512E+02
  weight for this iteration     100.00

 eigenvalues of (default mixing * dielectric matrix)
  average eigenvalue GAMMA=   0.4451
  0.7988  0.0913

 Free energy of the ion-electron system (eV)
  ---------------------------------------------------
  alpha Z        PSCENC =       285.34744303
  Ewald energy   TEWEN  =     52364.20072896
  -Hartree energ DENC   =    -63329.41131636
  -exchange      EXHF   =         0.00000000
  -V(xc)+E(xc)   XCENC  =       366.11171327
  PAW double counting   =     10135.70905038   -10958.69506956
  entropy T*S    EENTRO =         0.00474149
  eigenvalues    EBANDS =      -106.44346127
  atomic energy  EATOM  =     11152.61838693
  Solvation  Ediel_sol  =         0.00000000
  ---------------------------------------------------
  free energy    TOTEN  =       -90.55778314 eV

  energy without entropy =      -90.56252463  energy(sigma->0) =      -90.55936363


--------------------------------------------------------------------------------------------------------




--------------------------------------- Iteration      1(   8)  ---------------------------------------


    POTLOK:  cpu time      0.0192: real time      0.0194
    SETDIJ:  cpu time      0.0059: real time      0.0060
     EDDAV:  cpu time      0.4178: real time      0.4214
       DOS:  cpu time      0.0009: real time      0.0009
    CHARGE:  cpu time      0.0556: real time      0.0558
    MIXING:  cpu time      0.0006: real time      0.0006
    --------------------------------------------
      LOOP:  cpu time      0.4999: real time      0.5041

 eigenvalue-minimisations  :  1644
 total energy-change (2. order) : 0.5256077E+02  (-0.2168984E+02)
 number of electron      89.9999969 magnetization       8.7692668
 augmentation part       56.4434133 magnetization       6.9089700

 Broyden mixing:
  rms(total) = 0.19751E+01    rms(broyden)= 0.19745E+01
  rms(prec ) = 0.23567E+01
  weight for this iteration     100.00

 eigenvalues of (default mixing * dielectric matrix)
  average eigenvalue GAMMA=   0.4176
  0.8509  0.3168  0.0850

 Free energy of the ion-electron system (eV)
  ---------------------------------------------------
  alpha Z        PSCENC =       285.34744303
  Ewald energy   TEWEN  =     52364.20072896
  -Hartree energ DENC   =    -63294.04844513
  -exchange      EXHF   =         0.00000000
  -V(xc)+E(xc)   XCENC  =       365.86421040
  PAW double counting   =     10166.58296619   -10996.39152072
  entropy T*S    EENTRO =        -0.03727164
  eigenvalues    EBANDS =       -82.13351487
  atomic energy  EATOM  =     11152.61838693
  Solvation  Ediel_sol  =         0.00000000
  ---------------------------------------------------
  free energy    TOTEN  =       -37.99701684 eV

  energy without entropy =      -37.95974520  energy(sigma->0) =      -37.98459296


--------------------------------------------------------------------------------------------------------




--------------------------------------- Iteration      1(   9)  ---------------------------------------


    POTLOK:  cpu time      0.0193: real time      0.0208
    SETDIJ:  cpu time      0.0058: real time      0.0058
     EDDAV:  cpu time      0.3727: real time      0.3758
       DOS:  cpu time      0.0009: real time      0.0009
    CHARGE:  cpu time      0.0558: real time      0.0560
    MIXING:  cpu time      0.0007: real time      0.0007
    --------------------------------------------
      LOOP:  cpu time      0.4552: real time      0.4601

 eigenvalue-minimisations  :  1448
 total energy-change (2. order) : 0.5809727E+01  (-0.3997709E+01)
 number of electron      89.9999959 magnetization       8.6267631
 augmentation part       57.3111191 magnetization       7.3511131

 Broyden mixing:
  rms(total) = 0.13374E+01    rms(broyden)= 0.13373E+01
  rms(prec ) = 0.14079E+01
  weight for this iteration     100.00

 eigenvalues of (default mixing * dielectric matrix)
  average eigenvalue GAMMA=   0.3957
  0.8892  0.0881  0.3027  0.3027

 Free energy of the ion-electron system (eV)
  ---------------------------------------------------
  alpha Z        PSCENC =       285.34744303
  Ewald energy   TEWEN  =     52364.20072896
  -Hartree energ DENC   =    -63192.22923728
  -exchange      EXHF   =         0.00000000
  -V(xc)+E(xc)   XCENC  =       365.87018475
  PAW double counting   =     10238.02884396   -11078.40149075
  entropy T*S    EENTRO =         0.00032648
  eigenvalues    EBANDS =      -167.62247543
  atomic energy  EATOM  =     11152.61838693
  Solvation  Ediel_sol  =         0.00000000
  ---------------------------------------------------
  free energy    TOTEN  =       -32.18728936 eV

  energy without entropy =      -32.18761584  energy(sigma->0) =      -32.18739818


--------------------------------------------------------------------------------------------------------




--------------------------------------- Iteration      1(  10)  ---------------------------------------


    POTLOK:  cpu time      0.0189: real time      0.0192
    SETDIJ:  cpu time      0.0058: real time      0.0058
     EDDAV:  cpu time      0.3617: real time      0.3645
       DOS:  cpu time      0.0008: real time      0.0008
    CHARGE:  cpu time      0.0544: real time      0.0546
    MIXING:  cpu time      0.0010: real time      0.0010
    --------------------------------------------
      LOOP:  cpu time      0.4426: real time      0.4459

 eigenvalue-minimisations  :  1348
 total energy-change (2. order) : 0.1466690E+01  (-0.4941006E+00)
 number of electron      89.9999964 magnetization       8.3317323
 augmentation part       57.0030392 magnetization       6.8878029

 Broyden mixing:
  rms(total) = 0.10395E+01    rms(broyden)= 0.10395E+01
  rms(prec ) = 0.10886E+01
  weight for this iteration     100.00

 eigenvalues of (default mixing * dielectric matrix)
  average eigenvalue GAMMA=   0.4738
  0.9182  0.5301  0.5301  0.0873  0.3032

 Free energy of the ion-electron system (eV)
  ---------------------------------------------------
  alpha Z        PSCENC =       285.34744303
  Ewald energy   TEWEN  =     52364.20072896
  -Hartree energ DENC   =    -63234.78033467
  -exchange      EXHF   =         0.00000000
  -V(xc)+E(xc)   XCENC  =       366.49903250
  PAW double counting   =     10291.40880320   -11137.96428050
  entropy T*S    EENTRO =        -0.00822952
  eigenvalues    EBANDS =      -118.04214879
  atomic energy  EATOM  =     11152.61838693
  Solvation  Ediel_sol  =         0.00000000
  ---------------------------------------------------
  free energy    TOTEN  =       -30.72059886 eV

  energy without entropy =      -30.71236935  energy(sigma->0) =      -30.71785569


--------------------------------------------------------------------------------------------------------




--------------------------------------- Iteration      1(  11)  ---------------------------------------


    POTLOK:  cpu time      0.0200: real time      0.0203
    SETDIJ:  cpu time      0.0061: real time      0.0061
     EDDAV:  cpu time      0.3139: real time      0.3166
       DOS:  cpu time      0.0009: real time      0.0009
    CHARGE:  cpu time      0.0539: real time      0.0542
    MIXING:  cpu time      0.0008: real time      0.0008
    --------------------------------------------
      LOOP:  cpu time      0.3955: real time      0.3988

 eigenvalue-minimisations  :  1168
 total energy-change (2. order) : 0.7090678E+00  (-0.1777489E+00)
 number of electron      89.9999967 magnetization       7.5491959
 augmentation part       56.5803103 magnetization       6.0166293

 Broyden mixing:
  rms(total) = 0.85689E+00    rms(broyden)= 0.85688E+00
  rms(prec ) = 0.90999E+00
  weight for this iteration     100.00

 eigenvalues of (default mixing * dielectric matrix)
  average eigenvalue GAMMA=   0.5633
  1.0525  0.7655  0.7655  0.0874  0.3546  0.3546

 Free energy of the ion-electron system (eV)
  ---------------------------------------------------
  alpha Z        PSCENC =       285.34744303
  Ewald energy   TEWEN  =     52364.20072896
  -Hartree energ DENC   =    -63258.40771901
  -exchange      EXHF   =         0.00000000
  -V(xc)+E(xc)   XCENC  =       367.24049659
  PAW double counting   =     10361.73501217   -11214.86799304
  entropy T*S    EENTRO =        -0.01295865
  eigenvalues    EBANDS =       -87.86492806
  atomic energy  EATOM  =     11152.61838693
  Solvation  Ediel_sol  =         0.00000000
  ---------------------------------------------------
  free energy    TOTEN  =       -30.01153108 eV

  energy without entropy =      -29.99857243  energy(sigma->0) =      -30.00721153


--------------------------------------------------------------------------------------------------------




--------------------------------------- Iteration      1(  12)  ---------------------------------------


    POTLOK:  cpu time      0.0190: real time      0.0193
    SETDIJ:  cpu time      0.0058: real time      0.0058
     EDDAV:  cpu time      0.3382: real time      0.3407
       DOS:  cpu time      0.0009: real time      0.0009
    CHARGE:  cpu time      0.0539: real time      0.0541
    MIXING:  cpu time      0.0009: real time      0.0009
    --------------------------------------------
      LOOP:  cpu time      0.4186: real time      0.4217

 eigenvalue-minimisations  :  1284
 total energy-change (2. order) : 0.3926504E+00  (-0.2582237E+00)
 number of electron      89.9999970 magnetization       6.6707683
 augmentation part       56.0125231 magnetization       5.0856043

 Broyden mixing:
  rms(total) = 0.66952E+00    rms(broyden)= 0.66949E+00
  rms(prec ) = 0.69669E+00
  weight for this iteration     100.00

 eigenvalues of (default mixing * dielectric matrix)
  average eigenvalue GAMMA=   0.5993
  1.3178  0.7122  0.6627  0.6627  0.0874  0.4455  0.3066

 Free energy of the ion-electron system (eV)
  ---------------------------------------------------
  alpha Z        PSCENC =       285.34744303
  Ewald energy   TEWEN  =     52364.20072896
  -Hartree energ DENC   =    -63304.71118883
  -exchange      EXHF   =         0.00000000
  -V(xc)+E(xc)   XCENC  =       368.10571716
  PAW double counting   =     10516.39028591   -11380.59791343
  entropy T*S    EENTRO =        -0.01240591
  eigenvalues    EBANDS =       -30.95993452
  atomic energy  EATOM  =     11152.61838693
  Solvation  Ediel_sol  =         0.00000000
  ---------------------------------------------------
  free energy    TOTEN  =       -29.61888069 eV

  energy without entropy =      -29.60647478  energy(sigma->0) =      -29.61474539


--------------------------------------------------------------------------------------------------------




--------------------------------------- Iteration      1(  13)  ---------------------------------------


    POTLOK:  cpu time      0.0192: real time      0.0201
    SETDIJ:  cpu time      0.0058: real time      0.0058
     EDDAV:  cpu time      0.3831: real time      0.3864
       DOS:  cpu time      0.0009: real time      0.0009
    CHARGE:  cpu time      0.0538: real time      0.0540
    MIXING:  cpu time      0.0010: real time      0.0010
    --------------------------------------------
      LOOP:  cpu time      0.4637: real time      0.4683

 eigenvalue-minimisations  :  1488
 total energy-change (2. order) :-0.7114827E+00  (-0.1664806E+00)
 number of electron      89.9999970 magnetization       5.0247242
 augmentation part       56.0520293 magnetization       3.5672401

 Broyden mixing:
  rms(total) = 0.54836E+00    rms(broyden)= 0.54835E+00
  rms(prec ) = 0.56831E+00
  weight for this iteration     100.00

 eigenvalues of (default mixing * dielectric matrix)
  average eigenvalue GAMMA=   0.7504
  1.9905  1.0034  0.8370  0.8370  0.0874  0.5129  0.4211  0.3136

 Free energy of the ion-electron system (eV)
  ---------------------------------------------------
  alpha Z        PSCENC =       285.34744303
  Ewald energy   TEWEN  =     52364.20072896
  -Hartree energ DENC   =    -63310.38915178
  -exchange      EXHF   =         0.00000000
  -V(xc)+E(xc)   XCENC  =       367.27880841
  PAW double counting   =     10624.29230769   -11491.13878350
  entropy T*S    EENTRO =        -0.01041813
  eigenvalues    EBANDS =       -22.52968496
  atomic energy  EATOM  =     11152.61838693
  Solvation  Ediel_sol  =         0.00000000
  ---------------------------------------------------
  free energy    TOTEN  =       -30.33036335 eV

  energy without entropy =      -30.31994523  energy(sigma->0) =      -30.32689064


--------------------------------------------------------------------------------------------------------




--------------------------------------- Iteration      1(  14)  ---------------------------------------


    POTLOK:  cpu time      0.0190: real time      0.0192
    SETDIJ:  cpu time      0.0059: real time      0.0059
     EDDAV:  cpu time      0.3571: real time      0.3601
       DOS:  cpu time      0.0009: real time      0.0009
    CHARGE:  cpu time      0.0538: real time      0.0540
    MIXING:  cpu time      0.0010: real time      0.0010
    --------------------------------------------
      LOOP:  cpu time      0.4376: real time      0.4412

 eigenvalue-minimisations  :  1368
 total energy-change (2. order) :-0.1714811E+01  (-0.2019330E+00)
 number of electron      89.9999967 magnetization       3.8438695
 augmentation part       56.3745943 magnetization       2.6224224

 Broyden mixing:
  rms(total) = 0.43601E+00    rms(broyden)= 0.43597E+00
  rms(prec ) = 0.45059E+00
  weight for this iteration     100.00

 eigenvalues of (default mixing * dielectric matrix)
  average eigenvalue GAMMA=   0.9527
  3.5590  1.4246  0.8011  0.8011  0.0874  0.5863  0.5863  0.4153  0.3129

 Free energy of the ion-electron system (eV)
  ---------------------------------------------------
  alpha Z        PSCENC =       285.34744303
  Ewald energy   TEWEN  =     52364.20072896
  -Hartree energ DENC   =    -63307.79302139
  -exchange      EXHF   =         0.00000000
  -V(xc)+E(xc)   XCENC  =       365.67596125
  PAW double counting   =     10721.64245640   -11588.06832364
  entropy T*S    EENTRO =        -0.01264409
  eigenvalues    EBANDS =       -25.65616205
  atomic energy  EATOM  =     11152.61838693
  Solvation  Ediel_sol  =         0.00000000
  ---------------------------------------------------
  free energy    TOTEN  =       -32.04517460 eV

  energy without entropy =      -32.03253052  energy(sigma->0) =      -32.04095991


--------------------------------------------------------------------------------------------------------




--------------------------------------- Iteration      1(  15)  ---------------------------------------


    POTLOK:  cpu time      0.0189: real time      0.0192
    SETDIJ:  cpu time      0.0058: real time      0.0058
     EDDAV:  cpu time      0.3862: real time      0.3892
       DOS:  cpu time      0.0008: real time      0.0008
    CHARGE:  cpu time      0.0543: real time      0.0545
    MIXING:  cpu time      0.0012: real time      0.0012
    --------------------------------------------
      LOOP:  cpu time      0.4672: real time      0.4707

 eigenvalue-minimisations  :  1504
 total energy-change (2. order) :-0.1721495E+01  (-0.1520430E+00)
 number of electron      89.9999967 magnetization       2.6557530
 augmentation part       56.4363832 magnetization       1.7097304

 Broyden mixing:
  rms(total) = 0.39453E+00    rms(broyden)= 0.39452E+00
  rms(prec ) = 0.41557E+00
  weight for this iteration     100.00

 eigenvalues of (default mixing * dielectric matrix)
  average eigenvalue GAMMA=   1.1847
  5.7198  1.5901  0.8851  0.8851  0.0874  0.7028  0.7028  0.5379  0.4240  0.3124

 Free energy of the ion-electron system (eV)
  ---------------------------------------------------
  alpha Z        PSCENC =       285.34744303
  Ewald energy   TEWEN  =     52364.20072896
  -Hartree energ DENC   =    -63329.68448295
  -exchange      EXHF   =         0.00000000
  -V(xc)+E(xc)   XCENC  =       364.70521230
  PAW double counting   =     10709.66031302   -11573.22399409
  entropy T*S    EENTRO =        -0.01974493
  eigenvalues    EBANDS =        -7.37053148
  atomic energy  EATOM  =     11152.61838693
  Solvation  Ediel_sol  =         0.00000000
  ---------------------------------------------------
  free energy    TOTEN  =       -33.76666923 eV

  energy without entropy =      -33.74692430  energy(sigma->0) =      -33.76008759


--------------------------------------------------------------------------------------------------------




--------------------------------------- Iteration      1(  16)  ---------------------------------------


    POTLOK:  cpu time      0.0188: real time      0.0191
    SETDIJ:  cpu time      0.0058: real time      0.0058
     EDDAV:  cpu time      0.3252: real time      0.3280
       DOS:  cpu time      0.0009: real time      0.0009
    CHARGE:  cpu time      0.0554: real time      0.0556
    MIXING:  cpu time      0.0012: real time      0.0012
    --------------------------------------------
      LOOP:  cpu time      0.4074: real time      0.4107

 eigenvalue-minimisations  :  1232
 total energy-change (2. order) :-0.6652805E+00  (-0.9641088E-01)
 number of electron      89.9999968 magnetization       1.7065266
 augmentation part       56.1719090 magnetization       0.9743462

 Broyden mixing:
  rms(total) = 0.22889E+00    rms(broyden)= 0.22888E+00
  rms(prec ) = 0.26043E+00
  weight for this iteration     100.00

 eigenvalues of (default mixing * dielectric matrix)
  average eigenvalue GAMMA=   1.3993
  8.2733  1.7816  0.8681  0.8681  0.9418  0.0874  0.7451  0.3126  0.4160  0.5489
  0.5489

 Free energy of the ion-electron system (eV)
  ---------------------------------------------------
  alpha Z        PSCENC =       285.34744303
  Ewald energy   TEWEN  =     52364.20072896
  -Hartree energ DENC   =    -63350.71810758
  -exchange      EXHF   =         0.00000000
  -V(xc)+E(xc)   XCENC  =       365.00319104
  PAW double counting   =     10680.50473882   -11544.60821296
  entropy T*S    EENTRO =        -0.01868178
  eigenvalues    EBANDS =        13.23856383
  atomic energy  EATOM  =     11152.61838693
  Solvation  Ediel_sol  =         0.00000000
  ---------------------------------------------------
  free energy    TOTEN  =       -34.43194971 eV

  energy without entropy =      -34.41326793  energy(sigma->0) =      -34.42572245


--------------------------------------------------------------------------------------------------------




--------------------------------------- Iteration      1(  17)  ---------------------------------------


    POTLOK:  cpu time      0.0189: real time      0.0192
    SETDIJ:  cpu time      0.0058: real time      0.0058
     EDDAV:  cpu time      0.3505: real time      0.3532
       DOS:  cpu time      0.0009: real time      0.0009
    CHARGE:  cpu time      0.0557: real time      0.0560
    MIXING:  cpu time      0.0014: real time      0.0015
    --------------------------------------------
      LOOP:  cpu time      0.4333: real time      0.4366

 eigenvalue-minimisations  :  1288
 total energy-change (2. order) :-0.7580500E+00  (-0.7904940E-01)
 number of electron      89.9999969 magnetization       1.2542482
 augmentation part       56.0879047 magnetization       0.7036097

 Broyden mixing:
  rms(total) = 0.14305E+00    rms(broyden)= 0.14302E+00
  rms(prec ) = 0.15746E+00
  weight for this iteration     100.00

 eigenvalues of (default mixing * dielectric matrix)
  average eigenvalue GAMMA=   1.6229
 10.9550  2.1859  1.2226  0.8856  0.8856  0.0874  0.7686  0.3126  0.6903  0.4167
  0.5323  0.5323

 Free energy of the ion-electron system (eV)
  ---------------------------------------------------
  alpha Z        PSCENC =       285.34744303
  Ewald energy   TEWEN  =     52364.20072896
  -Hartree energ DENC   =    -63359.32919442
  -exchange      EXHF   =         0.00000000
  -V(xc)+E(xc)   XCENC  =       364.59676940
  PAW double counting   =     10632.70380105   -11495.45061085
  entropy T*S    EENTRO =        -0.01139275
  eigenvalues    EBANDS =        20.13406898
  atomic energy  EATOM  =     11152.61838693
  Solvation  Ediel_sol  =         0.00000000
  ---------------------------------------------------
  free energy    TOTEN  =       -35.18999967 eV

  energy without entropy =      -35.17860692  energy(sigma->0) =      -35.18620208


--------------------------------------------------------------------------------------------------------




--------------------------------------- Iteration      1(  18)  ---------------------------------------


    POTLOK:  cpu time      0.0199: real time      0.0202
    SETDIJ:  cpu time      0.0061: real time      0.0061
     EDDAV:  cpu time      0.3377: real time      0.3408
       DOS:  cpu time      0.0010: real time      0.0010
    CHARGE:  cpu time      0.0544: real time      0.0547
    MIXING:  cpu time      0.0013: real time      0.0013
    --------------------------------------------
      LOOP:  cpu time      0.4204: real time      0.4241

 eigenvalue-minimisations  :  1280
 total energy-change (2. order) :-0.4822166E+00  (-0.3547070E-01)
 number of electron      89.9999969 magnetization       1.0890010
 augmentation part       56.1538924 magnetization       0.6399429

 Broyden mixing:
  rms(total) = 0.10101E+00    rms(broyden)= 0.10100E+00
  rms(prec ) = 0.11055E+00
  weight for this iteration     100.00

 eigenvalues of (default mixing * dielectric matrix)
  average eigenvalue GAMMA=   1.6525
 11.6947  2.5217  0.8826  0.8826  1.0630  1.0630  0.0874  0.7546  0.7546  0.3126
  0.4158  0.5248  0.5248

 Free energy of the ion-electron system (eV)
  ---------------------------------------------------
  alpha Z        PSCENC =       285.34744303
  Ewald energy   TEWEN  =     52364.20072896
  -Hartree energ DENC   =    -63352.79424579
  -exchange      EXHF   =         0.00000000
  -V(xc)+E(xc)   XCENC  =       364.12523757
  PAW double counting   =     10604.12444021   -11465.64557374
  entropy T*S    EENTRO =        -0.00987306
  eigenvalues    EBANDS =        12.36123961
  atomic energy  EATOM  =     11152.61838693
  Solvation  Ediel_sol  =         0.00000000
  ---------------------------------------------------
  free energy    TOTEN  =       -35.67221630 eV

  energy without entropy =      -35.66234323  energy(sigma->0) =      -35.66892527


--------------------------------------------------------------------------------------------------------




--------------------------------------- Iteration      1(  19)  ---------------------------------------


    POTLOK:  cpu time      0.0189: real time      0.0192
    SETDIJ:  cpu time      0.0059: real time      0.0059
     EDDAV:  cpu time      0.3524: real time      0.3550
       DOS:  cpu time      0.0009: real time      0.0009
    CHARGE:  cpu time      0.0556: real time      0.0560
    MIXING:  cpu time      0.0014: real time      0.0014
    --------------------------------------------
      LOOP:  cpu time      0.4351: real time      0.4384

 eigenvalue-minimisations  :  1352
 total energy-change (2. order) :-0.2838632E+00  (-0.1607890E-01)
 number of electron      89.9999969 magnetization       0.8765848
 augmentation part       56.1462902 magnetization       0.4829394

 Broyden mixing:
  rms(total) = 0.79458E-01    rms(broyden)= 0.79447E-01
  rms(prec ) = 0.84459E-01
  weight for this iteration     100.00

 eigenvalues of (default mixing * dielectric matrix)
  average eigenvalue GAMMA=   1.7413
 12.5080  2.9571  1.9619  1.1825  0.8867  0.8867  0.0874  0.7545  0.7545  0.3126
  0.4163  0.5946  0.5373  0.5373

 Free energy of the ion-electron system (eV)
  ---------------------------------------------------
  alpha Z        PSCENC =       285.34744303
  Ewald energy   TEWEN  =     52364.20072896
  -Hartree energ DENC   =    -63347.85914544
  -exchange      EXHF   =         0.00000000
  -V(xc)+E(xc)   XCENC  =       363.91311459
  PAW double counting   =     10587.15314030   -11448.53033085
  entropy T*S    EENTRO =        -0.01301695
  eigenvalues    EBANDS =         7.21359989
  atomic energy  EATOM  =     11152.61838693
  Solvation  Ediel_sol  =         0.00000000
  ---------------------------------------------------
  free energy    TOTEN  =       -35.95607954 eV

  energy without entropy =      -35.94306259  energy(sigma->0) =      -35.95174056


--------------------------------------------------------------------------------------------------------




--------------------------------------- Iteration      1(  20)  ---------------------------------------


    POTLOK:  cpu time      0.0190: real time      0.0192
    SETDIJ:  cpu time      0.0058: real time      0.0058
     EDDAV:  cpu time      0.3443: real time      0.3468
       DOS:  cpu time      0.0009: real time      0.0009
    CHARGE:  cpu time      0.0525: real time      0.0530
    MIXING:  cpu time      0.0016: real time      0.0016
    --------------------------------------------
      LOOP:  cpu time      0.4241: real time      0.4274

 eigenvalue-minimisations  :  1316
 total energy-change (2. order) :-0.2042199E+00  (-0.1594163E-01)
 number of electron      89.9999969 magnetization       0.7388949
 augmentation part       56.1453562 magnetization       0.4296517

 Broyden mixing:
  rms(total) = 0.67119E-01    rms(broyden)= 0.67105E-01
  rms(prec ) = 0.68646E-01
  weight for this iteration     100.00

 eigenvalues of (default mixing * dielectric matrix)
  average eigenvalue GAMMA=   1.7193
 12.9226  2.9007  2.3266  0.8823  0.8823  1.0119  1.0119  0.0874  0.7400  0.7400
  0.3126  0.4160  0.5367  0.5367  0.4820

 Free energy of the ion-electron system (eV)
  ---------------------------------------------------
  alpha Z        PSCENC =       285.34744303
  Ewald energy   TEWEN  =     52364.20072896
  -Hartree energ DENC   =    -63338.56799311
  -exchange      EXHF   =         0.00000000
  -V(xc)+E(xc)   XCENC  =       363.76789522
  PAW double counting   =     10583.88918509   -11445.83795597
  entropy T*S    EENTRO =        -0.01895940
  eigenvalues    EBANDS =        -1.55903018
  atomic energy  EATOM  =     11152.61838693
  Solvation  Ediel_sol  =         0.00000000
  ---------------------------------------------------
  free energy    TOTEN  =       -36.16029943 eV

  energy without entropy =      -36.14134003  energy(sigma->0) =      -36.15397963


--------------------------------------------------------------------------------------------------------




--------------------------------------- Iteration      1(  21)  ---------------------------------------


    POTLOK:  cpu time      0.0188: real time      0.0191
    SETDIJ:  cpu time      0.0058: real time      0.0058
     EDDAV:  cpu time      0.3168: real time      0.3191
       DOS:  cpu time      0.0009: real time      0.0009
    CHARGE:  cpu time      0.0523: real time      0.0525
    MIXING:  cpu time      0.0016: real time      0.0016
    --------------------------------------------
      LOOP:  cpu time      0.3962: real time      0.3990

 eigenvalue-minimisations  :  1188
 total energy-change (2. order) :-0.4603368E-01  (-0.3752432E-02)
 number of electron      89.9999969 magnetization       0.5409476
 augmentation part       56.1400660 magnetization       0.2549982

 Broyden mixing:
  rms(total) = 0.51926E-01    rms(broyden)= 0.51918E-01
  rms(prec ) = 0.53934E-01
  weight for this iteration     100.00

 eigenvalues of (default mixing * dielectric matrix)
  average eigenvalue GAMMA=   1.7974
 13.5901  3.9591  2.2754  1.3396  1.3396  0.8812  0.8812  0.0874  0.7628  0.7628
  0.3126  0.4159  0.5496  0.5496  0.5758  0.4762

 Free energy of the ion-electron system (eV)
  ---------------------------------------------------
  alpha Z        PSCENC =       285.34744303
  Ewald energy   TEWEN  =     52364.20072896
  -Hartree energ DENC   =    -63337.50401177
  -exchange      EXHF   =         0.00000000
  -V(xc)+E(xc)   XCENC  =       363.72356123
  PAW double counting   =     10591.69325050   -11454.09251153
  entropy T*S    EENTRO =        -0.02098616
  eigenvalues    EBANDS =        -2.17219430
  atomic energy  EATOM  =     11152.61838693
  Solvation  Ediel_sol  =         0.00000000
  ---------------------------------------------------
  free energy    TOTEN  =       -36.20633311 eV

  energy without entropy =      -36.18534695  energy(sigma->0) =      -36.19933773


--------------------------------------------------------------------------------------------------------




--------------------------------------- Iteration      1(  22)  ---------------------------------------


    POTLOK:  cpu time      0.0188: real time      0.0190
    SETDIJ:  cpu time      0.0059: real time      0.0060
     EDDAV:  cpu time      0.3578: real time      0.3605
       DOS:  cpu time      0.0009: real time      0.0009
    CHARGE:  cpu time      0.0524: real time      0.0528
    MIXING:  cpu time      0.0017: real time      0.0017
    --------------------------------------------
      LOOP:  cpu time      0.4374: real time      0.4408

 eigenvalue-minimisations  :  1380
 total energy-change (2. order) :-0.4882270E-01  (-0.5455750E-02)
 number of electron      89.9999969 magnetization       0.3786295
 augmentation part       56.1482350 magnetization       0.1663011

 Broyden mixing:
  rms(total) = 0.44174E-01    rms(broyden)= 0.44157E-01
  rms(prec ) = 0.47363E-01
  weight for this iteration     100.00

 eigenvalues of (default mixing * dielectric matrix)
  average eigenvalue GAMMA=   1.8247
 14.0185  4.5828  2.3988  1.5649  1.3002  0.8828  0.8828  0.0874  0.8495  0.8495
  0.6810  0.6810  0.3126  0.5272  0.5272  0.4160  0.4580

 Free energy of the ion-electron system (eV)
  ---------------------------------------------------
  alpha Z        PSCENC =       285.34744303
  Ewald energy   TEWEN  =     52364.20072896
  -Hartree energ DENC   =    -63333.38176294
  -exchange      EXHF   =         0.00000000
  -V(xc)+E(xc)   XCENC  =       363.67451230
  PAW double counting   =     10592.22660480   -11454.78478176
  entropy T*S    EENTRO =        -0.02380205
  eigenvalues    EBANDS =        -6.13248508
  atomic energy  EATOM  =     11152.61838693
  Solvation  Ediel_sol  =         0.00000000
  ---------------------------------------------------
  free energy    TOTEN  =       -36.25515582 eV

  energy without entropy =      -36.23135377  energy(sigma->0) =      -36.24722180


--------------------------------------------------------------------------------------------------------




--------------------------------------- Iteration      1(  23)  ---------------------------------------


    POTLOK:  cpu time      0.0188: real time      0.0191
    SETDIJ:  cpu time      0.0058: real time      0.0058
     EDDAV:  cpu time      0.3369: real time      0.3397
       DOS:  cpu time      0.0009: real time      0.0009
    CHARGE:  cpu time      0.0526: real time      0.0528
    MIXING:  cpu time      0.0018: real time      0.0018
    --------------------------------------------
      LOOP:  cpu time      0.4168: real time      0.4202

 eigenvalue-minimisations  :  1284
 total energy-change (2. order) :-0.1462965E+00  (-0.2575897E-02)
 number of electron      89.9999969 magnetization       0.2240300
 augmentation part       56.1700023 magnetization       0.0520662

 Broyden mixing:
  rms(total) = 0.38715E-01    rms(broyden)= 0.38703E-01
  rms(prec ) = 0.42557E-01
  weight for this iteration     100.00

 eigenvalues of (default mixing * dielectric matrix)
  average eigenvalue GAMMA=   1.9689
 15.0003  6.1574  2.9178  1.9919  1.2344  1.2344  0.8811  0.8811  0.0874  0.7871
  0.7871  0.3126  0.6184  0.6184  0.5311  0.5311  0.4160  0.4529

 Free energy of the ion-electron system (eV)
  ---------------------------------------------------
  alpha Z        PSCENC =       285.34744303
  Ewald energy   TEWEN  =     52364.20072896
  -Hartree energ DENC   =    -63330.50004107
  -exchange      EXHF   =         0.00000000
  -V(xc)+E(xc)   XCENC  =       363.50132754
  PAW double counting   =     10595.37950243   -11457.86017305
  entropy T*S    EENTRO =        -0.02495373
  eigenvalues    EBANDS =        -9.06367337
  atomic energy  EATOM  =     11152.61838693
  Solvation  Ediel_sol  =         0.00000000
  ---------------------------------------------------
  free energy    TOTEN  =       -36.40145232 eV

  energy without entropy =      -36.37649859  energy(sigma->0) =      -36.39313441


--------------------------------------------------------------------------------------------------------




--------------------------------------- Iteration      1(  24)  ---------------------------------------


    POTLOK:  cpu time      0.0188: real time      0.0190
    SETDIJ:  cpu time      0.0058: real time      0.0058
     EDDAV:  cpu time      0.3165: real time      0.3190
       DOS:  cpu time      0.0009: real time      0.0009
    CHARGE:  cpu time      0.0523: real time      0.0525
    MIXING:  cpu time      0.0019: real time      0.0019
    --------------------------------------------
      LOOP:  cpu time      0.3961: real time      0.3991

 eigenvalue-minimisations  :  1188
 total energy-change (2. order) :-0.3378273E+00  (-0.1969488E-02)
 number of electron      89.9999969 magnetization       0.1679080
 augmentation part       56.1771521 magnetization       0.0409702

 Broyden mixing:
  rms(total) = 0.28841E-01    rms(broyden)= 0.28828E-01
  rms(prec ) = 0.35341E-01
  weight for this iteration     100.00

 eigenvalues of (default mixing * dielectric matrix)
  average eigenvalue GAMMA=   2.0233
 15.7315  7.1550  3.3014  2.0421  1.3213  1.1728  0.8827  0.8827  0.0874  0.8661
  0.8661  0.6785  0.6785  0.3126  0.5355  0.5355  0.4159  0.5229  0.4539

 Free energy of the ion-electron system (eV)
  ---------------------------------------------------
  alpha Z        PSCENC =       285.34744303
  Ewald energy   TEWEN  =     52364.20072896
  -Hartree energ DENC   =    -63328.07503495
  -exchange      EXHF   =         0.00000000
  -V(xc)+E(xc)   XCENC  =       363.17689282
  PAW double counting   =     10600.04025867   -11462.53611960
  entropy T*S    EENTRO =        -0.02408201
  eigenvalues    EBANDS =       -11.48775347
  atomic energy  EATOM  =     11152.61838693
  Solvation  Ediel_sol  =         0.00000000
  ---------------------------------------------------
  free energy    TOTEN  =       -36.73927962 eV

  energy without entropy =      -36.71519761  energy(sigma->0) =      -36.73125228


--------------------------------------------------------------------------------------------------------




--------------------------------------- Iteration      1(  25)  ---------------------------------------


    POTLOK:  cpu time      0.0187: real time      0.0189
    SETDIJ:  cpu time      0.0058: real time      0.0058
     EDDAV:  cpu time      0.3506: real time      0.3536
       DOS:  cpu time      0.0009: real time      0.0009
    CHARGE:  cpu time      0.0523: real time      0.0525
    MIXING:  cpu time      0.0020: real time      0.0021
    --------------------------------------------
      LOOP:  cpu time      0.4303: real time      0.4338

 eigenvalue-minimisations  :  1348
 total energy-change (2. order) :-0.6445711E-01  (-0.1357472E-02)
 number of electron      89.9999969 magnetization       0.1367731
 augmentation part       56.1602119 magnetization       0.0289257

 Broyden mixing:
  rms(total) = 0.19908E-01    rms(broyden)= 0.19902E-01
  rms(prec ) = 0.24647E-01
  weight for this iteration     100.00

 eigenvalues of (default mixing * dielectric matrix)
  average eigenvalue GAMMA=   2.1098
 16.5603  8.4265  3.5958  2.2302  1.3436  1.3436  0.8812  0.8812  1.1033  0.0874
  0.7825  0.7825  0.7898  0.3126  0.5792  0.5792  0.5257  0.5257  0.4160  0.4497

 Free energy of the ion-electron system (eV)
  ---------------------------------------------------
  alpha Z        PSCENC =       285.34744303
  Ewald energy   TEWEN  =     52364.20072896
  -Hartree energ DENC   =    -63327.29068202
  -exchange      EXHF   =         0.00000000
  -V(xc)+E(xc)   XCENC  =       363.16119334
  PAW double counting   =     10601.05259544   -11463.67712312
  entropy T*S    EENTRO =        -0.02319793
  eigenvalues    EBANDS =       -12.19308136
  atomic energy  EATOM  =     11152.61838693
  Solvation  Ediel_sol  =         0.00000000
  ---------------------------------------------------
  free energy    TOTEN  =       -36.80373673 eV

  energy without entropy =      -36.78053880  energy(sigma->0) =      -36.79600408


--------------------------------------------------------------------------------------------------------




[...]
      2      -3.5901      1.00000
      3      -3.3112      1.00000
      4      -2.9063      1.00000
      5      -2.4706      1.00000
      6      -2.0827      1.00000
      7      -1.7495      1.00000
      8      -1.5675      1.00000
      9      -1.4986      1.00000
     10      -1.3876      1.00000
     11      -1.3377      1.00000
     12      -1.1221      1.00000
     13      -0.9314      1.00000
     14      -0.7789      1.00000
     15      -0.6112      1.00000
     16      -0.5968      1.00000
     17      -0.4459      1.00000
     18      -0.3707      1.00000
     19      -0.3509      1.00000
     20      -0.2587      1.00000
     21      -0.2290      1.00000
     22      -0.1733      1.00000
     23      -0.0524      1.00000
     24       0.0019      1.00000
     25       0.1228      1.00000
     26       0.2501      1.00000
     27       0.3412      1.00000
     28       0.4508      1.00000
     29       0.4948      1.00000
     30       0.6089      1.00000
     31       0.6108      1.00000
     32       0.6954      1.00000
     33       0.7182      1.00000
     34       0.7656      1.00000
     35       0.7948      1.00000
     36       0.8451      1.00000
     37       0.8676      1.00000
     38       0.8880      1.00000
     39       0.9758      1.00000
     40       0.9993      1.00000
     41       1.1131      1.00000
     42       1.2441      1.00000
     43       1.2485      1.00000
     44       1.2599      1.00000
     45       1.4239      1.00000
     46       2.0523      0.79866
     47       3.1656     -0.00000
     48       4.5205     -0.00000
     49       6.0029     -0.00000
     50       7.1908     -0.00000
     51       8.1932      0.00000
     52       9.0745      0.00000
     53       9.4896      0.00000
     54       9.8160      0.00000
     55      10.1644      0.00000
     56      10.4443      0.00000
     57      10.9494      0.00000
     58      11.5520      0.00000
     59      11.8355      0.00000
     60      12.1167      0.00000

 k-point     4 :      -0.3333    0.3333    0.0000
  band No.  band energies     occupation 
      1      -2.8716      1.00000
      2      -1.4928      1.00000
      3      -1.4741      1.00000
      4      -1.4666      1.00000
      5      -1.4109      1.00000
      6      -1.3705      1.00000
      7      -1.3560      1.00000
      8      -1.3234      1.00000
      9      -1.3153      1.00000
     10      -1.3032      1.00000
     11      -1.3006      1.00000
     12      -1.2685      1.00000
     13      -1.1686      1.00000
     14      -1.0817      1.00000
     15      -1.0032      1.00000
     16      -0.9619      1.00000
     17      -0.6562      1.00000
     18      -0.6131      1.00000
     19      -0.5962      1.00000
     20      -0.5393      1.00000
     21      -0.3878      1.00000
     22      -0.2923      1.00000
     23       0.0740      1.00000
     24       0.0836      1.00000
     25       0.2861      1.00000
     26       0.3010      1.00000
     27       0.3801      1.00000
     28       0.3869      1.00000
     29       0.4135      1.00000
     30       0.4251      1.00000
     31       0.4346      1.00000
     32       0.6798      1.00000
     33       0.7820      1.00000
     34       0.9085      1.00000
     35       0.9141      1.00000
     36       0.9308      1.00000
     37       1.0073      1.00000
     38       1.0527      1.00000
     39       1.0772      1.00000
     40       1.1254      1.00000
     41       1.1956      1.00000
     42       5.8342     -0.00000
     43       5.8381     -0.00000
     44       5.8620     -0.00000
     45       6.0061     -0.00000
     46       6.0280     -0.00000
     47       6.2483     -0.00000
     48       6.4065     -0.00000
     49       6.8903     -0.00000
     50       7.1550     -0.00000
     51       7.6817      0.00000
     52       7.7629      0.00000
     53       7.8636      0.00000
     54       8.2042      0.00000
     55       8.3356      0.00000
     56       8.5261      0.00000
     57       9.2122      0.00000
     58       9.4007      0.00000
     59      10.5055      0.00000
     60      10.6002      0.00000


--------------------------------------------------------------------------------------------------------


 soft charge-density along one line, spin component           1
         0         1         2         3         4         5         6         7         8         9
 total charge-density along one line
 
 soft charge-density along one line, spin component           2
         0         1         2         3         4         5         6         7         8         9
 total charge-density along one line
 
 pseudopotential strength for first ion, spin component:           1
 -5.975  -0.000   0.000  -0.004   0.000  -2.400   0.000  -0.000
 -0.000  -6.027   0.000   0.000  -0.004   0.000  -2.364  -0.000
  0.000   0.000  -6.053  -0.000  -0.000  -0.000  -0.000  -2.346
 -0.004   0.000  -0.000  -6.027  -0.000   0.003  -0.000   0.000
  0.000  -0.004  -0.000  -0.000  -5.975  -0.000   0.003   0.000
 -2.400   0.000  -0.000   0.003  -0.000   8.669  -0.000   0.000
  0.000  -2.364  -0.000  -0.000   0.003  -0.000   8.646   0.000
 -0.000  -0.000  -2.346   0.000   0.000   0.000   0.000   8.634
  0.003  -0.000   0.000  -2.364   0.000  -0.002  -0.000  -0.000
 -0.000   0.003   0.000   0.000  -2.400   0.000  -0.002  -0.000
  0.000  -0.000   0.003   0.000  -0.000   0.000  -0.000   0.001
  0.000  -0.000   0.005   0.000  -0.000   0.000  -0.000   0.003
  0.000  -0.013   0.000  -0.000   0.000   0.000   0.012  -0.000
 -0.000  -0.000  -0.011  -0.000  -0.000  -0.000   0.000   0.010
  0.000  -0.000  -0.000  -0.013  -0.000   0.000  -0.000  -0.000
 -0.000  -0.014   0.000   0.000   0.000   0.000   0.014  -0.000
  0.000  -0.000  -0.012  -0.000  -0.000  -0.000   0.000   0.011
  0.000   0.000   0.000  -0.014  -0.000   0.000  -0.000  -0.000
 pseudopotential strength for first ion, spin component:           2
 -5.975  -0.000   0.000  -0.004   0.000  -2.400   0.000  -0.000
 -0.000  -6.027   0.000   0.000  -0.004   0.000  -2.364  -0.000
  0.000   0.000  -6.053  -0.000  -0.000  -0.000  -0.000  -2.346
 -0.004   0.000  -0.000  -6.027  -0.000   0.003  -0.000   0.000
  0.000  -0.004  -0.000  -0.000  -5.975  -0.000   0.003   0.000
 -2.400   0.000  -0.000   0.003  -0.000   8.669  -0.000   0.000
  0.000  -2.364  -0.000  -0.000   0.003  -0.000   8.646   0.000
 -0.000  -0.000  -2.346   0.000   0.000   0.000   0.000   8.634
  0.003  -0.000   0.000  -2.364   0.000  -0.002  -0.000  -0.000
 -0.000   0.003   0.000   0.000  -2.400   0.000  -0.002  -0.000
  0.000  -0.000   0.003   0.000  -0.000   0.000  -0.000   0.001
  0.000  -0.000   0.005   0.000  -0.000   0.000  -0.000   0.003
  0.000  -0.013   0.000  -0.000   0.000   0.000   0.012  -0.000
 -0.000  -0.000  -0.011  -0.000  -0.000  -0.000   0.000   0.010
  0.000  -0.000  -0.000  -0.013  -0.000   0.000  -0.000  -0.000
 -0.000  -0.014   0.000   0.000   0.000   0.000   0.014  -0.000
  0.000  -0.000  -0.012  -0.000  -0.000  -0.000   0.000   0.011
  0.000   0.000   0.000  -0.014  -0.000   0.000  -0.000  -0.000
 total augmentation occupancy for first ion, spin component:           1
  1.932   0.000  -0.000  -0.004  -0.000  -0.016  -0.000   0.000   0.005   0.000   0.000  -0.000  -0.000  -0.000   0.006   0.000
  0.000   1.928  -0.000   0.000  -0.004  -0.000  -0.024  -0.000  -0.000   0.005  -0.000  -0.000   0.007  -0.000   0.000  -0.013
 -0.000  -0.000   1.915   0.000  -0.000   0.000  -0.000  -0.018  -0.000  -0.000  -0.066   0.028   0.000   0.076  -0.000  -0.000
 -0.004   0.000   0.000   1.928  -0.000   0.005  -0.000  -0.000  -0.024   0.000  -0.000  -0.000   0.000  -0.000   0.007  -0.000
 -0.000  -0.004  -0.000  -0.000   1.932   0.000   0.005  -0.000   0.000  -0.016  -0.000   0.000   0.006  -0.000   0.000  -0.001
 -0.016  -0.000   0.000   0.005   0.000   0.013  -0.000  -0.000   0.000   0.000   0.000  -0.000  -0.000  -0.000   0.004   0.000
 -0.000  -0.024  -0.000  -0.000   0.005  -0.000   0.010  -0.000   0.000   0.000  -0.000   0.000   0.019   0.000   0.000  -0.001
  0.000  -0.000  -0.018  -0.000  -0.000  -0.000  -0.000   0.012  -0.000   0.000  -0.022   0.001  -0.000   0.021  -0.000   0.000
  0.005  -0.000  -0.000  -0.024   0.000   0.000   0.000  -0.000   0.010   0.000  -0.000   0.000   0.000   0.000   0.019  -0.000
  0.000   0.005  -0.000   0.000  -0.016   0.000   0.000   0.000   0.000   0.013  -0.000   0.000   0.004  -0.000   0.000  -0.000
  0.000  -0.000  -0.066  -0.000  -0.000   0.000  -0.000  -0.022  -0.000  -0.000   1.753  -0.149  -0.000   0.175  -0.000   0.000
 -0.000  -0.000   0.028  -0.000   0.000  -0.000   0.000   0.001   0.000   0.000  -0.149   0.018   0.000  -0.025   0.000  -0.000
 -0.000   0.007   0.000   0.000   0.006  -0.000   0.019  -0.000   0.000   0.004  -0.000   0.000   0.234   0.000   0.000  -0.015
 -0.000  -0.000   0.076  -0.000  -0.000  -0.000   0.000   0.021   0.000  -0.000   0.175  -0.025   0.000   0.113   0.000  -0.000
  0.006   0.000  -0.000   0.007   0.000   0.004   0.000  -0.000   0.019   0.000  -0.000   0.000   0.000   0.000   0.234  -0.000
  0.000  -0.013  -0.000  -0.000  -0.001   0.000  -0.001   0.000  -0.000  -0.000   0.000  -0.000  -0.015  -0.000  -0.000   0.001
  0.000   0.000  -0.019   0.000  -0.000   0.000  -0.000  -0.001  -0.000   0.000  -0.023   0.003  -0.000  -0.009  -0.000   0.000
 -0.001  -0.000   0.000  -0.013  -0.000  -0.000  -0.000   0.000  -0.001  -0.000   0.000  -0.000  -0.000  -0.000  -0.015   0.000
 total augmentation occupancy for first ion, spin component:           2
 -0.000   0.000  -0.000  -0.000   0.000   0.000   0.000  -0.000  -0.000   0.000  -0.000  -0.000   0.000   0.000  -0.000   0.000
  0.000  -0.000  -0.000  -0.000  -0.000   0.000   0.000  -0.000   0.000  -0.000   0.000  -0.000  -0.000   0.000  -0.000   0.000
 -0.000  -0.000   0.000  -0.000  -0.000  -0.000  -0.000   0.000  -0.000  -0.000   0.000   0.000  -0.000  -0.000   0.000  -0.000
 -0.000  -0.000  -0.000  -0.000  -0.000   0.000   0.000  -0.000   0.000   0.000   0.000  -0.000  -0.000   0.000  -0.000   0.000
  0.000  -0.000  -0.000  -0.000  -0.000  -0.000   0.000   0.000  -0.000   0.000   0.000  -0.000  -0.000   0.000  -0.000  -0.000
  0.000   0.000  -0.000   0.000  -0.000   0.000  -0.000  -0.000  -0.000  -0.000   0.000   0.000  -0.000  -0.000   0.000   0.000
  0.000   0.000  -0.000   0.000   0.000  -0.000  -0.000   0.000  -0.000  -0.000  -0.000   0.000  -0.000   0.000  -0.000   0.000
 -0.000  -0.000   0.000  -0.000   0.000  -0.000   0.000  -0.000   0.000   0.000  -0.000  -0.000   0.000   0.000  -0.000   0.000
 -0.000   0.000  -0.000   0.000  -0.000  -0.000  -0.000   0.000   0.000  -0.000  -0.000   0.000  -0.000   0.000  -0.000   0.000
  0.000  -0.000  -0.000   0.000   0.000  -0.000  -0.000   0.000  -0.000   0.000  -0.000  -0.000   0.000   0.000   0.000  -0.000
 -0.000   0.000   0.000   0.000   0.000   0.000  -0.000  -0.000  -0.000  -0.000   0.000   0.000  -0.000  -0.000  -0.000   0.000
 -0.000  -0.000   0.000  -0.000  -0.000   0.000   0.000  -0.000   0.000  -0.000   0.000   0.000   0.000  -0.000   0.000  -0.000
  0.000  -0.000  -0.000  -0.000  -0.000  -0.000  -0.000   0.000  -0.000   0.000  -0.000   0.000   0.000  -0.000   0.000  -0.000
  0.000   0.000  -0.000   0.000   0.000  -0.000   0.000   0.000   0.000   0.000  -0.000  -0.000  -0.000   0.000  -0.000   0.000
 -0.000  -0.000   0.000  -0.000  -0.000   0.000  -0.000  -0.000  -0.000   0.000  -0.000   0.000   0.000  -0.000   0.000  -0.000
  0.000   0.000  -0.000   0.000  -0.000   0.000   0.000   0.000   0.000  -0.000   0.000  -0.000  -0.000   0.000  -0.000   0.000
 -0.000  -0.000   0.000  -0.000  -0.000   0.000  -0.000   0.000  -0.000  -0.000   0.000  -0.000   0.000   0.000   0.000  -0.000
  0.000   0.000  -0.000   0.000  -0.000  -0.000   0.000   0.000   0.000  -0.000   0.000  -0.000  -0.000   0.000  -0.000   0.000


------------------------ aborting loop because EDIFF is reached ----------------------------------------


    CHARGE:  cpu time      0.0529: real time      0.0532
    FORLOC:  cpu time      0.0012: real time      0.0012
    FORNL :  cpu time      0.1165: real time      0.1170
    STRESS:  cpu time      0.1369: real time      0.1377
    FORCOR:  cpu time      0.0185: real time      0.0186
    FORHAR:  cpu time      0.0030: real time      0.0030
    MIXING:  cpu time      0.0004: real time      0.0004
    OFIELD:  cpu time      0.0000: real time      0.0000

 ---------------------------------------------------------------------------------------------

         DFTD3 V3.0 Rev 1        
 Edisp (eV)   -3.66715

 E6    (eV) :    -1.5394
 E8    (eV) :    -2.1277
 % E8        : 58.02
    FORVDW:  cpu time      0.0724: real time      0.0727

  FORCE on cell =-STRESS in cart. coord.  units (eV):
  Direction    XX          YY          ZZ          XY          YZ          ZX
  --------------------------------------------------------------------------------------
  Alpha Z   285.34744   285.34744   285.34744
  Ewald   58906.16378 58926.39320-64796.44794    -0.00000    -0.73846    -0.00000
  Hartree 62155.30903 62163.52338-60338.01673     0.00000    -3.45511    -0.00000
  E(xc)    -521.00406  -520.91467  -521.10886    -0.00013     0.08715     0.00000
  Local  ************************124063.88629     0.00401     7.35114    -0.00001
  n-local  -174.87527  -174.95955  -179.88255     4.01151    -0.61681     1.35893
  augment   759.96987   759.71259   753.53877    -0.00382     0.10133     0.00003
  Kinetic   742.73637   740.26321   735.80312   -15.35098    -3.11007     2.72435
  Fock        0.00000     0.00000     0.00000     0.00000     0.00000     0.00000
  vdW        -4.35609    -4.38390    -3.82975     0.00000     0.00612     0.00000
  -------------------------------------------------------------------------------------
  Total      -4.65189    -4.43765    -0.71020    -0.00000    -0.37470    -0.00000
  in kB     -44.02524   -41.99764    -6.72129    -0.00000    -3.54618    -0.00000
  external pressure =      -30.91 kB  Pullay stress =        0.00 kB


 VOLUME and BASIS-vectors are now :
 -----------------------------------------------------------------------------
  energy-cutoff  :      400.00
  volume of cell :      169.29
      direct lattice vectors                 reciprocal lattice vectors
     2.566797733  0.000000000  0.000000000     0.389590495 -0.224930177  0.000000000
     1.283398867  2.222912043  0.000000000     0.000000000  0.449860355  0.000000000
     0.000000000  0.000000000 29.670471191     0.000000000  0.000000000  0.033703543

  length of vectors
     2.566797733  2.566797733 29.670471191     0.449860355  0.449860355  0.033703543


 FORCES acting on ions
    electron-ion (+dipol)            ewald-force                    non-local-force                 convergence-correction
 -----------------------------------------------------------------------------------------------
   -.686E-05 -.322E-01 0.607E+04   0.105E-07 0.353E-01 -.606E+04   -.415E-12 -.184E-01 -.360E+01   0.260E-06 0.957E-03 -.220E-01
   0.146E-04 -.105E+00 0.436E+04   -.260E-07 0.109E+00 -.436E+04   -.403E-12 -.179E-01 0.224E+00   0.282E-06 0.126E-02 -.297E-01
   -.885E-06 -.261E+00 0.266E+04   0.246E-07 0.267E+00 -.266E+04   -.412E-12 -.183E-01 0.651E-01   0.197E-06 0.175E-02 -.144E-01
   -.176E-04 -.164E+00 0.979E+03   0.453E-09 0.170E+00 -.978E+03   -.470E-12 -.209E-01 -.799E+00   0.333E-06 0.176E-02 0.790E-02
   0.713E-05 -.115E+00 -.726E+03   -.237E-07 0.122E+00 0.725E+03   -.491E-12 -.218E-01 0.795E+00   0.292E-06 0.134E-02 0.187E-01
   0.267E-04 -.171E-01 -.241E+04   0.235E-07 0.166E-01 0.241E+04   -.249E-12 -.111E-01 -.673E-01   0.132E-07 0.657E-03 0.308E-01
   0.759E-06 -.803E-01 -.411E+04   0.510E-09 0.933E-01 0.411E+04   -.656E-12 -.292E-01 0.638E-01   0.350E-06 0.938E-03 0.201E-01
   -.276E-05 -.682E-01 -.582E+04   -.977E-08 -.191E-01 0.581E+04   0.156E-11 0.691E-01 0.437E+01   0.218E-06 0.628E-03 0.842E-02
   -.231E-06 0.106E+02 -.507E+03   -.146E-10 -.135E+02 0.504E+03   0.641E-10 0.285E+01 0.381E+01   0.903E-07 0.110E-02 0.104E-02
   -.381E-07 -.990E+01 -.491E+03   -.290E-10 0.127E+02 0.495E+03   -.634E-10 -.282E+01 -.395E+01   -.762E-07 -.890E-03 -.199E-02
 -----------------------------------------------------------------------------------------------
   0.208E-04 -.104E+00 -.104E+01   0.219E-12 -.568E-13 -.222E-11   -.843E-12 -.375E-01 0.918E+00   0.196E-05 0.951E-02 0.188E-01
 
 
 POSITION                                       TOTAL-FORCE (eV/Angst)
 -----------------------------------------------------------------------------------
      0.00000      0.00436     -0.00352        -0.000000     -0.001069     -0.005412
      1.28340      0.74658      1.99058         0.000000      0.000643      0.016181
      2.56680      1.49310      4.01469         0.000000      0.003445      0.006515
      0.00000      0.02742      6.05189        -0.000000     -0.000052     -0.015942
      1.28340      0.78984      8.06642        -0.000000     -0.000144      0.005762
      2.56680      1.55805     10.10113         0.000000      0.002198     -0.013530
      0.00000      0.10278     12.11983        -0.000000     -0.001965      0.017791
      1.28340      0.87242     14.11847        -0.000000     -0.001728     -0.010725
      1.28340      0.58153     16.28744        -0.000000     -0.008633     -0.023349
      1.28340      1.02016     16.90848         0.000000      0.007305      0.022710
 -----------------------------------------------------------------------------------
    total drift:                                0.000023     -0.132198     -0.103360


--------------------------------------------------------------------------------------------------------



  FREE ENERGIE OF THE ION-ELECTRON SYSTEM (eV)
  ---------------------------------------------------
  free  energy   TOTEN  =       -40.89560676 eV

  energy  without entropy=      -40.86901551  energy(sigma->0) =      -40.88674301
 
 d Force = 0.2972800E-04[ 0.145E-04, 0.449E-04]  d Energy = 0.2819102E-04 0.154E-05
 d Force = 0.2449415E+00[ 0.245E+00, 0.245E+00]  d Ewald  = 0.2449415E+00 0.925E-08


--------------------------------------------------------------------------------------------------------


    POTLOK:  cpu time      0.0267: real time      0.0268


--------------------------------------------------------------------------------------------------------


 stress matrix after NEB project (eV)
     -4.65189     -0.00000     -0.00000
     -0.00000     -4.43765     -0.37470
     -0.00000     -0.37470     -0.71020
  FORCES: max atom, RMS     0.024894    0.015651
  FORCE total and by dimension    0.049493    0.023349
  Stress total and by dimension    6.489837    4.651891


--------------------------------------------------------------------------------------------------------


  
 reached required accuracy - stopping structural energy minimisation
     LOOP+:  cpu time      0.9333: real time      0.9492
    4ORBIT:  cpu time      0.0000: real time      0.0000

 total amount of memory used by VASP MPI-rank0    34706. kBytes
=======================================================================

   base      :      30000. kBytes
   nonl-proj :        813. kBytes
   fftplans  :        716. kBytes
   grid      :       1856. kBytes
   one-center:         62. kBytes
   wavefun   :       1259. kBytes
 
  
  
 General timing and accounting informations for this job:
 ========================================================
  
                  Total CPU time used (sec):      159.853
                            User time (sec):      158.899
                          System time (sec):        0.953
                         Elapsed time (sec):      164.037
  
                   Maximum memory used (kb):      232896.
                   Average memory used (kb):          N/A
  
                          Minor page faults:       304150
                          Major page faults:         6525
                 Voluntary context switches:         4740
