<?xml version="1.0" encoding="ISO-8859-1"?>
<modeling>
 <generator>
  <i name="program" type="string">vasp </i>
  <i name="version" type="string">6.3.2  </i>
  <i name="subversion" type="string">27Jun22 (build Aug 17 2022 15:43:34) complex                          parallel </i>
  <i name="platform" type="string">tv2STDVTST </i>
  <i name="date" type="string">2025 02 04 </i>
  <i name="time" type="string">14:32:01 </i>
 </generator>
 <incar>
  <i type="int" name="ISTART">     0</i>
  <i type="string" name="PREC">Normal</i>
  <i type="int" name="ISPIN">     2</i>
  <i type="int" name="ICHARG">     2</i>
  <i type="int" name="IBRION">     2</i>
  <i name="EDIFF">      0.00020000</i>
  <i name="EDIFFG">     -0.03000000</i>
  <i type="int" name="NSW">   800</i>
  <i type="int" name="ISIF">     2</i>
  <i type="int" name="ISYM">     1</i>
  <i name="ENCUT">    400.00000000</i>
  <i name="POTIM">      0.50000000</i>
  <i type="logical" name="LREAL"> F  </i>
  <i type="int" name="ISMEAR">     1</i>
  <i name="SIGMA">      0.20000000</i>
  <i type="logical" name="LWAVE"> F  </i>
  <i type="logical" name="LCHARG"> F  </i>
  <i type="string" name="GGA">PE</i>
  <i type="int" name="IVDW">    11</i>
 </incar>
 <primitive_cell>
  <structure name="primitive_cell" >
   <crystal>
    <varray name="basis" >
     <v>       2.56679773       0.00000000       0.00000000 </v>
     <v>       1.28339887       2.22291204       0.00000000 </v>
     <v>       0.00000000       0.00000000      29.67047119 </v>
    </varray>
    <i name="volume">    169.29275369 </i>
    <varray name="rec_basis" >
     <v>       0.38959050      -0.22493018       0.00000000 </v>
     <v>       0.00000000       0.44986035       0.00000000 </v>
     <v>       0.00000000       0.00000000       0.03370354 </v>
    </varray>
   </crystal>
   <varray name="positions" >
    <v>       0.00000000       0.00000000       0.00000000 </v>
    <v>       0.33333333       0.33333333       0.07063526 </v>
    <v>       0.66666667       0.66666667       0.13908594 </v>
    <v>       0.00000000       0.00000000       0.20816512 </v>
    <v>       0.33333333       0.33333333       0.27656240 </v>
    <v>       0.66666667       0.66666667       0.34556034 </v>
    <v>       0.00000000       0.00000000       0.41400593 </v>
    <v>       0.33333333       0.33333333       0.48139269 </v>
    <v>       0.33333333       0.33333333       0.53425930 </v>
    <v>       0.21468229       0.57063542       0.55203798 </v>
   </varray>
  </structure>
  <varray name="primitive_index" >
   <v type="int" >        1 </v>
   <v type="int" >        2 </v>
   <v type="int" >        3 </v>
   <v type="int" >        4 </v>
   <v type="int" >        5 </v>
   <v type="int" >        6 </v>
   <v type="int" >        7 </v>
   <v type="int" >        8 </v>
   <v type="int" >        9 </v>
   <v type="int" >       10 </v>
  </varray>
 </primitive_cell>
 <kpoints>
  <generation param="Monkhorst-Pack">
   <v type="int" name="divisions">       3        3        1 </v>
   <v name="usershift">      0.00000000       0.00000000       0.00000000 </v>
   <v name="genvec1">      0.33333333       0.00000000       0.00000000 </v>
   <v name="genvec2">      0.00000000       0.33333333       0.00000000 </v>
   <v name="genvec3">      0.00000000       0.00000000       1.00000000 </v>
   <v name="shift">      0.00000000       0.00000000       0.00000000 </v>
  </generation>
  <varray name="kpointlist" >
   <v>       0.00000000       0.00000000       0.00000000 </v>
   <v>       0.33333333       0.00000000       0.00000000 </v>
   <v>       0.00000000       0.33333333       0.00000000 </v>
   <v>      -0.33333333       0.33333333       0.00000000 </v>
  </varray>
  <varray name="weights" >
   <v>       0.11111111 </v>
   <v>       0.44444444 </v>
   <v>       0.22222222 </v>
   <v>       0.22222222 </v>
  </varray>
 </kpoints>
 <parameters>
  <separator name="general" >
   <i type="string" name="SYSTEM">unknown system</i>
   <i type="logical" name="LCOMPAT"> F  </i>
  </separator>
  <separator name="electronic" >
   <i type="string" name="PREC">normal</i>
   <i name="ENMAX">    400.00000000</i>
   <i name="ENAUG">    586.98000000</i>
   <i name="EDIFF">      0.00020000</i>
   <i type="int" name="IALGO">    38</i>
   <i type="int" name="IWAVPR">    11</i>
   <i type="int" name="NBANDS">    60</i>
   <i type="int" name="NBANDSLOW">    -1</i>
   <i type="int" name="NBANDSHIGH">    -1</i>
   <i name="NELECT">     90.00000000</i>
   <i type="int" name="TURBO">     0</i>
   <i type="int" name="IRESTART">     0</i>
   <i type="int" name="NREBOOT">     0</i>
   <i type="int" name="NMIN">     0</i>
   <i name="EREF">      0.00000000</i>
   <separator name="electronic smearing" >
    <i type="int" name="ISMEAR">     1</i>
    <i name="SIGMA">      0.20000000</i>
    <i name="KSPACING">      0.50000000</i>
    <i type="logical" name="KGAMMA"> T  </i>
    <i type="logical" name="KBLOWUP"> T  </i>
   </separator>
   <separator name="electronic projectors" >
    <i type="logical" name="LREAL"> F  </i>
    <v name="ROPT">      0.00000000      0.00000000</v>
    <i type="int" name="LMAXPAW">  -100</i>
    <i type="int" name="LMAXMIX">     2</i>
    <i type="logical" name="NLSPLINE"> F  </i>
   </separator>
   <separator name="electronic startup" >
    <i type="int" name="ISTART">     0</i>
    <i type="int" name="ICHARG">     2</i>
    <i type="int" name="INIWAV">     1</i>
   </separator>
   <separator name="electronic spin" >
    <i type="int" name="ISPIN">     2</i>
    <i type="logical" name="LNONCOLLINEAR"> F  </i>
    <v name="MAGMOM">      1.00000000      1.00000000      1.00000000      1.00000000      1.00000000      1.00000000      1.00000000      1.00000000      1.00000000      1.00000000</v>
    <i name="NUPDOWN">     -1.00000000</i>
    <i type="logical" name="LSORBIT"> F  </i>
    <v name="SAXIS">      0.00000000      0.00000000      1.00000000</v>
    <i type="logical" name="LSPIRAL"> F  </i>
    <v name="QSPIRAL">      0.00000000      0.00000000      0.00000000</v>
    <i type="logical" name="LZEROZ"> F  </i>
   </separator>
   <separator name="electronic exchange-correlation" >
    <i type="logical" name="LASPH"> F  </i>
    <i type="logical" name="LMETAGGA"> F  </i>
   </separator>
   <separator name="electronic convergence" >
    <i type="int" name="NELM">    60</i>
    <i type="int" name="NELMDL">    -5</i>
    <i type="int" name="NELMIN">     2</i>
    <i name="ENINI">    400.00000000</i>
    <separator name="electronic convergence detail" >
     <i type="logical" name="LDIAG"> T  </i>
     <i type="logical" name="LSUBROT"> F  </i>
     <i name="WEIMIN">      0.00100000</i>
     <i name="EBREAK">      0.00000083</i>
     <i name="DEPER">      0.30000000</i>
     <i type="int" name="NRMM">     4</i>
     <i name="TIME">      0.40000000</i>
    </separator>
   </separator>
   <separator name="electronic mixer" >
    <i name="AMIX">      0.40000000</i>
    <i name="BMIX">      1.00000000</i>
    <i name="AMIN">      0.10000000</i>
    <i name="AMIX_MAG">      1.60000000</i>
    <i name="BMIX_MAG">      1.00000000</i>
    <separator name="electronic mixer details" >
     <i type="int" name="IMIX">     4</i>
     <i type="logical" name="MIXFIRST"> F  </i>
     <i type="int" name="MAXMIX">   -45</i>
     <i name="WC">    100.00000000</i>
     <i type="int" name="INIMIX">     1</i>
     <i type="int" name="MIXPRE">     1</i>
     <i type="int" name="MREMOVE">     5</i>
    </separator>
   </separator>
   <separator name="electronic dipolcorrection" >
    <i type="logical" name="LDIPOL"> F  </i>
    <i type="logical" name="LMONO"> F  </i>
    <i type="int" name="IDIPOL">     0</i>
    <i name="EPSILON">      1.00000000</i>
    <v name="DIPOL">   -100.00000000   -100.00000000   -100.00000000</v>
    <i name="EFIELD">      0.00000000</i>
   </separator>
  </separator>
  <separator name="grids" >
   <i type="int" name="NGX">    14</i>
   <i type="int" name="NGY">    14</i>
   <i type="int" name="NGZ">   150</i>
   <i type="int" name="NGXF">    28</i>
   <i type="int" name="NGYF">    28</i>
   <i type="int" name="NGZF">   300</i>
   <i type="logical" name="ADDGRID"> F  </i>
  </separator>
  <separator name="ionic" >
   <i type="int" name="NSW">   800</i>
   <i type="int" name="IBRION">     2</i>
   <i type="int" name="MDALGO">     0</i>
   <i type="int" name="ISIF">     2</i>
   <i name="PSTRESS">      0.00000000</i>
   <i name="EDIFFG">     -0.03000000</i>
   <i type="int" name="NFREE">     1</i>
   <i name="POTIM">      0.50000000</i>
   <i name="SMASS">     -3.00000000</i>
   <i name="SCALEE">      1.00000000</i>
  </separator>
  <separator name="ionic md" >
   <i name="TEBEG">      0.00010000</i>
   <i name="TEEND">      0.00010000</i>
   <i type="int" name="NBLOCK">     1</i>
   <i type="int" name="KBLOCK">   800</i>
   <i type="int" name="NPACO">   256</i>
   <i name="APACO">     10.00000000</i>
  </separator>
  <separator name="symmetry" >
   <i type="int" name="ISYM">     1</i>
   <i name="SYMPREC">      0.00001000</i>
  </separator>
  <separator name="dos" >
   <i type="int" name="LORBIT">     0</i>
   <v name="RWIGS">     -1.00000000     -1.00000000</v>
   <i type="int" name="NEDOS">   301</i>
   <i name="EMIN">     10.00000000</i>
   <i name="EMAX">    -10.00000000</i>
   <i name="EFERMI">      0.00000000</i>
  </separator>
  <separator name="writing" >
   <i type="int" name="NWRITE">     2</i>
   <i type="logical" name="LWAVE"> F  </i>
   <i type="logical" name="LDOWNSAMPLE"> F  </i>
   <i type="logical" name="LCHARG"> F  </i>
   <i type="logical" name="LPARD"> F  </i>
   <i type="logical" name="LVTOT"> F  </i>
   <i type="logical" name="LVHAR"> F  </i>
   <i type="logical" name="LELF"> F  </i>
   <i type="logical" name="LOPTICS"> F  </i>
   <v name="STM">      0.00000000      0.00000000      0.00000000      0.00000000      0.00000000      0.00000000      0.00000000</v>
  </separator>
  <separator name="performance" >
   <i type="int" name="NPAR">     4</i>
   <i type="int" name="NSIM">     4</i>
   <i type="int" name="NBLK">    -1</i>
   <i type="logical" name="LPLANE"> T  </i>
   <i type="logical" name="LSCALAPACK"> T  </i>
   <i type="logical" name="LSCAAWARE"> F  </i>
   <i type="logical" name="LSCALU"> F  </i>
   <i type="logical" name="LASYNC"> F  </i>
   <i type="logical" name="LORBITALREAL"> F  </i>
  </separator>
  <separator name="miscellaneous" >
   <i type="int" name="IDIOT">     3</i>
   <i type="int" name="PHON_NSTRUCT">    -1</i>
   <i type="logical" name="LMUSIC"> F  </i>
   <v name="POMASS">     63.54600000      1.00000000</v>
   <v name="DARWINR">      0.00000000      0.00000000</v>
   <v name="DARWINV">      1.00000000      1.00000000</v>
   <i type="logical" name="LCORR"> T  </i>
  </separator>
  <i type="logical" name="GGA_COMPAT"> T  </i>
  <i type="logical" name="LBERRY"> F  </i>
  <i type="int" name="ICORELEVEL">     0</i>
  <i type="logical" name="LDAU"> F  </i>
  <i type="int" name="I_CONSTRAINED_M">     0</i>
  <separator name="electronic exchange-correlation" >
   <i type="string" name="GGA">PE</i>
   <i type="int" name="VOSKOWN">     0</i>
   <i type="logical" name="LHFCALC"> F  </i>
   <i type="string" name="PRECFOCK"></i>
   <i type="logical" name="LSYMGRAD"> F  </i>
   <i type="logical" name="LHFONE"> F  </i>
   <i type="logical" name="LRHFCALC"> F  </i>
   <i type="logical" name="LTHOMAS"> F  </i>
   <i type="logical" name="LMODELHF"> F  </i>
   <i type="logical" name="LFOCKACE"> F  </i>
   <i name="ENCUT4O">     -1.00000000</i>
   <i type="int" name="EXXOEP">     0</i>
   <i type="int" name="FOURORBIT">     0</i>
   <i name="AEXX">      0.00000000</i>
   <i name="HFALPHA">      0.00000000</i>
   <i name="MCALPHA">      0.00000000</i>
   <i name="ALDAX">      1.00000000</i>
   <i name="AGGAX">      1.00000000</i>
   <i name="ALDAC">      1.00000000</i>
   <i name="AGGAC">      1.00000000</i>
   <i type="int" name="NKREDX">     1</i>
   <i type="int" name="NKREDY">     1</i>
   <i type="int" name="NKREDZ">     1</i>
   <i type="logical" name="SHIFTRED"> F  </i>
   <i type="logical" name="ODDONLY"> F  </i>
   <i type="logical" name="EVENONLY"> F  </i>
   <i type="int" name="LMAXFOCK">     0</i>
   <i type="int" name="NMAXFOCKAE">     0</i>
   <i type="logical" name="LFOCKAEDFT"> F  </i>
   <i name="HFSCREEN">      0.00000000</i>
   <i name="HFSCREENC">      0.00000000</i>
   <i type="int" name="NBANDSGWLOW">     0</i>
  </separator>
  <separator name="vdW DFT" >
   <i type="logical" name="LUSE_VDW"> F  </i>
   <i name="Zab_VDW">     -0.84910000</i>
   <i name="PARAM1">      0.12340000</i>
   <i name="PARAM2">      1.00000000</i>
   <i name="PARAM3">      0.00000000</i>
  </separator>
  <separator name="model GW" >
   <i type="int" name="MODEL_GW">     0</i>
   <i name="MODEL_EPS0">     10.15756522</i>
   <i name="MODEL_ALPHA">      1.00000000</i>
  </separator>
  <separator name="linear response parameters" >
   <i type="logical" name="LEPSILON"> F  </i>
   <i type="logical" name="LRPA"> F  </i>
   <i type="logical" name="LNABLA"> F  </i>
   <i type="logical" name="LVEL"> F  </i>
   <i name="CSHIFT">      0.10000000</i>
   <i name="OMEGAMAX">     -1.00000000</i>
   <i name="DEG_THRESHOLD">      0.00200000</i>
   <i name="RTIME">     -0.10000000</i>
   <i name="WPLASMAI">      0.00000000</i>
   <v name="DFIELD">      0.00000000      0.00000000      0.00000000</v>
   <v name="WPLASMA">      0.00000000      0.00000000      0.00000000      0.00000000      0.00000000      0.00000000      0.00000000      0.00000000      0.00000000</v>
  </separator>
  <separator name="orbital magnetization" >
   <i type="logical" name="NUCIND"> F  </i>
   <v name="MAGPOS">      0.00000000      0.00000000      0.00000000</v>
   <i type="logical" name="LNICSALL"> T  </i>
   <i type="logical" name="ORBITALMAG"> F  </i>
   <i type="logical" name="LMAGBLOCH"> F  </i>
   <i type="logical" name="LCHIMAG"> F  </i>
   <i type="logical" name="LGAUGE"> T  </i>
   <i type="int" name="MAGATOM">     0</i>
   <v name="MAGDIPOL">      0.00000000      0.00000000      0.00000000</v>
   <v name="AVECCONST">      0.00000000      0.00000000      0.00000000</v>
  </separator>
  <separator name="response functions" >
   <i type="logical" name="LFINITE_TEMPERATURE"> F  </i>
   <i type="logical" name="LADDER"> F  </i>
   <i type="logical" name="LRPAFORCE"> F  </i>
   <i type="logical" name="LFXC"> F  </i>
   <i type="logical" name="LHARTREE"> T  </i>
   <i type="int" name="IBSE">     0</i>
   <v type="int" name="KPOINT">    -1     0     0     0</v>
   <i type="logical" name="LTCTC"> F  </i>
   <i type="logical" name="LTCTE"> F  </i>
   <i type="logical" name="LTETE"> F  </i>
   <i type="logical" name="LTRIPLET"> F  </i>
   <i type="logical" name="LFXCEPS"> F  </i>
   <i type="logical" name="LFXHEG"> F  </i>
   <i type="int" name="NATURALO">     2</i>
   <i type="logical" name="LHOLEGF"> F  </i>
   <i type="logical" name="L2ORDER"> F  </i>
   <i type="logical" name="LDMP1"> F  </i>
   <i type="logical" name="LMP2LT"> F  </i>
   <i type="logical" name="LSMP2LT"> F  </i>
   <i type="logical" name="LGWLF"> F  </i>
   <i name="ENCUTGW">     -2.00000000</i>
   <i name="ENCUTGWSOFT">     -2.00000000</i>
   <i name="ENCUTLF">     -1.00000000</i>
   <i type="logical" name="LESF_SPLINES"> F  </i>
   <i type="int" name="LMAXMP2">    -1</i>
   <i name="SCISSOR">      0.00000000</i>
   <i type="int" name="NOMEGA">     0</i>
   <i type="int" name="NOMEGAR">     0</i>
   <i type="int" name="NBANDSGW">    -1</i>
   <i type="int" name="NBANDSO">    -1</i>
   <i type="int" name="NBANDSV">    -1</i>
   <i type="int" name="NELMGW">     1</i>
   <i type="int" name="NELMHF">     1</i>
   <i type="int" name="DIM">     3</i>
   <i type="int" name="IESPILON">     4</i>
   <i type="int" name="ANTIRES">     0</i>
   <i name="OMEGAMAX">    -30.00000000</i>
   <i name="OMEGAMIN">    -30.00000000</i>
   <i name="OMEGATL">   -200.00000000</i>
   <i type="int" name="OMEGAGRID">     0</i>
   <i name="CSHIFT">     -0.10000000</i>
   <i type="logical" name="LSELFENERGY"> F  </i>
   <i type="logical" name="LSPECTRAL"> F  </i>
   <i type="logical" name="LSPECTRALGW"> F  </i>
   <i type="logical" name="LSINGLES"> F  </i>
   <i type="logical" name="LFERMIGW"> F  </i>
   <i type="logical" name="ODDONLYGW"> F  </i>
   <i type="logical" name="EVENONLYGW"> F  </i>
   <i type="int" name="NKREDLFX">     1</i>
   <i type="int" name="NKREDLFY">     1</i>
   <i type="int" name="NKREDLFZ">     1</i>
   <i type="int" name="MAXMEM">  2800</i>
   <i type="int" name="TELESCOPE">     0</i>
   <i type="int" name="NTAUPAR">    -1</i>
   <i type="int" name="NOMEGAPAR">    -1</i>
   <i name="DAMP_NEWTON">      0.80000001</i>
   <i name="LAMBDA">      1.00000000</i>
  </separator>
  <separator name="External order field" >
   <i name="OFIELD_KAPPA">      0.00000000</i>
   <v name="OFIELD_K">      0.00000000      0.00000000      0.00000000</v>
   <i name="OFIELD_Q6_NEAR">      0.00000000</i>
   <i name="OFIELD_Q6_FAR">      0.00000000</i>
   <i name="OFIELD_A">      0.00000000</i>
  </separator>
  <separator name="optional k-points parameters" >
   <i type="int" name="KPOINTS_OPT_MODE">     1</i>
   <i type="logical" name="LKPOINTS_OPT"> F  </i>
  </separator>
 </parameters>
 <atominfo>
  <atoms>      10 </atoms>
  <types>       2 </types>
  <array name="atoms" >
   <dimension dim="1">ion</dimension>
   <field type="string">element</field>
   <field type="int">atomtype</field>
   <set>
    <rc><c>Cu</c><c>   1</c></rc>
    <rc><c>Cu</c><c>   1</c></rc>
    <rc><c>Cu</c><c>   1</c></rc>
    <rc><c>Cu</c><c>   1</c></rc>
    <rc><c>Cu</c><c>   1</c></rc>
    <rc><c>Cu</c><c>   1</c></rc>
    <rc><c>Cu</c><c>   1</c></rc>
    <rc><c>Cu</c><c>   1</c></rc>
    <rc><c>H </c><c>   2</c></rc>
    <rc><c>H </c><c>   2</c></rc>
   </set>
  </array>
  <array name="atomtypes" >
   <dimension dim="1">type</dimension>
   <field type="int">atomspertype</field>
   <field type="string">element</field>
   <field>mass</field>
   <field>valence</field>
   <field type="string">pseudopotential</field>
   <set>
    <rc><c>   8</c><c>Cu</c><c>     63.54600000</c><c>     11.00000000</c><c>  PAW_PBE Cu 22Jun2005                  </c></rc>
    <rc><c>   2</c><c>H </c><c>      1.00000000</c><c>      1.00000000</c><c>  PAW_PBE H 15Jun2001                   </c></rc>
   </set>
  </array>
 </atominfo>
 <structure name="initialpos" >
  <crystal>
   <varray name="basis" >
    <v>       2.56679773       0.00000000       0.00000000 </v>
    <v>       1.28339887       2.22291204       0.00000000 </v>
    <v>       0.00000000       0.00000000      29.67047119 </v>
   </varray>
   <i name="volume">    169.29275369 </i>
   <varray name="rec_basis" >
    <v>       0.38959050      -0.22493018       0.00000000 </v>
    <v>       0.00000000       0.44986035       0.00000000 </v>
    <v>       0.00000000       0.00000000       0.03370354 </v>
   </varray>
  </crystal>
  <varray name="positions" >
   <v>       0.00000000       0.00000000       0.00000000 </v>
   <v>       0.33333333       0.33333333       0.07063526 </v>
   <v>       0.66666667       0.66666667       0.13908594 </v>
   <v>       0.00000000       0.00000000       0.20816512 </v>
   <v>       0.33333333       0.33333333       0.27656240 </v>
   <v>       0.66666667       0.66666667       0.34556034 </v>
   <v>       0.00000000       0.00000000       0.41400593 </v>
   <v>       0.33333333       0.33333333       0.48139269 </v>
   <v>       0.33333333       0.33333333       0.53425930 </v>
   <v>       0.21468229       0.57063542       0.55203798 </v>
  </varray>
 </structure>
 <calculation>
  <scstep>
   <time name="dav">    0.28    0.29</time>
   <time name="total">    0.31    0.32</time>
   <energy>
    <i name="alphaZ">    285.34744303 </i>
    <i name="ewald">  52364.20072896 </i>
    <i name="hartreedc"> -63414.45184156 </i>
    <i name="XCdc">    372.72360895 </i>
    <i name="pawpsdc">   9828.36862813 </i>
    <i name="pawaedc"> -10674.97285505 </i>
    <i name="eentropy">      0.01467690 </i>
    <i name="bandstr">    883.48996102 </i>
    <i name="atom">  11152.61838693 </i>
    <i name="e_fr_energy">    797.33873731 </i>
    <i name="e_wo_entrp">    797.32406040 </i>
    <i name="e_0_energy">    797.33384501 </i>
   </energy>
  </scstep>
  <scstep>
   <time name="dav">    0.27    0.28</time>
   <time name="total">    0.27    0.28</time>
   <energy>
    <i name="e_fr_energy">     73.45505838 </i>
    <i name="e_wo_entrp">     73.46138053 </i>
    <i name="e_0_energy">     73.45716577 </i>
   </energy>
  </scstep>
  <scstep>
   <time name="dav">    0.28    0.28</time>
   <time name="total">    0.28    0.28</time>
   <energy>
    <i name="e_fr_energy">    -33.19040478 </i>
    <i name="e_wo_entrp">    -33.20909280 </i>
    <i name="e_0_energy">    -33.19663412 </i>
   </energy>
  </scstep>
  <scstep>
   <time name="dav">    0.30    0.30</time>
   <time name="total">    0.30    0.31</time>
   <energy>
    <i name="e_fr_energy">    -37.69147251 </i>
    <i name="e_wo_entrp">    -37.71966252 </i>
    <i name="e_0_energy">    -37.70086918 </i>
   </energy>
  </scstep>
  <scstep>
   <time name="dav">    0.33    0.33</time>
   <time name="total">    0.39    0.39</time>
   <energy>
    <i name="e_fr_energy">    -37.79140563 </i>
    <i name="e_wo_entrp">    -37.81995355 </i>
    <i name="e_0_energy">    -37.80092161 </i>
   </energy>
  </scstep>
  <scstep>
   <time name="dav">    0.34    0.35</time>
   <time name="total">    0.43    0.43</time>
   <energy>
    <i name="e_fr_energy">    -34.15622455 </i>
    <i name="e_wo_entrp">    -34.12853618 </i>
    <i name="e_0_energy">    -34.14699510 </i>
   </energy>
  </scstep>
  <scstep>
   <time name="dav">    0.36    0.36</time>
   <time name="total">    0.44    0.45</time>
   <energy>
    <i name="e_fr_energy">    -90.55778314 </i>
    <i name="e_wo_entrp">    -90.56252463 </i>
    <i name="e_0_energy">    -90.55936363 </i>
   </energy>
  </scstep>
  <scstep>
   <time name="dav">    0.42    0.42</time>
   <time name="total">    0.50    0.50</time>
   <energy>
    <i name="e_fr_energy">    -37.99701684 </i>
    <i name="e_wo_entrp">    -37.95974520 </i>
    <i name="e_0_energy">    -37.98459296 </i>
   </energy>
  </scstep>
  <scstep>
   <time name="dav">    0.37    0.38</time>
   <time name="total">    0.46    0.46</time>
   <energy>
    <i name="e_fr_energy">    -32.18728936 </i>
    <i name="e_wo_entrp">    -32.18761584 </i>
    <i name="e_0_energy">    -32.18739818 </i>
   </energy>
  </scstep>
  <scstep>
   <time name="dav">    0.36    0.36</time>
   <time name="total">    0.44    0.45</time>
   <energy>
    <i name="e_fr_energy">    -30.72059886 </i>
    <i name="e_wo_entrp">    -30.71236935 </i>
    <i name="e_0_energy">    -30.71785569 </i>
   </energy>
  </scstep>
  <scstep>
   <time name="dav">    0.31    0.32</time>
   <time name="total">    0.40    0.40</time>
   <energy>
    <i name="e_fr_energy">    -30.01153108 </i>
    <i name="e_wo_entrp">    -29.99857243 </i>
    <i name="e_0_energy">    -30.00721153 </i>
   </energy>
  </scstep>
  <scstep>
   <time name="dav">    0.34    0.34</time>
   <time name="total">    0.42    0.42</time>
   <energy>
    <i name="e_fr_energy">    -29.61888069 </i>
    <i name="e_wo_entrp">    -29.60647478 </i>
    <i name="e_0_energy">    -29.61474539 </i>
   </energy>
  </scstep>
  <scstep>
   <time name="dav">    0.38    0.39</time>
   <time name="total">    0.46    0.47</time>
   <energy>
    <i name="e_fr_energy">    -30.33036335 </i>
    <i name="e_wo_entrp">    -30.31994523 </i>
    <i name="e_0_energy">    -30.32689064 </i>
   </energy>
  </scstep>
  <scstep>
   <time name="dav">    0.36    0.36</time>
   <time name="total">    0.44    0.44</time>
   <energy>
    <i name="e_fr_energy">    -32.04517460 </i>
    <i name="e_wo_entrp">    -32.03253052 </i>
    <i name="e_0_energy">    -32.04095991 </i>
   </energy>
  </scstep>
  <scstep>
   <time name="dav">    0.39    0.39</time>
   <time name="total">    0.47    0.47</time>
   <energy>
    <i name="e_fr_energy">    -33.76666923 </i>
    <i name="e_wo_entrp">    -33.74692430 </i>
    <i name="e_0_energy">    -33.76008759 </i>
   </energy>
  </scstep>
  <scstep>
   <time name="dav">    0.33    0.33</time>
   <time name="total">    0.41    0.41</time>
   <energy>
    <i name="e_fr_energy">    -34.43194971 </i>
    <i name="e_wo_entrp">    -34.41326793 </i>
    <i name="e_0_energy">    -34.42572245 </i>
   </energy>
  </scstep>
  <scstep>
   <time name="dav">    0.35    0.35</time>
   <time name="total">    0.43    0.44</time>
   <energy>
    <i name="e_fr_energy">    -35.18999967 </i>
    <i name="e_wo_entrp">    -35.17860692 </i>
    <i name="e_0_energy">    -35.18620208 </i>
   </energy>
  </scstep>
  <scstep>
   <time name="dav">    0.34    0.34</time>
   <time name="total">    0.42    0.42</time>
   <energy>
    <i name="e_fr_energy">    -35.67221630 </i>
    <i name="e_wo_entrp">    -35.66234323 </i>
    <i name="e_0_energy">    -35.66892527 </i>
   </energy>
  </scstep>
  <scstep>
   <time name="dav">    0.35    0.35</time>
   <time name="total">    0.44    0.44</time>
   <energy>
    <i name="e_fr_energy">    -35.95607954 </i>
    <i name="e_wo_entrp">    -35.94306259 </i>
    <i name="e_0_energy">    -35.95174056 </i>
   </energy>
  </scstep>
  <scstep>
   <time name="dav">    0.34    0.35</time>
   <time name="total">    0.42    0.43</time>
   <energy>
    <i name="e_fr_energy">    -36.16029943 </i>
    <i name="e_wo_entrp">    -36.14134003 </i>
    <i name="e_0_energy">    -36.15397963 </i>
   </energy>
  </scstep>
  <scstep>
   <time name="dav">    0.32    0.32</time>
   <time name="total">    0.40    0.40</time>
   <energy>
    <i name="e_fr_energy">    -36.20633311 </i>
    <i name="e_wo_entrp">    -36.18534695 </i>
    <i name="e_0_energy">    -36.19933773 </i>
   </energy>
  </scstep>
  <scstep>
   <time name="dav">    0.36    0.36</time>
   <time name="total">    0.44    0.44</time>
   <energy>
    <i name="e_fr_energy">    -36.25515582 </i>
    <i name="e_wo_entrp">    -36.23135377 </i>
    <i name="e_0_energy">    -36.24722180 </i>
   </energy>
  </scstep>
  <scstep>
   <time name="dav">    0.34    0.34</time>
   <time name="total">    0.42    0.42</time>
   <energy>
    <i name="e_fr_energy">    -36.40145232 </i>
    <i name="e_wo_entrp">    -36.37649859 </i>
    <i name="e_0_energy">    -36.39313441 </i>
   </energy>
  </scstep>
  <scstep>
   <time name="dav">    0.32    0.32</time>
   <time name="total">    0.40    0.40</time>
   <energy>
    <i name="e_fr_energy">    -36.73927962 </i>
    <i name="e_wo_entrp">    -36.71519761 </i>
    <i name="e_0_energy">    -36.73125228 </i>
   </energy>
  </scstep>
  <scstep>
   <time name="dav">    0.35    0.35</time>
   <time name="total">    0.43    0.43</time>
   <energy>
    <i name="e_fr_energy">    -36.80373673 </i>
    <i name="e_wo_entrp">    -36.78053880 </i>
    <i name="e_0_energy">    -36.79600408 </i>
   </energy>
  </scstep>
  <scstep>
   <time name="dav">    0.37    0.37</time>
   <time name="total">    0.45    0.45</time>
   <energy>
    <i name="e_fr_energy">    -36.83016987 </i>
    <i name="e_wo_entrp">    -36.80689893 </i>
    <i name="e_0_energy">    -36.82241289 </i>
   </energy>
  </scstep>
  <scstep>
   <time name="dav">    0.32    0.32</time>
   <time name="total">    0.40    0.40</time>
   <energy>
    <i name="e_fr_energy">    -36.83848803 </i>
    <i name="e_wo_entrp">    -36.81448396 </i>
    <i name="e_0_energy">    -36.83048668 </i>
   </energy>
  </scstep>
  <scstep>
   <time name="dav">    0.26    0.27</time>
   <time name="total">    0.34    0.35</time>
   <energy>
    <i name="e_fr_energy">    -36.84445723 </i>
    <i name="e_wo_entrp">    -36.82029823 </i>
    <i name="e_0_energy">    -36.83640423 </i>
   </energy>
  </scstep>
  <scstep>
   <time name="dav">    0.25    0.25</time>
   <time name="total">    0.33    0.33</time>
   <energy>
    <i name="e_fr_energy">    -36.84650329 </i>
    <i name="e_wo_entrp">    -36.82143896 </i>
    <i name="e_0_energy">    -36.83814851 </i>
   </energy>
  </scstep>
  <scstep>
   <time name="dav">    0.24    0.24</time>
   <time name="total">    0.32    0.32</time>
   <energy>
    <i name="e_fr_energy">    -36.84704650 </i>
    <i name="e_wo_entrp">    -36.82211261 </i>
    <i name="e_0_energy">    -36.83873520 </i>
   </energy>
  </scstep>
  <scstep>
   <time name="dav">    0.22    0.23</time>
   <time name="total">    0.30    0.31</time>
   <energy>
    <i name="e_fr_energy">    -36.84842930 </i>
    <i name="e_wo_entrp">    -36.82318404 </i>
    <i name="e_0_energy">    -36.84001422 </i>
   </energy>
  </scstep>
  <scstep>
   <time name="dav">    0.25    0.25</time>
   <time name="total">    0.33    0.33</time>
   <energy>
    <i name="e_fr_energy">    -36.84998975 </i>
    <i name="e_wo_entrp">    -36.82481758 </i>
    <i name="e_0_energy">    -36.84159903 </i>
   </energy>
  </scstep>
  <scstep>
   <time name="dav">    0.22    0.22</time>
   <time name="total">    0.30    0.30</time>
   <energy>
    <i name="e_fr_energy">    -36.85080577 </i>
    <i name="e_wo_entrp">    -36.82574110 </i>
    <i name="e_0_energy">    -36.84245088 </i>
   </energy>
  </scstep>
  <scstep>
   <time name="dav">    0.22    0.22</time>
   <time name="total">    0.30    0.30</time>
   <energy>
    <i name="e_fr_energy">    -36.85160374 </i>
    <i name="e_wo_entrp">    -36.82619568 </i>
    <i name="e_0_energy">    -36.84313439 </i>
   </energy>
  </scstep>
  <scstep>
   <time name="dav">    0.21    0.21</time>
   <time name="total">    0.29    0.29</time>
   <energy>
    <i name="e_fr_energy">    -36.85190127 </i>
    <i name="e_wo_entrp">    -36.82660530 </i>
    <i name="e_0_energy">    -36.84346928 </i>
   </energy>
  </scstep>
  <scstep>
   <time name="dav">    0.21    0.21</time>
   <time name="total">    0.29    0.29</time>
   <energy>
    <i name="e_fr_energy">    -36.85215445 </i>
    <i name="e_wo_entrp">    -36.82677032 </i>
    <i name="e_0_energy">    -36.84369308 </i>
   </energy>
  </scstep>
  <scstep>
   <time name="dav">    0.21    0.21</time>
   <time name="total">    0.24    0.24</time>
   <energy>
    <i name="alphaZ">    285.34744303 </i>
    <i name="ewald">  52364.20072896 </i>
    <i name="hartreedc"> -63325.59181598 </i>
    <i name="XCdc">    363.13892060 </i>
    <i name="pawpsdc">  10597.79770563 </i>
    <i name="pawaedc"> -11460.23124686 </i>
    <i name="eentropy">     -0.02531462 </i>
    <i name="bandstr">    -14.10701389 </i>
    <i name="atom">  11152.61838693 </i>
    <i name="e_fr_energy">    -36.85220620 </i>
    <i name="e_wo_entrp">    -36.82689158 </i>
    <i name="e_0_energy">    -36.84376800 </i>
   </energy>
  </scstep>
  <structure>
   <crystal>
    <varray name="basis" >
     <v>       2.56679773       0.00000000       0.00000000 </v>
     <v>       1.28339887       2.22291204       0.00000000 </v>
     <v>       0.00000000       0.00000000      29.67047119 </v>
    </varray>
    <i name="volume">    169.29275369 </i>
    <varray name="rec_basis" >
     <v>       0.38959050      -0.22493018       0.00000000 </v>
     <v>       0.00000000       0.44986035       0.00000000 </v>
     <v>       0.00000000       0.00000000       0.03370354 </v>
    </varray>
   </crystal>
   <varray name="positions" >
    <v>       0.00000000       0.00000000       0.00000000 </v>
    <v>       0.33333333       0.33333333       0.07063526 </v>
    <v>       0.66666667       0.66666667       0.13908594 </v>
    <v>       0.00000000       0.00000000       0.20816512 </v>
    <v>       0.33333333       0.33333333       0.27656240 </v>
    <v>       0.66666667       0.66666667       0.34556034 </v>
    <v>       0.00000000       0.00000000       0.41400593 </v>
    <v>       0.33333333       0.33333333       0.48139269 </v>
    <v>       0.33333333       0.33333333       0.53425930 </v>
    <v>       0.21468229       0.57063542       0.55203798 </v>
   </varray>
  </structure>
  <varray name="forces" >
   <v>      -0.00000000      -0.00014364       0.46912727 </v>
   <v>       0.00000000       0.00017590      -0.39446769 </v>
   <v>      -0.00000000      -0.00010967       0.00482591 </v>
   <v>       0.00000000       0.00057795      -0.00161639 </v>
   <v>      -0.00000000      -0.00091919      -0.02297479 </v>
   <v>       0.00000000       0.00219803      -0.04119852 </v>
   <v>       0.00000000       0.01120506      -0.09785698 </v>
   <v>       0.00000000       0.24578036      -1.46672522 </v>
   <v>      -0.00000000      -0.90106747       0.64073395 </v>
   <v>       0.00000000       0.64230267       0.91015246 </v>
  </varray>
  <varray name="stress" >
   <v>     -45.54018007      -0.00000000      -0.00000000 </v>
   <v>      -0.00000000     -41.74823723      -1.04141671 </v>
   <v>      -0.00000000      -1.04140965       6.83683066 </v>
  </varray>
  <energy>
   <i name="e_fr_energy">    -40.54961501 </i>
   <i name="e_wo_entrp">    -40.52430039 </i>
   <i name="e_0_energy">    -40.54117680 </i>
  </energy>
  <time name="totalsc">   14.56   14.71</time>
 </calculation>
 <calculation>
  <scstep>
   <time name="dav">    0.28    0.29</time>
   <time name="total">    0.36    0.37</time>
   <energy>
    <i name="alphaZ">    285.34744303 </i>
    <i name="ewald">  52807.44005130 </i>
    <i name="hartreedc"> -63770.09955661 </i>
    <i name="XCdc">    363.12181549 </i>
    <i name="pawpsdc">  10597.75328966 </i>
    <i name="pawaedc"> -11460.18408113 </i>
    <i name="eentropy">     -0.02490500 </i>
    <i name="bandstr">    -12.88138643 </i>
    <i name="atom">  11152.61838693 </i>
    <i name="e_fr_energy">    -36.90894276 </i>
    <i name="e_wo_entrp">    -36.88403776 </i>
    <i name="e_0_energy">    -36.90064109 </i>
   </energy>
  </scstep>
  <scstep>
   <time name="dav">    0.36    0.37</time>
   <time name="total">    0.44    0.45</time>
   <energy>
    <i name="e_fr_energy">    -36.98449711 </i>
    <i name="e_wo_entrp">    -36.95342945 </i>
    <i name="e_0_energy">    -36.97414122 </i>
   </energy>
  </scstep>
  <scstep>
   <time name="dav">    0.38    0.38</time>
   <time name="total">    0.46    0.46</time>
   <energy>
    <i name="e_fr_energy">    -36.98925107 </i>
    <i name="e_wo_entrp">    -36.97255675 </i>
    <i name="e_0_energy">    -36.98368629 </i>
   </energy>
  </scstep>
  <scstep>
   <time name="dav">    0.36    0.37</time>
   <time name="total">    0.44    0.45</time>
   <energy>
    <i name="e_fr_energy">    -36.97764515 </i>
    <i name="e_wo_entrp">    -36.94988284 </i>
    <i name="e_0_energy">    -36.96839105 </i>
   </energy>
  </scstep>
  <scstep>
   <time name="dav">    0.39    0.39</time>
   <time name="total">    0.47    0.47</time>
   <energy>
    <i name="e_fr_energy">    -36.97613460 </i>
    <i name="e_wo_entrp">    -36.94993983 </i>
    <i name="e_0_energy">    -36.96740301 </i>
   </energy>
  </scstep>
  <scstep>
   <time name="dav">    0.40    0.40</time>
   <time name="total">    0.48    0.48</time>
   <energy>
    <i name="e_fr_energy">    -36.97617355 </i>
    <i name="e_wo_entrp">    -36.95146923 </i>
    <i name="e_0_energy">    -36.96793878 </i>
   </energy>
  </scstep>
  <scstep>
   <time name="dav">    0.40    0.40</time>
   <time name="total">    0.48    0.48</time>
   <energy>
    <i name="e_fr_energy">    -36.97533674 </i>
    <i name="e_wo_entrp">    -36.94917830 </i>
    <i name="e_0_energy">    -36.96661726 </i>
   </energy>
  </scstep>
  <scstep>
   <time name="dav">    0.27    0.27</time>
   <time name="total">    0.30    0.30</time>
   <energy>
    <i name="alphaZ">    285.34744303 </i>
    <i name="ewald">  52807.44005130 </i>
    <i name="hartreedc"> -63765.27372720 </i>
    <i name="XCdc">    363.04089990 </i>
    <i name="pawpsdc">  10601.86898337 </i>
    <i name="pawaedc"> -11464.47000072 </i>
    <i name="eentropy">     -0.02565734 </i>
    <i name="bandstr">    -17.52178638 </i>
    <i name="atom">  11152.61838693 </i>
    <i name="e_fr_energy">    -36.97540711 </i>
    <i name="e_wo_entrp">    -36.94974977 </i>
    <i name="e_0_energy">    -36.96685466 </i>
   </energy>
  </scstep>
  <structure>
   <crystal>
    <varray name="basis" >
     <v>       2.56679773       0.00000000       0.00000000 </v>
     <v>       1.28339887       2.22291204       0.00000000 </v>
     <v>       0.00000000       0.00000000      29.67047119 </v>
    </varray>
    <i name="volume">    169.29275369 </i>
    <varray name="rec_basis" >
     <v>       0.38959050      -0.22493018       0.00000000 </v>
     <v>       0.00000000       0.44986035       0.00000000 </v>
     <v>       0.00000000       0.00000000       0.03370354 </v>
    </varray>
   </crystal>
   <varray name="positions" >
    <v>       0.00000156      -0.00000312       0.00076278 </v>
    <v>       0.33333142       0.33333715       0.06999388 </v>
    <v>       0.66666786       0.66666429       0.13909378 </v>
    <v>      -0.00000627       0.00001254       0.20816249 </v>
    <v>       0.33334331       0.33331338       0.27652504 </v>
    <v>       0.66664282       0.66671437       0.34549335 </v>
    <v>      -0.00012159       0.00024318       0.41384682 </v>
    <v>       0.33066631       0.33866737       0.47900788 </v>
    <v>       0.34311102       0.31377795       0.53530110 </v>
    <v>       0.20771252       0.58457496       0.55351784 </v>
   </varray>
  </structure>
  <varray name="forces" >
   <v>       0.00000000       0.00090530       0.29683209 </v>
   <v>       0.00000000       0.00097119      -0.13804043 </v>
   <v>       0.00000000       0.00056139      -0.07658215 </v>
   <v>       0.00000000       0.00130349      -0.00894457 </v>
   <v>      -0.00000000      -0.00001245      -0.02305711 </v>
   <v>       0.00000000       0.00332637      -0.06311338 </v>
   <v>       0.00000000       0.02681353      -0.45780273 </v>
   <v>       0.00000000       0.19754878      -0.37268055 </v>
   <v>       0.00000000       0.34651473       1.11110856 </v>
   <v>      -0.00000000      -0.57793233      -0.26771973 </v>
  </varray>
  <varray name="stress" >
   <v>     -43.17650227      -0.00000000      -0.00000000 </v>
   <v>      -0.00000000     -45.69916869      -7.30550300 </v>
   <v>      -0.00000000      -7.30549650       1.14518807 </v>
  </varray>
  <energy>
   <i name="e_fr_energy">    -40.68013151 </i>
   <i name="e_wo_entrp">    -40.65447416 </i>
   <i name="e_0_energy">    -40.67157906 </i>
  </energy>
  <time name="totalsc">    3.90    4.03</time>
 </calculation>
 <calculation>
  <scstep>
   <time name="dav">    0.28    0.28</time>
   <time name="total">    0.36    0.36</time>
   <energy>
    <i name="alphaZ">    285.34744303 </i>
    <i name="ewald">  52887.39286090 </i>
    <i name="hartreedc"> -63845.29517250 </i>
    <i name="XCdc">    363.03881755 </i>
    <i name="pawpsdc">  10602.00186753 </i>
    <i name="pawaedc"> -11464.59678415 </i>
    <i name="eentropy">     -0.02544248 </i>
    <i name="bandstr">    -17.45523816 </i>
    <i name="atom">  11152.61838693 </i>
    <i name="e_fr_energy">    -36.97326136 </i>
    <i name="e_wo_entrp">    -36.94781888 </i>
    <i name="e_0_energy">    -36.96478053 </i>
   </energy>
  </scstep>
  <scstep>
   <time name="dav">    0.37    0.37</time>
   <time name="total">    0.45    0.45</time>
   <energy>
    <i name="e_fr_energy">    -36.97529639 </i>
    <i name="e_wo_entrp">    -36.94806198 </i>
    <i name="e_0_energy">    -36.96621825 </i>
   </energy>
  </scstep>
  <scstep>
   <time name="dav">    0.28    0.28</time>
   <time name="total">    0.36    0.36</time>
   <energy>
    <i name="e_fr_energy">    -36.97529084 </i>
    <i name="e_wo_entrp">    -36.95100921 </i>
    <i name="e_0_energy">    -36.96719696 </i>
   </energy>
  </scstep>
  <scstep>
   <time name="dav">    0.22    0.22</time>
   <time name="total">    0.30    0.30</time>
   <energy>
    <i name="e_fr_energy">    -36.97500281 </i>
    <i name="e_wo_entrp">    -36.94911190 </i>
    <i name="e_0_energy">    -36.96637250 </i>
   </energy>
  </scstep>
  <scstep>
   <time name="dav">    0.22    0.23</time>
   <time name="total">    0.25    0.25</time>
   <energy>
    <i name="alphaZ">    285.34744303 </i>
    <i name="ewald">  52887.39286090 </i>
    <i name="hartreedc"> -63844.96321555 </i>
    <i name="XCdc">    363.02962778 </i>
    <i name="pawpsdc">  10603.37349088 </i>
    <i name="pawaedc"> -11466.01137570 </i>
    <i name="eentropy">     -0.02612655 </i>
    <i name="bandstr">    -17.73613656 </i>
    <i name="atom">  11152.61838693 </i>
    <i name="e_fr_energy">    -36.97504483 </i>
    <i name="e_wo_entrp">    -36.94891828 </i>
    <i name="e_0_energy">    -36.96633598 </i>
   </energy>
  </scstep>
  <structure>
   <crystal>
    <varray name="basis" >
     <v>       2.56679773       0.00000000       0.00000000 </v>
     <v>       1.28339887       2.22291204       0.00000000 </v>
     <v>       0.00000000       0.00000000      29.67047119 </v>
    </varray>
    <i name="volume">    169.29275369 </i>
    <varray name="rec_basis" >
     <v>       0.38959050      -0.22493018       0.00000000 </v>
     <v>       0.00000000       0.44986035       0.00000000 </v>
     <v>       0.00000000       0.00000000       0.03370354 </v>
    </varray>
   </crystal>
   <varray name="positions" >
    <v>       0.00000184      -0.00000368       0.00089926 </v>
    <v>       0.33333108       0.33333783       0.06987912 </v>
    <v>       0.66666807       0.66666386       0.13909519 </v>
    <v>      -0.00000739       0.00001479       0.20816202 </v>
    <v>       0.33334509       0.33330982       0.27651836 </v>
    <v>       0.66663855       0.66672290       0.34548137 </v>
    <v>      -0.00014334       0.00028669       0.41381835 </v>
    <v>       0.33018911       0.33962177       0.47858117 </v>
    <v>       0.34486051       0.31027898       0.53548751 </v>
    <v>       0.20646544       0.58706912       0.55378262 </v>
   </varray>
  </structure>
  <varray name="forces" >
   <v>       0.00000000       0.00069522       0.25241044 </v>
   <v>       0.00000000       0.00096567      -0.07581009 </v>
   <v>       0.00000000       0.00071974      -0.08967426 </v>
   <v>       0.00000000       0.00153037      -0.01501264 </v>
   <v>      -0.00000000      -0.00002983      -0.03157785 </v>
   <v>       0.00000000       0.00415008      -0.07770291 </v>
   <v>       0.00000000       0.03023365      -0.54176516 </v>
   <v>       0.00000000       0.18127045      -0.17920123 </v>
   <v>       0.00000000       0.49746702       1.13342783 </v>
   <v>      -0.00000000      -0.71700239      -0.37509415 </v>
  </varray>
  <varray name="stress" >
   <v>     -46.35916645      -0.00000000      -0.00000000 </v>
   <v>      -0.00000000     -49.74310334      -7.99295573 </v>
   <v>      -0.00000000      -7.99294876      -3.04332087 </v>
  </varray>
  <energy>
   <i name="e_fr_energy">    -40.68307821 </i>
   <i name="e_wo_entrp">    -40.65695166 </i>
   <i name="e_0_energy">    -40.67436936 </i>
  </energy>
  <time name="totalsc">    2.17    2.26</time>
 </calculation>
 <calculation>
  <scstep>
   <time name="dav">    0.28    0.28</time>
   <time name="total">    0.35    0.36</time>
   <energy>
    <i name="alphaZ">    285.34744303 </i>
    <i name="ewald">  53328.99420381 </i>
    <i name="hartreedc"> -64285.16331519 </i>
    <i name="XCdc">    363.09836724 </i>
    <i name="pawpsdc">  10603.36978889 </i>
    <i name="pawaedc"> -11465.99452807 </i>
    <i name="eentropy">     -0.02269009 </i>
    <i name="bandstr">    -19.25237299 </i>
    <i name="atom">  11152.61838693 </i>
    <i name="e_fr_energy">    -37.00471644 </i>
    <i name="e_wo_entrp">    -36.98202635 </i>
    <i name="e_0_energy">    -36.99715308 </i>
   </energy>
  </scstep>
  <scstep>
   <time name="dav">    0.36    0.36</time>
   <time name="total">    0.44    0.44</time>
   <energy>
    <i name="e_fr_energy">    -37.06991863 </i>
    <i name="e_wo_entrp">    -37.03666650 </i>
    <i name="e_0_energy">    -37.05883458 </i>
   </energy>
  </scstep>
  <scstep>
   <time name="dav">    0.41    0.41</time>
   <time name="total">    0.49    0.50</time>
   <energy>
    <i name="e_fr_energy">    -37.06732545 </i>
    <i name="e_wo_entrp">    -37.04870650 </i>
    <i name="e_0_energy">    -37.06111913 </i>
   </energy>
  </scstep>
  <scstep>
   <time name="dav">    0.37    0.37</time>
   <time name="total">    0.45    0.46</time>
   <energy>
    <i name="e_fr_energy">    -37.06021997 </i>
    <i name="e_wo_entrp">    -37.03567185 </i>
    <i name="e_0_energy">    -37.05203726 </i>
   </energy>
  </scstep>
  <scstep>
   <time name="dav">    0.37    0.37</time>
   <time name="total">    0.45    0.45</time>
   <energy>
    <i name="e_fr_energy">    -37.06143344 </i>
    <i name="e_wo_entrp">    -37.03415474 </i>
    <i name="e_0_energy">    -37.05234054 </i>
   </energy>
  </scstep>
  <scstep>
   <time name="dav">    0.38    0.39</time>
   <time name="total">    0.46    0.47</time>
   <energy>
    <i name="e_fr_energy">    -37.05863773 </i>
    <i name="e_wo_entrp">    -37.03196889 </i>
    <i name="e_0_energy">    -37.04974812 </i>
   </energy>
  </scstep>
  <scstep>
   <time name="dav">    0.40    0.40</time>
   <time name="total">    0.48    0.48</time>
   <energy>
    <i name="e_fr_energy">    -37.05852398 </i>
    <i name="e_wo_entrp">    -37.03306293 </i>
    <i name="e_0_energy">    -37.05003696 </i>
   </energy>
  </scstep>
  <scstep>
   <time name="dav">    0.27    0.27</time>
   <time name="total">    0.29    0.30</time>
   <energy>
    <i name="alphaZ">    285.34744303 </i>
    <i name="ewald">  53328.99420381 </i>
    <i name="hartreedc"> -64286.78451763 </i>
    <i name="XCdc">    363.16246692 </i>
    <i name="pawpsdc">  10614.57236759 </i>
    <i name="pawaedc"> -11477.37910667 </i>
    <i name="eentropy">     -0.02502460 </i>
    <i name="bandstr">    -17.56477387 </i>
    <i name="atom">  11152.61838693 </i>
    <i name="e_fr_energy">    -37.05855449 </i>
    <i name="e_wo_entrp">    -37.03352989 </i>
    <i name="e_0_energy">    -37.05021296 </i>
   </energy>
  </scstep>
  <structure>
   <crystal>
    <varray name="basis" >
     <v>       2.56679773       0.00000000       0.00000000 </v>
     <v>       1.28339887       2.22291204       0.00000000 </v>
     <v>       0.00000000       0.00000000      29.67047119 </v>
    </varray>
    <i name="volume">    169.29275369 </i>
    <varray name="rec_basis" >
     <v>       0.38959050      -0.22493018       0.00000000 </v>
     <v>       0.00000000       0.44986035       0.00000000 </v>
     <v>       0.00000000       0.00000000       0.03370354 </v>
    </varray>
   </crystal>
   <varray name="positions" >
    <v>      -0.00000513       0.00001027       0.00173672 </v>
    <v>       0.33331920       0.33336160       0.06940470 </v>
    <v>       0.66666062       0.66667875       0.13894841 </v>
    <v>      -0.00002798       0.00005597       0.20813531 </v>
    <v>       0.33335082       0.33329836       0.27644498 </v>
    <v>       0.66657901       0.66684198       0.34531429 </v>
    <v>      -0.00054889       0.00109778       0.41281993 </v>
    <v>       0.32670987       0.34658026       0.47699009 </v>
    <v>       0.34455523       0.31088953       0.53795957 </v>
    <v>       0.21075621       0.57848757       0.55395096 </v>
   </varray>
  </structure>
  <varray name="forces" >
   <v>       0.00000000       0.00051518       0.07481439 </v>
   <v>       0.00000000       0.00124302       0.12512920 </v>
   <v>       0.00000000       0.00040948      -0.10930075 </v>
   <v>       0.00000000       0.00126822      -0.03386627 </v>
   <v>      -0.00000000      -0.00001545      -0.03823811 </v>
   <v>       0.00000000       0.00510184      -0.17289904 </v>
   <v>       0.00000000       0.04955560      -0.50815945 </v>
   <v>       0.00000000       0.10410202       0.19778100 </v>
   <v>      -0.00000000      -0.28496376       0.14078806 </v>
   <v>       0.00000000       0.12278384       0.32395096 </v>
  </varray>
  <varray name="stress" >
   <v>     -41.34611997      -0.00000000      -0.00000000 </v>
   <v>      -0.00000000     -39.53347985      -3.36490356 </v>
   <v>      -0.00000000      -3.36489663       8.21451311 </v>
  </varray>
  <energy>
   <i name="e_fr_energy">    -40.76170397 </i>
   <i name="e_wo_entrp">    -40.73667937 </i>
   <i name="e_0_energy">    -40.75336244 </i>
  </energy>
  <time name="totalsc">    3.88    3.98</time>
 </calculation>
 <calculation>
  <scstep>
   <time name="dav">    0.28    0.28</time>
   <time name="total">    0.36    0.36</time>
   <energy>
    <i name="alphaZ">    285.34744303 </i>
    <i name="ewald">  53386.72905829 </i>
    <i name="hartreedc"> -64344.49804542 </i>
    <i name="XCdc">    363.17183913 </i>
    <i name="pawpsdc">  10614.50841849 </i>
    <i name="pawaedc"> -11477.30399677 </i>
    <i name="eentropy">     -0.02468624 </i>
    <i name="bandstr">    -17.60737537 </i>
    <i name="atom">  11152.61838693 </i>
    <i name="e_fr_energy">    -37.05895793 </i>
    <i name="e_wo_entrp">    -37.03427169 </i>
    <i name="e_0_energy">    -37.05072918 </i>
   </energy>
  </scstep>
  <scstep>
   <time name="dav">    0.38    0.38</time>
   <time name="total">    0.46    0.46</time>
   <energy>
    <i name="e_fr_energy">    -37.06005540 </i>
    <i name="e_wo_entrp">    -37.03332152 </i>
    <i name="e_0_energy">    -37.05114411 </i>
   </energy>
  </scstep>
  <scstep>
   <time name="dav">    0.26    0.26</time>
   <time name="total">    0.34    0.34</time>
   <energy>
    <i name="e_fr_energy">    -37.05987249 </i>
    <i name="e_wo_entrp">    -37.03563102 </i>
    <i name="e_0_energy">    -37.05179200 </i>
   </energy>
  </scstep>
  <scstep>
   <time name="dav">    0.21    0.21</time>
   <time name="total">    0.23    0.24</time>
   <energy>
    <i name="alphaZ">    285.34744303 </i>
    <i name="ewald">  53386.72905829 </i>
    <i name="hartreedc"> -64344.59620501 </i>
    <i name="XCdc">    363.17753831 </i>
    <i name="pawpsdc">  10615.46623628 </i>
    <i name="pawaedc"> -11478.26505232 </i>
    <i name="eentropy">     -0.02502732 </i>
    <i name="bandstr">    -17.51215031 </i>
    <i name="atom">  11152.61838693 </i>
    <i name="e_fr_energy">    -37.05977213 </i>
    <i name="e_wo_entrp">    -37.03474480 </i>
    <i name="e_0_energy">    -37.05142968 </i>
   </energy>
  </scstep>
  <structure>
   <crystal>
    <varray name="basis" >
     <v>       2.56679773       0.00000000       0.00000000 </v>
     <v>       1.28339887       2.22291204       0.00000000 </v>
     <v>       0.00000000       0.00000000      29.67047119 </v>
    </varray>
    <i name="volume">    169.29275369 </i>
    <varray name="rec_basis" >
     <v>       0.38959050      -0.22493018       0.00000000 </v>
     <v>       0.00000000       0.44986035       0.00000000 </v>
     <v>       0.00000000       0.00000000       0.03370354 </v>
    </varray>
   </crystal>
   <varray name="positions" >
    <v>      -0.00000604       0.00001208       0.00184561 </v>
    <v>       0.33331765       0.33336470       0.06934302 </v>
    <v>       0.66665966       0.66668069       0.13892932 </v>
    <v>      -0.00003066       0.00006132       0.20813184 </v>
    <v>       0.33335156       0.33329687       0.27643544 </v>
    <v>       0.66657127       0.66685747       0.34529257 </v>
    <v>      -0.00060162       0.00120323       0.41269012 </v>
    <v>       0.32625752       0.34748496       0.47678322 </v>
    <v>       0.34451554       0.31096891       0.53828098 </v>
    <v>       0.21131408       0.57737185       0.55397285 </v>
   </varray>
  </structure>
  <varray name="forces" >
   <v>       0.00000000       0.00014573       0.04428018 </v>
   <v>       0.00000000       0.00072258       0.15437951 </v>
   <v>       0.00000000       0.00025207      -0.11516676 </v>
   <v>       0.00000000       0.00121446      -0.04099496 </v>
   <v>      -0.00000000      -0.00013143      -0.04382674 </v>
   <v>       0.00000000       0.00536968      -0.19376535 </v>
   <v>       0.00000000       0.05192733      -0.50037457 </v>
   <v>       0.00000000       0.09230305       0.24941279 </v>
   <v>      -0.00000000      -0.43647067      -0.00277016 </v>
   <v>       0.00000000       0.28466721       0.44882605 </v>
  </varray>
  <varray name="stress" >
   <v>     -38.81421466      -0.00000000      -0.00000000 </v>
   <v>      -0.00000000     -36.07544436      -2.66801707 </v>
   <v>      -0.00000000      -2.66801232      11.64399732 </v>
  </varray>
  <energy>
   <i name="e_fr_energy">    -40.76307431 </i>
   <i name="e_wo_entrp">    -40.73804698 </i>
   <i name="e_0_energy">    -40.75473186 </i>
  </energy>
  <time name="totalsc">    1.85    1.91</time>
 </calculation>
 <calculation>
  <scstep>
   <time name="dav">    0.28    0.28</time>
   <time name="total">    0.35    0.36</time>
   <energy>
    <i name="alphaZ">    285.34744303 </i>
    <i name="ewald">  53666.79726967 </i>
    <i name="hartreedc"> -64625.73802058 </i>
    <i name="XCdc">    363.16765813 </i>
    <i name="pawpsdc">  10615.96754504 </i>
    <i name="pawaedc"> -11478.79117228 </i>
    <i name="eentropy">     -0.02452421 </i>
    <i name="bandstr">    -16.40992560 </i>
    <i name="atom">  11152.61838693 </i>
    <i name="e_fr_energy">    -37.06533988 </i>
    <i name="e_wo_entrp">    -37.04081567 </i>
    <i name="e_0_energy">    -37.05716514 </i>
   </energy>
  </scstep>
  <scstep>
   <time name="dav">    0.36    0.37</time>
   <time name="total">    0.44    0.45</time>
   <energy>
    <i name="e_fr_energy">    -37.09034191 </i>
    <i name="e_wo_entrp">    -37.06301593 </i>
    <i name="e_0_energy">    -37.08123325 </i>
   </energy>
  </scstep>
  <scstep>
   <time name="dav">    0.36    0.36</time>
   <time name="total">    0.44    0.44</time>
   <energy>
    <i name="e_fr_energy">    -37.09337787 </i>
    <i name="e_wo_entrp">    -37.07353143 </i>
    <i name="e_0_energy">    -37.08676239 </i>
   </energy>
  </scstep>
  <scstep>
   <time name="dav">    0.36    0.36</time>
   <time name="total">    0.44    0.44</time>
   <energy>
    <i name="e_fr_energy">    -37.08941753 </i>
    <i name="e_wo_entrp">    -37.06408375 </i>
    <i name="e_0_energy">    -37.08097293 </i>
   </energy>
  </scstep>
  <scstep>
   <time name="dav">    0.42    0.42</time>
   <time name="total">    0.49    0.50</time>
   <energy>
    <i name="e_fr_energy">    -37.08928391 </i>
    <i name="e_wo_entrp">    -37.06534889 </i>
    <i name="e_0_energy">    -37.08130557 </i>
   </energy>
  </scstep>
  <scstep>
   <time name="dav">    0.33    0.34</time>
   <time name="total">    0.41    0.42</time>
   <energy>
    <i name="e_fr_energy">    -37.08910827 </i>
    <i name="e_wo_entrp">    -37.06310950 </i>
    <i name="e_0_energy">    -37.08044201 </i>
   </energy>
  </scstep>
  <scstep>
   <time name="dav">    0.25    0.26</time>
   <time name="total">    0.28    0.28</time>
   <energy>
    <i name="alphaZ">    285.34744303 </i>
    <i name="ewald">  53666.79726967 </i>
    <i name="hartreedc"> -64623.81931686 </i>
    <i name="XCdc">    363.14631329 </i>
    <i name="pawpsdc">  10616.20373895 </i>
    <i name="pawaedc"> -11479.04262543 </i>
    <i name="eentropy">     -0.02478182 </i>
    <i name="bandstr">    -18.31536602 </i>
    <i name="atom">  11152.61838693 </i>
    <i name="e_fr_energy">    -37.08893826 </i>
    <i name="e_wo_entrp">    -37.06415644 </i>
    <i name="e_0_energy">    -37.08067765 </i>
   </energy>
  </scstep>
  <structure>
   <crystal>
    <varray name="basis" >
     <v>       2.56679773       0.00000000       0.00000000 </v>
     <v>       1.28339887       2.22291204       0.00000000 </v>
     <v>       0.00000000       0.00000000      29.67047119 </v>
    </varray>
    <i name="volume">    169.29275369 </i>
    <varray name="rec_basis" >
     <v>       0.38959050      -0.22493018       0.00000000 </v>
     <v>       0.00000000       0.44986035       0.00000000 </v>
     <v>       0.00000000       0.00000000       0.03370354 </v>
    </varray>
   </crystal>
   <varray name="positions" >
    <v>      -0.00001098       0.00002196       0.00231341 </v>
    <v>       0.33330377       0.33339247       0.06938811 </v>
    <v>       0.66665327       0.66669346       0.13866174 </v>
    <v>      -0.00005429       0.00010858       0.20804853 </v>
    <v>       0.33335576       0.33328849       0.27632543 </v>
    <v>       0.66648153       0.66703695       0.34487969 </v>
    <v>      -0.00138992       0.00277983       0.41135901 </v>
    <v>       0.32356748       0.35286505       0.47647078 </v>
    <v>       0.34940620       0.30118759       0.53943122 </v>
    <v>       0.21003614       0.57992771       0.55482704 </v>
   </varray>
  </structure>
  <varray name="forces" >
   <v>       0.00000000       0.00044827      -0.01782025 </v>
   <v>       0.00000000       0.00124419       0.18890334 </v>
   <v>       0.00000000       0.00054526      -0.03984290 </v>
   <v>       0.00000000       0.00091729      -0.06012628 </v>
   <v>       0.00000000       0.00092514      -0.08709765 </v>
   <v>       0.00000000       0.00976058      -0.29496719 </v>
   <v>       0.00000000       0.05439646      -0.15244998 </v>
   <v>       0.00000000       0.07318555       0.12617714 </v>
   <v>      -0.00000000      -0.02499515       0.21329393 </v>
   <v>      -0.00000000      -0.11642760       0.12392984 </v>
  </varray>
  <varray name="stress" >
   <v>     -40.65792188      -0.00000000      -0.00000000 </v>
   <v>      -0.00000000     -40.18904602      -4.42436109 </v>
   <v>      -0.00000000      -4.42435365       7.85717679 </v>
  </varray>
  <energy>
   <i name="e_fr_energy">    -40.79646721 </i>
   <i name="e_wo_entrp">    -40.77168539 </i>
   <i name="e_0_energy">    -40.78820661 </i>
  </energy>
  <time name="totalsc">    3.32    3.39</time>
 </calculation>
 <calculation>
  <scstep>
   <time name="dav">    0.28    0.28</time>
   <time name="total">    0.36    0.36</time>
   <energy>
    <i name="alphaZ">    285.34744303 </i>
    <i name="ewald">  53899.94956270 </i>
    <i name="hartreedc"> -64857.38426999 </i>
    <i name="XCdc">    363.13780882 </i>
    <i name="pawpsdc">  10616.35403033 </i>
    <i name="pawaedc"> -11479.18978999 </i>
    <i name="eentropy">     -0.02388289 </i>
    <i name="bandstr">    -17.88619164 </i>
    <i name="atom">  11152.61838693 </i>
    <i name="e_fr_energy">    -37.07690269 </i>
    <i name="e_wo_entrp">    -37.05301980 </i>
    <i name="e_0_energy">    -37.06894173 </i>
   </energy>
  </scstep>
  <scstep>
   <time name="dav">    0.38    0.38</time>
   <time name="total">    0.46    0.46</time>
   <energy>
    <i name="e_fr_energy">    -37.09459943 </i>
    <i name="e_wo_entrp">    -37.06728779 </i>
    <i name="e_0_energy">    -37.08549555 </i>
   </energy>
  </scstep>
  <scstep>
   <time name="dav">    0.36    0.36</time>
   <time name="total">    0.44    0.45</time>
   <energy>
    <i name="e_fr_energy">    -37.09603344 </i>
    <i name="e_wo_entrp">    -37.07568679 </i>
    <i name="e_0_energy">    -37.08925122 </i>
   </energy>
  </scstep>
  <scstep>
   <time name="dav">    0.32    0.32</time>
   <time name="total">    0.40    0.40</time>
   <energy>
    <i name="e_fr_energy">    -37.09349867 </i>
    <i name="e_wo_entrp">    -37.06886284 </i>
    <i name="e_0_energy">    -37.08528673 </i>
   </energy>
  </scstep>
  <scstep>
   <time name="dav">    0.37    0.37</time>
   <time name="total">    0.44    0.45</time>
   <energy>
    <i name="e_fr_energy">    -37.09335774 </i>
    <i name="e_wo_entrp">    -37.06814495 </i>
    <i name="e_0_energy">    -37.08495347 </i>
   </energy>
  </scstep>
  <scstep>
   <time name="dav">    0.30    0.31</time>
   <time name="total">    0.38    0.39</time>
   <energy>
    <i name="e_fr_energy">    -37.09329112 </i>
    <i name="e_wo_entrp">    -37.06883888 </i>
    <i name="e_0_energy">    -37.08514037 </i>
   </energy>
  </scstep>
  <scstep>
   <time name="dav">    0.25    0.25</time>
   <time name="total">    0.27    0.28</time>
   <energy>
    <i name="alphaZ">    285.34744303 </i>
    <i name="ewald">  53899.94956270 </i>
    <i name="hartreedc"> -64856.31037089 </i>
    <i name="XCdc">    363.12227053 </i>
    <i name="pawpsdc">  10617.46573738 </i>
    <i name="pawaedc"> -11480.34211523 </i>
    <i name="eentropy">     -0.02467972 </i>
    <i name="bandstr">    -18.91946463 </i>
    <i name="atom">  11152.61838693 </i>
    <i name="e_fr_energy">    -37.09322988 </i>
    <i name="e_wo_entrp">    -37.06855016 </i>
    <i name="e_0_energy">    -37.08500331 </i>
   </energy>
  </scstep>
  <structure>
   <crystal>
    <varray name="basis" >
     <v>       2.56679773       0.00000000       0.00000000 </v>
     <v>       1.28339887       2.22291204       0.00000000 </v>
     <v>       0.00000000       0.00000000      29.67047119 </v>
    </varray>
    <i name="volume">    169.29275369 </i>
    <varray name="rec_basis" >
     <v>       0.38959050      -0.22493018       0.00000000 </v>
     <v>       0.00000000       0.44986035       0.00000000 </v>
     <v>       0.00000000       0.00000000       0.03370354 </v>
    </varray>
   </crystal>
   <varray name="positions" >
    <v>      -0.00001506       0.00003013       0.00270045 </v>
    <v>       0.33329228       0.33341544       0.06942542 </v>
    <v>       0.66664799       0.66670403       0.13844036 </v>
    <v>      -0.00007383       0.00014767       0.20797960 </v>
    <v>       0.33335922       0.33328155       0.27623441 </v>
    <v>       0.66640728       0.66718544       0.34453810 </v>
    <v>      -0.00204212       0.00408425       0.41025771 </v>
    <v>       0.32134185       0.35731630       0.47621228 </v>
    <v>       0.35345253       0.29309494       0.54038289 </v>
    <v>       0.20897884       0.58204233       0.55553376 </v>
   </varray>
  </structure>
  <varray name="forces" >
   <v>      -0.00000000      -0.00003941      -0.07909859 </v>
   <v>       0.00000000       0.00035983       0.21431926 </v>
   <v>      -0.00000000      -0.00020582       0.01147606 </v>
   <v>      -0.00000000      -0.00019292      -0.08375009 </v>
   <v>       0.00000000       0.00093268      -0.12480026 </v>
   <v>       0.00000000       0.01294683      -0.38861100 </v>
   <v>       0.00000000       0.05350093       0.14157103 </v>
   <v>       0.00000000       0.06245685       0.03984957 </v>
   <v>       0.00000000       0.29510413       0.36491934 </v>
   <v>      -0.00000000      -0.42486310      -0.09587533 </v>
  </varray>
  <varray name="stress" >
   <v>     -40.39169268      -0.00000000      -0.00000000 </v>
   <v>      -0.00000000     -41.82515728      -5.73612335 </v>
   <v>      -0.00000000      -5.73611752       7.20968369 </v>
  </varray>
  <energy>
   <i name="e_fr_energy">    -40.80527905 </i>
   <i name="e_wo_entrp">    -40.78059933 </i>
   <i name="e_0_energy">    -40.79705247 </i>
  </energy>
  <time name="totalsc">    3.21    3.28</time>
 </calculation>
 <calculation>
  <scstep>
   <time name="dav">    0.27    0.28</time>
   <time name="total">    0.35    0.36</time>
   <energy>
    <i name="alphaZ">    285.34744303 </i>
    <i name="ewald">  54152.00163671 </i>
    <i name="hartreedc"> -65108.09628622 </i>
    <i name="XCdc">    363.13023363 </i>
    <i name="pawpsdc">  10617.51921166 </i>
    <i name="pawaedc"> -11480.39724537 </i>
    <i name="eentropy">     -0.02383307 </i>
    <i name="bandstr">    -19.18906662 </i>
    <i name="atom">  11152.61838693 </i>
    <i name="e_fr_energy">    -37.08951931 </i>
    <i name="e_wo_entrp">    -37.06568624 </i>
    <i name="e_0_energy">    -37.08157495 </i>
   </energy>
  </scstep>
  <scstep>
   <time name="dav">    0.35    0.35</time>
   <time name="total">    0.43    0.43</time>
   <energy>
    <i name="e_fr_energy">    -37.11191405 </i>
    <i name="e_wo_entrp">    -37.08701114 </i>
    <i name="e_0_energy">    -37.10361308 </i>
   </energy>
  </scstep>
  <scstep>
   <time name="dav">    0.32    0.32</time>
   <time name="total">    0.40    0.40</time>
   <energy>
    <i name="e_fr_energy">    -37.11239812 </i>
    <i name="e_wo_entrp">    -37.09094575 </i>
    <i name="e_0_energy">    -37.10524733 </i>
   </energy>
  </scstep>
  <scstep>
   <time name="dav">    0.30    0.31</time>
   <time name="total">    0.38    0.39</time>
   <energy>
    <i name="e_fr_energy">    -37.11177088 </i>
    <i name="e_wo_entrp">    -37.08547768 </i>
    <i name="e_0_energy">    -37.10300648 </i>
   </energy>
  </scstep>
  <scstep>
   <time name="dav">    0.38    0.38</time>
   <time name="total">    0.46    0.46</time>
   <energy>
    <i name="e_fr_energy">    -37.11084002 </i>
    <i name="e_wo_entrp">    -37.08835329 </i>
    <i name="e_0_energy">    -37.10334444 </i>
   </energy>
  </scstep>
  <scstep>
   <time name="dav">    0.33    0.33</time>
   <time name="total">    0.41    0.41</time>
   <energy>
    <i name="e_fr_energy">    -37.11070411 </i>
    <i name="e_wo_entrp">    -37.08562090 </i>
    <i name="e_0_energy">    -37.10234304 </i>
   </energy>
  </scstep>
  <scstep>
   <time name="dav">    0.24    0.25</time>
   <time name="total">    0.27    0.27</time>
   <energy>
    <i name="alphaZ">    285.34744303 </i>
    <i name="ewald">  54152.00163671 </i>
    <i name="hartreedc"> -65107.34749056 </i>
    <i name="XCdc">    363.15722616 </i>
    <i name="pawpsdc">  10619.41886362 </i>
    <i name="pawaedc"> -11482.32793059 </i>
    <i name="eentropy">     -0.02400616 </i>
    <i name="bandstr">    -19.95470634 </i>
    <i name="atom">  11152.61838693 </i>
    <i name="e_fr_energy">    -37.11057720 </i>
    <i name="e_wo_entrp">    -37.08657104 </i>
    <i name="e_0_energy">    -37.10257515 </i>
   </energy>
  </scstep>
  <structure>
   <crystal>
    <varray name="basis" >
     <v>       2.56679773       0.00000000       0.00000000 </v>
     <v>       1.28339887       2.22291204       0.00000000 </v>
     <v>       0.00000000       0.00000000      29.67047119 </v>
    </varray>
    <i name="volume">    169.29275369 </i>
    <varray name="rec_basis" >
     <v>       0.38959050      -0.22493018       0.00000000 </v>
     <v>       0.00000000       0.44986035       0.00000000 </v>
     <v>       0.00000000       0.00000000       0.03370354 </v>
    </varray>
   </crystal>
   <varray name="positions" >
    <v>      -0.00001877       0.00003753       0.00297594 </v>
    <v>       0.33327750       0.33344501       0.06976057 </v>
    <v>       0.66664463       0.66671073       0.13823583 </v>
    <v>      -0.00009151       0.00018302       0.20779450 </v>
    <v>       0.33335402       0.33329195       0.27597023 </v>
    <v>       0.66621319       0.66757361       0.34365755 </v>
    <v>      -0.00318813       0.00637627       0.40935775 </v>
    <v>       0.31854572       0.36290855       0.47601024 </v>
    <v>       0.35474394       0.29051213       0.54183807 </v>
    <v>       0.21186836       0.57626327       0.55610429 </v>
   </varray>
  </structure>
  <varray name="forces" >
   <v>       0.00000000       0.00009723      -0.08721344 </v>
   <v>       0.00000000       0.00054469       0.09762096 </v>
   <v>       0.00000000       0.00032377       0.09191810 </v>
   <v>       0.00000000       0.00024978      -0.09696196 </v>
   <v>       0.00000000       0.00191402      -0.19403560 </v>
   <v>       0.00000000       0.01784572      -0.26743769 </v>
   <v>       0.00000000       0.04984269       0.29991692 </v>
   <v>       0.00000000       0.03961940      -0.05400964 </v>
   <v>      -0.00000000      -0.09215957       0.04480696 </v>
   <v>      -0.00000000      -0.01827772       0.16539538 </v>
  </varray>
  <varray name="stress" >
   <v>     -38.82241033      -0.00000000      -0.00000000 </v>
   <v>      -0.00000000     -37.64052578      -3.90560145 </v>
   <v>      -0.00000000      -3.90559393      10.69981656 </v>
  </varray>
  <energy>
   <i name="e_fr_energy">    -40.82385761 </i>
   <i name="e_wo_entrp">    -40.79985145 </i>
   <i name="e_0_energy">    -40.81585556 </i>
  </energy>
  <time name="totalsc">    3.17    3.23</time>
 </calculation>
 <calculation>
  <scstep>
   <time name="dav">    0.28    0.28</time>
   <time name="total">    0.36    0.36</time>
   <energy>
    <i name="alphaZ">    285.34744303 </i>
    <i name="ewald">  54218.56613943 </i>
    <i name="hartreedc"> -65174.04198044 </i>
    <i name="XCdc">    363.16058548 </i>
    <i name="pawpsdc">  10619.49039591 </i>
    <i name="pawaedc"> -11482.40505276 </i>
    <i name="eentropy">     -0.02379239 </i>
    <i name="bandstr">    -19.82255696 </i>
    <i name="atom">  11152.61838693 </i>
    <i name="e_fr_energy">    -37.11043177 </i>
    <i name="e_wo_entrp">    -37.08663938 </i>
    <i name="e_0_energy">    -37.10250097 </i>
   </energy>
  </scstep>
  <scstep>
   <time name="dav">    0.34    0.35</time>
   <time name="total">    0.42    0.43</time>
   <energy>
    <i name="e_fr_energy">    -37.11195116 </i>
    <i name="e_wo_entrp">    -37.08777105 </i>
    <i name="e_0_energy">    -37.10389112 </i>
   </energy>
  </scstep>
  <scstep>
   <time name="dav">    0.25    0.26</time>
   <time name="total">    0.28    0.28</time>
   <energy>
    <i name="alphaZ">    285.34744303 </i>
    <i name="ewald">  54218.56613943 </i>
    <i name="hartreedc"> -65173.79999230 </i>
    <i name="XCdc">    363.16329722 </i>
    <i name="pawpsdc">  10619.62900049 </i>
    <i name="pawaedc"> -11482.52007946 </i>
    <i name="eentropy">     -0.02299093 </i>
    <i name="bandstr">    -20.09320600 </i>
    <i name="atom">  11152.61838693 </i>
    <i name="e_fr_energy">    -37.11200159 </i>
    <i name="e_wo_entrp">    -37.08901065 </i>
    <i name="e_0_energy">    -37.10433794 </i>
   </energy>
  </scstep>
  <structure>
   <crystal>
    <varray name="basis" >
     <v>       2.56679773       0.00000000       0.00000000 </v>
     <v>       1.28339887       2.22291204       0.00000000 </v>
     <v>       0.00000000       0.00000000      29.67047119 </v>
    </varray>
    <i name="volume">    169.29275369 </i>
    <varray name="rec_basis" >
     <v>       0.38959050      -0.22493018       0.00000000 </v>
     <v>       0.00000000       0.44986035       0.00000000 </v>
     <v>       0.00000000       0.00000000       0.03370354 </v>
    </varray>
   </crystal>
   <varray name="positions" >
    <v>      -0.00001974       0.00003948       0.00304839 </v>
    <v>       0.33327361       0.33345278       0.06984872 </v>
    <v>       0.66664375       0.66671250       0.13818204 </v>
    <v>      -0.00009616       0.00019232       0.20774582 </v>
    <v>       0.33335266       0.33329469       0.27590075 </v>
    <v>       0.66616215       0.66767571       0.34342595 </v>
    <v>      -0.00348955       0.00697910       0.40912104 </v>
    <v>       0.31781030       0.36437939       0.47595710 </v>
    <v>       0.35508360       0.28983281       0.54222080 </v>
    <v>       0.21262835       0.57474330       0.55625435 </v>
   </varray>
  </structure>
  <varray name="forces" >
   <v>       0.00000000       0.00007964      -0.07831697 </v>
   <v>       0.00000000       0.00015327       0.07775974 </v>
   <v>       0.00000000       0.00034408       0.10325925 </v>
   <v>       0.00000000       0.00010906      -0.11288293 </v>
   <v>       0.00000000       0.00260514      -0.22355559 </v>
   <v>       0.00000000       0.01885594      -0.24288535 </v>
   <v>       0.00000000       0.05003919       0.32909529 </v>
   <v>       0.00000000       0.02851387      -0.06475312 </v>
   <v>      -0.00000000      -0.19886843      -0.03254238 </v>
   <v>       0.00000000       0.09816824       0.24482207 </v>
  </varray>
  <varray name="stress" >
   <v>     -34.00212721      -0.00000000      -0.00000000 </v>
   <v>      -0.00000000     -32.14207896      -3.46011363 </v>
   <v>      -0.00000000      -3.46010750      16.20586356 </v>
  </varray>
  <energy>
   <i name="e_fr_energy">    -40.82580186 </i>
   <i name="e_wo_entrp">    -40.80281092 </i>
   <i name="e_0_energy">    -40.81813821 </i>
  </energy>
  <time name="totalsc">    1.52    1.57</time>
 </calculation>
 <calculation>
  <scstep>
   <time name="dav">    0.28    0.28</time>
   <time name="total">    0.36    0.36</time>
   <energy>
    <i name="alphaZ">    285.34744303 </i>
    <i name="ewald">  54352.03341887 </i>
    <i name="hartreedc"> -65307.50429079 </i>
    <i name="XCdc">    363.17250736 </i>
    <i name="pawpsdc">  10619.78837353 </i>
    <i name="pawaedc"> -11482.69624834 </i>
    <i name="eentropy">     -0.02423082 </i>
    <i name="bandstr">    -19.84039886 </i>
    <i name="atom">  11152.61838693 </i>
    <i name="e_fr_energy">    -37.10503911 </i>
    <i name="e_wo_entrp">    -37.08080828 </i>
    <i name="e_0_energy">    -37.09696216 </i>
   </energy>
  </scstep>
  <scstep>
   <time name="dav">    0.37    0.38</time>
   <time name="total">    0.45    0.46</time>
   <energy>
    <i name="e_fr_energy">    -37.11120308 </i>
    <i name="e_wo_entrp">    -37.08994206 </i>
    <i name="e_0_energy">    -37.10411607 </i>
   </energy>
  </scstep>
  <scstep>
   <time name="dav">    0.36    0.36</time>
   <time name="total">    0.44    0.44</time>
   <energy>
    <i name="e_fr_energy">    -37.11143075 </i>
    <i name="e_wo_entrp">    -37.08526925 </i>
    <i name="e_0_energy">    -37.10271025 </i>
   </energy>
  </scstep>
  <scstep>
   <time name="dav">    0.29    0.29</time>
   <time name="total">    0.37    0.37</time>
   <energy>
    <i name="e_fr_energy">    -37.11044743 </i>
    <i name="e_wo_entrp">    -37.08761401 </i>
    <i name="e_0_energy">    -37.10283629 </i>
   </energy>
  </scstep>
  <scstep>
   <time name="dav">    0.32    0.32</time>
   <time name="total">    0.40    0.40</time>
   <energy>
    <i name="e_fr_energy">    -37.11029556 </i>
    <i name="e_wo_entrp">    -37.08673821 </i>
    <i name="e_0_energy">    -37.10244311 </i>
   </energy>
  </scstep>
  <scstep>
   <time name="dav">    0.25    0.25</time>
   <time name="total">    0.28    0.28</time>
   <energy>
    <i name="alphaZ">    285.34744303 </i>
    <i name="ewald">  54352.03341887 </i>
    <i name="hartreedc"> -65307.57716791 </i>
    <i name="XCdc">    363.19072744 </i>
    <i name="pawpsdc">  10621.41989662 </i>
    <i name="pawaedc"> -11484.34417596 </i>
    <i name="eentropy">     -0.02405236 </i>
    <i name="bandstr">    -19.77474375 </i>
    <i name="atom">  11152.61838693 </i>
    <i name="e_fr_energy">    -37.11026709 </i>
    <i name="e_wo_entrp">    -37.08621473 </i>
    <i name="e_0_energy">    -37.10224964 </i>
   </energy>
  </scstep>
  <structure>
   <crystal>
    <varray name="basis" >
     <v>       2.56679773       0.00000000       0.00000000 </v>
     <v>       1.28339887       2.22291204       0.00000000 </v>
     <v>       0.00000000       0.00000000      29.67047119 </v>
    </varray>
    <i name="volume">    169.29275369 </i>
    <varray name="rec_basis" >
     <v>       0.38959050      -0.22493018       0.00000000 </v>
     <v>       0.00000000       0.44986035       0.00000000 </v>
     <v>       0.00000000       0.00000000       0.03370354 </v>
    </varray>
   </crystal>
   <varray name="positions" >
    <v>      -0.00002169       0.00004338       0.00319331 </v>
    <v>       0.33326583       0.33346833       0.07002502 </v>
    <v>       0.66664199       0.66671602       0.13807445 </v>
    <v>      -0.00010546       0.00021092       0.20764845 </v>
    <v>       0.33334992       0.33330016       0.27576178 </v>
    <v>       0.66606005       0.66787990       0.34296276 </v>
    <v>      -0.00409239       0.00818477       0.40864763 </v>
    <v>       0.31633946       0.36732108       0.47585082 </v>
    <v>       0.35576291       0.28847417       0.54298627 </v>
    <v>       0.21414832       0.57170335       0.55655446 </v>
   </varray>
  </structure>
  <varray name="forces" >
   <v>      -0.00000000      -0.00097074      -0.06268586 </v>
   <v>      -0.00000000      -0.00061264       0.06902758 </v>
   <v>      -0.00000000      -0.00082292       0.15872791 </v>
   <v>      -0.00000000      -0.00060938      -0.11029743 </v>
   <v>       0.00000000       0.00273539      -0.27280701 </v>
   <v>       0.00000000       0.02140813      -0.21991573 </v>
   <v>       0.00000000       0.05244470       0.36800502 </v>
   <v>       0.00000000       0.02454705      -0.12822074 </v>
   <v>      -0.00000000      -0.46446633      -0.21315725 </v>
   <v>       0.00000000       0.36634673       0.41132350 </v>
  </varray>
  <varray name="stress" >
   <v>     -42.32311503      -0.00000000      -0.00000000 </v>
   <v>      -0.00000000     -38.77678299      -2.36632354 </v>
   <v>      -0.00000000      -2.36631801       7.83176158 </v>
  </varray>
  <energy>
   <i name="e_fr_energy">    -40.82529108 </i>
   <i name="e_wo_entrp">    -40.80123872 </i>
   <i name="e_0_energy">    -40.81727363 </i>
  </energy>
  <time name="totalsc">    2.76    2.81</time>
 </calculation>
 <calculation>
  <scstep>
   <time name="dav">    0.27    0.28</time>
   <time name="total">    0.36    0.36</time>
   <energy>
    <i name="alphaZ">    285.34744303 </i>
    <i name="ewald">  54269.00118755 </i>
    <i name="hartreedc"> -65224.31226687 </i>
    <i name="XCdc">    363.18660766 </i>
    <i name="pawpsdc">  10621.37049690 </i>
    <i name="pawaedc"> -11484.28520340 </i>
    <i name="eentropy">     -0.02384031 </i>
    <i name="bandstr">    -20.01280250 </i>
    <i name="atom">  11152.61838693 </i>
    <i name="e_fr_energy">    -37.10999102 </i>
    <i name="e_wo_entrp">    -37.08615070 </i>
    <i name="e_0_energy">    -37.10204424 </i>
   </energy>
  </scstep>
  <scstep>
   <time name="dav">    0.35    0.35</time>
   <time name="total">    0.42    0.43</time>
   <energy>
    <i name="e_fr_energy">    -37.11211787 </i>
    <i name="e_wo_entrp">    -37.08890861 </i>
    <i name="e_0_energy">    -37.10438145 </i>
   </energy>
  </scstep>
  <scstep>
   <time name="dav">    0.30    0.31</time>
   <time name="total">    0.39    0.39</time>
   <energy>
    <i name="e_fr_energy">    -37.11231825 </i>
    <i name="e_wo_entrp">    -37.08700965 </i>
    <i name="e_0_energy">    -37.10388205 </i>
   </energy>
  </scstep>
  <scstep>
   <time name="dav">    0.22    0.22</time>
   <time name="total">    0.30    0.30</time>
   <energy>
    <i name="e_fr_energy">    -37.11200062 </i>
    <i name="e_wo_entrp">    -37.08883971 </i>
    <i name="e_0_energy">    -37.10428032 </i>
   </energy>
  </scstep>
  <scstep>
   <time name="dav">    0.23    0.23</time>
   <time name="total">    0.25    0.26</time>
   <energy>
    <i name="alphaZ">    285.34744303 </i>
    <i name="ewald">  54269.00118755 </i>
    <i name="hartreedc"> -65225.25375715 </i>
    <i name="XCdc">    363.17729567 </i>
    <i name="pawpsdc">  10620.64560360 </i>
    <i name="pawaedc"> -11483.55742581 </i>
    <i name="eentropy">     -0.02445043 </i>
    <i name="bandstr">    -19.06624335 </i>
    <i name="atom">  11152.61838693 </i>
    <i name="e_fr_energy">    -37.11195996 </i>
    <i name="e_wo_entrp">    -37.08750953 </i>
    <i name="e_0_energy">    -37.10380981 </i>
   </energy>
  </scstep>
  <structure>
   <crystal>
    <varray name="basis" >
     <v>       2.56679773       0.00000000       0.00000000 </v>
     <v>       1.28339887       2.22291204       0.00000000 </v>
     <v>       0.00000000       0.00000000      29.67047119 </v>
    </varray>
    <i name="volume">    169.29275369 </i>
    <varray name="rec_basis" >
     <v>       0.38959050      -0.22493018       0.00000000 </v>
     <v>       0.00000000       0.44986035       0.00000000 </v>
     <v>       0.00000000       0.00000000       0.03370354 </v>
    </varray>
   </crystal>
   <varray name="positions" >
[...]
       <r>    11.2222    -0.0698    57.6750 </r>
       <r>    11.3120    -0.2533    57.6522 </r>
       <r>    11.4019     0.4483    57.6925 </r>
       <r>    11.4917     1.7701    57.8515 </r>
       <r>    11.5815     2.6739    58.0917 </r>
       <r>    11.6714     2.6293    58.3279 </r>
       <r>    11.7612     2.5220    58.5545 </r>
       <r>    11.8511     2.5180    58.7807 </r>
       <r>    11.9409     2.1386    58.9729 </r>
       <r>    12.0307     2.1178    59.1631 </r>
       <r>    12.1206     2.5887    59.3957 </r>
       <r>    12.2104     2.2273    59.5958 </r>
       <r>    12.3003     0.9657    59.6825 </r>
       <r>    12.3901     0.0513    59.6871 </r>
       <r>    12.4799    -0.1413    59.6744 </r>
       <r>    12.5698    -0.0684    59.6683 </r>
       <r>    12.6596    -0.0158    59.6669 </r>
       <r>    12.7494    -0.0023    59.6667 </r>
       <r>    12.8393    -0.0013    59.6666 </r>
       <r>    12.9291    -0.0068    59.6660 </r>
       <r>    13.0190    -0.0241    59.6638 </r>
       <r>    13.1088    -0.0370    59.6605 </r>
       <r>    13.1986     0.0508    59.6650 </r>
       <r>    13.2885     0.3533    59.6968 </r>
       <r>    13.3783     0.7358    59.7629 </r>
       <r>    13.4681     0.8213    59.8367 </r>
       <r>    13.5580     0.5107    59.8825 </r>
       <r>    13.6478     0.1410    59.8952 </r>
       <r>    13.7377    -0.0232    59.8931 </r>
       <r>    13.8275    -0.0326    59.8902 </r>
       <r>    13.9173    -0.0118    59.8891 </r>
       <r>    14.0072    -0.0023    59.8889 </r>
       <r>    14.0970    -0.0003    59.8889 </r>
       <r>    14.1869    -0.0000    59.8889 </r>
       <r>    14.2767    -0.0000    59.8889 </r>
       <r>    14.3665    -0.0000    59.8889 </r>
       <r>    14.4564    -0.0000    59.8889 </r>
       <r>    14.5462    -0.0000    59.8889 </r>
       <r>    14.6360    -0.0000    59.8889 </r>
       <r>    14.7259    -0.0000    59.8889 </r>
       <r>    14.8157    -0.0000    59.8889 </r>
       <r>    14.9056    -0.0000    59.8889 </r>
       <r>    14.9954    -0.0000    59.8889 </r>
       <r>    15.0852    -0.0000    59.8889 </r>
       <r>    15.1751    -0.0000    59.8889 </r>
       <r>    15.2649    -0.0000    59.8889 </r>
       <r>    15.3547    -0.0000    59.8889 </r>
       <r>    15.4446    -0.0000    59.8889 </r>
       <r>    15.5344    -0.0000    59.8889 </r>
       <r>    15.6243    -0.0001    59.8889 </r>
       <r>    15.7141    -0.0009    59.8888 </r>
       <r>    15.8039    -0.0054    59.8883 </r>
       <r>    15.8938    -0.0177    59.8867 </r>
       <r>    15.9836    -0.0198    59.8849 </r>
       <r>    16.0735     0.0626    59.8906 </r>
       <r>    16.1633     0.2732    59.9151 </r>
       <r>    16.2531     0.4490    59.9555 </r>
       <r>    16.3430     0.3780    59.9894 </r>
       <r>    16.4328     0.1509    60.0030 </r>
       <r>    16.5226     0.0030    60.0032 </r>
       <r>    16.6125    -0.0232    60.0012 </r>
       <r>    16.7023    -0.0103    60.0002 </r>
       <r>    16.7922    -0.0023    60.0000 </r>
       <r>    16.8820    -0.0003    60.0000 </r>
       <r>    16.9718    -0.0000    60.0000 </r>
       <r>    17.0617    -0.0000    60.0000 </r>
       <r>    17.1515    -0.0000    60.0000 </r>
       <r>    17.2413    -0.0000    60.0000 </r>
       <r>    17.3312    -0.0000    60.0000 </r>
       <r>    17.4210    -0.0000    60.0000 </r>
       <r>    17.5109    -0.0000    60.0000 </r>
       <r>    17.6007     0.0000    60.0000 </r>
       <r>    17.6905     0.0000    60.0000 </r>
       <r>    17.7804     0.0000    60.0000 </r>
       <r>    17.8702     0.0000    60.0000 </r>
       <r>    17.9601     0.0000    60.0000 </r>
       <r>    18.0499     0.0000    60.0000 </r>
       <r>    18.1397     0.0000    60.0000 </r>
       <r>    18.2296     0.0000    60.0000 </r>
      </set>
      <set comment="spin 2">
       <r>    -8.7219     0.0000     0.0000 </r>
       <r>    -8.6320     0.0000     0.0000 </r>
       <r>    -8.5422     0.0000     0.0000 </r>
       <r>    -8.4524     0.0000     0.0000 </r>
       <r>    -8.3625    -0.0000    -0.0000 </r>
       <r>    -8.2727    -0.0000    -0.0000 </r>
       <r>    -8.1828    -0.0000    -0.0000 </r>
       <r>    -8.0930    -0.0000    -0.0000 </r>
       <r>    -8.0032    -0.0000    -0.0000 </r>
       <r>    -7.9133    -0.0000    -0.0000 </r>
       <r>    -7.8235    -0.0000    -0.0000 </r>
       <r>    -7.7336    -0.0000    -0.0000 </r>
       <r>    -7.6438    -0.0000    -0.0000 </r>
       <r>    -7.5540    -0.0000    -0.0000 </r>
       <r>    -7.4641    -0.0000    -0.0000 </r>
       <r>    -7.3743    -0.0000    -0.0000 </r>
       <r>    -7.2845    -0.0003    -0.0000 </r>
       <r>    -7.1946    -0.0023    -0.0002 </r>
       <r>    -7.1048    -0.0105    -0.0012 </r>
       <r>    -7.0149    -0.0247    -0.0034 </r>
       <r>    -6.9251    -0.0049    -0.0038 </r>
       <r>    -6.8353     0.1297     0.0078 </r>
       <r>    -6.7454     0.3677     0.0408 </r>
       <r>    -6.6556     0.5544     0.0907 </r>
       <r>    -6.5658     0.5950     0.1441 </r>
       <r>    -6.4759     0.4960     0.1887 </r>
       <r>    -6.3861     0.3251     0.2179 </r>
       <r>    -6.2962     0.2808     0.2431 </r>
       <r>    -6.2064     0.3978     0.2788 </r>
       <r>    -6.1166     0.4052     0.3152 </r>
       <r>    -6.0267     0.2105     0.3342 </r>
       <r>    -5.9369     0.0216     0.3361 </r>
       <r>    -5.8470    -0.0459     0.3320 </r>
       <r>    -5.7572    -0.0171     0.3304 </r>
       <r>    -5.6674     0.1302     0.3421 </r>
       <r>    -5.5775     0.3616     0.3746 </r>
       <r>    -5.4877     0.4536     0.4154 </r>
       <r>    -5.3979     0.2922     0.4416 </r>
       <r>    -5.3080     0.0752     0.4484 </r>
       <r>    -5.2182    -0.0180     0.4467 </r>
       <r>    -5.1283    -0.0218     0.4448 </r>
       <r>    -5.0385    -0.0185     0.4431 </r>
       <r>    -4.9487    -0.0271     0.4407 </r>
       <r>    -4.8588    -0.0006     0.4406 </r>
       <r>    -4.7690     0.1184     0.4513 </r>
       <r>    -4.6792     0.2803     0.4765 </r>
       <r>    -4.5893     0.5098     0.5223 </r>
       <r>    -4.4995     1.1734     0.6277 </r>
       <r>    -4.4096     2.1997     0.8253 </r>
       <r>    -4.3198     2.5187     1.0516 </r>
       <r>    -4.2300     1.6262     1.1977 </r>
       <r>    -4.1401     0.4711     1.2400 </r>
       <r>    -4.0503    -0.0951     1.2314 </r>
       <r>    -3.9604    -0.1972     1.2137 </r>
       <r>    -3.8706    -0.1093     1.2039 </r>
       <r>    -3.7808     0.3878     1.2387 </r>
       <r>    -3.6909     1.5502     1.3780 </r>
       <r>    -3.6011     2.6905     1.6197 </r>
       <r>    -3.5113     2.7617     1.8678 </r>
       <r>    -3.4214     2.3282     2.0770 </r>
       <r>    -3.3316     2.4777     2.2996 </r>
       <r>    -3.2417     2.3758     2.5130 </r>
       <r>    -3.1519     1.2866     2.6286 </r>
       <r>    -3.0621     0.7675     2.6976 </r>
       <r>    -2.9722     2.1320     2.8891 </r>
       <r>    -2.8824     3.7962     3.2301 </r>
       <r>    -2.7925     3.3471     3.5308 </r>
       <r>    -2.7027     1.4083     3.6573 </r>
       <r>    -2.6129     0.7128     3.7214 </r>
       <r>    -2.5230     2.0619     3.9066 </r>
       <r>    -2.4332     3.3576     4.2083 </r>
       <r>    -2.3434     2.7254     4.4531 </r>
       <r>    -2.2535     1.3682     4.5760 </r>
       <r>    -2.1637     1.4085     4.7026 </r>
       <r>    -2.0738     2.3125     4.9103 </r>
       <r>    -1.9840     2.2083     5.1087 </r>
       <r>    -1.8942     1.4268     5.2369 </r>
       <r>    -1.8043     1.5484     5.3760 </r>
       <r>    -1.7145     2.6093     5.6104 </r>
       <r>    -1.6247     4.5279     6.0172 </r>
       <r>    -1.5348     8.2211     6.7557 </r>
       <r>    -1.4450    12.8253     7.9080 </r>
       <r>    -1.3551    15.1455     9.2686 </r>
       <r>    -1.2653    13.2326    10.4574 </r>
       <r>    -1.1755     9.1913    11.2831 </r>
       <r>    -1.0856     6.5807    11.8743 </r>
       <r>    -0.9958     5.9162    12.4058 </r>
       <r>    -0.9059     5.5150    12.9013 </r>
       <r>    -0.8161     4.9359    13.3447 </r>
       <r>    -0.7263     5.6322    13.8507 </r>
       <r>    -0.6364     8.3486    14.6007 </r>
       <r>    -0.5466    11.4762    15.6317 </r>
       <r>    -0.4568    13.9673    16.8865 </r>
       <r>    -0.3669    16.4330    18.3628 </r>
       <r>    -0.2771    17.6814    19.9513 </r>
       <r>    -0.1872    15.7328    21.3647 </r>
       <r>    -0.0974    11.9685    22.4399 </r>
       <r>    -0.0076     9.5097    23.2943 </r>
       <r>     0.0823     8.9926    24.1021 </r>
       <r>     0.1721     9.3954    24.9462 </r>
       <r>     0.2619    10.7472    25.9117 </r>
       <r>     0.3518    13.1907    27.0968 </r>
       <r>     0.4416    15.1650    28.4592 </r>
       <r>     0.5315    15.4073    29.8433 </r>
       <r>     0.6213    15.7311    31.2566 </r>
       <r>     0.7111    18.2151    32.8930 </r>
       <r>     0.8010    21.4531    34.8203 </r>
       <r>     0.8908    22.3970    36.8324 </r>
       <r>     0.9807    19.9746    38.6269 </r>
       <r>     1.0705    16.2510    40.0868 </r>
       <r>     1.1603    14.1661    41.3595 </r>
       <r>     1.2502    13.4587    42.5686 </r>
       <r>     1.3400    11.1650    43.5716 </r>
       <r>     1.4298     6.8367    44.1858 </r>
       <r>     1.5197     2.8475    44.4417 </r>
       <r>     1.6095     0.5554    44.4915 </r>
       <r>     1.6994    -0.2983    44.4648 </r>
       <r>     1.7892    -0.3748    44.4311 </r>
       <r>     1.8790     0.0953    44.4397 </r>
       <r>     1.9689     1.3145    44.5577 </r>
       <r>     2.0587     2.6738    44.7980 </r>
       <r>     2.1485     2.7934    45.0489 </r>
       <r>     2.2384     1.6166    45.1941 </r>
       <r>     2.3282     0.5074    45.2397 </r>
       <r>     2.4181     0.2184    45.2593 </r>
       <r>     2.5079     0.3543    45.2912 </r>
       <r>     2.5977     0.3467    45.3223 </r>
       <r>     2.6876     0.1400    45.3349 </r>
       <r>     2.7774    -0.0536    45.3301 </r>
       <r>     2.8673    -0.1612    45.3156 </r>
       <r>     2.9571    -0.0083    45.3148 </r>
       <r>     3.0469     0.8584    45.3920 </r>
       <r>     3.1368     2.2273    45.5921 </r>
       <r>     3.2266     2.7072    45.8353 </r>
       <r>     3.3164     1.6887    45.9870 </r>
       <r>     3.4063     0.4079    46.0236 </r>
       <r>     3.4961    -0.1132    46.0135 </r>
       <r>     3.5860    -0.1092    46.0036 </r>
       <r>     3.6758    -0.0341    46.0006 </r>
       <r>     3.7656    -0.0059    46.0001 </r>
       <r>     3.8555    -0.0007    46.0000 </r>
       <r>     3.9453    -0.0014    45.9999 </r>
       <r>     4.0351    -0.0113    45.9989 </r>
       <r>     4.1250    -0.0546    45.9939 </r>
       <r>     4.2148    -0.1342    45.9819 </r>
       <r>     4.3047    -0.0236    45.9798 </r>
       <r>     4.3945     0.7788    46.0497 </r>
       <r>     4.4843     2.1473    46.2426 </r>
       <r>     4.5742     2.7264    46.4876 </r>
       <r>     4.6640     1.7819    46.6477 </r>
       <r>     4.7539     0.4725    46.6901 </r>
       <r>     4.8437    -0.1012    46.6810 </r>
       <r>     4.9335    -0.1147    46.6707 </r>
       <r>     5.0234    -0.0376    46.6673 </r>
       <r>     5.1132    -0.0067    46.6667 </r>
       <r>     5.2030    -0.0010    46.6666 </r>
       <r>     5.2929    -0.0028    46.6664 </r>
       <r>     5.3827    -0.0204    46.6646 </r>
       <r>     5.4726    -0.0891    46.6565 </r>
       <r>     5.5624    -0.2001    46.6386 </r>
       <r>     5.6522    -0.0417    46.6348 </r>
       <r>     5.7421     1.0144    46.7260 </r>
       <r>     5.8319     3.0740    47.0021 </r>
       <r>     5.9217     5.1533    47.4651 </r>
       <r>     6.0116     5.8825    47.9936 </r>
       <r>     6.1014     4.6239    48.4090 </r>
       <r>     6.1913     2.5011    48.6337 </r>
       <r>     6.2811     1.2931    48.7498 </r>
       <r>     6.3709     1.1380    48.8521 </r>
       <r>     6.4608     1.1098    48.9518 </r>
       <r>     6.5506     0.8454    49.0277 </r>
       <r>     6.6405     0.5298    49.0753 </r>
       <r>     6.7303     0.3774    49.1092 </r>
       <r>     6.8201     0.4943    49.1536 </r>
       <r>     6.9100     0.6882    49.2155 </r>
       <r>     6.9998     0.9198    49.2981 </r>
       <r>     7.0896     1.8358    49.4630 </r>
       <r>     7.1795     3.2394    49.7540 </r>
       <r>     7.2693     3.4588    50.0648 </r>
       <r>     7.3592     2.0975    50.2532 </r>
       <r>     7.4490     0.6884    50.3151 </r>
       <r>     7.5388     0.2593    50.3383 </r>
       <r>     7.6287     0.7662    50.4072 </r>
       <r>     7.7185     1.6814    50.5582 </r>
       <r>     7.8083     2.1493    50.7513 </r>
       <r>     7.8982     1.6884    50.9030 </r>
       <r>     7.9880     0.8028    50.9751 </r>
       <r>     8.0779     0.5523    51.0247 </r>
       <r>     8.1677     1.4419    51.1543 </r>
       <r>     8.2575     2.9097    51.4157 </r>
       <r>     8.3474     3.9384    51.7695 </r>
       <r>     8.4372     3.7749    52.1086 </r>
       <r>     8.5271     2.5235    52.3353 </r>
       <r>     8.6169     1.0965    52.4338 </r>
       <r>     8.7067     0.2179    52.4534 </r>
       <r>     8.7966    -0.0013    52.4533 </r>
       <r>     8.8864     0.3102    52.4812 </r>
       <r>     8.9762     1.2010    52.5891 </r>
       <r>     9.0661     2.5091    52.8145 </r>
       <r>     9.1559     3.1765    53.0998 </r>
       <r>     9.2458     2.5804    53.3316 </r>
       <r>     9.3356     1.9794    53.5095 </r>
       <r>     9.4254     2.5543    53.7389 </r>
       <r>     9.5153     3.2161    54.0279 </r>
       <r>     9.6051     2.4763    54.2503 </r>
       <r>     9.6949     1.1590    54.3545 </r>
       <r>     9.7848     0.9662    54.4413 </r>
       <r>     9.8746     1.8287    54.6055 </r>
       <r>     9.9645     2.5865    54.8379 </r>
       <r>    10.0543     2.9222    55.1004 </r>
       <r>    10.1441     2.9448    55.3650 </r>
       <r>    10.2340     2.2559    55.5677 </r>
       <r>    10.3238     1.2403    55.6791 </r>
       <r>    10.4137     1.1508    55.7825 </r>
       <r>    10.5035     2.1210    55.9730 </r>
       <r>    10.5933     3.1432    56.2554 </r>
       <r>    10.6832     3.3760    56.5587 </r>
       <r>    10.7730     2.9080    56.8199 </r>
       <r>    10.8628     2.7933    57.0709 </r>
       <r>    10.9527     3.1404    57.3530 </r>
       <r>    11.0425     2.5873    57.5855 </r>
       <r>    11.1324     1.0662    57.6812 </r>
       <r>    11.2222    -0.0696    57.6750 </r>
       <r>    11.3120    -0.2534    57.6522 </r>
       <r>    11.4019     0.4477    57.6924 </r>
       <r>    11.4917     1.7695    57.8514 </r>
       <r>    11.5815     2.6738    58.0916 </r>
       <r>    11.6714     2.6296    58.3279 </r>
       <r>    11.7612     2.5222    58.5544 </r>
       <r>    11.8511     2.5180    58.7807 </r>
       <r>    11.9409     2.1387    58.9728 </r>
       <r>    12.0307     2.1177    59.1630 </r>
       <r>    12.1206     2.5887    59.3956 </r>
       <r>    12.2104     2.2276    59.5957 </r>
       <r>    12.3003     0.9661    59.6825 </r>
       <r>    12.3901     0.0515    59.6871 </r>
       <r>    12.4799    -0.1413    59.6744 </r>
       <r>    12.5698    -0.0684    59.6683 </r>
       <r>    12.6596    -0.0158    59.6669 </r>
       <r>    12.7494    -0.0023    59.6667 </r>
       <r>    12.8393    -0.0013    59.6666 </r>
       <r>    12.9291    -0.0068    59.6660 </r>
       <r>    13.0190    -0.0241    59.6638 </r>
       <r>    13.1088    -0.0370    59.6605 </r>
       <r>    13.1986     0.0508    59.6650 </r>
       <r>    13.2885     0.3531    59.6968 </r>
       <r>    13.3783     0.7356    59.7628 </r>
       <r>    13.4681     0.8214    59.8366 </r>
       <r>    13.5580     0.5109    59.8825 </r>
       <r>    13.6478     0.1411    59.8952 </r>
       <r>    13.7377    -0.0231    59.8931 </r>
       <r>    13.8275    -0.0326    59.8902 </r>
       <r>    13.9173    -0.0119    59.8891 </r>
       <r>    14.0072    -0.0023    59.8889 </r>
       <r>    14.0970    -0.0003    59.8889 </r>
       <r>    14.1869    -0.0000    59.8889 </r>
       <r>    14.2767    -0.0000    59.8889 </r>
       <r>    14.3665    -0.0000    59.8889 </r>
       <r>    14.4564    -0.0000    59.8889 </r>
       <r>    14.5462    -0.0000    59.8889 </r>
       <r>    14.6360    -0.0000    59.8889 </r>
       <r>    14.7259    -0.0000    59.8889 </r>
       <r>    14.8157    -0.0000    59.8889 </r>
       <r>    14.9056    -0.0000    59.8889 </r>
       <r>    14.9954    -0.0000    59.8889 </r>
       <r>    15.0852    -0.0000    59.8889 </r>
       <r>    15.1751    -0.0000    59.8889 </r>
       <r>    15.2649    -0.0000    59.8889 </r>
       <r>    15.3547    -0.0000    59.8889 </r>
       <r>    15.4446    -0.0000    59.8889 </r>
       <r>    15.5344    -0.0000    59.8889 </r>
       <r>    15.6243    -0.0001    59.8889 </r>
       <r>    15.7141    -0.0009    59.8888 </r>
       <r>    15.8039    -0.0054    59.8883 </r>
       <r>    15.8938    -0.0177    59.8867 </r>
       <r>    15.9836    -0.0198    59.8849 </r>
       <r>    16.0735     0.0625    59.8906 </r>
       <r>    16.1633     0.2731    59.9151 </r>
       <r>    16.2531     0.4490    59.9554 </r>
       <r>    16.3430     0.3781    59.9894 </r>
       <r>    16.4328     0.1510    60.0030 </r>
       <r>    16.5226     0.0030    60.0032 </r>
       <r>    16.6125    -0.0232    60.0012 </r>
       <r>    16.7023    -0.0103    60.0002 </r>
       <r>    16.7922    -0.0023    60.0000 </r>
       <r>    16.8820    -0.0003    60.0000 </r>
       <r>    16.9718    -0.0000    60.0000 </r>
       <r>    17.0617    -0.0000    60.0000 </r>
       <r>    17.1515    -0.0000    60.0000 </r>
       <r>    17.2413    -0.0000    60.0000 </r>
       <r>    17.3312    -0.0000    60.0000 </r>
       <r>    17.4210    -0.0000    60.0000 </r>
       <r>    17.5109    -0.0000    60.0000 </r>
       <r>    17.6007     0.0000    60.0000 </r>
       <r>    17.6905     0.0000    60.0000 </r>
       <r>    17.7804     0.0000    60.0000 </r>
       <r>    17.8702     0.0000    60.0000 </r>
       <r>    17.9601     0.0000    60.0000 </r>
       <r>    18.0499     0.0000    60.0000 </r>
       <r>    18.1397     0.0000    60.0000 </r>
       <r>    18.2296     0.0000    60.0000 </r>
      </set>
     </set>
    </array>
   </total>
  </dos>
 </calculation>
 <structure name="finalpos" >
  <crystal>
   <varray name="basis" >
    <v>       2.56679773       0.00000000       0.00000000 </v>
    <v>       1.28339887       2.22291204       0.00000000 </v>
    <v>       0.00000000       0.00000000      29.67047119 </v>
   </varray>
   <i name="volume">    169.29275369 </i>
   <varray name="rec_basis" >
    <v>       0.38959050      -0.22493018       0.00000000 </v>
    <v>       0.00000000       0.44986035       0.00000000 </v>
    <v>       0.00000000       0.00000000       0.03370354 </v>
   </varray>
  </crystal>
  <varray name="positions" >
   <v>      -0.00097977       0.00195955      -0.00011870 </v>
   <v>       0.33207109       0.33585782       0.06708973 </v>
   <v>       0.66415605       0.67168789       0.13530939 </v>
   <v>      -0.00616856       0.01233712       0.20396999 </v>
   <v>       0.32234052       0.35531895       0.27186695 </v>
   <v>       0.64954823       0.70090354       0.34044380 </v>
   <v>      -0.02311736       0.04623472       0.40848121 </v>
   <v>       0.30376739       0.39246522       0.47584238 </v>
   <v>       0.36919545       0.26160910       0.54894439 </v>
   <v>       0.27053592       0.45892816       0.56987581 </v>
  </varray>
 </structure>
</modeling>
