unknown system                          
           1
     2.566798    0.000000    0.000000
     1.283399    2.222912    0.000000
     0.000000    0.000000   29.670471
   Cu   H 
     8     2
Direct configuration=     1
   0.00000000  0.00000000  0.00000000
   0.33333333  0.33333333  0.07063526
   0.66666667  0.66666667  0.13908594
   0.00000000  0.00000000  0.20816512
   0.33333333  0.33333333  0.27656240
   0.66666667  0.66666667  0.34556034
   0.00000000  0.00000000  0.41400593
   0.33333333  0.33333333  0.48139269
   0.33333333  0.33333333  0.53425930
   0.21468229  0.57063542  0.55203798
Direct configuration=     2
   0.00000156 -0.00000312  0.00076278
   0.33333142  0.33333715  0.06999388
   0.66666786  0.66666429  0.13909378
  -0.00000627  0.00001254  0.20816249
   0.33334331  0.33331338  0.27652504
   0.66664282  0.66671437  0.34549335
  -0.00012159  0.00024318  0.41384682
   0.33066631  0.33866737  0.47900788
   0.34311102  0.31377795  0.53530110
   0.20771252  0.58457496  0.55351784
Direct configuration=     3
   0.00000184 -0.00000368  0.00089926
   0.33333108  0.33333783  0.06987912
   0.66666807  0.66666386  0.13909519
  -0.00000739  0.00001479  0.20816202
   0.33334509  0.33330982  0.27651836
   0.66663855  0.66672290  0.34548137
  -0.00014334  0.00028669  0.41381835
   0.33018911  0.33962177  0.47858117
   0.34486051  0.31027898  0.53548751
   0.20646544  0.58706912  0.55378262
Direct configuration=     4
  -0.00000513  0.00001027  0.00173672
   0.33331920  0.33336160  0.06940470
   0.66666062  0.66667875  0.13894841
  -0.00002798  0.00005597  0.20813531
   0.33335082  0.33329836  0.27644498
   0.66657901  0.66684198  0.34531429
  -0.00054889  0.00109778  0.41281993
   0.32670987  0.34658026  0.47699009
   0.34455523  0.31088953  0.53795957
   0.21075621  0.57848757  0.55395096
Direct configuration=     5
  -0.00000604  0.00001208  0.00184561
   0.33331765  0.33336470  0.06934302
   0.66665966  0.66668069  0.13892932
  -0.00003066  0.00006132  0.20813184
   0.33335156  0.33329687  0.27643544
   0.66657127  0.66685747  0.34529257
  -0.00060162  0.00120323  0.41269012
   0.32625752  0.34748496  0.47678322
   0.34451554  0.31096891  0.53828098
   0.21131408  0.57737185  0.55397285
Direct configuration=     6
  -0.00001098  0.00002196  0.00231341
   0.33330377  0.33339247  0.06938811
   0.66665327  0.66669346  0.13866174
  -0.00005429  0.00010858  0.20804853
   0.33335576  0.33328849  0.27632543
   0.66648153  0.66703695  0.34487969
  -0.00138992  0.00277983  0.41135901
   0.32356748  0.35286505  0.47647078
   0.34940620  0.30118759  0.53943122
   0.21003614  0.57992771  0.55482704
Direct configuration=     7
  -0.00001506  0.00003013  0.00270045
   0.33329228  0.33341544  0.06942542
   0.66664799  0.66670403  0.13844036
  -0.00007383  0.00014767  0.20797960
   0.33335922  0.33328155  0.27623441
   0.66640728  0.66718544  0.34453810
  -0.00204212  0.00408425  0.41025771
   0.32134185  0.35731630  0.47621228
   0.35345253  0.29309494  0.54038289
   0.20897884  0.58204233  0.55553376
Direct configuration=     8
  -0.00001877  0.00003753  0.00297594
   0.33327750  0.33344501  0.06976057
   0.66664463  0.66671073  0.13823583
  -0.00009151  0.00018302  0.20779450
   0.33335402  0.33329195  0.27597023
   0.66621319  0.66757361  0.34365755
  -0.00318813  0.00637627  0.40935775
   0.31854572  0.36290855  0.47601024
   0.35474394  0.29051213  0.54183807
   0.21186836  0.57626327  0.55610429
Direct configuration=     9
  -0.00001974  0.00003948  0.00304839
   0.33327361  0.33345278  0.06984872
   0.66664375  0.66671250  0.13818204
  -0.00009616  0.00019232  0.20774582
   0.33335266  0.33329469  0.27590075
   0.66616215  0.66767571  0.34342595
  -0.00348955  0.00697910  0.40912104
   0.31781030  0.36437939  0.47595710
   0.35508360  0.28983281  0.54222080
   0.21262835  0.57474330  0.55625435
Direct configuration=    10
  -0.00002169  0.00004338  0.00319331
   0.33326583  0.33346833  0.07002502
   0.66664199  0.66671602  0.13807445
  -0.00010546  0.00021092  0.20764845
   0.33334992  0.33330016  0.27576178
   0.66606005  0.66787990  0.34296276
  -0.00409239  0.00818477  0.40864763
   0.31633946  0.36732108  0.47585082
   0.35576291  0.28847417  0.54298627
   0.21414832  0.57170335  0.55655446
Direct configuration=    11
  -0.00002048  0.00004095  0.00310321
   0.33327067  0.33345866  0.06991541
   0.66664309  0.66671383  0.13814134
  -0.00009968  0.00019936  0.20770898
   0.33335162  0.33329676  0.27584818
   0.66612352  0.66775295  0.34325074
  -0.00371759  0.00743519  0.40894196
   0.31725391  0.36549217  0.47591690
   0.35534057  0.28931886  0.54251037
   0.21320333  0.57359335  0.55636787
Direct configuration=    12
  -0.00000631  0.00001263  0.00324853
   0.33327258  0.33345484  0.07039199
   0.66665797  0.66668406  0.13813225
  -0.00009931  0.00019862  0.20738251
   0.33334101  0.33331797  0.27525278
   0.66576042  0.66847916  0.34207433
  -0.00528164  0.01056328  0.40861451
   0.31439893  0.37120214  0.47561307
   0.35958198  0.28083603  0.54364823
   0.21372332  0.57255335  0.55734676
Direct configuration=    13
   0.00000157 -0.00000314  0.00332943
   0.33327365  0.33345271  0.07065730
   0.66666625  0.66666749  0.13812718
  -0.00009910  0.00019820  0.20720076
   0.33333511  0.33332978  0.27492133
   0.66555828  0.66888344  0.34141944
  -0.00615233  0.01230467  0.40843222
   0.31280958  0.37438085  0.47544393
   0.36194316  0.27611368  0.54428167
   0.21401280  0.57197439  0.55789170
Direct configuration=    14
  -0.00001139  0.00002278  0.00343720
   0.33324943  0.33350114  0.07078009
   0.66665174  0.66669652  0.13839868
  -0.00012198  0.00024397  0.20678676
   0.33323780  0.33352439  0.27398571
   0.66501415  0.66997170  0.34085809
  -0.00783025  0.01566051  0.40837455
   0.31089064  0.37821873  0.47516853
   0.36304379  0.27391242  0.54530959
   0.21722504  0.56554992  0.55860577
Direct configuration=    15
  -0.00001274  0.00002548  0.00344841
   0.33324691  0.33350618  0.07079287
   0.66665023  0.66669955  0.13842693
  -0.00012436  0.00024873  0.20674368
   0.33322768  0.33354464  0.27388836
   0.66495753  0.67008494  0.34079969
  -0.00800484  0.01600969  0.40836854
   0.31069097  0.37861807  0.47513987
   0.36315831  0.27368338  0.54541655
   0.21755928  0.56488144  0.55868007
Direct configuration=    16
  -0.00001544  0.00003087  0.00347084
   0.33324187  0.33351626  0.07081843
   0.66664721  0.66670559  0.13848342
  -0.00012913  0.00025825  0.20665752
   0.33320743  0.33358514  0.27369365
   0.66484430  0.67031141  0.34068287
  -0.00835402  0.01670805  0.40835654
   0.31029163  0.37941675  0.47508256
   0.36338736  0.27322528  0.54563046
   0.21822776  0.56354448  0.55882867
Direct configuration=    17
  -0.00003322  0.00006643  0.00353991
   0.33322109  0.33355782  0.07072099
   0.66662500  0.66675000  0.13861911
  -0.00016098  0.00032196  0.20623255
   0.33303201  0.33393598  0.27294086
   0.66416468  0.67167064  0.34065688
  -0.00997474  0.01994948  0.40825845
   0.30934604  0.38130793  0.47496466
   0.36633219  0.26733561  0.54608710
   0.21879688  0.56240624  0.55968445
Direct configuration=    18
  -0.00002977  0.00005954  0.00352652
   0.33322512  0.33354977  0.07073988
   0.66662930  0.66674139  0.13859281
  -0.00015480  0.00030961  0.20631493
   0.33306602  0.33386796  0.27308680
   0.66429643  0.67140714  0.34066192
  -0.00966056  0.01932111  0.40827746
   0.30952934  0.38094131  0.47498751
   0.36576132  0.26847735  0.54599858
   0.21868655  0.56262689  0.55951856
Direct configuration=    19
  -0.00002609  0.00005219  0.00353165
   0.33323299  0.33353401  0.07063006
   0.66662768  0.66674464  0.13851328
  -0.00016771  0.00033541  0.20600120
   0.33288081  0.33423838  0.27278098
   0.66361853  0.67276294  0.34079058
  -0.01095487  0.02190973  0.40818228
   0.30931704  0.38136593  0.47500097
   0.36583499  0.26833002  0.54630324
   0.22098559  0.55802883  0.55997072
Direct configuration=    20
  -0.00002399  0.00004798  0.00353458
   0.33323750  0.33352500  0.07056724
   0.66662675  0.66674650  0.13846779
  -0.00017509  0.00035017  0.20582175
   0.33277487  0.33445025  0.27260605
   0.66323077  0.67353847  0.34086417
  -0.01169522  0.02339044  0.40812784
   0.30919560  0.38160881  0.47500866
   0.36587713  0.26824574  0.54647750
   0.22230064  0.55539871  0.56022937
Direct configuration=    21
  -0.00003162  0.00006323  0.00351462
   0.33323233  0.33353535  0.07050285
   0.66661406  0.66677189  0.13830320
  -0.00020315  0.00040630  0.20562313
   0.33259604  0.33480792  0.27251104
   0.66265096  0.67469807  0.34086925
  -0.01259823  0.02519646  0.40810175
   0.30913198  0.38173604  0.47502692
   0.36639756  0.26720488  0.54661355
   0.22355903  0.55288194  0.56063863
Direct configuration=    22
  -0.00005449  0.00010899  0.00345475
   0.33321680  0.33356640  0.07030968
   0.66657598  0.66684804  0.13780941
  -0.00028733  0.00057467  0.20502727
   0.33205953  0.33588094  0.27222602
   0.66091155  0.67817689  0.34088448
  -0.01530725  0.03061450  0.40802349
   0.30894114  0.38211772  0.47508171
   0.36795885  0.26408230  0.54702170
   0.22733418  0.54533164  0.56186644
Direct configuration=    23
  -0.00010025  0.00020049  0.00333501
   0.33318575  0.33362851  0.06992335
   0.66649983  0.66700034  0.13682184
  -0.00045570  0.00091140  0.20383555
   0.33098652  0.33802696  0.27165598
   0.65743274  0.68513452  0.34091495
  -0.02072529  0.04145059  0.40786697
   0.30855946  0.38288109  0.47519127
   0.37108143  0.25783713  0.54783798
   0.23488448  0.53023104  0.56432205
Direct configuration=    24
  -0.00006580  0.00013161  0.00342515
   0.33320912  0.33358176  0.07021417
   0.66655715  0.66688569  0.13756526
  -0.00032896  0.00065791  0.20473265
   0.33179426  0.33641148  0.27208510
   0.66005152  0.67989696  0.34089202
  -0.01664671  0.03329341  0.40798480
   0.30884678  0.38230644  0.47510879
   0.36873082  0.26253836  0.54722350
   0.22920077  0.54159845  0.56247352
Direct configuration=    25
  -0.00008303  0.00016605  0.00338008
   0.33319743  0.33360513  0.07006876
   0.66652849  0.66694302  0.13719355
  -0.00039233  0.00078466  0.20428410
   0.33139039  0.33721922  0.27187054
   0.65874213  0.68251574  0.34090348
  -0.01868600  0.03737200  0.40792589
   0.30870312  0.38259377  0.47515003
   0.36990613  0.26018775  0.54753074
   0.23204263  0.53591475  0.56339779
Direct configuration=    26
  -0.00007255  0.00014509  0.00340751
   0.33320455  0.33359091  0.07015725
   0.66654593  0.66690813  0.13741976
  -0.00035376  0.00070753  0.20455707
   0.33163617  0.33672766  0.27200111
   0.65953897  0.68092206  0.34089651
  -0.01744497  0.03488994  0.40796174
   0.30879054  0.38241891  0.47512493
   0.36919088  0.26161824  0.54734377
   0.23031319  0.53937362  0.56283531
Direct configuration=    27
  -0.00007221  0.00014442  0.00335201
   0.33320812  0.33358376  0.07007398
   0.66653798  0.66692404  0.13721871
  -0.00039268  0.00078536  0.20440961
   0.33141234  0.33717533  0.27195043
   0.65884570  0.68230860  0.34082306
  -0.01832497  0.03664993  0.40798632
   0.30871195  0.38257610  0.47514498
   0.36923433  0.26153134  0.54752134
   0.23218840  0.53562320  0.56322454
Direct configuration=    28
  -0.00007173  0.00014346  0.00327276
   0.33321322  0.33357356  0.06995508
   0.66652662  0.66694676  0.13693162
  -0.00044824  0.00089649  0.20419904
   0.33109273  0.33781455  0.27187807
   0.65785579  0.68428842  0.34071818
  -0.01958150  0.03916300  0.40802141
   0.30859973  0.38280055  0.47517360
   0.36929637  0.26140726  0.54777489
   0.23486598  0.53026804  0.56378030
Direct configuration=    29
  -0.00007077  0.00014154  0.00311426
   0.33322342  0.33355315  0.06971729
   0.66650390  0.66699220  0.13635746
  -0.00055938  0.00111875  0.20377790
   0.33045351  0.33909298  0.27173336
   0.65587597  0.68824807  0.34050844
  -0.02209457  0.04418915  0.40809161
   0.30837528  0.38324944  0.47523084
   0.36942045  0.26115909  0.54828199
   0.24022114  0.51955771  0.56489183
Direct configuration=    30
  -0.00008206  0.00016412  0.00297397
   0.33321583  0.33356834  0.06954259
   0.66647859  0.66704282  0.13621758
  -0.00065701  0.00131402  0.20377334
   0.33011914  0.33976171  0.27169854
   0.65509982  0.68980037  0.34035736
  -0.02269478  0.04538955  0.40815287
   0.30818491  0.38363018  0.47525354
   0.36989403  0.26021193  0.54837334
   0.24179048  0.51641904  0.56536183
Direct configuration=    31
  -0.00009839  0.00019679  0.00277100
   0.33320485  0.33359031  0.06928982
   0.66644197  0.66711606  0.13601521
  -0.00079827  0.00159654  0.20376673
   0.32963536  0.34072927  0.27164816
   0.65397685  0.69204631  0.34013876
  -0.02356318  0.04712636  0.40824150
   0.30790947  0.38418105  0.47528638
   0.37057923  0.25884154  0.54850552
   0.24406107  0.51187786  0.56604186
Direct configuration=    32
  -0.00013939  0.00027877  0.00254707
   0.33316304  0.33367392  0.06907793
   0.66638047  0.66723906  0.13602083
  -0.00096835  0.00193670  0.20386587
   0.32922248  0.34155504  0.27160672
   0.65338078  0.69323844  0.34004356
  -0.02370283  0.04740566  0.40823183
   0.30758391  0.38483217  0.47532996
   0.37024697  0.25950605  0.54863569
   0.24618187  0.50763625  0.56634550
Direct configuration=    33
  -0.00021695  0.00043389  0.00212338
   0.33308394  0.33383213  0.06867703
   0.66626411  0.66747178  0.13603146
  -0.00129016  0.00258032  0.20405344
   0.32844128  0.34311743  0.27152831
   0.65225299  0.69549402  0.33986343
  -0.02396706  0.04793412  0.40821353
   0.30696794  0.38606412  0.47541241
   0.36961833  0.26076335  0.54888198
   0.25019454  0.49961093  0.56692001
Direct configuration=    34
  -0.00026016  0.00052032  0.00188810
   0.33304213  0.33391573  0.06851678
   0.66619898  0.66760203  0.13605421
  -0.00147784  0.00295568  0.20412807
   0.32804364  0.34391272  0.27151472
   0.65179879  0.69640243  0.33982678
  -0.02395872  0.04791744  0.40818501
   0.30665417  0.38669166  0.47544891
   0.36981905  0.26036191  0.54890059
   0.25148892  0.49702216  0.56724180
Direct configuration=    35
  -0.00033357  0.00066714  0.00148844
   0.33297112  0.33405776  0.06824458
   0.66608836  0.66782328  0.13609285
  -0.00179665  0.00359329  0.20425483
   0.32736819  0.34526361  0.27149165
   0.65102726  0.69794548  0.33976453
  -0.02394455  0.04788911  0.40813658
   0.30612119  0.38775762  0.47551091
   0.37015999  0.25968001  0.54893219
   0.25368761  0.49262479  0.56778840
Direct configuration=    36
  -0.00035898  0.00071796  0.00135008
   0.33294654  0.33410692  0.06815035
   0.66605006  0.66789988  0.13610622
  -0.00190702  0.00381404  0.20429872
   0.32713435  0.34573130  0.27148366
   0.65076015  0.69847969  0.33974298
  -0.02393965  0.04787930  0.40811981
   0.30593667  0.38812666  0.47553237
   0.37027803  0.25944393  0.54894313
   0.25444880  0.49110239  0.56797764
Direct configuration=    37
  -0.00034922  0.00069843  0.00140325
   0.33295598  0.33408803  0.06818656
   0.66606478  0.66787044  0.13610108
  -0.00186461  0.00372921  0.20428186
   0.32722421  0.34555158  0.27148673
   0.65086280  0.69827441  0.33975126
  -0.02394153  0.04788307  0.40812626
   0.30600758  0.38798485  0.47552412
   0.37023267  0.25953465  0.54893893
   0.25415630  0.49168740  0.56790492
Direct configuration=    38
  -0.00035642  0.00071283  0.00136405
   0.33294902  0.33410196  0.06815986
   0.66605393  0.66789214  0.13610487
  -0.00189588  0.00379175  0.20429429
   0.32715796  0.34568409  0.27148446
   0.65078712  0.69842576  0.33974515
  -0.02394014  0.04788029  0.40812151
   0.30595530  0.38808941  0.47553020
   0.37026612  0.25946777  0.54894203
   0.25437196  0.49125608  0.56795854
Direct configuration=    39
  -0.00035282  0.00070563  0.00138365
   0.33295250  0.33409500  0.06817321
   0.66605935  0.66788129  0.13610298
  -0.00188024  0.00376048  0.20428807
   0.32719108  0.34561784  0.27148560
   0.65082496  0.69835009  0.33974821
  -0.02394084  0.04788168  0.40812388
   0.30598144  0.38803713  0.47552716
   0.37024940  0.25950121  0.54894048
   0.25426413  0.49147174  0.56793173
Direct configuration=    40
  -0.00035545  0.00071091  0.00136929
   0.33294995  0.33410010  0.06816343
   0.66605538  0.66788924  0.13610437
  -0.00189170  0.00378340  0.20429263
   0.32716681  0.34566639  0.27148477
   0.65079723  0.69840554  0.33974597
  -0.02394033  0.04788066  0.40812214
   0.30596228  0.38807544  0.47552939
   0.37026165  0.25947670  0.54894161
   0.25434315  0.49131370  0.56795137
Direct configuration=    41
  -0.00040140  0.00080280  0.00115399
   0.33290516  0.33418967  0.06808887
   0.66597775  0.66804451  0.13609858
  -0.00211559  0.00423118  0.20429002
   0.32681329  0.34637342  0.27152583
   0.65055577  0.69888845  0.33978660
  -0.02383727  0.04767455  0.40809793
   0.30569158  0.38861685  0.47554350
   0.37011511  0.25976979  0.54898014
   0.25564457  0.48871087  0.56813950
Direct configuration=    42
  -0.00050033  0.00100066  0.00069041
   0.33280873  0.33438254  0.06792834
   0.66581059  0.66837882  0.13608611
  -0.00259767  0.00519533  0.20428441
   0.32605212  0.34789576  0.27161426
   0.65003588  0.69992824  0.33987407
  -0.02361538  0.04723076  0.40804581
   0.30510871  0.38978258  0.47557389
   0.36979958  0.26040085  0.54906310
   0.25844673  0.48310654  0.56854455
Direct configuration=    43
  -0.00069819  0.00139638 -0.00023674
   0.33261586  0.33476828  0.06760729
   0.66547628  0.66904744  0.13606118
  -0.00356181  0.00712363  0.20427318
   0.32452977  0.35094046  0.27179111
   0.64899610  0.70200781  0.34004902
  -0.02317159  0.04634317  0.40794157
   0.30394297  0.39211406  0.47563467
   0.36916852  0.26166296  0.54922903
   0.26405106  0.47189788  0.56935466
Direct configuration=    44
  -0.00060378  0.00120755  0.00020567
   0.33270789  0.33458422  0.06776049
   0.66563580  0.66872840  0.13607308
  -0.00310175  0.00620350  0.20427854
   0.32525619  0.34948762  0.27170672
   0.64949225  0.70101550  0.33996554
  -0.02338335  0.04676670  0.40799131
   0.30449923  0.39100155  0.47560567
   0.36946964  0.26106072  0.54914985
   0.26137683  0.47724634  0.56896810
Direct configuration=    45
  -0.00064123  0.00128246  0.00006466
   0.33265663  0.33468674  0.06765493
   0.66549067  0.66901866  0.13596632
  -0.00350673  0.00701347  0.20422612
   0.32478839  0.35042322  0.27179067
   0.64939287  0.70121426  0.34006063
  -0.02321894  0.04643788  0.40805485
   0.30425691  0.39148618  0.47558238
   0.36958477  0.26083046  0.54911038
   0.26254563  0.47490875  0.56919401
Direct configuration=    46
  -0.00065061  0.00130122  0.00002935
   0.33264380  0.33471241  0.06762850
   0.66545433  0.66909135  0.13593958
  -0.00360815  0.00721630  0.20421300
   0.32467124  0.35065752  0.27181170
   0.64936798  0.70126404  0.34008444
  -0.02317777  0.04635554  0.40807076
   0.30419623  0.39160754  0.47557655
   0.36961360  0.26077280  0.54910050
   0.26283832  0.47432336  0.56925058
Direct configuration=    47
  -0.00066937  0.00133874 -0.00004127
   0.33261812  0.33476375  0.06757563
   0.66538164  0.66923673  0.13588611
  -0.00381099  0.00762198  0.20418675
   0.32443694  0.35112612  0.27185375
   0.64931821  0.70136359  0.34013206
  -0.02309543  0.04619085  0.40810259
   0.30407487  0.39185027  0.47556489
   0.36967126  0.26065747  0.54908073
   0.26342371  0.47315258  0.56936373
Direct configuration=    48
  -0.00070104  0.00140208 -0.00009737
   0.33256890  0.33486221  0.06748636
   0.66524502  0.66950995  0.13577511
  -0.00415577  0.00831155  0.20414496
   0.32407885  0.35184231  0.27190658
   0.64930696  0.70138607  0.34020646
  -0.02299855  0.04599709  0.40817841
   0.30392224  0.39215551  0.47554761
   0.36946355  0.26107290  0.54909720
   0.26461880  0.47076241  0.56945963
Direct configuration=    49
  -0.00079605  0.00159210 -0.00026565
   0.33242121  0.33515757  0.06721857
   0.66483519  0.67032963  0.13544210
  -0.00519013  0.01038026  0.20401961
   0.32300456  0.35399088  0.27206510
   0.64927324  0.70145353  0.34042963
  -0.02270791  0.04541581  0.40840589
   0.30346438  0.39307125  0.47549576
   0.36884042  0.26231917  0.54914661
   0.26820405  0.46359189  0.56974734
Direct configuration=    50
  -0.00075546  0.00151091 -0.00019375
   0.33248431  0.33503138  0.06733299
   0.66501029  0.66997942  0.13558438
  -0.00474820  0.00949640  0.20407317
   0.32346355  0.35307291  0.27199738
   0.64928765  0.70142471  0.34033428
  -0.02283208  0.04566416  0.40830870
   0.30366000  0.39268000  0.47551791
   0.36910665  0.26178670  0.54912550
   0.26667226  0.46665549  0.56962441
Direct configuration=    51
  -0.00076926  0.00153851 -0.00021819
   0.33246286  0.33507428  0.06729409
   0.66495076  0.67009847  0.13553601
  -0.00489843  0.00979686  0.20405496
   0.32330752  0.35338496  0.27202040
   0.64928275  0.70143450  0.34036669
  -0.02278987  0.04557974  0.40834174
   0.30359350  0.39281300  0.47551038
   0.36901615  0.26196771  0.54913267
   0.26719297  0.46561405  0.56966620
Direct configuration=    52
  -0.00076229  0.00152457 -0.00020584
   0.33247370  0.33505261  0.06731374
   0.66498083  0.67003834  0.13556044
  -0.00482255  0.00964510  0.20406416
   0.32338633  0.35322735  0.27200877
   0.64928522  0.70142956  0.34035032
  -0.02281119  0.04562238  0.40832505
   0.30362709  0.39274582  0.47551418
   0.36906186  0.26187628  0.54912905
   0.26692996  0.46614007  0.56964509
Direct configuration=    53
  -0.00076622  0.00153243 -0.00021280
   0.33246759  0.33506482  0.06730266
   0.66496388  0.67007224  0.13554667
  -0.00486533  0.00973066  0.20405897
   0.32334190  0.35331621  0.27201533
   0.64928383  0.70143235  0.34035955
  -0.02279917  0.04559834  0.40833446
   0.30360815  0.39278370  0.47551204
   0.36903609  0.26192782  0.54913109
   0.26707824  0.46584351  0.56965699
Direct configuration=    54
  -0.00076714  0.00153428 -0.00021444
   0.33246615  0.33506770  0.06730005
   0.66495989  0.67008022  0.13554343
  -0.00487540  0.00975080  0.20405775
   0.32333144  0.35333713  0.27201687
   0.64928350  0.70143300  0.34036172
  -0.02279634  0.04559268  0.40833667
   0.30360369  0.39279261  0.47551153
   0.36903002  0.26193996  0.54913157
   0.26711315  0.46577370  0.56965980
Direct configuration=    55
  -0.00076630  0.00153260 -0.00021296
   0.33246745  0.33506509  0.06730242
   0.66496351  0.67007298  0.13554637
  -0.00486626  0.00973253  0.20405886
   0.32334093  0.35331815  0.27201547
   0.64928380  0.70143241  0.34035975
  -0.02279891  0.04559781  0.40833466
   0.30360774  0.39278452  0.47551199
   0.36903552  0.26192895  0.54913114
   0.26708148  0.46583703  0.56965725
Direct configuration=    56
  -0.00076672  0.00153344 -0.00021370
   0.33246680  0.33506640  0.06730124
   0.66496170  0.67007660  0.13554490
  -0.00487083  0.00974167  0.20405830
   0.32333618  0.35332764  0.27201617
   0.64928365  0.70143270  0.34036074
  -0.02279762  0.04559525  0.40833567
   0.30360572  0.39278857  0.47551176
   0.36903277  0.26193445  0.54913136
   0.26709732  0.46580537  0.56965852
Direct configuration=    57
  -0.00076646  0.00153292 -0.00021324
   0.33246720  0.33506559  0.06730197
   0.66496282  0.67007437  0.13554581
  -0.00486801  0.00973603  0.20405865
   0.32333911  0.35332178  0.27201574
   0.64928374  0.70143252  0.34036013
  -0.02279842  0.04559683  0.40833505
   0.30360696  0.39278607  0.47551190
   0.36903447  0.26193106  0.54913122
   0.26708754  0.46582491  0.56965774
Direct configuration=    58
  -0.00076659  0.00153318 -0.00021347
   0.33246701  0.33506598  0.06730161
   0.66496227  0.67007546  0.13554536
  -0.00486939  0.00973879  0.20405848
   0.32333768  0.35332465  0.27201595
   0.64928369  0.70143261  0.34036043
  -0.02279803  0.04559606  0.40833535
   0.30360635  0.39278729  0.47551184
   0.36903364  0.26193272  0.54913129
   0.26709233  0.46581534  0.56965812
Direct configuration=    59
  -0.00076653  0.00153305 -0.00021335
   0.33246711  0.33506579  0.06730179
   0.66496254  0.67007492  0.13554558
  -0.00486871  0.00973742  0.20405856
   0.32333839  0.35332322  0.27201584
   0.64928372  0.70143257  0.34036028
  -0.02279822  0.04559644  0.40833520
   0.30360666  0.39278669  0.47551187
   0.36903405  0.26193190  0.54913125
   0.26708995  0.46582009  0.56965793
Direct configuration=    60
  -0.00079610  0.00159219 -0.00020792
   0.33241190  0.33517620  0.06722632
   0.66481996  0.67036009  0.13546052
  -0.00515883  0.01031766  0.20403881
   0.32307931  0.35384138  0.27201303
   0.64933532  0.70132937  0.34040899
  -0.02278880  0.04557761  0.40838713
   0.30356954  0.39286092  0.47554109
   0.36910798  0.26178403  0.54909142
   0.26776868  0.46446265  0.56974558
Direct configuration=    61
  -0.00081944  0.00163888 -0.00020363
   0.33236832  0.33526337  0.06716673
   0.66470738  0.67058524  0.13539335
  -0.00538790  0.01077579  0.20402321
   0.32287476  0.35425048  0.27201080
   0.64937606  0.70124789  0.34044745
  -0.02278137  0.04556273  0.40842813
   0.30354024  0.39291952  0.47556416
   0.36916636  0.26166729  0.54905997
   0.26830455  0.46339090  0.56981479
Direct configuration=    62
  -0.00085027  0.00170054 -0.00018557
   0.33230923  0.33538153  0.06714950
   0.66459652  0.67080697  0.13537545
  -0.00554598  0.01109196  0.20401297
   0.32276642  0.35446716  0.27198040
   0.64941334  0.70117333  0.34044740
  -0.02284948  0.04569895  0.40843778
   0.30358695  0.39282609  0.47562145
   0.36913143  0.26173714  0.54904576
   0.26879080  0.46241841  0.56981982
Direct configuration=    63
  -0.00094276  0.00188552 -0.00013139
   0.33213198  0.33573604  0.06709780
   0.66426392  0.67147216  0.13532175
  -0.00602023  0.01204046  0.20398227
   0.32244140  0.35511720  0.27188920
   0.64952517  0.70094965  0.34044724
  -0.02305380  0.04610760  0.40846672
   0.30372710  0.39254581  0.47579333
   0.36902665  0.26194670  0.54900312
   0.27024954  0.45950093  0.56983493
Direct configuration=    64
  -0.00112773  0.00225546 -0.00002304
   0.33177747  0.33644505  0.06699440
   0.66359872  0.67280256  0.13521434
  -0.00696874  0.01393747  0.20392086
   0.32179136  0.35641729  0.27170679
   0.64974885  0.70050230  0.34044693
  -0.02346245  0.04692490  0.40852461
   0.30400738  0.39198524  0.47613708
   0.36881709  0.26236582  0.54891784
   0.27316701  0.45366598  0.56986515
Direct configuration=    65
  -0.00097010  0.00194020 -0.00011538
   0.33207958  0.33584084  0.06708252
   0.66416559  0.67166882  0.13530587
  -0.00616044  0.01232087  0.20397319
   0.32234531  0.35530937  0.27186223
   0.64955824  0.70088353  0.34044720
  -0.02311421  0.04622841  0.40847527
   0.30376853  0.39246295  0.47584414
   0.36899567  0.26200865  0.54899051
   0.27068078  0.45863844  0.56983940
Direct configuration=    66
  -0.00095410  0.00190821 -0.00012475
   0.33211024  0.33577953  0.06709146
   0.66422312  0.67155376  0.13531516
  -0.00607841  0.01215681  0.20397850
   0.32240153  0.35519694  0.27187801
   0.64953889  0.70092221  0.34044722
  -0.02307886  0.04615773  0.40847027
   0.30374429  0.39251143  0.47581441
   0.36901380  0.26197241  0.54899789
   0.27042847  0.45914305  0.56983679
Direct configuration=    67
  -0.00096694  0.00193388 -0.00011845
   0.33208486  0.33583029  0.06708698
   0.66417481  0.67165038  0.13530871
  -0.00614541  0.01229081  0.20397231
   0.32235716  0.35528567  0.27186646
   0.64955494  0.70089011  0.34044504
  -0.02310626  0.04621251  0.40847686
   0.30376807  0.39246386  0.47583761
   0.36904181  0.26191638  0.54898379
   0.27058591  0.45882819  0.56984565
Direct configuration=    68
  -0.00097289  0.00194578 -0.00011553
   0.33207310  0.33585381  0.06708490
   0.66415243  0.67169514  0.13530572
  -0.00617645  0.01235290  0.20396944
   0.32233661  0.35532679  0.27186110
   0.64956238  0.70087524  0.34044403
  -0.02311895  0.04623790  0.40847991
   0.30377909  0.39244182  0.47584837
   0.36905479  0.26189042  0.54897725
   0.27065885  0.45868229  0.56984976
Direct configuration=    69
  -0.00096758  0.00193517 -0.00011813
   0.33208358  0.33583283  0.06708675
   0.66417239  0.67165522  0.13530839
  -0.00614876  0.01229752  0.20397200
   0.32235494  0.35529012  0.27186588
   0.64955575  0.70088850  0.34044493
  -0.02310763  0.04621526  0.40847719
   0.30376926  0.39246148  0.47583878
   0.36904321  0.26191357  0.54898308
   0.27059379  0.45881241  0.56984610
Direct configuration=    70
  -0.00097024  0.00194047 -0.00011683
   0.33207834  0.33584332  0.06708583
   0.66416241  0.67167518  0.13530705
  -0.00616261  0.01232521  0.20397072
   0.32234577  0.35530846  0.27186349
   0.64955907  0.70088187  0.34044448
  -0.02311329  0.04622658  0.40847855
   0.30377418  0.39245165  0.47584357
   0.36904900  0.26190200  0.54898017
   0.27062632  0.45874735  0.56984793
Direct configuration=    71
  -0.00096906  0.00193811 -0.00011741
   0.33208067  0.33583866  0.06708624
   0.66416684  0.67166631  0.13530765
  -0.00615645  0.01231291  0.20397129
   0.32234985  0.35530031  0.27186455
   0.64955759  0.70088482  0.34044468
  -0.02311077  0.04622155  0.40847795
   0.30377199  0.39245602  0.47584144
   0.36904643  0.26190714  0.54898146
   0.27061187  0.45877626  0.56984712
Direct configuration=    72
  -0.00096930  0.00193860 -0.00011729
   0.33208019  0.33583962  0.06708615
   0.66416593  0.67166813  0.13530752
  -0.00615772  0.01231544  0.20397118
   0.32234901  0.35530198  0.27186433
   0.64955789  0.70088421  0.34044464
  -0.02311129  0.04622258  0.40847807
   0.30377244  0.39245512  0.47584188
   0.36904696  0.26190608  0.54898120
   0.27061484  0.45877031  0.56984728
Direct configuration=    73
  -0.00096964  0.00193927 -0.00011712
   0.33207952  0.33584095  0.06708604
   0.66416466  0.67167067  0.13530735
  -0.00615948  0.01231896  0.20397101
   0.32234784  0.35530432  0.27186403
   0.64955832  0.70088337  0.34044458
  -0.02311201  0.04622402  0.40847825
   0.30377307  0.39245387  0.47584249
   0.36904769  0.26190461  0.54898082
   0.27061898  0.45876204  0.56984752