<?xml version="1.0" encoding="ISO-8859-1"?>
<modeling>
 <generator>
  <i name="program" type="string">vasp </i>
  <i name="version" type="string">6.3.2  </i>
  <i name="subversion" type="string">27Jun22 (build Aug 17 2022 15:43:34) complex                          parallel </i>
  <i name="platform" type="string">tv2STDVTST </i>
  <i name="date" type="string">2025 01 24 </i>
  <i name="time" type="string">21:50:22 </i>
 </generator>
 <incar>
  <i type="int" name="ISTART">     0</i>
  <i type="string" name="PREC">Normal</i>
  <i type="int" name="ISPIN">     2</i>
  <i type="int" name="ICHARG">     2</i>
  <i type="int" name="IBRION">     2</i>
  <i name="EDIFF">      0.00020000</i>
  <i name="EDIFFG">     -0.03000000</i>
  <i type="int" name="NSW">   800</i>
  <i type="int" name="ISIF">     2</i>
  <i type="int" name="ISYM">     1</i>
  <i name="ENCUT">    400.00000000</i>
  <i name="POTIM">      0.50000000</i>
  <i type="logical" name="LREAL"> F  </i>
  <i type="int" name="ISMEAR">     1</i>
  <i name="SIGMA">      0.20000000</i>
  <i type="logical" name="LWAVE"> F  </i>
  <i type="logical" name="LCHARG"> F  </i>
  <i type="string" name="GGA">PE</i>
  <i type="int" name="IDIPOL">     3</i>
  <i type="int" name="IVDW">    11</i>
 </incar>
 <primitive_cell>
  <structure name="primitive_cell" >
   <crystal>
    <varray name="basis" >
     <v>      -1.28339887      -2.22291204       0.00000000 </v>
     <v>       2.56679773       0.00000000       0.00000000 </v>
     <v>       0.00000000       0.00000000      27.57468987 </v>
    </varray>
    <i name="volume">    157.33471666 </i>
    <varray name="rec_basis" >
     <v>       0.00000000      -0.44986035       0.00000000 </v>
     <v>       0.38959050      -0.22493018       0.00000000 </v>
     <v>       0.00000000       0.00000000       0.03626514 </v>
    </varray>
   </crystal>
   <varray name="positions" >
    <v>       0.00000000       0.00000000       0.00000000 </v>
    <v>       0.66666667       0.33333333       0.07600381 </v>
    <v>       0.33333333       0.66666667       0.15200763 </v>
    <v>       0.00000000       0.00000000       0.22801144 </v>
    <v>       0.66666667       0.33333333       0.30401525 </v>
    <v>       0.33333333       0.66666667       0.38001907 </v>
    <v>       0.00000000       0.00000000       0.45602288 </v>
   </varray>
  </structure>
  <varray name="primitive_index" >
   <v type="int" >        1 </v>
   <v type="int" >       10 </v>
   <v type="int" >       27 </v>
   <v type="int" >       28 </v>
   <v type="int" >       37 </v>
   <v type="int" >       54 </v>
   <v type="int" >       55 </v>
  </varray>
 </primitive_cell>
 <kpoints>
  <generation param="Monkhorst-Pack">
   <v type="int" name="divisions">       3        3        1 </v>
   <v name="usershift">      0.00000000       0.00000000       0.00000000 </v>
   <v name="genvec1">      0.33333333       0.00000000       0.00000000 </v>
   <v name="genvec2">      0.00000000       0.33333333       0.00000000 </v>
   <v name="genvec3">      0.00000000       0.00000000       1.00000000 </v>
   <v name="shift">      0.00000000       0.00000000       0.00000000 </v>
  </generation>
  <varray name="kpointlist" >
   <v>       0.00000000       0.00000000       0.00000000 </v>
   <v>       0.33333333       0.00000000       0.00000000 </v>
   <v>      -0.33333333       0.33333333       0.00000000 </v>
  </varray>
  <varray name="weights" >
   <v>       0.11111111 </v>
   <v>       0.66666667 </v>
   <v>       0.22222222 </v>
  </varray>
 </kpoints>
 <parameters>
  <separator name="general" >
   <i type="string" name="SYSTEM">unknown system</i>
   <i type="logical" name="LCOMPAT"> F  </i>
  </separator>
  <separator name="electronic" >
   <i type="string" name="PREC">normal</i>
   <i name="ENMAX">    400.00000000</i>
   <i name="ENAUG">    586.98000000</i>
   <i name="EDIFF">      0.00020000</i>
   <i type="int" name="IALGO">    38</i>
   <i type="int" name="IWAVPR">    11</i>
   <i type="int" name="NBANDS">   448</i>
   <i type="int" name="NBANDSLOW">    -1</i>
   <i type="int" name="NBANDSHIGH">    -1</i>
   <i name="NELECT">    693.00000000</i>
   <i type="int" name="TURBO">     0</i>
   <i type="int" name="IRESTART">     0</i>
   <i type="int" name="NREBOOT">     0</i>
   <i type="int" name="NMIN">     0</i>
   <i name="EREF">      0.00000000</i>
   <separator name="electronic smearing" >
    <i type="int" name="ISMEAR">     1</i>
    <i name="SIGMA">      0.20000000</i>
    <i name="KSPACING">      0.50000000</i>
    <i type="logical" name="KGAMMA"> T  </i>
    <i type="logical" name="KBLOWUP"> T  </i>
   </separator>
   <separator name="electronic projectors" >
    <i type="logical" name="LREAL"> F  </i>
    <v name="ROPT">      0.00000000</v>
    <i type="int" name="LMAXPAW">  -100</i>
    <i type="int" name="LMAXMIX">     2</i>
    <i type="logical" name="NLSPLINE"> F  </i>
   </separator>
   <separator name="electronic startup" >
    <i type="int" name="ISTART">     0</i>
    <i type="int" name="ICHARG">     2</i>
    <i type="int" name="INIWAV">     1</i>
   </separator>
   <separator name="electronic spin" >
    <i type="int" name="ISPIN">     2</i>
    <i type="logical" name="LNONCOLLINEAR"> F  </i>
    <v name="MAGMOM">      1.00000000      1.00000000      1.00000000      1.00000000      1.00000000      1.00000000      1.00000000      1.00000000      1.00000000      1.00000000      1.00000000      1.00000000      1.00000000      1.00000000      1.00000000      1.00000000      1.00000000      1.00000000      1.00000000      1.00000000
      1.00000000      1.00000000      1.00000000      1.00000000      1.00000000      1.00000000      1.00000000      1.00000000      1.00000000      1.00000000      1.00000000      1.00000000      1.00000000      1.00000000      1.00000000      1.00000000      1.00000000      1.00000000      1.00000000      1.00000000
      1.00000000      1.00000000      1.00000000      1.00000000      1.00000000      1.00000000      1.00000000      1.00000000      1.00000000      1.00000000      1.00000000      1.00000000      1.00000000      1.00000000      1.00000000      1.00000000      1.00000000      1.00000000      1.00000000      1.00000000
      1.00000000      1.00000000      1.00000000</v>
    <i name="NUPDOWN">     -1.00000000</i>
    <i type="logical" name="LSORBIT"> F  </i>
    <v name="SAXIS">      0.00000000      0.00000000      1.00000000</v>
    <i type="logical" name="LSPIRAL"> F  </i>
    <v name="QSPIRAL">      0.00000000      0.00000000      0.00000000</v>
    <i type="logical" name="LZEROZ"> F  </i>
   </separator>
   <separator name="electronic exchange-correlation" >
    <i type="logical" name="LASPH"> F  </i>
    <i type="logical" name="LMETAGGA"> F  </i>
   </separator>
   <separator name="electronic convergence" >
    <i type="int" name="NELM">    60</i>
    <i type="int" name="NELMDL">    -5</i>
    <i type="int" name="NELMIN">     2</i>
    <i name="ENINI">    400.00000000</i>
    <separator name="electronic convergence detail" >
     <i type="logical" name="LDIAG"> T  </i>
     <i type="logical" name="LSUBROT"> F  </i>
     <i name="WEIMIN">      0.00100000</i>
     <i name="EBREAK">      0.00000011</i>
     <i name="DEPER">      0.30000000</i>
     <i type="int" name="NRMM">     4</i>
     <i name="TIME">      0.40000000</i>
    </separator>
   </separator>
   <separator name="electronic mixer" >
    <i name="AMIX">      0.40000000</i>
    <i name="BMIX">      1.00000000</i>
    <i name="AMIN">      0.10000000</i>
    <i name="AMIX_MAG">      1.60000000</i>
    <i name="BMIX_MAG">      1.00000000</i>
    <separator name="electronic mixer details" >
     <i type="int" name="IMIX">     4</i>
     <i type="logical" name="MIXFIRST"> F  </i>
     <i type="int" name="MAXMIX">   -45</i>
     <i name="WC">    100.00000000</i>
     <i type="int" name="INIMIX">     1</i>
     <i type="int" name="MIXPRE">     1</i>
     <i type="int" name="MREMOVE">     5</i>
    </separator>
   </separator>
   <separator name="electronic dipolcorrection" >
    <i type="logical" name="LDIPOL"> F  </i>
    <i type="logical" name="LMONO"> F  </i>
    <i type="int" name="IDIPOL">     3</i>
    <i name="EPSILON">      1.00000000</i>
    <v name="DIPOL">   -100.00000000   -100.00000000   -100.00000000</v>
    <i name="EFIELD">      0.00000000</i>
   </separator>
  </separator>
  <separator name="grids" >
   <i type="int" name="NGX">    40</i>
   <i type="int" name="NGY">    40</i>
   <i type="int" name="NGZ">   140</i>
   <i type="int" name="NGXF">    80</i>
   <i type="int" name="NGYF">    80</i>
   <i type="int" name="NGZF">   280</i>
   <i type="logical" name="ADDGRID"> F  </i>
  </separator>
  <separator name="ionic" >
   <i type="int" name="NSW">   800</i>
   <i type="int" name="IBRION">     2</i>
   <i type="int" name="MDALGO">     0</i>
   <i type="int" name="ISIF">     2</i>
   <i name="PSTRESS">      0.00000000</i>
   <i name="EDIFFG">     -0.03000000</i>
   <i type="int" name="NFREE">     1</i>
   <i name="POTIM">      0.50000000</i>
   <i name="SMASS">     -3.00000000</i>
   <i name="SCALEE">      1.00000000</i>
  </separator>
  <separator name="ionic md" >
   <i name="TEBEG">      0.00010000</i>
   <i name="TEEND">      0.00010000</i>
   <i type="int" name="NBLOCK">     1</i>
   <i type="int" name="KBLOCK">   800</i>
   <i type="int" name="NPACO">   256</i>
   <i name="APACO">     10.00000000</i>
  </separator>
  <separator name="symmetry" >
   <i type="int" name="ISYM">     1</i>
   <i name="SYMPREC">      0.00001000</i>
  </separator>
  <separator name="dos" >
   <i type="int" name="LORBIT">     0</i>
   <v name="RWIGS">     -1.00000000</v>
   <i type="int" name="NEDOS">   301</i>
   <i name="EMIN">     10.00000000</i>
   <i name="EMAX">    -10.00000000</i>
   <i name="EFERMI">      0.00000000</i>
  </separator>
  <separator name="writing" >
   <i type="int" name="NWRITE">     2</i>
   <i type="logical" name="LWAVE"> F  </i>
   <i type="logical" name="LDOWNSAMPLE"> F  </i>
   <i type="logical" name="LCHARG"> F  </i>
   <i type="logical" name="LPARD"> F  </i>
   <i type="logical" name="LVTOT"> F  </i>
   <i type="logical" name="LVHAR"> F  </i>
   <i type="logical" name="LELF"> F  </i>
   <i type="logical" name="LOPTICS"> F  </i>
   <v name="STM">      0.00000000      0.00000000      0.00000000      0.00000000      0.00000000      0.00000000      0.00000000</v>
  </separator>
  <separator name="performance" >
   <i type="int" name="NPAR">     4</i>
   <i type="int" name="NSIM">     4</i>
   <i type="int" name="NBLK">    -1</i>
   <i type="logical" name="LPLANE"> T  </i>
   <i type="logical" name="LSCALAPACK"> T  </i>
   <i type="logical" name="LSCAAWARE"> F  </i>
   <i type="logical" name="LSCALU"> F  </i>
   <i type="logical" name="LASYNC"> F  </i>
   <i type="logical" name="LORBITALREAL"> F  </i>
  </separator>
  <separator name="miscellaneous" >
   <i type="int" name="IDIOT">     3</i>
   <i type="int" name="PHON_NSTRUCT">    -1</i>
   <i type="logical" name="LMUSIC"> F  </i>
   <v name="POMASS">     63.54600000</v>
   <v name="DARWINR">      0.00000000</v>
   <v name="DARWINV">      1.00000000</v>
   <i type="logical" name="LCORR"> T  </i>
  </separator>
  <i type="logical" name="GGA_COMPAT"> T  </i>
  <i type="logical" name="LBERRY"> F  </i>
  <i type="int" name="ICORELEVEL">     0</i>
  <i type="logical" name="LDAU"> F  </i>
  <i type="int" name="I_CONSTRAINED_M">     0</i>
  <separator name="electronic exchange-correlation" >
   <i type="string" name="GGA">PE</i>
   <i type="int" name="VOSKOWN">     0</i>
   <i type="logical" name="LHFCALC"> F  </i>
   <i type="string" name="PRECFOCK"></i>
   <i type="logical" name="LSYMGRAD"> F  </i>
   <i type="logical" name="LHFONE"> F  </i>
   <i type="logical" name="LRHFCALC"> F  </i>
   <i type="logical" name="LTHOMAS"> F  </i>
   <i type="logical" name="LMODELHF"> F  </i>
   <i type="logical" name="LFOCKACE"> F  </i>
   <i name="ENCUT4O">     -1.00000000</i>
   <i type="int" name="EXXOEP">     0</i>
   <i type="int" name="FOURORBIT">     0</i>
   <i name="AEXX">      0.00000000</i>
   <i name="HFALPHA">      0.00000000</i>
   <i name="MCALPHA">      0.00000000</i>
   <i name="ALDAX">      1.00000000</i>
   <i name="AGGAX">      1.00000000</i>
   <i name="ALDAC">      1.00000000</i>
   <i name="AGGAC">      1.00000000</i>
   <i type="int" name="NKREDX">     1</i>
   <i type="int" name="NKREDY">     1</i>
   <i type="int" name="NKREDZ">     1</i>
   <i type="logical" name="SHIFTRED"> F  </i>
   <i type="logical" name="ODDONLY"> F  </i>
   <i type="logical" name="EVENONLY"> F  </i>
   <i type="int" name="LMAXFOCK">     0</i>
   <i type="int" name="NMAXFOCKAE">     0</i>
   <i type="logical" name="LFOCKAEDFT"> F  </i>
   <i name="HFSCREEN">      0.00000000</i>
   <i name="HFSCREENC">      0.00000000</i>
   <i type="int" name="NBANDSGWLOW">     0</i>
  </separator>
  <separator name="vdW DFT" >
   <i type="logical" name="LUSE_VDW"> F  </i>
   <i name="Zab_VDW">     -0.84910000</i>
   <i name="PARAM1">      0.12340000</i>
   <i name="PARAM2">      1.00000000</i>
   <i name="PARAM3">      0.00000000</i>
  </separator>
  <separator name="model GW" >
   <i type="int" name="MODEL_GW">     0</i>
   <i name="MODEL_EPS0">     13.48583286</i>
   <i name="MODEL_ALPHA">      1.00000000</i>
  </separator>
  <separator name="linear response parameters" >
   <i type="logical" name="LEPSILON"> F  </i>
   <i type="logical" name="LRPA"> F  </i>
   <i type="logical" name="LNABLA"> F  </i>
   <i type="logical" name="LVEL"> F  </i>
   <i name="CSHIFT">      0.10000000</i>
   <i name="OMEGAMAX">     -1.00000000</i>
   <i name="DEG_THRESHOLD">      0.00200000</i>
   <i name="RTIME">     -0.10000000</i>
   <i name="WPLASMAI">      0.00000000</i>
   <v name="DFIELD">      0.00000000      0.00000000      0.00000000</v>
   <v name="WPLASMA">      0.00000000      0.00000000      0.00000000      0.00000000      0.00000000      0.00000000      0.00000000      0.00000000      0.00000000</v>
  </separator>
  <separator name="orbital magnetization" >
   <i type="logical" name="NUCIND"> F  </i>
   <v name="MAGPOS">      0.00000000      0.00000000      0.00000000</v>
   <i type="logical" name="LNICSALL"> T  </i>
   <i type="logical" name="ORBITALMAG"> F  </i>
   <i type="logical" name="LMAGBLOCH"> F  </i>
   <i type="logical" name="LCHIMAG"> F  </i>
   <i type="logical" name="LGAUGE"> T  </i>
   <i type="int" name="MAGATOM">     0</i>
   <v name="MAGDIPOL">      0.00000000      0.00000000      0.00000000</v>
   <v name="AVECCONST">      0.00000000      0.00000000      0.00000000</v>
  </separator>
  <separator name="response functions" >
   <i type="logical" name="LFINITE_TEMPERATURE"> F  </i>
   <i type="logical" name="LADDER"> F  </i>
   <i type="logical" name="LRPAFORCE"> F  </i>
   <i type="logical" name="LFXC"> F  </i>
   <i type="logical" name="LHARTREE"> T  </i>
   <i type="int" name="IBSE">     0</i>
   <v type="int" name="KPOINT">    -1     0     0     0</v>
   <i type="logical" name="LTCTC"> F  </i>
   <i type="logical" name="LTCTE"> F  </i>
   <i type="logical" name="LTETE"> F  </i>
   <i type="logical" name="LTRIPLET"> F  </i>
   <i type="logical" name="LFXCEPS"> F  </i>
   <i type="logical" name="LFXHEG"> F  </i>
   <i type="int" name="NATURALO">     2</i>
   <i type="logical" name="LHOLEGF"> F  </i>
   <i type="logical" name="L2ORDER"> F  </i>
   <i type="logical" name="LDMP1"> F  </i>
   <i type="logical" name="LMP2LT"> F  </i>
   <i type="logical" name="LSMP2LT"> F  </i>
   <i type="logical" name="LGWLF"> F  </i>
   <i name="ENCUTGW">     -2.00000000</i>
   <i name="ENCUTGWSOFT">     -2.00000000</i>
   <i name="ENCUTLF">     -1.00000000</i>
   <i type="logical" name="LESF_SPLINES"> F  </i>
   <i type="int" name="LMAXMP2">    -1</i>
   <i name="SCISSOR">      0.00000000</i>
   <i type="int" name="NOMEGA">     0</i>
   <i type="int" name="NOMEGAR">     0</i>
   <i type="int" name="NBANDSGW">    -1</i>
   <i type="int" name="NBANDSO">    -1</i>
   <i type="int" name="NBANDSV">    -1</i>
   <i type="int" name="NELMGW">     1</i>
   <i type="int" name="NELMHF">     1</i>
   <i type="int" name="DIM">     3</i>
   <i type="int" name="IESPILON">     4</i>
   <i type="int" name="ANTIRES">     0</i>
   <i name="OMEGAMAX">    -30.00000000</i>
   <i name="OMEGAMIN">    -30.00000000</i>
   <i name="OMEGATL">   -200.00000000</i>
   <i type="int" name="OMEGAGRID">     0</i>
   <i name="CSHIFT">     -0.10000000</i>
   <i type="logical" name="LSELFENERGY"> F  </i>
   <i type="logical" name="LSPECTRAL"> F  </i>
   <i type="logical" name="LSPECTRALGW"> F  </i>
   <i type="logical" name="LSINGLES"> F  </i>
   <i type="logical" name="LFERMIGW"> F  </i>
   <i type="logical" name="ODDONLYGW"> F  </i>
   <i type="logical" name="EVENONLYGW"> F  </i>
   <i type="int" name="NKREDLFX">     1</i>
   <i type="int" name="NKREDLFY">     1</i>
   <i type="int" name="NKREDLFZ">     1</i>
   <i type="int" name="MAXMEM">  2800</i>
   <i type="int" name="TELESCOPE">     0</i>
   <i type="int" name="NTAUPAR">    -1</i>
   <i type="int" name="NOMEGAPAR">    -1</i>
   <i name="DAMP_NEWTON">      0.80000001</i>
   <i name="LAMBDA">      1.00000000</i>
  </separator>
  <separator name="External order field" >
   <i name="OFIELD_KAPPA">      0.00000000</i>
   <v name="OFIELD_K">      0.00000000      0.00000000      0.00000000</v>
   <i name="OFIELD_Q6_NEAR">      0.00000000</i>
   <i name="OFIELD_Q6_FAR">      0.00000000</i>
   <i name="OFIELD_A">      0.00000000</i>
  </separator>
  <separator name="optional k-points parameters" >
   <i type="int" name="KPOINTS_OPT_MODE">     1</i>
   <i type="logical" name="LKPOINTS_OPT"> F  </i>
  </separator>
 </parameters>
 <atominfo>
  <atoms>      63 </atoms>
  <types>       1 </types>
  <array name="atoms" >
   <dimension dim="1">ion</dimension>
   <field type="string">element</field>
   <field type="int">atomtype</field>
   <set>
    <rc><c>Cu</c><c>   1</c></rc>
    <rc><c>Cu</c><c>   1</c></rc>
    <rc><c>Cu</c><c>   1</c></rc>
    <rc><c>Cu</c><c>   1</c></rc>
    <rc><c>Cu</c><c>   1</c></rc>
    <rc><c>Cu</c><c>   1</c></rc>
    <rc><c>Cu</c><c>   1</c></rc>
    <rc><c>Cu</c><c>   1</c></rc>
    <rc><c>Cu</c><c>   1</c></rc>
    <rc><c>Cu</c><c>   1</c></rc>
    <rc><c>Cu</c><c>   1</c></rc>
    <rc><c>Cu</c><c>   1</c></rc>
    <rc><c>Cu</c><c>   1</c></rc>
    <rc><c>Cu</c><c>   1</c></rc>
    <rc><c>Cu</c><c>   1</c></rc>
    <rc><c>Cu</c><c>   1</c></rc>
    <rc><c>Cu</c><c>   1</c></rc>
    <rc><c>Cu</c><c>   1</c></rc>
    <rc><c>Cu</c><c>   1</c></rc>
    <rc><c>Cu</c><c>   1</c></rc>
    <rc><c>Cu</c><c>   1</c></rc>
    <rc><c>Cu</c><c>   1</c></rc>
    <rc><c>Cu</c><c>   1</c></rc>
    <rc><c>Cu</c><c>   1</c></rc>
    <rc><c>Cu</c><c>   1</c></rc>
    <rc><c>Cu</c><c>   1</c></rc>
    <rc><c>Cu</c><c>   1</c></rc>
    <rc><c>Cu</c><c>   1</c></rc>
    <rc><c>Cu</c><c>   1</c></rc>
    <rc><c>Cu</c><c>   1</c></rc>
    <rc><c>Cu</c><c>   1</c></rc>
    <rc><c>Cu</c><c>   1</c></rc>
    <rc><c>Cu</c><c>   1</c></rc>
    <rc><c>Cu</c><c>   1</c></rc>
    <rc><c>Cu</c><c>   1</c></rc>
    <rc><c>Cu</c><c>   1</c></rc>
    <rc><c>Cu</c><c>   1</c></rc>
    <rc><c>Cu</c><c>   1</c></rc>
    <rc><c>Cu</c><c>   1</c></rc>
    <rc><c>Cu</c><c>   1</c></rc>
    <rc><c>Cu</c><c>   1</c></rc>
    <rc><c>Cu</c><c>   1</c></rc>
    <rc><c>Cu</c><c>   1</c></rc>
    <rc><c>Cu</c><c>   1</c></rc>
    <rc><c>Cu</c><c>   1</c></rc>
    <rc><c>Cu</c><c>   1</c></rc>
    <rc><c>Cu</c><c>   1</c></rc>
    <rc><c>Cu</c><c>   1</c></rc>
    <rc><c>Cu</c><c>   1</c></rc>
    <rc><c>Cu</c><c>   1</c></rc>
    <rc><c>Cu</c><c>   1</c></rc>
    <rc><c>Cu</c><c>   1</c></rc>
    <rc><c>Cu</c><c>   1</c></rc>
    <rc><c>Cu</c><c>   1</c></rc>
    <rc><c>Cu</c><c>   1</c></rc>
    <rc><c>Cu</c><c>   1</c></rc>
    <rc><c>Cu</c><c>   1</c></rc>
    <rc><c>Cu</c><c>   1</c></rc>
    <rc><c>Cu</c><c>   1</c></rc>
    <rc><c>Cu</c><c>   1</c></rc>
    <rc><c>Cu</c><c>   1</c></rc>
    <rc><c>Cu</c><c>   1</c></rc>
    <rc><c>Cu</c><c>   1</c></rc>
   </set>
  </array>
  <array name="atomtypes" >
   <dimension dim="1">type</dimension>
   <field type="int">atomspertype</field>
   <field type="string">element</field>
   <field>mass</field>
   <field>valence</field>
   <field type="string">pseudopotential</field>
   <set>
    <rc><c>  63</c><c>Cu</c><c>     63.54600000</c><c>     11.00000000</c><c>  PAW_PBE Cu 22Jun2005                  </c></rc>
   </set>
  </array>
 </atominfo>
 <structure name="initialpos" >
  <crystal>
   <varray name="basis" >
    <v>       7.70039320       0.00000000       0.00000000 </v>
    <v>       3.85019660       6.66873613       0.00000000 </v>
    <v>       0.00000000       0.00000000      27.57468987 </v>
   </varray>
   <i name="volume">   1416.01245038 </i>
   <varray name="rec_basis" >
    <v>       0.12986350      -0.07497673       0.00000000 </v>
    <v>       0.00000000       0.14995345       0.00000000 </v>
    <v>       0.00000000       0.00000000       0.03626514 </v>
   </varray>
  </crystal>
  <varray name="positions" >
   <v>       0.00000000       0.00000000       0.00000000 </v>
   <v>       0.00000000       0.33333333       0.00000000 </v>
   <v>       1.00000000       0.66666667       0.00000000 </v>
   <v>       0.33333333       0.00000000       0.00000000 </v>
   <v>       0.33333333       0.33333333       0.00000000 </v>
   <v>       0.33333333       0.66666667       0.00000000 </v>
   <v>       0.66666667       0.00000000       0.00000000 </v>
   <v>       0.66666667       0.33333333       0.00000000 </v>
   <v>       0.66666667       0.66666667       0.00000000 </v>
   <v>       0.11111111       0.11111111       0.07600381 </v>
   <v>       0.11111111       0.44444444       0.07600381 </v>
   <v>       0.11111111       0.77777778       0.07600381 </v>
   <v>       0.44444444       0.11111111       0.07600381 </v>
   <v>       0.44444444       0.44444444       0.07600381 </v>
   <v>       0.44444444       0.77777778       0.07600381 </v>
   <v>       0.77777778       0.11111111       0.07600381 </v>
   <v>       0.77777778       0.44444444       0.07600381 </v>
   <v>       0.77777778       0.77777778       0.07600381 </v>
   <v>       0.22222222       0.22222222       0.15200763 </v>
   <v>       0.22222222       0.55555556       0.15200763 </v>
   <v>       0.22222222       0.88888889       0.15200763 </v>
   <v>       0.55555556       0.22222222       0.15200763 </v>
   <v>       0.55555556       0.55555556       0.15200763 </v>
   <v>       0.55555556       0.88888889       0.15200763 </v>
   <v>       0.88888889       0.22222222       0.15200763 </v>
   <v>       0.88888889       0.55555556       0.15200763 </v>
   <v>       0.88888889       0.88888889       0.15200763 </v>
   <v>       0.00000000       0.00000000       0.22801144 </v>
   <v>       0.00000000       0.33333333       0.22801144 </v>
   <v>       1.00000000       0.66666667       0.22801144 </v>
   <v>       0.33333333       0.00000000       0.22801144 </v>
   <v>       0.33333333       0.33333333       0.22801144 </v>
   <v>       0.33333333       0.66666667       0.22801144 </v>
   <v>       0.66666667       0.00000000       0.22801144 </v>
   <v>       0.66666667       0.33333333       0.22801144 </v>
   <v>       0.66666667       0.66666667       0.22801144 </v>
   <v>       0.11111111       0.11111111       0.30401525 </v>
   <v>       0.11111111       0.44444444       0.30401525 </v>
   <v>       0.11111111       0.77777778       0.30401525 </v>
   <v>       0.44444444       0.11111111       0.30401525 </v>
   <v>       0.44444444       0.44444444       0.30401525 </v>
   <v>       0.44444444       0.77777778       0.30401525 </v>
   <v>       0.77777778       0.11111111       0.30401525 </v>
   <v>       0.77777778       0.44444444       0.30401525 </v>
   <v>       0.77777778       0.77777778       0.30401525 </v>
   <v>       0.22222222       0.22222222       0.38001907 </v>
   <v>       0.22222222       0.55555556       0.38001907 </v>
   <v>       0.22222222       0.88888889       0.38001907 </v>
   <v>       0.55555556       0.22222222       0.38001907 </v>
   <v>       0.55555556       0.55555556       0.38001907 </v>
   <v>       0.55555556       0.88888889       0.38001907 </v>
   <v>       0.88888889       0.22222222       0.38001907 </v>
   <v>       0.88888889       0.55555556       0.38001907 </v>
   <v>       0.88888889       0.88888889       0.38001907 </v>
   <v>       0.00000000       0.00000000       0.45602288 </v>
   <v>       0.00000000       0.33333333       0.45602288 </v>
   <v>       1.00000000       0.66666667       0.45602288 </v>
   <v>       0.33333333       0.00000000       0.45602288 </v>
   <v>       0.33333333       0.33333333       0.45602288 </v>
   <v>       0.33333333       0.66666667       0.45602288 </v>
   <v>       0.66666667       0.00000000       0.45602288 </v>
   <v>       0.66666667       0.33333333       0.45602288 </v>
   <v>       0.66666667       0.66666667       0.45602288 </v>
  </varray>
  <varray name="selective"  type="logical" >
   <v type="logical" >  F  F  F </v>
   <v type="logical" >  F  F  F </v>
   <v type="logical" >  F  F  F </v>
   <v type="logical" >  F  F  F </v>
   <v type="logical" >  F  F  F </v>
   <v type="logical" >  F  F  F </v>
   <v type="logical" >  F  F  F </v>
   <v type="logical" >  F  F  F </v>
   <v type="logical" >  F  F  F </v>
   <v type="logical" >  F  F  F </v>
   <v type="logical" >  F  F  F </v>
   <v type="logical" >  F  F  F </v>
   <v type="logical" >  F  F  F </v>
   <v type="logical" >  F  F  F </v>
   <v type="logical" >  F  F  F </v>
   <v type="logical" >  F  F  F </v>
   <v type="logical" >  F  F  F </v>
   <v type="logical" >  F  F  F </v>
   <v type="logical" >  T  T  T </v>
   <v type="logical" >  T  T  T </v>
   <v type="logical" >  T  T  T </v>
   <v type="logical" >  T  T  T </v>
   <v type="logical" >  T  T  T </v>
   <v type="logical" >  T  T  T </v>
   <v type="logical" >  T  T  T </v>
   <v type="logical" >  T  T  T </v>
   <v type="logical" >  T  T  T </v>
   <v type="logical" >  T  T  T </v>
   <v type="logical" >  T  T  T </v>
   <v type="logical" >  T  T  T </v>
   <v type="logical" >  T  T  T </v>
   <v type="logical" >  T  T  T </v>
   <v type="logical" >  T  T  T </v>
   <v type="logical" >  T  T  T </v>
   <v type="logical" >  T  T  T </v>
   <v type="logical" >  T  T  T </v>
   <v type="logical" >  T  T  T </v>
   <v type="logical" >  T  T  T </v>
   <v type="logical" >  T  T  T </v>
   <v type="logical" >  T  T  T </v>
   <v type="logical" >  T  T  T </v>
   <v type="logical" >  T  T  T </v>
   <v type="logical" >  T  T  T </v>
   <v type="logical" >  T  T  T </v>
   <v type="logical" >  T  T  T </v>
   <v type="logical" >  T  T  T </v>
   <v type="logical" >  T  T  T </v>
   <v type="logical" >  T  T  T </v>
   <v type="logical" >  T  T  T </v>
   <v type="logical" >  T  T  T </v>
   <v type="logical" >  T  T  T </v>
   <v type="logical" >  T  T  T </v>
   <v type="logical" >  T  T  T </v>
   <v type="logical" >  T  T  T </v>
   <v type="logical" >  T  T  T </v>
   <v type="logical" >  T  T  T </v>
   <v type="logical" >  T  T  T </v>
   <v type="logical" >  T  T  T </v>
   <v type="logical" >  T  T  T </v>
   <v type="logical" >  T  T  T </v>
   <v type="logical" >  T  T  T </v>
   <v type="logical" >  T  T  T </v>
   <v type="logical" >  T  T  T </v>
  </varray>
  <nose>
   <v>      -3.00000000       0.00000000       0.00010000       0.00010000 </v>
  </nose>
 </structure>
 <calculation>
  <scstep>
   <time name="dav">   30.23   30.46</time>
   <time name="total">   30.38   30.63</time>
   <energy>
    <i name="alphaZ">   2049.86967316 </i>
    <i name="ewald"> 366417.62749252 </i>
    <i name="hartreedc">-452629.62041196 </i>
    <i name="XCdc">   2880.73161964 </i>
    <i name="pawpsdc">  77370.14225108 </i>
    <i name="pawaedc"> -84037.01868607 </i>
    <i name="eentropy">      0.00589437 </i>
    <i name="bandstr">   7044.07697662 </i>
    <i name="atom">  87630.33133259 </i>
    <i name="e_fr_energy">   6726.14614194 </i>
    <i name="e_wo_entrp">   6726.14024758 </i>
    <i name="e_0_energy">   6726.14417716 </i>
   </energy>
  </scstep>
  <scstep>
   <time name="dav">   30.03   30.26</time>
   <time name="total">   30.03   30.26</time>
   <energy>
    <i name="e_fr_energy">    942.94911639 </i>
    <i name="e_wo_entrp">    942.94604154 </i>
    <i name="e_0_energy">    942.94809144 </i>
   </energy>
  </scstep>
  <scstep>
   <time name="dav">   29.93   30.17</time>
   <time name="total">   29.94   30.17</time>
   <energy>
    <i name="e_fr_energy">   -177.86753122 </i>
    <i name="e_wo_entrp">   -177.89758102 </i>
    <i name="e_0_energy">   -177.87754782 </i>
   </energy>
  </scstep>
  <scstep>
   <time name="dav">   31.98   32.23</time>
   <time name="total">   31.98   32.23</time>
   <energy>
    <i name="e_fr_energy">   -267.73405482 </i>
    <i name="e_wo_entrp">   -267.76324924 </i>
    <i name="e_0_energy">   -267.74378629 </i>
   </energy>
  </scstep>
  <scstep>
   <time name="dav">   32.22   32.47</time>
   <time name="total">   33.55   33.81</time>
   <energy>
    <i name="e_fr_energy">   -270.00213049 </i>
    <i name="e_wo_entrp">   -270.03147584 </i>
    <i name="e_0_energy">   -270.01191228 </i>
   </energy>
  </scstep>
  <scstep>
   <time name="dav">   32.22   32.47</time>
   <time name="total">   33.69   33.95</time>
   <energy>
    <i name="e_fr_energy">   -223.54618684 </i>
    <i name="e_wo_entrp">   -223.51882078 </i>
    <i name="e_0_energy">   -223.53706482 </i>
   </energy>
  </scstep>
  <scstep>
   <time name="dav">   31.95   32.20</time>
   <time name="total">   33.40   33.66</time>
   <energy>
    <i name="e_fr_energy">   -194.03915721 </i>
    <i name="e_wo_entrp">   -194.10535785 </i>
    <i name="e_0_energy">   -194.06122409 </i>
   </energy>
  </scstep>
  <scstep>
   <time name="dav">   35.69   35.96</time>
   <time name="total">   37.14   37.42</time>
   <energy>
    <i name="e_fr_energy">   -187.53518810 </i>
    <i name="e_wo_entrp">   -187.55250289 </i>
    <i name="e_0_energy">   -187.54095969 </i>
   </energy>
  </scstep>
  <scstep>
   <time name="dav">   36.25   37.09</time>
   <time name="total">   37.70   38.54</time>
   <energy>
    <i name="e_fr_energy">   -187.91996096 </i>
    <i name="e_wo_entrp">   -187.97722121 </i>
    <i name="e_0_energy">   -187.93904771 </i>
   </energy>
  </scstep>
  <scstep>
   <time name="dav">   40.96   41.28</time>
   <time name="total">   42.40   42.73</time>
   <energy>
    <i name="e_fr_energy">   -190.56776514 </i>
    <i name="e_wo_entrp">   -190.63433870 </i>
    <i name="e_0_energy">   -190.58995633 </i>
   </energy>
  </scstep>
  <scstep>
   <time name="dav">   41.29   41.57</time>
   <time name="total">   42.74   43.03</time>
   <energy>
    <i name="e_fr_energy">   -195.03676375 </i>
    <i name="e_wo_entrp">   -195.04247576 </i>
    <i name="e_0_energy">   -195.03866775 </i>
   </energy>
  </scstep>
  <scstep>
   <time name="dav">   38.07   38.31</time>
   <time name="total">   39.54   39.80</time>
   <energy>
    <i name="e_fr_energy">   -197.54451733 </i>
    <i name="e_wo_entrp">   -197.58187343 </i>
    <i name="e_0_energy">   -197.55696936 </i>
   </energy>
  </scstep>
  <scstep>
   <time name="dav">   42.66   43.14</time>
   <time name="total">   44.13   44.62</time>
   <energy>
    <i name="e_fr_energy">   -199.91100869 </i>
    <i name="e_wo_entrp">   -199.91662180 </i>
    <i name="e_0_energy">   -199.91287972 </i>
   </energy>
  </scstep>
  <scstep>
   <time name="dav">   39.06   39.32</time>
   <time name="total">   40.51   40.79</time>
   <energy>
    <i name="e_fr_energy">   -212.68507073 </i>
    <i name="e_wo_entrp">   -212.71633321 </i>
    <i name="e_0_energy">   -212.69549156 </i>
   </energy>
  </scstep>
  <scstep>
   <time name="dav">   32.49   32.70</time>
   <time name="total">   33.96   34.19</time>
   <energy>
    <i name="e_fr_energy">   -214.93360888 </i>
    <i name="e_wo_entrp">   -214.95498289 </i>
    <i name="e_0_energy">   -214.94073355 </i>
   </energy>
  </scstep>
  <scstep>
   <time name="dav">   34.95   35.18</time>
   <time name="total">   36.41   36.65</time>
   <energy>
    <i name="e_fr_energy">   -216.82792187 </i>
    <i name="e_wo_entrp">   -216.82261524 </i>
    <i name="e_0_energy">   -216.82615299 </i>
   </energy>
  </scstep>
  <scstep>
   <time name="dav">   37.71   38.14</time>
   <time name="total">   39.19   39.63</time>
   <energy>
    <i name="e_fr_energy">   -218.54123283 </i>
    <i name="e_wo_entrp">   -218.50834185 </i>
    <i name="e_0_energy">   -218.53026917 </i>
   </energy>
  </scstep>
  <scstep>
   <time name="dav">   36.72   36.99</time>
   <time name="total">   38.16   38.44</time>
   <energy>
    <i name="e_fr_energy">   -219.73862708 </i>
    <i name="e_wo_entrp">   -219.67280974 </i>
    <i name="e_0_energy">   -219.71668797 </i>
   </energy>
  </scstep>
  <scstep>
   <time name="dav">   34.09   34.33</time>
   <time name="total">   35.55   35.80</time>
   <energy>
    <i name="e_fr_energy">   -220.86647374 </i>
    <i name="e_wo_entrp">   -220.78280083 </i>
    <i name="e_0_energy">   -220.83858277 </i>
   </energy>
  </scstep>
  <scstep>
   <time name="dav">   39.65   40.21</time>
   <time name="total">   41.11   41.69</time>
   <energy>
    <i name="e_fr_energy">   -221.90591969 </i>
    <i name="e_wo_entrp">   -221.80953414 </i>
    <i name="e_0_energy">   -221.87379117 </i>
   </energy>
  </scstep>
  <scstep>
   <time name="dav">   42.38   42.87</time>
   <time name="total">   43.86   44.35</time>
   <energy>
    <i name="e_fr_energy">   -223.49733679 </i>
    <i name="e_wo_entrp">   -223.39057466 </i>
    <i name="e_0_energy">   -223.46174941 </i>
   </energy>
  </scstep>
  <scstep>
   <time name="dav">   34.24   34.48</time>
   <time name="total">   35.71   35.96</time>
   <energy>
    <i name="e_fr_energy">   -224.38951690 </i>
    <i name="e_wo_entrp">   -224.26966812 </i>
    <i name="e_0_energy">   -224.34956731 </i>
   </energy>
  </scstep>
  <scstep>
   <time name="dav">   34.57   34.81</time>
   <time name="total">   36.02   36.27</time>
   <energy>
    <i name="e_fr_energy">   -225.39149612 </i>
    <i name="e_wo_entrp">   -225.27000833 </i>
    <i name="e_0_energy">   -225.35100019 </i>
   </energy>
  </scstep>
  <scstep>
   <time name="dav">   36.46   36.74</time>
   <time name="total">   37.94   38.24</time>
   <energy>
    <i name="e_fr_energy">   -226.31252988 </i>
    <i name="e_wo_entrp">   -226.19258000 </i>
    <i name="e_0_energy">   -226.27254659 </i>
   </energy>
  </scstep>
  <scstep>
   <time name="dav">   38.06   38.38</time>
   <time name="total">   39.53   39.86</time>
   <energy>
    <i name="e_fr_energy">   -226.60663621 </i>
    <i name="e_wo_entrp">   -226.48007771 </i>
    <i name="e_0_energy">   -226.56445005 </i>
   </energy>
  </scstep>
  <scstep>
   <time name="dav">   35.77   36.01</time>
   <time name="total">   37.26   37.50</time>
   <energy>
    <i name="e_fr_energy">   -226.74548430 </i>
    <i name="e_wo_entrp">   -226.61707914 </i>
    <i name="e_0_energy">   -226.70268258 </i>
   </energy>
  </scstep>
  <scstep>
   <time name="dav">   33.39   33.61</time>
   <time name="total">   34.86   35.09</time>
   <energy>
    <i name="e_fr_energy">   -226.84090560 </i>
    <i name="e_wo_entrp">   -226.71404059 </i>
    <i name="e_0_energy">   -226.79861726 </i>
   </energy>
  </scstep>
  <scstep>
   <time name="dav">   27.27   27.49</time>
   <time name="total">   28.73   28.98</time>
   <energy>
    <i name="e_fr_energy">   -226.86349274 </i>
    <i name="e_wo_entrp">   -226.73649111 </i>
    <i name="e_0_energy">   -226.82115886 </i>
   </energy>
  </scstep>
  <scstep>
   <time name="dav">   23.75   23.96</time>
   <time name="total">   25.24   25.46</time>
   <energy>
    <i name="e_fr_energy">   -226.86815808 </i>
    <i name="e_wo_entrp">   -226.74096393 </i>
    <i name="e_0_energy">   -226.82576003 </i>
   </energy>
  </scstep>
  <scstep>
   <time name="dav">   24.64   25.20</time>
   <time name="total">   26.10   26.67</time>
   <energy>
    <i name="e_fr_energy">   -226.86897595 </i>
    <i name="e_wo_entrp">   -226.74154622 </i>
    <i name="e_0_energy">   -226.82649937 </i>
   </energy>
  </scstep>
  <scstep>
   <time name="dav">   22.20   22.35</time>
   <time name="total">   22.34   22.50</time>
   <energy>
    <i name="alphaZ">   2049.86967316 </i>
    <i name="ewald"> 366417.62749252 </i>
    <i name="hartreedc">-451566.65647188 </i>
    <i name="XCdc">   2807.91370309 </i>
    <i name="pawpsdc">  82281.92812286 </i>
    <i name="pawaedc"> -89065.06932859 </i>
    <i name="eentropy">     -0.12744052 </i>
    <i name="bandstr">   -782.68609420 </i>
    <i name="atom">  87630.33133259 </i>
    <i name="e_fr_energy">   -226.86901096 </i>
    <i name="e_wo_entrp">   -226.74157044 </i>
    <i name="e_0_energy">   -226.82653079 </i>
   </energy>
  </scstep>
  <dipole>
   <v name="dipole">      0.00000000       0.00000000      -0.04294275 </v>
   <i name="Tr[quadrupol]">  -6657.95207968 </i>
   <i name="Echarged">      0.00000000 </i>
   <i name="Edipol_quadrupol">      0.00000000 </i>
   <i name="Eion">      0.00000000 </i>
  </dipole>
  <structure>
   <crystal>
    <varray name="basis" >
     <v>       7.70039320       0.00000000       0.00000000 </v>
     <v>       3.85019660       6.66873613       0.00000000 </v>
     <v>       0.00000000       0.00000000      27.57468987 </v>
    </varray>
    <i name="volume">   1416.01245038 </i>
    <varray name="rec_basis" >
     <v>       0.12986350      -0.07497673       0.00000000 </v>
     <v>       0.00000000       0.14995345       0.00000000 </v>
     <v>       0.00000000       0.00000000       0.03626514 </v>
    </varray>
   </crystal>
   <varray name="positions" >
    <v>       0.00000000       0.00000000       0.00000000 </v>
    <v>       0.00000000       0.33333333       0.00000000 </v>
    <v>       1.00000000       0.66666667       0.00000000 </v>
    <v>       0.33333333       0.00000000       0.00000000 </v>
    <v>       0.33333333       0.33333333       0.00000000 </v>
    <v>       0.33333333       0.66666667       0.00000000 </v>
    <v>       0.66666667       0.00000000       0.00000000 </v>
    <v>       0.66666667       0.33333333       0.00000000 </v>
    <v>       0.66666667       0.66666667       0.00000000 </v>
    <v>       0.11111111       0.11111111       0.07600381 </v>
    <v>       0.11111111       0.44444444       0.07600381 </v>
    <v>       0.11111111       0.77777778       0.07600381 </v>
    <v>       0.44444444       0.11111111       0.07600381 </v>
    <v>       0.44444444       0.44444444       0.07600381 </v>
    <v>       0.44444444       0.77777778       0.07600381 </v>
    <v>       0.77777778       0.11111111       0.07600381 </v>
    <v>       0.77777778       0.44444444       0.07600381 </v>
    <v>       0.77777778       0.77777778       0.07600381 </v>
    <v>       0.22222222       0.22222222       0.15200763 </v>
    <v>       0.22222222       0.55555556       0.15200763 </v>
    <v>       0.22222222       0.88888889       0.15200763 </v>
    <v>       0.55555556       0.22222222       0.15200763 </v>
    <v>       0.55555556       0.55555556       0.15200763 </v>
    <v>       0.55555556       0.88888889       0.15200763 </v>
    <v>       0.88888889       0.22222222       0.15200763 </v>
    <v>       0.88888889       0.55555556       0.15200763 </v>
    <v>       0.88888889       0.88888889       0.15200763 </v>
    <v>       0.00000000       0.00000000       0.22801144 </v>
    <v>       0.00000000       0.33333333       0.22801144 </v>
    <v>       1.00000000       0.66666667       0.22801144 </v>
    <v>       0.33333333       0.00000000       0.22801144 </v>
    <v>       0.33333333       0.33333333       0.22801144 </v>
    <v>       0.33333333       0.66666667       0.22801144 </v>
    <v>       0.66666667       0.00000000       0.22801144 </v>
    <v>       0.66666667       0.33333333       0.22801144 </v>
    <v>       0.66666667       0.66666667       0.22801144 </v>
    <v>       0.11111111       0.11111111       0.30401525 </v>
    <v>       0.11111111       0.44444444       0.30401525 </v>
    <v>       0.11111111       0.77777778       0.30401525 </v>
    <v>       0.44444444       0.11111111       0.30401525 </v>
    <v>       0.44444444       0.44444444       0.30401525 </v>
    <v>       0.44444444       0.77777778       0.30401525 </v>
    <v>       0.77777778       0.11111111       0.30401525 </v>
    <v>       0.77777778       0.44444444       0.30401525 </v>
    <v>       0.77777778       0.77777778       0.30401525 </v>
    <v>       0.22222222       0.22222222       0.38001907 </v>
    <v>       0.22222222       0.55555556       0.38001907 </v>
    <v>       0.22222222       0.88888889       0.38001907 </v>
    <v>       0.55555556       0.22222222       0.38001907 </v>
    <v>       0.55555556       0.55555556       0.38001907 </v>
    <v>       0.55555556       0.88888889       0.38001907 </v>
    <v>       0.88888889       0.22222222       0.38001907 </v>
    <v>       0.88888889       0.55555556       0.38001907 </v>
    <v>       0.88888889       0.88888889       0.38001907 </v>
    <v>       0.00000000       0.00000000       0.45602288 </v>
    <v>       0.00000000       0.33333333       0.45602288 </v>
    <v>       1.00000000       0.66666667       0.45602288 </v>
    <v>       0.33333333       0.00000000       0.45602288 </v>
    <v>       0.33333333       0.33333333       0.45602288 </v>
    <v>       0.33333333       0.66666667       0.45602288 </v>
    <v>       0.66666667       0.00000000       0.45602288 </v>
    <v>       0.66666667       0.33333333       0.45602288 </v>
    <v>       0.66666667       0.66666667       0.45602288 </v>
   </varray>
  </structure>
  <varray name="forces" >
   <v>      -0.00000000       0.00000000       0.16492758 </v>
   <v>      -0.00000000       0.00000000       0.16492758 </v>
   <v>      -0.00000000       0.00000000       0.16492758 </v>
   <v>      -0.00000000       0.00000000       0.16492758 </v>
   <v>      -0.00000000       0.00000000       0.16492758 </v>
   <v>      -0.00000000       0.00000000       0.16492758 </v>
   <v>       0.00000000       0.00000000       0.16492758 </v>
   <v>      -0.00000000       0.00000000       0.16492758 </v>
   <v>      -0.00000000       0.00000000       0.16492758 </v>
   <v>       0.00000000       0.00000000       0.05210961 </v>
   <v>       0.00000000      -0.00000000       0.05210961 </v>
   <v>       0.00000000       0.00000000       0.05210961 </v>
   <v>       0.00000000       0.00000000       0.05210961 </v>
   <v>       0.00000000      -0.00000000       0.05210961 </v>
   <v>       0.00000000       0.00000000       0.05210961 </v>
   <v>      -0.00000000      -0.00000000       0.05210961 </v>
   <v>       0.00000000      -0.00000000       0.05210961 </v>
   <v>       0.00000000      -0.00000000       0.05210961 </v>
   <v>      -0.00000000      -0.00000000      -0.02820492 </v>
   <v>      -0.00000000      -0.00000000      -0.02820492 </v>
   <v>      -0.00000000      -0.00000000      -0.02820492 </v>
   <v>      -0.00000000      -0.00000000      -0.02820492 </v>
   <v>       0.00000000       0.00000000      -0.02820492 </v>
   <v>      -0.00000000      -0.00000000      -0.02820492 </v>
   <v>      -0.00000000      -0.00000000      -0.02820492 </v>
   <v>       0.00000000       0.00000000      -0.02820492 </v>
   <v>      -0.00000000      -0.00000000      -0.02820492 </v>
   <v>      -0.00000000      -0.00000000       0.00087569 </v>
   <v>      -0.00000000      -0.00000000       0.00087569 </v>
   <v>      -0.00000000       0.00000000       0.00087569 </v>
   <v>      -0.00000000       0.00000000       0.00087569 </v>
   <v>      -0.00000000      -0.00000000       0.00087569 </v>
   <v>       0.00000000      -0.00000000       0.00087569 </v>
   <v>      -0.00000000      -0.00000000       0.00087569 </v>
   <v>      -0.00000000      -0.00000000       0.00087569 </v>
   <v>       0.00000000       0.00000000       0.00087569 </v>
   <v>      -0.00000000      -0.00000000       0.02744931 </v>
   <v>      -0.00000000       0.00000000       0.02744931 </v>
   <v>      -0.00000000       0.00000000       0.02744931 </v>
   <v>      -0.00000000       0.00000000       0.02744931 </v>
   <v>       0.00000000       0.00000000       0.02744931 </v>
   <v>       0.00000000       0.00000000       0.02744931 </v>
   <v>       0.00000000      -0.00000000       0.02744931 </v>
   <v>       0.00000000      -0.00000000       0.02744931 </v>
   <v>      -0.00000000      -0.00000000       0.02744931 </v>
   <v>       0.00000000       0.00000000      -0.05217427 </v>
   <v>       0.00000000       0.00000000      -0.05217427 </v>
   <v>       0.00000000       0.00000000      -0.05217427 </v>
   <v>       0.00000000      -0.00000000      -0.05217427 </v>
   <v>       0.00000000      -0.00000000      -0.05217427 </v>
   <v>      -0.00000000      -0.00000000      -0.05217427 </v>
   <v>       0.00000000       0.00000000      -0.05217427 </v>
   <v>       0.00000000       0.00000000      -0.05217427 </v>
   <v>      -0.00000000       0.00000000      -0.05217427 </v>
   <v>      -0.00000000      -0.00000000      -0.16498299 </v>
   <v>       0.00000000      -0.00000000      -0.16498299 </v>
   <v>      -0.00000000      -0.00000000      -0.16498299 </v>
   <v>       0.00000000      -0.00000000      -0.16498299 </v>
   <v>       0.00000000      -0.00000000      -0.16498299 </v>
   <v>      -0.00000000      -0.00000000      -0.16498299 </v>
   <v>      -0.00000000      -0.00000000      -0.16498299 </v>
   <v>       0.00000000      -0.00000000      -0.16498299 </v>
   <v>      -0.00000000      -0.00000000      -0.16498299 </v>
  </varray>
  <varray name="stress" >
   <v>     -51.37243848      -0.00000000      -0.00000000 </v>
   <v>      -0.00000000     -51.37243848       0.00000000 </v>
   <v>      -0.00000000      -0.00000000     -29.23740898 </v>
  </varray>
  <energy>
   <i name="e_fr_energy">   -252.52992757 </i>
   <i name="e_wo_entrp">   -252.40248705 </i>
   <i name="e_0_energy">   -252.48744740 </i>
  </energy>
  <time name="totalsc"> 1167.46 1177.89</time>
 </calculation>
 <calculation>
  <scstep>
   <time name="dav">   32.25   32.48</time>
   <time name="total">   33.71   33.95</time>
   <energy>
    <i name="alphaZ">   2049.86967316 </i>
    <i name="ewald"> 366840.67286590 </i>
    <i name="hartreedc">-451987.86693201 </i>
    <i name="XCdc">   2808.01717334 </i>
    <i name="pawpsdc">  82281.58811561 </i>
    <i name="pawaedc"> -89064.70946533 </i>
    <i name="eentropy">     -0.12674525 </i>
    <i name="bandstr">   -784.64002687 </i>
    <i name="atom">  87630.33133259 </i>
    <i name="e_fr_energy">   -226.86400886 </i>
    <i name="e_wo_entrp">   -226.73726361 </i>
    <i name="e_0_energy">   -226.82176044 </i>
   </energy>
  </scstep>
  <scstep>
   <time name="dav">   43.17   43.59</time>
   <time name="total">   44.65   45.09</time>
   <energy>
    <i name="e_fr_energy">   -226.87045106 </i>
    <i name="e_wo_entrp">   -226.74215122 </i>
    <i name="e_0_energy">   -226.82768445 </i>
   </energy>
  </scstep>
  <scstep>
   <time name="dav">   32.53   32.75</time>
   <time name="total">   33.98   34.21</time>
   <energy>
    <i name="e_fr_energy">   -226.87019239 </i>
    <i name="e_wo_entrp">   -226.74319217 </i>
    <i name="e_0_energy">   -226.82785898 </i>
   </energy>
  </scstep>
  <scstep>
   <time name="dav">   30.03   30.23</time>
   <time name="total">   30.19   30.38</time>
   <energy>
    <i name="alphaZ">   2049.86967316 </i>
    <i name="ewald"> 366840.67286590 </i>
    <i name="hartreedc">-451986.93909283 </i>
    <i name="XCdc">   2807.98187016 </i>
    <i name="pawpsdc">  82287.03512573 </i>
    <i name="pawaedc"> -89070.03885009 </i>
    <i name="eentropy">     -0.12687881 </i>
    <i name="bandstr">   -785.65614402 </i>
    <i name="atom">  87630.33133259 </i>
    <i name="e_fr_energy">   -226.87009821 </i>
    <i name="e_wo_entrp">   -226.74321940 </i>
    <i name="e_0_energy">   -226.82780527 </i>
   </energy>
  </scstep>
  <dipole>
   <v name="dipole">      0.00000000       0.00000000      -0.02875274 </v>
   <i name="Tr[quadrupol]">  -6657.86003301 </i>
   <i name="Echarged">      0.00000000 </i>
   <i name="Edipol_quadrupol">      0.00000000 </i>
   <i name="Eion">      0.00000000 </i>
  </dipole>
  <structure>
   <crystal>
    <varray name="basis" >
     <v>       7.70039320       0.00000000       0.00000000 </v>
     <v>       3.85019660       6.66873613       0.00000000 </v>
     <v>       0.00000000       0.00000000      27.57468987 </v>
    </varray>
    <i name="volume">   1416.01245038 </i>
    <varray name="rec_basis" >
     <v>       0.12986350      -0.07497673       0.00000000 </v>
     <v>       0.00000000       0.14995345       0.00000000 </v>
     <v>       0.00000000       0.00000000       0.03626514 </v>
    </varray>
   </crystal>
   <varray name="positions" >
    <v>       0.00000000       0.00000000       0.00000000 </v>
    <v>       0.00000000       0.33333333       0.00000000 </v>
    <v>       1.00000000       0.66666667       0.00000000 </v>
    <v>       0.33333333       0.00000000       0.00000000 </v>
    <v>       0.33333333       0.33333333       0.00000000 </v>
    <v>       0.33333333       0.66666667       0.00000000 </v>
    <v>       0.66666667       0.00000000       0.00000000 </v>
    <v>       0.66666667       0.33333333       0.00000000 </v>
    <v>       0.66666667       0.66666667       0.00000000 </v>
    <v>       0.11111111       0.11111111       0.07600381 </v>
    <v>       0.11111111       0.44444444       0.07600381 </v>
    <v>       0.11111111       0.77777778       0.07600381 </v>
    <v>       0.44444444       0.11111111       0.07600381 </v>
    <v>       0.44444444       0.44444444       0.07600381 </v>
    <v>       0.44444444       0.77777778       0.07600381 </v>
    <v>       0.77777778       0.11111111       0.07600381 </v>
    <v>       0.77777778       0.44444444       0.07600381 </v>
    <v>       0.77777778       0.77777778       0.07600381 </v>
    <v>       0.22222222       0.22222222       0.15195828 </v>
    <v>       0.22222222       0.55555556       0.15195828 </v>
    <v>       0.22222222       0.88888889       0.15195828 </v>
    <v>       0.55555556       0.22222222       0.15195828 </v>
    <v>       0.55555556       0.55555556       0.15195828 </v>
    <v>       0.55555556       0.88888889       0.15195828 </v>
    <v>       0.88888889       0.22222222       0.15195828 </v>
    <v>       0.88888889       0.55555556       0.15195828 </v>
    <v>       0.88888889       0.88888889       0.15195828 </v>
    <v>      -0.00000000      -0.00000000       0.22801297 </v>
    <v>       0.00000000       0.33333333       0.22801297 </v>
    <v>       1.00000000       0.66666667       0.22801297 </v>
    <v>       0.33333333       0.00000000       0.22801297 </v>
    <v>       0.33333333       0.33333333       0.22801297 </v>
    <v>       0.33333333       0.66666667       0.22801297 </v>
    <v>       0.66666667      -0.00000000       0.22801297 </v>
    <v>       0.66666667       0.33333333       0.22801297 </v>
    <v>       0.66666667       0.66666667       0.22801297 </v>
    <v>       0.11111111       0.11111111       0.30406328 </v>
    <v>       0.11111111       0.44444444       0.30406328 </v>
    <v>       0.11111111       0.77777778       0.30406328 </v>
    <v>       0.44444444       0.11111111       0.30406328 </v>
    <v>       0.44444444       0.44444444       0.30406328 </v>
    <v>       0.44444444       0.77777778       0.30406328 </v>
    <v>       0.77777778       0.11111111       0.30406328 </v>
    <v>       0.77777778       0.44444444       0.30406328 </v>
    <v>       0.77777778       0.77777778       0.30406328 </v>
    <v>       0.22222222       0.22222222       0.37992779 </v>
    <v>       0.22222222       0.55555556       0.37992779 </v>
    <v>       0.22222222       0.88888889       0.37992779 </v>
    <v>       0.55555556       0.22222222       0.37992779 </v>
    <v>       0.55555556       0.55555556       0.37992779 </v>
    <v>       0.55555556       0.88888889       0.37992779 </v>
    <v>       0.88888889       0.22222222       0.37992779 </v>
    <v>       0.88888889       0.55555556       0.37992779 </v>
    <v>       0.88888889       0.88888889       0.37992779 </v>
    <v>      -0.00000000      -0.00000000       0.45573424 </v>
    <v>       0.00000000       0.33333333       0.45573424 </v>
    <v>       1.00000000       0.66666667       0.45573424 </v>
    <v>       0.33333333      -0.00000000       0.45573424 </v>
    <v>       0.33333333       0.33333333       0.45573424 </v>
    <v>       0.33333333       0.66666667       0.45573424 </v>
    <v>       0.66666667      -0.00000000       0.45573424 </v>
    <v>       0.66666667       0.33333333       0.45573424 </v>
    <v>       0.66666667       0.66666667       0.45573424 </v>
   </varray>
  </structure>
  <varray name="forces" >
   <v>      -0.00000000       0.00000000       0.15956701 </v>
   <v>      -0.00000000       0.00000000       0.15956701 </v>
   <v>       0.00000000       0.00000000       0.15956701 </v>
   <v>       0.00000000       0.00000000       0.15956701 </v>
   <v>       0.00000000       0.00000000       0.15956701 </v>
   <v>      -0.00000000      -0.00000000       0.15956701 </v>
   <v>       0.00000000       0.00000000       0.15956701 </v>
   <v>      -0.00000000       0.00000000       0.15956701 </v>
   <v>       0.00000000       0.00000000       0.15956701 </v>
   <v>       0.00000000       0.00000000       0.04354441 </v>
   <v>       0.00000000       0.00000000       0.04354441 </v>
   <v>       0.00000000       0.00000000       0.04354441 </v>
   <v>      -0.00000000       0.00000000       0.04354441 </v>
   <v>       0.00000000       0.00000000       0.04354441 </v>
   <v>      -0.00000000       0.00000000       0.04354441 </v>
   <v>       0.00000000       0.00000000       0.04354441 </v>
   <v>       0.00000000       0.00000000       0.04354441 </v>
   <v>       0.00000000       0.00000000       0.04354441 </v>
   <v>      -0.00000000       0.00000000      -0.01686921 </v>
   <v>      -0.00000000      -0.00000000      -0.01686921 </v>
   <v>      -0.00000000       0.00000000      -0.01686921 </v>
   <v>      -0.00000000      -0.00000000      -0.01686921 </v>
   <v>      -0.00000000       0.00000000      -0.01686921 </v>
   <v>      -0.00000000      -0.00000000      -0.01686921 </v>
   <v>      -0.00000000      -0.00000000      -0.01686921 </v>
   <v>      -0.00000000      -0.00000000      -0.01686921 </v>
   <v>      -0.00000000      -0.00000000      -0.01686921 </v>
   <v>       0.00000000      -0.00000000      -0.00240003 </v>
   <v>       0.00000000      -0.00000000      -0.00240003 </v>
   <v>       0.00000000      -0.00000000      -0.00240003 </v>
   <v>       0.00000000      -0.00000000      -0.00240003 </v>
   <v>       0.00000000      -0.00000000      -0.00240003 </v>
   <v>       0.00000000      -0.00000000      -0.00240003 </v>
   <v>       0.00000000      -0.00000000      -0.00240003 </v>
   <v>       0.00000000      -0.00000000      -0.00240003 </v>
   <v>       0.00000000      -0.00000000      -0.00240003 </v>
   <v>      -0.00000000      -0.00000000      -0.00010756 </v>
   <v>      -0.00000000      -0.00000000      -0.00010756 </v>
   <v>      -0.00000000      -0.00000000      -0.00010756 </v>
   <v>       0.00000000      -0.00000000      -0.00010756 </v>
   <v>      -0.00000000      -0.00000000      -0.00010756 </v>
   <v>      -0.00000000      -0.00000000      -0.00010756 </v>
   <v>      -0.00000000       0.00000000      -0.00010756 </v>
   <v>       0.00000000      -0.00000000      -0.00010756 </v>
   <v>      -0.00000000      -0.00000000      -0.00010756 </v>
   <v>       0.00000000       0.00000000      -0.05109263 </v>
   <v>       0.00000000       0.00000000      -0.05109263 </v>
   <v>       0.00000000       0.00000000      -0.05109263 </v>
   <v>       0.00000000       0.00000000      -0.05109263 </v>
   <v>       0.00000000       0.00000000      -0.05109263 </v>
   <v>       0.00000000       0.00000000      -0.05109263 </v>
   <v>       0.00000000       0.00000000      -0.05109263 </v>
   <v>      -0.00000000       0.00000000      -0.05109263 </v>
   <v>       0.00000000       0.00000000      -0.05109263 </v>
   <v>       0.00000000      -0.00000000      -0.13264198 </v>
   <v>      -0.00000000       0.00000000      -0.13264198 </v>
   <v>       0.00000000      -0.00000000      -0.13264198 </v>
   <v>       0.00000000      -0.00000000      -0.13264198 </v>
   <v>       0.00000000      -0.00000000      -0.13264198 </v>
   <v>       0.00000000      -0.00000000      -0.13264198 </v>
   <v>       0.00000000       0.00000000      -0.13264198 </v>
   <v>       0.00000000       0.00000000      -0.13264198 </v>
   <v>      -0.00000000      -0.00000000      -0.13264198 </v>
  </varray>
  <varray name="stress" >
   <v>     -48.75343537      -0.00000000       0.00000000 </v>
   <v>      -0.00000000     -48.75343537       0.00000000 </v>
   <v>       0.00000000       0.00000000     -26.15441676 </v>
  </varray>
  <energy>
   <i name="e_fr_energy">   -252.54281291 </i>
   <i name="e_wo_entrp">   -252.41593410 </i>
   <i name="e_0_energy">   -252.50051997 </i>
  </energy>
  <time name="totalsc">  211.81  213.88</time>
 </calculation>
 <calculation>
  <scstep>
   <time name="dav">   32.06   32.29</time>
   <time name="total">   33.54   33.78</time>
   <energy>
    <i name="alphaZ">   2049.86967316 </i>
    <i name="ewald"> 368112.72510181 </i>
    <i name="hartreedc">-453257.76243150 </i>
    <i name="XCdc">   2808.30935010 </i>
    <i name="pawpsdc">  82287.93833203 </i>
    <i name="pawaedc"> -89071.03227512 </i>
    <i name="eentropy">     -0.12525564 </i>
    <i name="bandstr">   -787.05953147 </i>
    <i name="atom">  87630.33133259 </i>
    <i name="e_fr_energy">   -226.80570403 </i>
    <i name="e_wo_entrp">   -226.68044839 </i>
    <i name="e_0_energy">   -226.76395215 </i>
   </energy>
  </scstep>
  <scstep>
   <time name="dav">   44.56   44.97</time>
   <time name="total">   46.02   46.44</time>
   <energy>
    <i name="e_fr_energy">   -226.87086305 </i>
    <i name="e_wo_entrp">   -226.74140312 </i>
    <i name="e_0_energy">   -226.82770974 </i>
   </energy>
  </scstep>
  <scstep>
   <time name="dav">   37.66   38.02</time>
   <time name="total">   39.11   39.48</time>
   <energy>
    <i name="e_fr_energy">   -226.86577919 </i>
    <i name="e_wo_entrp">   -226.73971280 </i>
    <i name="e_0_energy">   -226.82375706 </i>
   </energy>
  </scstep>
  <scstep>
   <time name="dav">   34.46   34.80</time>
   <time name="total">   35.94   36.29</time>
   <energy>
    <i name="e_fr_energy">   -226.86361494 </i>
    <i name="e_wo_entrp">   -226.73817491 </i>
    <i name="e_0_energy">   -226.82180160 </i>
   </energy>
  </scstep>
  <scstep>
   <time name="dav">   32.07   32.31</time>
   <time name="total">   33.53   33.79</time>
   <energy>
    <i name="e_fr_energy">   -226.86385999 </i>
    <i name="e_wo_entrp">   -226.73609612 </i>
    <i name="e_0_energy">   -226.82127203 </i>
   </energy>
  </scstep>
  <scstep>
   <time name="dav">   32.90   33.16</time>
   <time name="total">   34.38   34.64</time>
   <energy>
    <i name="e_fr_energy">   -226.86270059 </i>
    <i name="e_wo_entrp">   -226.73801168 </i>
    <i name="e_0_energy">   -226.82113762 </i>
   </energy>
  </scstep>
  <scstep>
   <time name="dav">   42.42   42.86</time>
   <time name="total">   43.90   44.36</time>
   <energy>
    <i name="e_fr_energy">   -226.86254062 </i>
    <i name="e_wo_entrp">   -226.73673020 </i>
    <i name="e_0_energy">   -226.82060381 </i>
   </energy>
  </scstep>
  <scstep>
   <time name="dav">   30.12   30.66</time>
   <time name="total">   31.57   32.11</time>
   <energy>
    <i name="e_fr_energy">   -226.86219428 </i>
    <i name="e_wo_entrp">   -226.73731131 </i>
    <i name="e_0_energy">   -226.82056662 </i>
   </energy>
  </scstep>
  <scstep>
   <time name="dav">   25.87   26.04</time>
   <time name="total">   26.01   26.20</time>
   <energy>
    <i name="alphaZ">   2049.86967316 </i>
    <i name="ewald"> 368112.72510181 </i>
    <i name="hartreedc">-453255.77412351 </i>
    <i name="XCdc">   2808.20092617 </i>
    <i name="pawpsdc">  82327.92719069 </i>
    <i name="pawaedc"> -89111.88681587 </i>
    <i name="eentropy">     -0.12560428 </i>
    <i name="bandstr">   -788.12981442 </i>
    <i name="atom">  87630.33133259 </i>
    <i name="e_fr_energy">   -226.86213366 </i>
    <i name="e_wo_entrp">   -226.73652938 </i>
    <i name="e_0_energy">   -226.82026557 </i>
   </energy>
  </scstep>
  <dipole>
   <v name="dipole">      0.00000000       0.00000000      -0.00860386 </v>
   <i name="Tr[quadrupol]">  -6657.84473494 </i>
   <i name="Echarged">      0.00000000 </i>
   <i name="Edipol_quadrupol">      0.00000000 </i>
   <i name="Eion">      0.00000000 </i>
  </dipole>
  <structure>
   <crystal>
    <varray name="basis" >
     <v>       7.70039320       0.00000000       0.00000000 </v>
     <v>       3.85019660       6.66873613       0.00000000 </v>
     <v>       0.00000000       0.00000000      27.57468987 </v>
    </varray>
    <i name="volume">   1416.01245038 </i>
    <varray name="rec_basis" >
     <v>       0.12986350      -0.07497673       0.00000000 </v>
     <v>       0.00000000       0.14995345       0.00000000 </v>
     <v>       0.00000000       0.00000000       0.03626514 </v>
    </varray>
   </crystal>
   <varray name="positions" >
    <v>       0.00000000       0.00000000       0.00000000 </v>
    <v>       0.00000000       0.33333333       0.00000000 </v>
    <v>       1.00000000       0.66666667       0.00000000 </v>
    <v>       0.33333333       0.00000000       0.00000000 </v>
    <v>       0.33333333       0.33333333       0.00000000 </v>
    <v>       0.33333333       0.66666667       0.00000000 </v>
    <v>       0.66666667       0.00000000       0.00000000 </v>
    <v>       0.66666667       0.33333333       0.00000000 </v>
    <v>       0.66666667       0.66666667       0.00000000 </v>
    <v>       0.11111111       0.11111111       0.07600381 </v>
    <v>       0.11111111       0.44444444       0.07600381 </v>
    <v>       0.11111111       0.77777778       0.07600381 </v>
    <v>       0.44444444       0.11111111       0.07600381 </v>
    <v>       0.44444444       0.44444444       0.07600381 </v>
    <v>       0.44444444       0.77777778       0.07600381 </v>
    <v>       0.77777778       0.11111111       0.07600381 </v>
    <v>       0.77777778       0.44444444       0.07600381 </v>
    <v>       0.77777778       0.77777778       0.07600381 </v>
    <v>       0.22222222       0.22222222       0.15181025 </v>
    <v>       0.22222222       0.55555556       0.15181025 </v>
    <v>       0.22222222       0.88888889       0.15181025 </v>
    <v>       0.55555556       0.22222222       0.15181025 </v>
    <v>       0.55555556       0.55555556       0.15181025 </v>
    <v>       0.55555556       0.88888889       0.15181025 </v>
    <v>       0.88888889       0.22222222       0.15181025 </v>
    <v>       0.88888889       0.55555556       0.15181025 </v>
    <v>       0.88888889       0.88888889       0.15181025 </v>
    <v>      -0.00000000      -0.00000000       0.22801757 </v>
    <v>       0.00000000       0.33333333       0.22801757 </v>
    <v>       1.00000000       0.66666667       0.22801757 </v>
    <v>       0.33333333       0.00000000       0.22801757 </v>
    <v>       0.33333333       0.33333333       0.22801757 </v>
    <v>       0.33333333       0.66666667       0.22801757 </v>
    <v>       0.66666667      -0.00000000       0.22801757 </v>
    <v>       0.66666667       0.33333333       0.22801757 </v>
    <v>       0.66666667       0.66666667       0.22801757 </v>
    <v>       0.11111111       0.11111111       0.30420735 </v>
    <v>       0.11111111       0.44444444       0.30420735 </v>
    <v>       0.11111111       0.77777778       0.30420735 </v>
    <v>       0.44444444       0.11111111       0.30420735 </v>
    <v>       0.44444444       0.44444444       0.30420735 </v>
    <v>       0.44444444       0.77777778       0.30420735 </v>
    <v>       0.77777778       0.11111111       0.30420735 </v>
    <v>       0.77777778       0.44444444       0.30420735 </v>
    <v>       0.77777778       0.77777778       0.30420735 </v>
    <v>       0.22222222       0.22222222       0.37965395 </v>
    <v>       0.22222222       0.55555556       0.37965395 </v>
    <v>       0.22222222       0.88888889       0.37965395 </v>
    <v>       0.55555556       0.22222222       0.37965395 </v>
    <v>       0.55555556       0.55555556       0.37965395 </v>
    <v>       0.55555556       0.88888889       0.37965395 </v>
    <v>       0.88888889       0.22222222       0.37965395 </v>
    <v>       0.88888889       0.55555556       0.37965395 </v>
    <v>       0.88888889       0.88888889       0.37965395 </v>
    <v>      -0.00000000      -0.00000000       0.45486831 </v>
    <v>       0.00000000       0.33333333       0.45486831 </v>
    <v>       1.00000000       0.66666667       0.45486831 </v>
    <v>       0.33333333      -0.00000000       0.45486831 </v>
    <v>       0.33333333       0.33333333       0.45486831 </v>
    <v>       0.33333333       0.66666667       0.45486831 </v>
    <v>       0.66666667      -0.00000000       0.45486831 </v>
    <v>       0.66666667       0.33333333       0.45486831 </v>
    <v>       0.66666667       0.66666667       0.45486831 </v>
   </varray>
  </structure>
  <varray name="forces" >
   <v>       0.00000000       0.00000000       0.16120229 </v>
   <v>       0.00000000       0.00000000       0.16120229 </v>
   <v>       0.00000000       0.00000000       0.16120229 </v>
   <v>       0.00000000       0.00000000       0.16120229 </v>
   <v>       0.00000000       0.00000000       0.16120229 </v>
   <v>       0.00000000       0.00000000       0.16120229 </v>
   <v>       0.00000000       0.00000000       0.16120229 </v>
   <v>       0.00000000       0.00000000       0.16120229 </v>
   <v>       0.00000000       0.00000000       0.16120229 </v>
   <v>       0.00000000      -0.00000000       0.03100244 </v>
   <v>       0.00000000       0.00000000       0.03100244 </v>
   <v>       0.00000000       0.00000000       0.03100244 </v>
   <v>      -0.00000000      -0.00000000       0.03100244 </v>
   <v>       0.00000000       0.00000000       0.03100244 </v>
   <v>       0.00000000       0.00000000       0.03100244 </v>
   <v>      -0.00000000      -0.00000000       0.03100244 </v>
   <v>      -0.00000000      -0.00000000       0.03100244 </v>
   <v>       0.00000000      -0.00000000       0.03100244 </v>
   <v>       0.00000000       0.00000000       0.01200954 </v>
   <v>       0.00000000       0.00000000       0.01200954 </v>
   <v>      -0.00000000       0.00000000       0.01200954 </v>
   <v>      -0.00000000       0.00000000       0.01200954 </v>
   <v>      -0.00000000       0.00000000       0.01200954 </v>
   <v>       0.00000000       0.00000000       0.01200954 </v>
   <v>      -0.00000000       0.00000000       0.01200954 </v>
   <v>      -0.00000000      -0.00000000       0.01200954 </v>
   <v>      -0.00000000       0.00000000       0.01200954 </v>
   <v>      -0.00000000      -0.00000000      -0.00464692 </v>
   <v>       0.00000000      -0.00000000      -0.00464692 </v>
   <v>       0.00000000      -0.00000000      -0.00464692 </v>
   <v>       0.00000000      -0.00000000      -0.00464692 </v>
   <v>      -0.00000000      -0.00000000      -0.00464692 </v>
   <v>       0.00000000      -0.00000000      -0.00464692 </v>
   <v>       0.00000000      -0.00000000      -0.00464692 </v>
   <v>       0.00000000      -0.00000000      -0.00464692 </v>
   <v>       0.00000000      -0.00000000      -0.00464692 </v>
   <v>       0.00000000       0.00000000      -0.05816926 </v>
   <v>      -0.00000000       0.00000000      -0.05816926 </v>
   <v>      -0.00000000      -0.00000000      -0.05816926 </v>
   <v>      -0.00000000      -0.00000000      -0.05816926 </v>
   <v>      -0.00000000       0.00000000      -0.05816926 </v>
   <v>      -0.00000000       0.00000000      -0.05816926 </v>
   <v>      -0.00000000       0.00000000      -0.05816926 </v>
   <v>      -0.00000000      -0.00000000      -0.05816926 </v>
   <v>       0.00000000      -0.00000000      -0.05816926 </v>
   <v>       0.00000000       0.00000000      -0.06533639 </v>
   <v>      -0.00000000       0.00000000      -0.06533639 </v>
   <v>       0.00000000       0.00000000      -0.06533639 </v>
   <v>      -0.00000000       0.00000000      -0.06533639 </v>
   <v>      -0.00000000       0.00000000      -0.06533639 </v>
   <v>       0.00000000       0.00000000      -0.06533639 </v>
   <v>       0.00000000       0.00000000      -0.06533639 </v>
   <v>       0.00000000       0.00000000      -0.06533639 </v>
   <v>       0.00000000       0.00000000      -0.06533639 </v>
   <v>       0.00000000      -0.00000000      -0.07606170 </v>
   <v>      -0.00000000      -0.00000000      -0.07606170 </v>
   <v>      -0.00000000      -0.00000000      -0.07606170 </v>
   <v>       0.00000000      -0.00000000      -0.07606170 </v>
   <v>      -0.00000000      -0.00000000      -0.07606170 </v>
   <v>      -0.00000000      -0.00000000      -0.07606170 </v>
   <v>       0.00000000      -0.00000000      -0.07606170 </v>
   <v>      -0.00000000      -0.00000000      -0.07606170 </v>
   <v>       0.00000000      -0.00000000      -0.07606170 </v>
  </varray>
  <varray name="stress" >
   <v>     -50.81101503      -0.00000000       0.00000000 </v>
   <v>      -0.00000000     -50.81101504       0.00000000 </v>
   <v>      -0.00000000       0.00000000     -26.92787790 </v>
  </varray>
  <energy>
   <i name="e_fr_energy">   -252.57039272 </i>
   <i name="e_wo_entrp">   -252.44478844 </i>
   <i name="e_0_energy">   -252.52852463 </i>
  </energy>
  <time name="totalsc">  391.82  395.47</time>
 </calculation>
 <calculation>
  <scstep>
   <time name="dav">   31.97   32.21</time>
   <time name="total">   33.43   33.68</time>
   <energy>
    <i name="alphaZ">   2049.86967316 </i>
    <i name="ewald"> 370669.93090075 </i>
    <i name="hartreedc">-455808.86261618 </i>
    <i name="XCdc">   2808.88262501 </i>
    <i name="pawpsdc">  82328.14049374 </i>
    <i name="pawaedc"> -89112.06411635 </i>
    <i name="eentropy">     -0.12038829 </i>
    <i name="bandstr">   -792.64643647 </i>
    <i name="atom">  87630.33133259 </i>
    <i name="e_fr_energy">   -226.53853206 </i>
    <i name="e_wo_entrp">   -226.41814376 </i>
    <i name="e_0_energy">   -226.49840262 </i>
   </energy>
  </scstep>
  <scstep>
   <time name="dav">   45.64   46.20</time>
   <time name="total">   47.13   47.70</time>
   <energy>
    <i name="e_fr_energy">   -226.84746720 </i>
    <i name="e_wo_entrp">   -226.71484185 </i>
    <i name="e_0_energy">   -226.80325875 </i>
   </energy>
  </scstep>
  <scstep>
   <time name="dav">   43.76   44.31</time>
   <time name="total">   45.21   45.77</time>
   <energy>
    <i name="e_fr_energy">   -226.81378168 </i>
    <i name="e_wo_entrp">   -226.69083249 </i>
    <i name="e_0_energy">   -226.77279862 </i>
   </energy>
  </scstep>
  <scstep>
   <time name="dav">   42.04   42.56</time>
   <time name="total">   43.52   44.04</time>
   <energy>
    <i name="e_fr_energy">   -226.80167814 </i>
    <i name="e_wo_entrp">   -226.68006960 </i>
    <i name="e_0_energy">   -226.76114196 </i>
   </energy>
  </scstep>
  <scstep>
   <time name="dav">   35.06   35.72</time>
   <time name="total">   36.52   37.18</time>
   <energy>
    <i name="e_fr_energy">   -226.80189960 </i>
    <i name="e_wo_entrp">   -226.67689553 </i>
    <i name="e_0_energy">   -226.76023157 </i>
   </energy>
  </scstep>
  <scstep>
   <time name="dav">   32.90   33.15</time>
   <time name="total">   34.36   34.63</time>
   <energy>
    <i name="e_fr_energy">   -226.79864163 </i>
    <i name="e_wo_entrp">   -226.67755900 </i>
    <i name="e_0_energy">   -226.75828075 </i>
   </energy>
  </scstep>
  <scstep>
   <time name="dav">   42.44   42.80</time>
   <time name="total">   43.90   44.28</time>
   <energy>
    <i name="e_fr_energy">   -226.79671612 </i>
    <i name="e_wo_entrp">   -226.67504333 </i>
    <i name="e_0_energy">   -226.75615853 </i>
   </energy>
  </scstep>
  <scstep>
   <time name="dav">   40.51   40.81</time>
   <time name="total">   41.98   42.29</time>
   <energy>
    <i name="e_fr_energy">   -226.79602368 </i>
    <i name="e_wo_entrp">   -226.67512687 </i>
    <i name="e_0_energy">   -226.75572474 </i>
   </energy>
  </scstep>
  <scstep>
   <time name="dav">   30.90   31.13</time>
   <time name="total">   32.38   32.62</time>
   <energy>
    <i name="e_fr_energy">   -226.79586139 </i>
    <i name="e_wo_entrp">   -226.67375228 </i>
    <i name="e_0_energy">   -226.75515835 </i>
   </energy>
  </scstep>
  <scstep>
   <time name="dav">   29.69   30.07</time>
   <time name="total">   29.83   30.21</time>
   <energy>
    <i name="alphaZ">   2049.86967316 </i>
    <i name="ewald"> 370669.93090075 </i>
    <i name="hartreedc">-455808.06060699 </i>
    <i name="XCdc">   2808.65812670 </i>
    <i name="pawpsdc">  82404.85252995 </i>
    <i name="pawaedc"> -89190.18321358 </i>
    <i name="eentropy">     -0.12215118 </i>
    <i name="bandstr">   -792.07247289 </i>
    <i name="atom">  87630.33133259 </i>
    <i name="e_fr_energy">   -226.79588149 </i>
    <i name="e_wo_entrp">   -226.67373031 </i>
    <i name="e_0_energy">   -226.75516443 </i>
   </energy>
  </scstep>
  <dipole>
   <v name="dipole">      0.00000000       0.00000000      -0.01853983 </v>
   <i name="Tr[quadrupol]">  -6657.92028600 </i>
   <i name="Echarged">      0.00000000 </i>
   <i name="Edipol_quadrupol">      0.00000000 </i>
   <i name="Eion">      0.00000000 </i>
  </dipole>
  <structure>
   <crystal>
    <varray name="basis" >
     <v>       7.70039320       0.00000000       0.00000000 </v>
     <v>       3.85019660       6.66873613       0.00000000 </v>
     <v>       0.00000000       0.00000000      27.57468987 </v>
    </varray>
    <i name="volume">   1416.01245038 </i>
    <varray name="rec_basis" >
     <v>       0.12986350      -0.07497673       0.00000000 </v>
     <v>       0.00000000       0.14995345       0.00000000 </v>
     <v>       0.00000000       0.00000000       0.03626514 </v>
    </varray>
   </crystal>
   <varray name="positions" >
    <v>       0.00000000       0.00000000       0.00000000 </v>
    <v>       0.00000000       0.33333333       0.00000000 </v>
    <v>       1.00000000       0.66666667       0.00000000 </v>
    <v>       0.33333333       0.00000000       0.00000000 </v>
    <v>       0.33333333       0.33333333       0.00000000 </v>
    <v>       0.33333333       0.66666667       0.00000000 </v>
    <v>       0.66666667       0.00000000       0.00000000 </v>
    <v>       0.66666667       0.33333333       0.00000000 </v>
    <v>       0.66666667       0.66666667       0.00000000 </v>
    <v>       0.11111111       0.11111111       0.07600381 </v>
    <v>       0.11111111       0.44444444       0.07600381 </v>
    <v>       0.11111111       0.77777778       0.07600381 </v>
    <v>       0.44444444       0.11111111       0.07600381 </v>
    <v>       0.44444444       0.44444444       0.07600381 </v>
    <v>       0.44444444       0.77777778       0.07600381 </v>
    <v>       0.77777778       0.11111111       0.07600381 </v>
    <v>       0.77777778       0.44444444       0.07600381 </v>
    <v>       0.77777778       0.77777778       0.07600381 </v>
    <v>       0.22222222       0.22222222       0.15151417 </v>
    <v>       0.22222222       0.55555556       0.15151417 </v>
    <v>       0.22222222       0.88888889       0.15151417 </v>
    <v>       0.55555556       0.22222222       0.15151417 </v>
    <v>       0.55555556       0.55555556       0.15151417 </v>
    <v>       0.55555556       0.88888889       0.15151417 </v>
    <v>       0.88888889       0.22222222       0.15151417 </v>
    <v>       0.88888889       0.55555556       0.15151417 </v>
    <v>       0.88888889       0.88888889       0.15151417 </v>
    <v>      -0.00000000      -0.00000000       0.22802676 </v>
    <v>       0.00000000       0.33333333       0.22802676 </v>
    <v>       1.00000000       0.66666667       0.22802676 </v>
    <v>       0.33333333       0.00000000       0.22802676 </v>
    <v>       0.33333333       0.33333333       0.22802676 </v>
    <v>       0.33333333       0.66666667       0.22802676 </v>
    <v>       0.66666667      -0.00000000       0.22802676 </v>
    <v>       0.66666667       0.33333333       0.22802676 </v>
    <v>       0.66666667       0.66666667       0.22802676 </v>
    <v>       0.11111111       0.11111111       0.30449549 </v>
    <v>       0.11111111       0.44444444       0.30449549 </v>
    <v>       0.11111111       0.77777778       0.30449549 </v>
    <v>       0.44444444       0.11111111       0.30449549 </v>
    <v>       0.44444444       0.44444444       0.30449549 </v>
    <v>       0.44444444       0.77777778       0.30449549 </v>
    <v>       0.77777778       0.11111111       0.30449549 </v>
    <v>       0.77777778       0.44444444       0.30449549 </v>
    <v>       0.77777778       0.77777778       0.30449549 </v>
    <v>       0.22222222       0.22222222       0.37910626 </v>
    <v>       0.22222222       0.55555556       0.37910626 </v>
    <v>       0.22222222       0.88888889       0.37910626 </v>
    <v>       0.55555556       0.22222222       0.37910626 </v>
    <v>       0.55555556       0.55555556       0.37910626 </v>
    <v>       0.55555556       0.88888889       0.37910626 </v>
    <v>       0.88888889       0.22222222       0.37910626 </v>
    <v>       0.88888889       0.55555556       0.37910626 </v>
    <v>       0.88888889       0.88888889       0.37910626 </v>
    <v>      -0.00000000      -0.00000000       0.45313646 </v>
    <v>       0.00000000       0.33333333       0.45313646 </v>
    <v>       1.00000000       0.66666667       0.45313646 </v>
    <v>       0.33333333      -0.00000000       0.45313646 </v>
    <v>       0.33333333       0.33333333       0.45313646 </v>
    <v>       0.33333333       0.66666667       0.45313646 </v>
    <v>       0.66666667      -0.00000000       0.45313646 </v>
    <v>       0.66666667       0.33333333       0.45313646 </v>
    <v>       0.66666667       0.66666667       0.45313646 </v>
   </varray>
  </structure>
  <varray name="forces" >
   <v>      -0.00000000      -0.00000000       0.16187917 </v>
   <v>      -0.00000000      -0.00000000       0.16187917 </v>
   <v>       0.00000000      -0.00000000       0.16187917 </v>
   <v>      -0.00000000      -0.00000000       0.16187917 </v>
   <v>       0.00000000      -0.00000000       0.16187917 </v>
   <v>      -0.00000000      -0.00000000       0.16187917 </v>
   <v>       0.00000000      -0.00000000       0.16187917 </v>
   <v>      -0.00000000      -0.00000000       0.16187917 </v>
   <v>       0.00000000      -0.00000000       0.16187917 </v>
   <v>      -0.00000000       0.00000000       0.00397688 </v>
   <v>       0.00000000       0.00000000       0.00397688 </v>
   <v>      -0.00000000      -0.00000000       0.00397688 </v>
   <v>       0.00000000      -0.00000000       0.00397688 </v>
   <v>      -0.00000000      -0.00000000       0.00397688 </v>
[...]
       <r>    -6.5493     2.7999     1.2948 </r>
       <r>    -6.4736     3.0968     1.5292 </r>
       <r>    -6.3979     3.0771     1.7621 </r>
       <r>    -6.3223     2.8376     1.9768 </r>
       <r>    -6.2466     2.1590     2.1403 </r>
       <r>    -6.1709     1.4308     2.2485 </r>
       <r>    -6.0952     1.5078     2.3627 </r>
       <r>    -6.0195     2.6258     2.5614 </r>
       <r>    -5.9438     4.2255     2.8812 </r>
       <r>    -5.8682     5.5360     3.3002 </r>
       <r>    -5.7925     5.8155     3.7403 </r>
       <r>    -5.7168     4.7581     4.1004 </r>
       <r>    -5.6411     3.2069     4.3431 </r>
       <r>    -5.5654     2.4446     4.5281 </r>
       <r>    -5.4897     2.4568     4.7141 </r>
       <r>    -5.4141     2.1119     4.8739 </r>
       <r>    -5.3384     1.0705     4.9549 </r>
       <r>    -5.2627     0.3460     4.9811 </r>
       <r>    -5.1870     1.0913     5.0637 </r>
       <r>    -5.1113     3.4724     5.3265 </r>
       <r>    -5.0356     6.3754     5.8090 </r>
       <r>    -4.9600     8.1642     6.4269 </r>
       <r>    -4.8843     8.1917     7.0469 </r>
       <r>    -4.8086     7.1598     7.5887 </r>
       <r>    -4.7329     6.0000     8.0428 </r>
       <r>    -4.6572     5.4522     8.4555 </r>
       <r>    -4.5815     6.0009     8.9096 </r>
       <r>    -4.5059     6.8856     9.4308 </r>
       <r>    -4.4302     6.4822     9.9213 </r>
       <r>    -4.3545     4.5927    10.2689 </r>
       <r>    -4.2788     2.9432    10.4917 </r>
       <r>    -4.2031     2.9838    10.7175 </r>
       <r>    -4.1275     4.4816    11.0567 </r>
       <r>    -4.0518     6.6825    11.5624 </r>
       <r>    -3.9761     9.2203    12.2603 </r>
       <r>    -3.9004    10.9102    13.0860 </r>
       <r>    -3.8247     9.9766    13.8410 </r>
       <r>    -3.7490     7.1720    14.3838 </r>
       <r>    -3.6734     5.9488    14.8340 </r>
       <r>    -3.5977     7.7726    15.4223 </r>
       <r>    -3.5220    10.3703    16.2071 </r>
       <r>    -3.4463    12.2988    17.1380 </r>
       <r>    -3.3706    15.5051    18.3114 </r>
       <r>    -3.2949    21.3581    19.9279 </r>
       <r>    -3.2193    27.7361    22.0270 </r>
       <r>    -3.1436    31.3348    24.3985 </r>
       <r>    -3.0679    30.3631    26.6965 </r>
       <r>    -2.9922    25.8804    28.6552 </r>
       <r>    -2.9165    22.2567    30.3396 </r>
       <r>    -2.8408    24.4865    32.1928 </r>
       <r>    -2.7652    33.4461    34.7241 </r>
       <r>    -2.6895    44.3171    38.0782 </r>
       <r>    -2.6138    51.2226    41.9548 </r>
       <r>    -2.5381    53.8165    46.0278 </r>
       <r>    -2.4624    56.7819    50.3252 </r>
       <r>    -2.3867    62.3471    55.0438 </r>
       <r>    -2.3111    67.3636    60.1421 </r>
       <r>    -2.2354    68.1493    65.2998 </r>
       <r>    -2.1597    64.0246    70.1453 </r>
       <r>    -2.0840    57.3855    74.4884 </r>
       <r>    -2.0083    53.5207    78.5390 </r>
       <r>    -1.9327    57.0593    82.8574 </r>
       <r>    -1.8570    66.3258    87.8771 </r>
       <r>    -1.7813    74.2731    93.4983 </r>
       <r>    -1.7056    76.6346    99.2983 </r>
       <r>    -1.6299    76.7295   105.1054 </r>
       <r>    -1.5542    80.4117   111.1911 </r>
       <r>    -1.4786    88.3054   117.8743 </r>
       <r>    -1.4029    95.9362   125.1350 </r>
       <r>    -1.3272   101.8695   132.8448 </r>
       <r>    -1.2515   110.6461   141.2188 </r>
       <r>    -1.1758   122.8121   150.5135 </r>
       <r>    -1.1001   129.2401   160.2948 </r>
       <r>    -1.0245   123.6787   169.6551 </r>
       <r>    -0.9488   112.8572   178.1965 </r>
       <r>    -0.8731   106.5783   186.2626 </r>
       <r>    -0.7974   106.3930   194.3147 </r>
       <r>    -0.7217   108.3185   202.5125 </r>
       <r>    -0.6460   109.4361   210.7950 </r>
       <r>    -0.5704   109.5675   219.0873 </r>
       <r>    -0.4947   109.0175   227.3381 </r>
       <r>    -0.4190   107.4189   235.4678 </r>
       <r>    -0.3433   107.1735   243.5790 </r>
       <r>    -0.2676   112.3091   252.0789 </r>
       <r>    -0.1920   120.3943   261.1906 </r>
       <r>    -0.1163   125.9139   270.7201 </r>
       <r>    -0.0406   132.5663   280.7531 </r>
       <r>     0.0351   147.3424   291.9044 </r>
       <r>     0.1108   161.6093   304.1354 </r>
       <r>     0.1865   153.2790   315.7360 </r>
       <r>     0.2621   113.3503   324.3146 </r>
       <r>     0.3378    60.4969   328.8932 </r>
       <r>     0.4135    22.2825   330.5796 </r>
       <r>     0.4892     9.0731   331.2663 </r>
       <r>     0.5649    12.0625   332.1792 </r>
       <r>     0.6406    18.4374   333.5746 </r>
       <r>     0.7162    21.2779   335.1850 </r>
       <r>     0.7919    19.5712   336.6662 </r>
       <r>     0.8676    15.0614   337.8061 </r>
       <r>     0.9433    10.1652   338.5754 </r>
       <r>     1.0190     7.4015   339.1356 </r>
       <r>     1.0947     8.0225   339.7427 </r>
       <r>     1.1703    10.1495   340.5109 </r>
       <r>     1.2460    10.8073   341.3288 </r>
       <r>     1.3217     9.8367   342.0733 </r>
       <r>     1.3974     8.9630   342.7516 </r>
       <r>     1.4731     8.5304   343.3972 </r>
       <r>     1.5488     8.2622   344.0225 </r>
       <r>     1.6244     9.2897   344.7256 </r>
       <r>     1.7001    12.3612   345.6611 </r>
       <r>     1.7758    15.2591   346.8160 </r>
       <r>     1.8515    14.8598   347.9406 </r>
       <r>     1.9272    11.1852   348.7871 </r>
       <r>     2.0028     6.9029   349.3095 </r>
       <r>     2.0785     3.7890   349.5963 </r>
       <r>     2.1542     2.2602   349.7674 </r>
       <r>     2.2299     3.0828   350.0007 </r>
       <r>     2.3056     6.3697   350.4828 </r>
       <r>     2.3813     9.5480   351.2054 </r>
       <r>     2.4569     9.9039   351.9549 </r>
       <r>     2.5326     8.8878   352.6276 </r>
       <r>     2.6083    10.1413   353.3951 </r>
       <r>     2.6840    14.0192   354.4561 </r>
       <r>     2.7597    17.3984   355.7729 </r>
       <r>     2.8354    17.4793   357.0958 </r>
       <r>     2.9110    14.2493   358.1742 </r>
       <r>     2.9867    10.8267   358.9936 </r>
       <r>     3.0624    10.5608   359.7928 </r>
       <r>     3.1381    12.5803   360.7450 </r>
       <r>     3.2138    12.6190   361.7000 </r>
       <r>     3.2895     9.0140   362.3822 </r>
       <r>     3.3651     4.6989   362.7378 </r>
       <r>     3.4408     2.6106   362.9354 </r>
       <r>     3.5165     2.5327   363.1271 </r>
       <r>     3.5922     3.0555   363.3583 </r>
       <r>     3.6679     3.8731   363.6515 </r>
       <r>     3.7436     5.6589   364.0797 </r>
       <r>     3.8192     8.6266   364.7326 </r>
       <r>     3.8949    11.1220   365.5744 </r>
       <r>     3.9706    10.9057   366.3997 </r>
       <r>     4.0463     9.0558   367.0851 </r>
       <r>     4.1220     9.7687   367.8244 </r>
       <r>     4.1976    14.0498   368.8877 </r>
       <r>     4.2733    17.0359   370.1771 </r>
       <r>     4.3490    14.3030   371.2596 </r>
       <r>     4.4247     7.5566   371.8315 </r>
       <r>     4.5004     1.6686   371.9578 </r>
       <r>     4.5761    -0.6952   371.9051 </r>
       <r>     4.6517     0.4346   371.9380 </r>
       <r>     4.7274     3.9918   372.2401 </r>
       <r>     4.8031     7.8508   372.8343 </r>
       <r>     4.8788     9.3661   373.5432 </r>
       <r>     4.9545     7.7584   374.1303 </r>
       <r>     5.0302     4.7025   374.4862 </r>
       <r>     5.1058     2.0754   374.6433 </r>
       <r>     5.1815     0.5086   374.6818 </r>
       <r>     5.2572     0.2823   374.7032 </r>
       <r>     5.3329     2.1964   374.8694 </r>
       <r>     5.4086     6.3498   375.3500 </r>
       <r>     5.4843    10.6016   376.1523 </r>
       <r>     5.5599    12.3170   377.0845 </r>
       <r>     5.6356    11.8312   377.9799 </r>
       <r>     5.7113    11.8856   378.8795 </r>
       <r>     5.7870    13.5163   379.9024 </r>
       <r>     5.8627    14.5688   381.0050 </r>
       <r>     5.9383    12.5529   381.9551 </r>
       <r>     6.0140     8.0073   382.5611 </r>
       <r>     6.0897     4.2333   382.8815 </r>
       <r>     6.1654     3.7807   383.1676 </r>
       <r>     6.2411     6.4381   383.6548 </r>
       <r>     6.3168    10.2847   384.4332 </r>
       <r>     6.3924    12.9032   385.4098 </r>
       <r>     6.4681    12.3032   386.3409 </r>
       <r>     6.5438     8.9516   387.0184 </r>
       <r>     6.6195     6.1886   387.4868 </r>
       <r>     6.6952     6.5590   387.9832 </r>
       <r>     6.7709     8.6459   388.6375 </r>
       <r>     6.8465     9.3679   389.3465 </r>
       <r>     6.9222     8.8328   390.0150 </r>
       <r>     6.9979    10.4277   390.8042 </r>
       <r>     7.0736    15.1537   391.9510 </r>
       <r>     7.1493    19.0815   393.3952 </r>
       <r>     7.2250    18.4739   394.7933 </r>
       <r>     7.3006    14.2082   395.8687 </r>
       <r>     7.3763     9.4123   396.5810 </r>
       <r>     7.4520     5.7177   397.0137 </r>
       <r>     7.5277     3.5444   397.2820 </r>
       <r>     7.6034     4.1424   397.5955 </r>
       <r>     7.6791     8.7835   398.2603 </r>
       <r>     7.7547    15.8268   399.4581 </r>
       <r>     7.8304    20.9789   401.0458 </r>
       <r>     7.9061    21.4015   402.6655 </r>
       <r>     7.9818    18.1029   404.0356 </r>
       <r>     8.0575    13.8735   405.0856 </r>
       <r>     8.1331    10.1353   405.8527 </r>
       <r>     8.2088     6.8486   406.3710 </r>
       <r>     8.2845     4.8477   406.7379 </r>
       <r>     8.3602     6.2314   407.2095 </r>
       <r>     8.4359    11.7278   408.0971 </r>
       <r>     8.5116    18.6122   409.5057 </r>
       <r>     8.5872    22.1532   411.1823 </r>
       <r>     8.6629    19.8957   412.6881 </r>
       <r>     8.7386    14.1773   413.7610 </r>
       <r>     8.8143     9.3877   414.4715 </r>
       <r>     8.8900     8.0075   415.0776 </r>
       <r>     8.9657    10.0668   415.8394 </r>
       <r>     9.0413    13.8225   416.8856 </r>
       <r>     9.1170    16.5580   418.1387 </r>
       <r>     9.1927    17.0286   419.4275 </r>
       <r>     9.2684    16.2724   420.6590 </r>
       <r>     9.3441    15.3404   421.8200 </r>
       <r>     9.4198    14.6937   422.9321 </r>
       <r>     9.4954    14.9521   424.0637 </r>
       <r>     9.5711    15.5720   425.2422 </r>
       <r>     9.6468    14.8947   426.3695 </r>
       <r>     9.7225    13.0136   427.3544 </r>
       <r>     9.7982    11.8996   428.2550 </r>
       <r>     9.8738    12.1922   429.1777 </r>
       <r>     9.9495    12.3282   430.1108 </r>
       <r>    10.0252    11.2210   430.9600 </r>
       <r>    10.1009    10.1963   431.7317 </r>
       <r>    10.1766    11.3598   432.5914 </r>
       <r>    10.2523    14.4639   433.6861 </r>
       <r>    10.3279    17.4473   435.0066 </r>
       <r>    10.4036    20.1440   436.5311 </r>
       <r>    10.4793    23.2854   438.2934 </r>
       <r>    10.5550    24.4235   440.1418 </r>
       <r>    10.6307    20.7107   441.7093 </r>
       <r>    10.7064    14.0441   442.7722 </r>
       <r>    10.7820     8.6148   443.4242 </r>
       <r>    10.8577     6.1977   443.8932 </r>
       <r>    10.9334     6.4135   444.3786 </r>
       <r>    11.0091     8.5077   445.0225 </r>
       <r>    11.0848    11.1484   445.8663 </r>
       <r>    11.1605    12.1262   446.7840 </r>
       <r>    11.2361     9.9289   447.5354 </r>
       <r>    11.3118     5.5670   447.9568 </r>
       <r>    11.3875     1.6738   448.0834 </r>
       <r>    11.4632    -0.2066   448.0678 </r>
       <r>    11.5389    -0.5031   448.0297 </r>
       <r>    11.6146    -0.2769   448.0088 </r>
       <r>    11.6902    -0.0916   448.0018 </r>
       <r>    11.7659    -0.0207   448.0003 </r>
       <r>    11.8416    -0.0033   448.0000 </r>
       <r>    11.9173    -0.0004   448.0000 </r>
       <r>    11.9930    -0.0000   448.0000 </r>
       <r>    12.0686    -0.0000   448.0000 </r>
       <r>    12.1443    -0.0000   448.0000 </r>
       <r>    12.2200    -0.0000   448.0000 </r>
       <r>    12.2957    -0.0000   448.0000 </r>
       <r>    12.3714    -0.0000   448.0000 </r>
       <r>    12.4471    -0.0000   448.0000 </r>
       <r>    12.5227     0.0000   448.0000 </r>
       <r>    12.5984     0.0000   448.0000 </r>
       <r>    12.6741     0.0000   448.0000 </r>
       <r>    12.7498     0.0000   448.0000 </r>
       <r>    12.8255     0.0000   448.0000 </r>
       <r>    12.9012     0.0000   448.0000 </r>
       <r>    12.9768     0.0000   448.0000 </r>
       <r>    13.0525     0.0000   448.0000 </r>
       <r>    13.1282     0.0000   448.0000 </r>
       <r>    13.2039     0.0000   448.0000 </r>
      </set>
     </set>
    </array>
   </total>
  </dos>
 </calculation>
 <structure name="finalpos" >
  <crystal>
   <varray name="basis" >
    <v>       7.70039320       0.00000000       0.00000000 </v>
    <v>       3.85019660       6.66873613       0.00000000 </v>
    <v>       0.00000000       0.00000000      27.57468987 </v>
   </varray>
   <i name="volume">   1416.01245038 </i>
   <varray name="rec_basis" >
    <v>       0.12986350      -0.07497673       0.00000000 </v>
    <v>       0.00000000       0.14995345       0.00000000 </v>
    <v>       0.00000000       0.00000000       0.03626514 </v>
   </varray>
  </crystal>
  <varray name="positions" >
   <v>       0.00000000       0.00000000       0.00000000 </v>
   <v>       0.00000000       0.33333333       0.00000000 </v>
   <v>       1.00000000       0.66666667       0.00000000 </v>
   <v>       0.33333333       0.00000000       0.00000000 </v>
   <v>       0.33333333       0.33333333       0.00000000 </v>
   <v>       0.33333333       0.66666667       0.00000000 </v>
   <v>       0.66666667       0.00000000       0.00000000 </v>
   <v>       0.66666667       0.33333333       0.00000000 </v>
   <v>       0.66666667       0.66666667       0.00000000 </v>
   <v>       0.11111111       0.11111111       0.07600381 </v>
   <v>       0.11111111       0.44444444       0.07600381 </v>
   <v>       0.11111111       0.77777778       0.07600381 </v>
   <v>       0.44444444       0.11111111       0.07600381 </v>
   <v>       0.44444444       0.44444444       0.07600381 </v>
   <v>       0.44444444       0.77777778       0.07600381 </v>
   <v>       0.77777778       0.11111111       0.07600381 </v>
   <v>       0.77777778       0.44444444       0.07600381 </v>
   <v>       0.77777778       0.77777778       0.07600381 </v>
   <v>       0.22222222       0.22222222       0.15021150 </v>
   <v>       0.22222222       0.55555556       0.15021150 </v>
   <v>       0.22222222       0.88888889       0.15021150 </v>
   <v>       0.55555556       0.22222222       0.15021150 </v>
   <v>       0.55555556       0.55555556       0.15021150 </v>
   <v>       0.55555556       0.88888889       0.15021150 </v>
   <v>       0.88888889       0.22222222       0.15021150 </v>
   <v>       0.88888889       0.55555556       0.15021150 </v>
   <v>       0.88888889       0.88888889       0.15021150 </v>
   <v>       0.00000000      -0.00000000       0.22481605 </v>
   <v>       0.00000000       0.33333333       0.22481605 </v>
   <v>       1.00000000       0.66666667       0.22481605 </v>
   <v>       0.33333333      -0.00000000       0.22481605 </v>
   <v>       0.33333333       0.33333333       0.22481605 </v>
   <v>       0.33333333       0.66666667       0.22481605 </v>
   <v>       0.66666667      -0.00000000       0.22481605 </v>
   <v>       0.66666667       0.33333333       0.22481605 </v>
   <v>       0.66666667       0.66666667       0.22481605 </v>
   <v>       0.11111111       0.11111111       0.29943329 </v>
   <v>       0.11111111       0.44444444       0.29943329 </v>
   <v>       0.11111111       0.77777778       0.29943329 </v>
   <v>       0.44444444       0.11111111       0.29943329 </v>
   <v>       0.44444444       0.44444444       0.29943329 </v>
   <v>       0.44444444       0.77777778       0.29943329 </v>
   <v>       0.77777778       0.11111111       0.29943329 </v>
   <v>       0.77777778       0.44444444       0.29943329 </v>
   <v>       0.77777778       0.77777778       0.29943329 </v>
   <v>       0.22222222       0.22222222       0.37375841 </v>
   <v>       0.22222222       0.55555556       0.37375841 </v>
   <v>       0.22222222       0.88888889       0.37375841 </v>
   <v>       0.55555556       0.22222222       0.37375841 </v>
   <v>       0.55555556       0.55555556       0.37375841 </v>
   <v>       0.55555556       0.88888889       0.37375841 </v>
   <v>       0.88888889       0.22222222       0.37375841 </v>
   <v>       0.88888889       0.55555556       0.37375841 </v>
   <v>       0.88888889       0.88888889       0.37375841 </v>
   <v>      -0.00000000      -0.00000000       0.44824581 </v>
   <v>       0.00000000       0.33333333       0.44824581 </v>
   <v>       1.00000000       0.66666667       0.44824581 </v>
   <v>       0.33333333      -0.00000000       0.44824581 </v>
   <v>       0.33333333       0.33333333       0.44824581 </v>
   <v>       0.33333333       0.66666667       0.44824581 </v>
   <v>       0.66666667      -0.00000000       0.44824581 </v>
   <v>       0.66666667       0.33333333       0.44824581 </v>
   <v>       0.66666667       0.66666667       0.44824581 </v>
  </varray>
  <varray name="selective"  type="logical" >
   <v type="logical" >  F  F  F </v>
   <v type="logical" >  F  F  F </v>
   <v type="logical" >  F  F  F </v>
   <v type="logical" >  F  F  F </v>
   <v type="logical" >  F  F  F </v>
   <v type="logical" >  F  F  F </v>
   <v type="logical" >  F  F  F </v>
   <v type="logical" >  F  F  F </v>
   <v type="logical" >  F  F  F </v>
   <v type="logical" >  F  F  F </v>
   <v type="logical" >  F  F  F </v>
   <v type="logical" >  F  F  F </v>
   <v type="logical" >  F  F  F </v>
   <v type="logical" >  F  F  F </v>
   <v type="logical" >  F  F  F </v>
   <v type="logical" >  F  F  F </v>
   <v type="logical" >  F  F  F </v>
   <v type="logical" >  F  F  F </v>
   <v type="logical" >  T  T  T </v>
   <v type="logical" >  T  T  T </v>
   <v type="logical" >  T  T  T </v>
   <v type="logical" >  T  T  T </v>
   <v type="logical" >  T  T  T </v>
   <v type="logical" >  T  T  T </v>
   <v type="logical" >  T  T  T </v>
   <v type="logical" >  T  T  T </v>
   <v type="logical" >  T  T  T </v>
   <v type="logical" >  T  T  T </v>
   <v type="logical" >  T  T  T </v>
   <v type="logical" >  T  T  T </v>
   <v type="logical" >  T  T  T </v>
   <v type="logical" >  T  T  T </v>
   <v type="logical" >  T  T  T </v>
   <v type="logical" >  T  T  T </v>
   <v type="logical" >  T  T  T </v>
   <v type="logical" >  T  T  T </v>
   <v type="logical" >  T  T  T </v>
   <v type="logical" >  T  T  T </v>
   <v type="logical" >  T  T  T </v>
   <v type="logical" >  T  T  T </v>
   <v type="logical" >  T  T  T </v>
   <v type="logical" >  T  T  T </v>
   <v type="logical" >  T  T  T </v>
   <v type="logical" >  T  T  T </v>
   <v type="logical" >  T  T  T </v>
   <v type="logical" >  T  T  T </v>
   <v type="logical" >  T  T  T </v>
   <v type="logical" >  T  T  T </v>
   <v type="logical" >  T  T  T </v>
   <v type="logical" >  T  T  T </v>
   <v type="logical" >  T  T  T </v>
   <v type="logical" >  T  T  T </v>
   <v type="logical" >  T  T  T </v>
   <v type="logical" >  T  T  T </v>
   <v type="logical" >  T  T  T </v>
   <v type="logical" >  T  T  T </v>
   <v type="logical" >  T  T  T </v>
   <v type="logical" >  T  T  T </v>
   <v type="logical" >  T  T  T </v>
   <v type="logical" >  T  T  T </v>
   <v type="logical" >  T  T  T </v>
   <v type="logical" >  T  T  T </v>
   <v type="logical" >  T  T  T </v>
  </varray>
  <nose>
   <v>      -3.00000000       0.00000000       0.00010000       0.00010000 </v>
  </nose>
 </structure>
</modeling>
