unknown system                          
           1
     7.700393    0.000000    0.000000
     3.850197    6.668736    0.000000
     0.000000    0.000000   27.574690
   Cu
    63
Direct configuration=     1
   0.00000000  0.00000000  0.00000000
   0.00000000  0.33333333  0.00000000
   1.00000000  0.66666667  0.00000000
   0.33333333  0.00000000  0.00000000
   0.33333333  0.33333333  0.00000000
   0.33333333  0.66666667  0.00000000
   0.66666667  0.00000000  0.00000000
   0.66666667  0.33333333  0.00000000
   0.66666667  0.66666667  0.00000000
   0.11111111  0.11111111  0.07600381
   0.11111111  0.44444444  0.07600381
   0.11111111  0.77777778  0.07600381
   0.44444444  0.11111111  0.07600381
   0.44444444  0.44444444  0.07600381
   0.44444444  0.77777778  0.07600381
   0.77777778  0.11111111  0.07600381
   0.77777778  0.44444444  0.07600381
   0.77777778  0.77777778  0.07600381
   0.22222222  0.22222222  0.15200763
   0.22222222  0.55555556  0.15200763
   0.22222222  0.88888889  0.15200763
   0.55555556  0.22222222  0.15200763
   0.55555556  0.55555556  0.15200763
   0.55555556  0.88888889  0.15200763
   0.88888889  0.22222222  0.15200763
   0.88888889  0.55555556  0.15200763
   0.88888889  0.88888889  0.15200763
   0.00000000  0.00000000  0.22801144
   0.00000000  0.33333333  0.22801144
   1.00000000  0.66666667  0.22801144
   0.33333333  0.00000000  0.22801144
   0.33333333  0.33333333  0.22801144
   0.33333333  0.66666667  0.22801144
   0.66666667  0.00000000  0.22801144
   0.66666667  0.33333333  0.22801144
   0.66666667  0.66666667  0.22801144
   0.11111111  0.11111111  0.30401525
   0.11111111  0.44444444  0.30401525
   0.11111111  0.77777778  0.30401525
   0.44444444  0.11111111  0.30401525
   0.44444444  0.44444444  0.30401525
   0.44444444  0.77777778  0.30401525
   0.77777778  0.11111111  0.30401525
   0.77777778  0.44444444  0.30401525
   0.77777778  0.77777778  0.30401525
   0.22222222  0.22222222  0.38001907
   0.22222222  0.55555556  0.38001907
   0.22222222  0.88888889  0.38001907
   0.55555556  0.22222222  0.38001907
   0.55555556  0.55555556  0.38001907
   0.55555556  0.88888889  0.38001907
   0.88888889  0.22222222  0.38001907
   0.88888889  0.55555556  0.38001907
   0.88888889  0.88888889  0.38001907
   0.00000000  0.00000000  0.45602288
   0.00000000  0.33333333  0.45602288
   1.00000000  0.66666667  0.45602288
   0.33333333  0.00000000  0.45602288
   0.33333333  0.33333333  0.45602288
   0.33333333  0.66666667  0.45602288
   0.66666667  0.00000000  0.45602288
   0.66666667  0.33333333  0.45602288
   0.66666667  0.66666667  0.45602288
Direct configuration=     2
   0.00000000  0.00000000  0.00000000
   0.00000000  0.33333333  0.00000000
   1.00000000  0.66666667  0.00000000
   0.33333333  0.00000000  0.00000000
   0.33333333  0.33333333  0.00000000
   0.33333333  0.66666667  0.00000000
   0.66666667  0.00000000  0.00000000
   0.66666667  0.33333333  0.00000000
   0.66666667  0.66666667  0.00000000
   0.11111111  0.11111111  0.07600381
   0.11111111  0.44444444  0.07600381
   0.11111111  0.77777778  0.07600381
   0.44444444  0.11111111  0.07600381
   0.44444444  0.44444444  0.07600381
   0.44444444  0.77777778  0.07600381
   0.77777778  0.11111111  0.07600381
   0.77777778  0.44444444  0.07600381
   0.77777778  0.77777778  0.07600381
   0.22222222  0.22222222  0.15195828
   0.22222222  0.55555556  0.15195828
   0.22222222  0.88888889  0.15195828
   0.55555556  0.22222222  0.15195828
   0.55555556  0.55555556  0.15195828
   0.55555556  0.88888889  0.15195828
   0.88888889  0.22222222  0.15195828
   0.88888889  0.55555556  0.15195828
   0.88888889  0.88888889  0.15195828
  -0.00000000 -0.00000000  0.22801297
   0.00000000  0.33333333  0.22801297
   1.00000000  0.66666667  0.22801297
   0.33333333  0.00000000  0.22801297
   0.33333333  0.33333333  0.22801297
   0.33333333  0.66666667  0.22801297
   0.66666667 -0.00000000  0.22801297
   0.66666667  0.33333333  0.22801297
   0.66666667  0.66666667  0.22801297
   0.11111111  0.11111111  0.30406328
   0.11111111  0.44444444  0.30406328
   0.11111111  0.77777778  0.30406328
   0.44444444  0.11111111  0.30406328
   0.44444444  0.44444444  0.30406328
   0.44444444  0.77777778  0.30406328
   0.77777778  0.11111111  0.30406328
   0.77777778  0.44444444  0.30406328
   0.77777778  0.77777778  0.30406328
   0.22222222  0.22222222  0.37992779
   0.22222222  0.55555556  0.37992779
   0.22222222  0.88888889  0.37992779
   0.55555556  0.22222222  0.37992779
   0.55555556  0.55555556  0.37992779
   0.55555556  0.88888889  0.37992779
   0.88888889  0.22222222  0.37992779
   0.88888889  0.55555556  0.37992779
   0.88888889  0.88888889  0.37992779
  -0.00000000 -0.00000000  0.45573424
   0.00000000  0.33333333  0.45573424
   1.00000000  0.66666667  0.45573424
   0.33333333 -0.00000000  0.45573424
   0.33333333  0.33333333  0.45573424
   0.33333333  0.66666667  0.45573424
   0.66666667 -0.00000000  0.45573424
   0.66666667  0.33333333  0.45573424
   0.66666667  0.66666667  0.45573424
Direct configuration=     3
   0.00000000  0.00000000  0.00000000
   0.00000000  0.33333333  0.00000000
   1.00000000  0.66666667  0.00000000
   0.33333333  0.00000000  0.00000000
   0.33333333  0.33333333  0.00000000
   0.33333333  0.66666667  0.00000000
   0.66666667  0.00000000  0.00000000
   0.66666667  0.33333333  0.00000000
   0.66666667  0.66666667  0.00000000
   0.11111111  0.11111111  0.07600381
   0.11111111  0.44444444  0.07600381
   0.11111111  0.77777778  0.07600381
   0.44444444  0.11111111  0.07600381
   0.44444444  0.44444444  0.07600381
   0.44444444  0.77777778  0.07600381
   0.77777778  0.11111111  0.07600381
   0.77777778  0.44444444  0.07600381
   0.77777778  0.77777778  0.07600381
   0.22222222  0.22222222  0.15181025
   0.22222222  0.55555556  0.15181025
   0.22222222  0.88888889  0.15181025
   0.55555556  0.22222222  0.15181025
   0.55555556  0.55555556  0.15181025
   0.55555556  0.88888889  0.15181025
   0.88888889  0.22222222  0.15181025
   0.88888889  0.55555556  0.15181025
   0.88888889  0.88888889  0.15181025
  -0.00000000 -0.00000000  0.22801757
   0.00000000  0.33333333  0.22801757
   1.00000000  0.66666667  0.22801757
   0.33333333  0.00000000  0.22801757
   0.33333333  0.33333333  0.22801757
   0.33333333  0.66666667  0.22801757
   0.66666667 -0.00000000  0.22801757
   0.66666667  0.33333333  0.22801757
   0.66666667  0.66666667  0.22801757
   0.11111111  0.11111111  0.30420735
   0.11111111  0.44444444  0.30420735
   0.11111111  0.77777778  0.30420735
   0.44444444  0.11111111  0.30420735
   0.44444444  0.44444444  0.30420735
   0.44444444  0.77777778  0.30420735
   0.77777778  0.11111111  0.30420735
   0.77777778  0.44444444  0.30420735
   0.77777778  0.77777778  0.30420735
   0.22222222  0.22222222  0.37965395
   0.22222222  0.55555556  0.37965395
   0.22222222  0.88888889  0.37965395
   0.55555556  0.22222222  0.37965395
   0.55555556  0.55555556  0.37965395
   0.55555556  0.88888889  0.37965395
   0.88888889  0.22222222  0.37965395
   0.88888889  0.55555556  0.37965395
   0.88888889  0.88888889  0.37965395
  -0.00000000 -0.00000000  0.45486831
   0.00000000  0.33333333  0.45486831
   1.00000000  0.66666667  0.45486831
   0.33333333 -0.00000000  0.45486831
   0.33333333  0.33333333  0.45486831
   0.33333333  0.66666667  0.45486831
   0.66666667 -0.00000000  0.45486831
   0.66666667  0.33333333  0.45486831
   0.66666667  0.66666667  0.45486831
Direct configuration=     4
   0.00000000  0.00000000  0.00000000
   0.00000000  0.33333333  0.00000000
   1.00000000  0.66666667  0.00000000
   0.33333333  0.00000000  0.00000000
   0.33333333  0.33333333  0.00000000
   0.33333333  0.66666667  0.00000000
   0.66666667  0.00000000  0.00000000
   0.66666667  0.33333333  0.00000000
   0.66666667  0.66666667  0.00000000
   0.11111111  0.11111111  0.07600381
   0.11111111  0.44444444  0.07600381
   0.11111111  0.77777778  0.07600381
   0.44444444  0.11111111  0.07600381
   0.44444444  0.44444444  0.07600381
   0.44444444  0.77777778  0.07600381
   0.77777778  0.11111111  0.07600381
   0.77777778  0.44444444  0.07600381
   0.77777778  0.77777778  0.07600381
   0.22222222  0.22222222  0.15151417
   0.22222222  0.55555556  0.15151417
   0.22222222  0.88888889  0.15151417
   0.55555556  0.22222222  0.15151417
   0.55555556  0.55555556  0.15151417
   0.55555556  0.88888889  0.15151417
   0.88888889  0.22222222  0.15151417
   0.88888889  0.55555556  0.15151417
   0.88888889  0.88888889  0.15151417
  -0.00000000 -0.00000000  0.22802676
   0.00000000  0.33333333  0.22802676
   1.00000000  0.66666667  0.22802676
   0.33333333  0.00000000  0.22802676
   0.33333333  0.33333333  0.22802676
   0.33333333  0.66666667  0.22802676
   0.66666667 -0.00000000  0.22802676
   0.66666667  0.33333333  0.22802676
   0.66666667  0.66666667  0.22802676
   0.11111111  0.11111111  0.30449549
   0.11111111  0.44444444  0.30449549
   0.11111111  0.77777778  0.30449549
   0.44444444  0.11111111  0.30449549
   0.44444444  0.44444444  0.30449549
   0.44444444  0.77777778  0.30449549
   0.77777778  0.11111111  0.30449549
   0.77777778  0.44444444  0.30449549
   0.77777778  0.77777778  0.30449549
   0.22222222  0.22222222  0.37910626
   0.22222222  0.55555556  0.37910626
   0.22222222  0.88888889  0.37910626
   0.55555556  0.22222222  0.37910626
   0.55555556  0.55555556  0.37910626
   0.55555556  0.88888889  0.37910626
   0.88888889  0.22222222  0.37910626
   0.88888889  0.55555556  0.37910626
   0.88888889  0.88888889  0.37910626
  -0.00000000 -0.00000000  0.45313646
   0.00000000  0.33333333  0.45313646
   1.00000000  0.66666667  0.45313646
   0.33333333 -0.00000000  0.45313646
   0.33333333  0.33333333  0.45313646
   0.33333333  0.66666667  0.45313646
   0.66666667 -0.00000000  0.45313646
   0.66666667  0.33333333  0.45313646
   0.66666667  0.66666667  0.45313646
Direct configuration=     5
   0.00000000  0.00000000  0.00000000
   0.00000000  0.33333333  0.00000000
   1.00000000  0.66666667  0.00000000
   0.33333333  0.00000000  0.00000000
   0.33333333  0.33333333  0.00000000
   0.33333333  0.66666667  0.00000000
   0.66666667  0.00000000  0.00000000
   0.66666667  0.33333333  0.00000000
   0.66666667  0.66666667  0.00000000
   0.11111111  0.11111111  0.07600381
   0.11111111  0.44444444  0.07600381
   0.11111111  0.77777778  0.07600381
   0.44444444  0.11111111  0.07600381
   0.44444444  0.44444444  0.07600381
   0.44444444  0.77777778  0.07600381
   0.77777778  0.11111111  0.07600381
   0.77777778  0.44444444  0.07600381
   0.77777778  0.77777778  0.07600381
   0.22222222  0.22222222  0.15164408
   0.22222222  0.55555556  0.15164408
   0.22222222  0.88888889  0.15164408
   0.55555556  0.22222222  0.15164408
   0.55555556  0.55555556  0.15164408
   0.55555556  0.88888889  0.15164408
   0.88888889  0.22222222  0.15164408
   0.88888889  0.55555556  0.15164408
   0.88888889  0.88888889  0.15164408
  -0.00000000 -0.00000000  0.22802273
   0.00000000  0.33333333  0.22802273
   1.00000000  0.66666667  0.22802273
   0.33333333  0.00000000  0.22802273
   0.33333333  0.33333333  0.22802273
   0.33333333  0.66666667  0.22802273
   0.66666667 -0.00000000  0.22802273
   0.66666667  0.33333333  0.22802273
   0.66666667  0.66666667  0.22802273
   0.11111111  0.11111111  0.30436906
   0.11111111  0.44444444  0.30436906
   0.11111111  0.77777778  0.30436906
   0.44444444  0.11111111  0.30436906
   0.44444444  0.44444444  0.30436906
   0.44444444  0.77777778  0.30436906
   0.77777778  0.11111111  0.30436906
   0.77777778  0.44444444  0.30436906
   0.77777778  0.77777778  0.30436906
   0.22222222  0.22222222  0.37934656
   0.22222222  0.55555556  0.37934656
   0.22222222  0.88888889  0.37934656
   0.55555556  0.22222222  0.37934656
   0.55555556  0.55555556  0.37934656
   0.55555556  0.88888889  0.37934656
   0.88888889  0.22222222  0.37934656
   0.88888889  0.55555556  0.37934656
   0.88888889  0.88888889  0.37934656
  -0.00000000 -0.00000000  0.45389632
   0.00000000  0.33333333  0.45389632
   1.00000000  0.66666667  0.45389632
   0.33333333 -0.00000000  0.45389632
   0.33333333  0.33333333  0.45389632
   0.33333333  0.66666667  0.45389632
   0.66666667 -0.00000000  0.45389632
   0.66666667  0.33333333  0.45389632
   0.66666667  0.66666667  0.45389632
Direct configuration=     6
   0.00000000  0.00000000  0.00000000
   0.00000000  0.33333333  0.00000000
   1.00000000  0.66666667  0.00000000
   0.33333333  0.00000000  0.00000000
   0.33333333  0.33333333  0.00000000
   0.33333333  0.66666667  0.00000000
   0.66666667  0.00000000  0.00000000
   0.66666667  0.33333333  0.00000000
   0.66666667  0.66666667  0.00000000
   0.11111111  0.11111111  0.07600381
   0.11111111  0.44444444  0.07600381
   0.11111111  0.77777778  0.07600381
   0.44444444  0.11111111  0.07600381
   0.44444444  0.44444444  0.07600381
   0.44444444  0.77777778  0.07600381
   0.77777778  0.11111111  0.07600381
   0.77777778  0.44444444  0.07600381
   0.77777778  0.77777778  0.07600381
   0.22222222  0.22222222  0.15170510
   0.22222222  0.55555556  0.15170510
   0.22222222  0.88888889  0.15170510
   0.55555556  0.22222222  0.15170510
   0.55555556  0.55555556  0.15170510
   0.55555556  0.88888889  0.15170510
   0.88888889  0.22222222  0.15170510
   0.88888889  0.55555556  0.15170510
   0.88888889  0.88888889  0.15170510
   0.00000000 -0.00000000  0.22801132
   0.00000000  0.33333333  0.22801132
   1.00000000  0.66666667  0.22801132
   0.33333333  0.00000000  0.22801132
   0.33333333  0.33333333  0.22801132
   0.33333333  0.66666667  0.22801132
   0.66666667 -0.00000000  0.22801132
   0.66666667  0.33333333  0.22801132
   0.66666667  0.66666667  0.22801132
   0.11111111  0.11111111  0.30409681
   0.11111111  0.44444444  0.30409681
   0.11111111  0.77777778  0.30409681
   0.44444444  0.11111111  0.30409681
   0.44444444  0.44444444  0.30409681
   0.44444444  0.77777778  0.30409681
   0.77777778  0.11111111  0.30409681
   0.77777778  0.44444444  0.30409681
   0.77777778  0.77777778  0.30409681
   0.22222222  0.22222222  0.37900912
   0.22222222  0.55555556  0.37900912
   0.22222222  0.88888889  0.37900912
   0.55555556  0.22222222  0.37900912
   0.55555556  0.55555556  0.37900912
   0.55555556  0.88888889  0.37900912
   0.88888889  0.22222222  0.37900912
   0.88888889  0.55555556  0.37900912
   0.88888889  0.88888889  0.37900912
  -0.00000000 -0.00000000  0.45353432
   0.00000000  0.33333333  0.45353432
   1.00000000  0.66666667  0.45353432
   0.33333333 -0.00000000  0.45353432
   0.33333333  0.33333333  0.45353432
   0.33333333  0.66666667  0.45353432
   0.66666667 -0.00000000  0.45353432
   0.66666667  0.33333333  0.45353432
   0.66666667  0.66666667  0.45353432
Direct configuration=     7
   0.00000000  0.00000000  0.00000000
   0.00000000  0.33333333  0.00000000
   1.00000000  0.66666667  0.00000000
   0.33333333  0.00000000  0.00000000
   0.33333333  0.33333333  0.00000000
   0.33333333  0.66666667  0.00000000
   0.66666667  0.00000000  0.00000000
   0.66666667  0.33333333  0.00000000
   0.66666667  0.66666667  0.00000000
   0.11111111  0.11111111  0.07600381
   0.11111111  0.44444444  0.07600381
   0.11111111  0.77777778  0.07600381
   0.44444444  0.11111111  0.07600381
   0.44444444  0.44444444  0.07600381
   0.44444444  0.77777778  0.07600381
   0.77777778  0.11111111  0.07600381
   0.77777778  0.44444444  0.07600381
   0.77777778  0.77777778  0.07600381
   0.22222222  0.22222222  0.15188818
   0.22222222  0.55555556  0.15188818
   0.22222222  0.88888889  0.15188818
   0.55555556  0.22222222  0.15188818
   0.55555556  0.55555556  0.15188818
   0.55555556  0.88888889  0.15188818
   0.88888889  0.22222222  0.15188818
   0.88888889  0.55555556  0.15188818
   0.88888889  0.88888889  0.15188818
   0.00000000 -0.00000000  0.22797709
   0.00000000  0.33333333  0.22797709
   1.00000000  0.66666667  0.22797709
   0.33333333  0.00000000  0.22797709
   0.33333333  0.33333333  0.22797709
   0.33333333  0.66666667  0.22797709
   0.66666667 -0.00000000  0.22797709
   0.66666667  0.33333333  0.22797709
   0.66666667  0.66666667  0.22797709
   0.11111111  0.11111111  0.30328007
   0.11111111  0.44444444  0.30328007
   0.11111111  0.77777778  0.30328007
   0.44444444  0.11111111  0.30328007
   0.44444444  0.44444444  0.30328007
   0.44444444  0.77777778  0.30328007
   0.77777778  0.11111111  0.30328007
   0.77777778  0.44444444  0.30328007
   0.77777778  0.77777778  0.30328007
   0.22222222  0.22222222  0.37799680
   0.22222222  0.55555556  0.37799680
   0.22222222  0.88888889  0.37799680
   0.55555556  0.22222222  0.37799680
   0.55555556  0.55555556  0.37799680
   0.55555556  0.88888889  0.37799680
   0.88888889  0.22222222  0.37799680
   0.88888889  0.55555556  0.37799680
   0.88888889  0.88888889  0.37799680
  -0.00000000 -0.00000000  0.45244832
   0.00000000  0.33333333  0.45244832
   1.00000000  0.66666667  0.45244832
   0.33333333 -0.00000000  0.45244832
   0.33333333  0.33333333  0.45244832
   0.33333333  0.66666667  0.45244832
   0.66666667 -0.00000000  0.45244832
   0.66666667  0.33333333  0.45244832
   0.66666667  0.66666667  0.45244832
Direct configuration=     8
   0.00000000  0.00000000  0.00000000
   0.00000000  0.33333333  0.00000000
   1.00000000  0.66666667  0.00000000
   0.33333333  0.00000000  0.00000000
   0.33333333  0.33333333  0.00000000
   0.33333333  0.66666667  0.00000000
   0.66666667  0.00000000  0.00000000
   0.66666667  0.33333333  0.00000000
   0.66666667  0.66666667  0.00000000
   0.11111111  0.11111111  0.07600381
   0.11111111  0.44444444  0.07600381
   0.11111111  0.77777778  0.07600381
   0.44444444  0.11111111  0.07600381
   0.44444444  0.44444444  0.07600381
   0.44444444  0.77777778  0.07600381
   0.77777778  0.11111111  0.07600381
   0.77777778  0.44444444  0.07600381
   0.77777778  0.77777778  0.07600381
   0.22222222  0.22222222  0.15225434
   0.22222222  0.55555556  0.15225434
   0.22222222  0.88888889  0.15225434
   0.55555556  0.22222222  0.15225434
   0.55555556  0.55555556  0.15225434
   0.55555556  0.88888889  0.15225434
   0.88888889  0.22222222  0.15225434
   0.88888889  0.55555556  0.15225434
   0.88888889  0.88888889  0.15225434
   0.00000000 -0.00000000  0.22790864
   0.00000000  0.33333333  0.22790864
   1.00000000  0.66666667  0.22790864
   0.33333333  0.00000000  0.22790864
   0.33333333  0.33333333  0.22790864
   0.33333333  0.66666667  0.22790864
   0.66666667 -0.00000000  0.22790864
   0.66666667  0.33333333  0.22790864
   0.66666667  0.66666667  0.22790864
   0.11111111  0.11111111  0.30164657
   0.11111111  0.44444444  0.30164657
   0.11111111  0.77777778  0.30164657
   0.44444444  0.11111111  0.30164657
   0.44444444  0.44444444  0.30164657
   0.44444444  0.77777778  0.30164657
   0.77777778  0.11111111  0.30164657
   0.77777778  0.44444444  0.30164657
   0.77777778  0.77777778  0.30164657
   0.22222222  0.22222222  0.37597216
   0.22222222  0.55555556  0.37597216
   0.22222222  0.88888889  0.37597216
   0.55555556  0.22222222  0.37597216
   0.55555556  0.55555556  0.37597216
   0.55555556  0.88888889  0.37597216
   0.88888889  0.22222222  0.37597216
   0.88888889  0.55555556  0.37597216
   0.88888889  0.88888889  0.37597216
  -0.00000000 -0.00000000  0.45027632
   0.00000000  0.33333333  0.45027632
   1.00000000  0.66666667  0.45027632
   0.33333333 -0.00000000  0.45027632
   0.33333333  0.33333333  0.45027632
   0.33333333  0.66666667  0.45027632
   0.66666667 -0.00000000  0.45027632
   0.66666667  0.33333333  0.45027632
   0.66666667  0.66666667  0.45027632
Direct configuration=     9
   0.00000000  0.00000000  0.00000000
   0.00000000  0.33333333  0.00000000
   1.00000000  0.66666667  0.00000000
   0.33333333  0.00000000  0.00000000
   0.33333333  0.33333333  0.00000000
   0.33333333  0.66666667  0.00000000
   0.66666667  0.00000000  0.00000000
   0.66666667  0.33333333  0.00000000
   0.66666667  0.66666667  0.00000000
   0.11111111  0.11111111  0.07600381
   0.11111111  0.44444444  0.07600381
   0.11111111  0.77777778  0.07600381
   0.44444444  0.11111111  0.07600381
   0.44444444  0.44444444  0.07600381
   0.44444444  0.77777778  0.07600381
   0.77777778  0.11111111  0.07600381
   0.77777778  0.44444444  0.07600381
   0.77777778  0.77777778  0.07600381
   0.22222222  0.22222222  0.15208910
   0.22222222  0.55555556  0.15208910
   0.22222222  0.88888889  0.15208910
   0.55555556  0.22222222  0.15208910
   0.55555556  0.55555556  0.15208910
   0.55555556  0.88888889  0.15208910
   0.88888889  0.22222222  0.15208910
   0.88888889  0.55555556  0.15208910
   0.88888889  0.88888889  0.15208910
   0.00000000 -0.00000000  0.22793953
   0.00000000  0.33333333  0.22793953
   1.00000000  0.66666667  0.22793953
   0.33333333  0.00000000  0.22793953
   0.33333333  0.33333333  0.22793953
   0.33333333  0.66666667  0.22793953
   0.66666667 -0.00000000  0.22793953
   0.66666667  0.33333333  0.22793953
   0.66666667  0.66666667  0.22793953
   0.11111111  0.11111111  0.30238374
   0.11111111  0.44444444  0.30238374
   0.11111111  0.77777778  0.30238374
   0.44444444  0.11111111  0.30238374
   0.44444444  0.44444444  0.30238374
   0.44444444  0.77777778  0.30238374
   0.77777778  0.11111111  0.30238374
   0.77777778  0.44444444  0.30238374
   0.77777778  0.77777778  0.30238374
   0.22222222  0.22222222  0.37688585
   0.22222222  0.55555556  0.37688585
   0.22222222  0.88888889  0.37688585
   0.55555556  0.22222222  0.37688585
   0.55555556  0.55555556  0.37688585
   0.55555556  0.88888889  0.37688585
   0.88888889  0.22222222  0.37688585
   0.88888889  0.55555556  0.37688585
   0.88888889  0.88888889  0.37688585
  -0.00000000 -0.00000000  0.45125651
   0.00000000  0.33333333  0.45125651
   1.00000000  0.66666667  0.45125651
   0.33333333 -0.00000000  0.45125651
   0.33333333  0.33333333  0.45125651
   0.33333333  0.66666667  0.45125651
   0.66666667 -0.00000000  0.45125651
   0.66666667  0.33333333  0.45125651
   0.66666667  0.66666667  0.45125651
Direct configuration=    10
   0.00000000  0.00000000  0.00000000
   0.00000000  0.33333333  0.00000000
   1.00000000  0.66666667  0.00000000
   0.33333333  0.00000000  0.00000000
   0.33333333  0.33333333  0.00000000
   0.33333333  0.66666667  0.00000000
   0.66666667  0.00000000  0.00000000
   0.66666667  0.33333333  0.00000000
   0.66666667  0.66666667  0.00000000
   0.11111111  0.11111111  0.07600381
   0.11111111  0.44444444  0.07600381
   0.11111111  0.77777778  0.07600381
   0.44444444  0.11111111  0.07600381
   0.44444444  0.44444444  0.07600381
   0.44444444  0.77777778  0.07600381
   0.77777778  0.11111111  0.07600381
   0.77777778  0.44444444  0.07600381
   0.77777778  0.77777778  0.07600381
   0.22222222  0.22222222  0.15200995
   0.22222222  0.55555556  0.15200995
   0.22222222  0.88888889  0.15200995
   0.55555556  0.22222222  0.15200995
   0.55555556  0.55555556  0.15200995
   0.55555556  0.88888889  0.15200995
   0.88888889  0.22222222  0.15200995
   0.88888889  0.55555556  0.15200995
   0.88888889  0.88888889  0.15200995
   0.00000000 -0.00000000  0.22750670
   0.00000000  0.33333333  0.22750670
   1.00000000  0.66666667  0.22750670
   0.33333333  0.00000000  0.22750670
   0.33333333  0.33333333  0.22750670
   0.33333333  0.66666667  0.22750670
   0.66666667 -0.00000000  0.22750670
   0.66666667  0.33333333  0.22750670
   0.66666667  0.66666667  0.22750670
   0.11111111  0.11111111  0.30209965
   0.11111111  0.44444444  0.30209965
   0.11111111  0.77777778  0.30209965
   0.44444444  0.11111111  0.30209965
   0.44444444  0.44444444  0.30209965
   0.44444444  0.77777778  0.30209965
   0.77777778  0.11111111  0.30209965
   0.77777778  0.44444444  0.30209965
   0.77777778  0.77777778  0.30209965
   0.22222222  0.22222222  0.37634298
   0.22222222  0.55555556  0.37634298
   0.22222222  0.88888889  0.37634298
   0.55555556  0.22222222  0.37634298
   0.55555556  0.55555556  0.37634298
   0.55555556  0.88888889  0.37634298
   0.88888889  0.22222222  0.37634298
   0.88888889  0.55555556  0.37634298
   0.88888889  0.88888889  0.37634298
  -0.00000000 -0.00000000  0.45084089
   0.00000000  0.33333333  0.45084089
   1.00000000  0.66666667  0.45084089
   0.33333333 -0.00000000  0.45084089
   0.33333333  0.33333333  0.45084089
   0.33333333  0.66666667  0.45084089
   0.66666667 -0.00000000  0.45084089
   0.66666667  0.33333333  0.45084089
   0.66666667  0.66666667  0.45084089
Direct configuration=    11
   0.00000000  0.00000000  0.00000000
   0.00000000  0.33333333  0.00000000
   1.00000000  0.66666667  0.00000000
   0.33333333  0.00000000  0.00000000
   0.33333333  0.33333333  0.00000000
   0.33333333  0.66666667  0.00000000
   0.66666667  0.00000000  0.00000000
   0.66666667  0.33333333  0.00000000
   0.66666667  0.66666667  0.00000000
   0.11111111  0.11111111  0.07600381
   0.11111111  0.44444444  0.07600381
   0.11111111  0.77777778  0.07600381
   0.44444444  0.11111111  0.07600381
   0.44444444  0.44444444  0.07600381
   0.44444444  0.77777778  0.07600381
   0.77777778  0.11111111  0.07600381
   0.77777778  0.44444444  0.07600381
   0.77777778  0.77777778  0.07600381
   0.22222222  0.22222222  0.15186770
   0.22222222  0.55555556  0.15186770
   0.22222222  0.88888889  0.15186770
   0.55555556  0.22222222  0.15186770
   0.55555556  0.55555556  0.15186770
   0.55555556  0.88888889  0.15186770
   0.88888889  0.22222222  0.15186770
   0.88888889  0.55555556  0.15186770
   0.88888889  0.88888889  0.15186770
   0.00000000 -0.00000000  0.22672871
   0.00000000  0.33333333  0.22672871
   1.00000000  0.66666667  0.22672871
   0.33333333  0.00000000  0.22672871
   0.33333333  0.33333333  0.22672871
   0.33333333  0.66666667  0.22672871
   0.66666667 -0.00000000  0.22672871
   0.66666667  0.33333333  0.22672871
   0.66666667  0.66666667  0.22672871
   0.11111111  0.11111111  0.30158902
   0.11111111  0.44444444  0.30158902
   0.11111111  0.77777778  0.30158902
   0.44444444  0.11111111  0.30158902
   0.44444444  0.44444444  0.30158902
   0.44444444  0.77777778  0.30158902
   0.77777778  0.11111111  0.30158902
   0.77777778  0.44444444  0.30158902
   0.77777778  0.77777778  0.30158902
   0.22222222  0.22222222  0.37536722
   0.22222222  0.55555556  0.37536722
   0.22222222  0.88888889  0.37536722
   0.55555556  0.22222222  0.37536722
   0.55555556  0.55555556  0.37536722
   0.55555556  0.88888889  0.37536722
   0.88888889  0.22222222  0.37536722
   0.88888889  0.55555556  0.37536722
   0.88888889  0.88888889  0.37536722
  -0.00000000 -0.00000000  0.45009384
   0.00000000  0.33333333  0.45009384
   1.00000000  0.66666667  0.45009384
   0.33333333 -0.00000000  0.45009384
   0.33333333  0.33333333  0.45009384
   0.33333333  0.66666667  0.45009384
   0.66666667 -0.00000000  0.45009384
   0.66666667  0.33333333  0.45009384
   0.66666667  0.66666667  0.45009384
Direct configuration=    12
   0.00000000  0.00000000  0.00000000
   0.00000000  0.33333333  0.00000000
   1.00000000  0.66666667  0.00000000
   0.33333333  0.00000000  0.00000000
   0.33333333  0.33333333  0.00000000
   0.33333333  0.66666667  0.00000000
   0.66666667  0.00000000  0.00000000
   0.66666667  0.33333333  0.00000000
   0.66666667  0.66666667  0.00000000
   0.11111111  0.11111111  0.07600381
   0.11111111  0.44444444  0.07600381
   0.11111111  0.77777778  0.07600381
   0.44444444  0.11111111  0.07600381
   0.44444444  0.44444444  0.07600381
   0.44444444  0.77777778  0.07600381
   0.77777778  0.11111111  0.07600381
   0.77777778  0.44444444  0.07600381
   0.77777778  0.77777778  0.07600381
   0.22222222  0.22222222  0.15150279
   0.22222222  0.55555556  0.15150279
   0.22222222  0.88888889  0.15150279
   0.55555556  0.22222222  0.15150279
   0.55555556  0.55555556  0.15150279
   0.55555556  0.88888889  0.15150279
   0.88888889  0.22222222  0.15150279
   0.88888889  0.55555556  0.15150279
   0.88888889  0.88888889  0.15150279
   0.00000000 -0.00000000  0.22632736
   0.00000000  0.33333333  0.22632736
   1.00000000  0.66666667  0.22632736
   0.33333333 -0.00000000  0.22632736
   0.33333333  0.33333333  0.22632736
   0.33333333  0.66666667  0.22632736
   0.66666667 -0.00000000  0.22632736
   0.66666667  0.33333333  0.22632736
   0.66666667  0.66666667  0.22632736
   0.11111111  0.11111111  0.30111700
   0.11111111  0.44444444  0.30111700
   0.11111111  0.77777778  0.30111700
   0.44444444  0.11111111  0.30111700
   0.44444444  0.44444444  0.30111700
   0.44444444  0.77777778  0.30111700
   0.77777778  0.11111111  0.30111700
   0.77777778  0.44444444  0.30111700
   0.77777778  0.77777778  0.30111700
   0.22222222  0.22222222  0.37505400
   0.22222222  0.55555556  0.37505400
   0.22222222  0.88888889  0.37505400
   0.55555556  0.22222222  0.37505400
   0.55555556  0.55555556  0.37505400
   0.55555556  0.88888889  0.37505400
   0.88888889  0.22222222  0.37505400
   0.88888889  0.55555556  0.37505400
   0.88888889  0.88888889  0.37505400
  -0.00000000 -0.00000000  0.44967881
   0.00000000  0.33333333  0.44967881
   1.00000000  0.66666667  0.44967881
   0.33333333 -0.00000000  0.44967881
   0.33333333  0.33333333  0.44967881
   0.33333333  0.66666667  0.44967881
   0.66666667 -0.00000000  0.44967881
   0.66666667  0.33333333  0.44967881
   0.66666667  0.66666667  0.44967881
Direct configuration=    13
   0.00000000  0.00000000  0.00000000
   0.00000000  0.33333333  0.00000000
   1.00000000  0.66666667  0.00000000
   0.33333333  0.00000000  0.00000000
   0.33333333  0.33333333  0.00000000
   0.33333333  0.66666667  0.00000000
   0.66666667  0.00000000  0.00000000
   0.66666667  0.33333333  0.00000000
   0.66666667  0.66666667  0.00000000
   0.11111111  0.11111111  0.07600381
   0.11111111  0.44444444  0.07600381
   0.11111111  0.77777778  0.07600381
   0.44444444  0.11111111  0.07600381
   0.44444444  0.44444444  0.07600381
   0.44444444  0.77777778  0.07600381
   0.77777778  0.11111111  0.07600381
   0.77777778  0.44444444  0.07600381
   0.77777778  0.77777778  0.07600381
   0.22222222  0.22222222  0.15040809