  18  18   0   0
  0.2028145E+02  0.3630000E-09  0.3630000E-09  0.2770500E-08  0.5000000E-15
  1.000000000000000E-004
  CAR 
 unknown system                          
     13.22292064     -9.44398221  301      1.94888865      1.00000000
     -9.444  0.0000E+00  0.0000E+00  0.0000E+00  0.0000E+00
     -9.368  0.0000E+00  0.0000E+00  0.0000E+00  0.0000E+00
     -9.293  0.0000E+00  0.0000E+00  0.0000E+00  0.0000E+00
     -9.217  0.0000E+00  0.0000E+00  0.0000E+00  0.0000E+00
     -9.142  0.0000E+00  0.0000E+00  0.0000E+00  0.0000E+00
     -9.066 -0.1126E-30 -0.1126E-30 -0.8511E-32 -0.8511E-32
     -8.991 -0.4260E-28 -0.4260E-28 -0.3227E-29 -0.3227E-29
     -8.915 -0.1210E-25 -0.1210E-25 -0.9177E-27 -0.9177E-27
     -8.840 -0.2577E-23 -0.2577E-23 -0.1956E-24 -0.1956E-24
     -8.764 -0.4111E-21 -0.4111E-21 -0.3126E-22 -0.3126E-22
     -8.688 -0.4911E-19 -0.4911E-19 -0.3742E-20 -0.3742E-20
     -8.613 -0.4288E-17 -0.4288E-17 -0.3277E-18 -0.3277E-18
     -8.537 -0.2838E-15 -0.2838E-15 -0.2177E-16 -0.2177E-16
     -8.462 -0.1410E-13 -0.1410E-13 -0.1087E-14 -0.1087E-14
     -8.386 -0.5221E-12 -0.5221E-12 -0.4054E-13 -0.4054E-13
     -8.311 -0.1438E-10 -0.1438E-10 -0.1127E-11 -0.1127E-11
     -8.235 -0.2936E-09 -0.2936E-09 -0.2331E-10 -0.2331E-10
     -8.160 -0.4427E-08 -0.4427E-08 -0.3578E-09 -0.3578E-09
     -8.084 -0.4901E-07 -0.4901E-07 -0.4061E-08 -0.4061E-08
     -8.008 -0.3945E-06 -0.3945E-06 -0.3387E-07 -0.3387E-07
     -7.933 -0.2271E-05 -0.2271E-05 -0.2055E-06 -0.2055E-06
     -7.857 -0.9062E-05 -0.9062E-05 -0.8901E-06 -0.8901E-06
     -7.782 -0.2321E-04 -0.2321E-04 -0.2644E-05 -0.2644E-05
     -7.706 -0.2831E-04 -0.2831E-04 -0.4783E-05 -0.4783E-05
     -7.631  0.3253E-04  0.3253E-04 -0.2326E-05 -0.2326E-05
     -7.555  0.2163E-03  0.2163E-03  0.1402E-04  0.1402E-04
     -7.480  0.4613E-03  0.4613E-03  0.4887E-04  0.4887E-04
     -7.404  0.5731E-03  0.5731E-03  0.9218E-04  0.9218E-04
     -7.328  0.4379E-03  0.4379E-03  0.1253E-03  0.1253E-03
     -7.253  0.1765E-03  0.1765E-03  0.1386E-03  0.1386E-03
     -7.177  0.1062E-05  0.1062E-05  0.1387E-03  0.1387E-03
     -7.102  0.2582E-04  0.2582E-04  0.1406E-03  0.1406E-03
     -7.026  0.2363E-03  0.2363E-03  0.1585E-03  0.1585E-03
     -6.951  0.4881E-03  0.4881E-03  0.1954E-03  0.1954E-03
     -6.875  0.5688E-03  0.5688E-03  0.2383E-03  0.2383E-03
     -6.800  0.4085E-03  0.4085E-03  0.2692E-03  0.2692E-03
     -6.724  0.1618E-03  0.1618E-03  0.2814E-03  0.2814E-03
     -6.648 -0.1189E-06 -0.1189E-06  0.2814E-03  0.2814E-03
     -6.573 -0.6702E-04 -0.6702E-04  0.2764E-03  0.2764E-03
     -6.497 -0.1208E-03 -0.1208E-03  0.2672E-03  0.2672E-03
     -6.422 -0.1526E-03 -0.1526E-03  0.2557E-03  0.2557E-03
     -6.346  0.7312E-04  0.7312E-04  0.2612E-03  0.2612E-03
     -6.271  0.8713E-03  0.8713E-03  0.3271E-03  0.3271E-03
     -6.195  0.2078E-02  0.2078E-02  0.4841E-03  0.4841E-03
     -6.120  0.2813E-02  0.2813E-02  0.6966E-03  0.6966E-03
     -6.044  0.2358E-02  0.2358E-02  0.8748E-03  0.8748E-03
     -5.968  0.1129E-02  0.1129E-02  0.9601E-03  0.9601E-03
     -5.893  0.2338E-03  0.2338E-03  0.9778E-03  0.9778E-03
     -5.817  0.3595E-03  0.3595E-03  0.1005E-02  0.1005E-02
     -5.742  0.1301E-02  0.1301E-02  0.1103E-02  0.1103E-02
     -5.666  0.2161E-02  0.2161E-02  0.1267E-02  0.1267E-02
     -5.591  0.2112E-02  0.2112E-02  0.1426E-02  0.1426E-02
     -5.515  0.1238E-02  0.1238E-02  0.1520E-02  0.1520E-02
     -5.439  0.3128E-03  0.3128E-03  0.1543E-02  0.1543E-02
     -5.364 -0.1863E-03 -0.1863E-03  0.1529E-02  0.1529E-02
     -5.288 -0.3267E-03 -0.3267E-03  0.1505E-02  0.1505E-02
     -5.213 -0.1262E-03 -0.1262E-03  0.1495E-02  0.1495E-02
     -5.137  0.7755E-03  0.7755E-03  0.1554E-02  0.1554E-02
     -5.062  0.2537E-02  0.2537E-02  0.1745E-02  0.1745E-02
     -4.986  0.4297E-02  0.4297E-02  0.2070E-02  0.2070E-02
     -4.911  0.4648E-02  0.4648E-02  0.2421E-02  0.2421E-02
     -4.835  0.3355E-02  0.3355E-02  0.2675E-02  0.2675E-02
     -4.759  0.1860E-02  0.1860E-02  0.2815E-02  0.2815E-02
     -4.684  0.1495E-02  0.1495E-02  0.2928E-02  0.2928E-02
     -4.608  0.1939E-02  0.1939E-02  0.3075E-02  0.3075E-02
     -4.533  0.2050E-02  0.2050E-02  0.3229E-02  0.3229E-02
     -4.457  0.1573E-02  0.1573E-02  0.3348E-02  0.3348E-02
     -4.382  0.1279E-02  0.1279E-02  0.3445E-02  0.3445E-02
     -4.306  0.1764E-02  0.1764E-02  0.3578E-02  0.3578E-02
     -4.231  0.2774E-02  0.2774E-02  0.3788E-02  0.3788E-02
     -4.155  0.3696E-02  0.3696E-02  0.4067E-02  0.4067E-02
     -4.079  0.4337E-02  0.4337E-02  0.4395E-02  0.4395E-02
     -4.004  0.4900E-02  0.4900E-02  0.4765E-02  0.4765E-02
     -3.928  0.5219E-02  0.5219E-02  0.5159E-02  0.5159E-02
     -3.853  0.4629E-02  0.4629E-02  0.5509E-02  0.5509E-02
     -3.777  0.2946E-02  0.2946E-02  0.5732E-02  0.5732E-02
     -3.702  0.1125E-02  0.1125E-02  0.5817E-02  0.5817E-02
     -3.626  0.5429E-03  0.5429E-03  0.5858E-02  0.5858E-02
     -3.551  0.1713E-02  0.1713E-02  0.5987E-02  0.5987E-02
     -3.475  0.3568E-02  0.3568E-02  0.6257E-02  0.6257E-02
     -3.399  0.4216E-02  0.4216E-02  0.6575E-02  0.6575E-02
     -3.324  0.3047E-02  0.3047E-02  0.6805E-02  0.6805E-02
     -3.248  0.1648E-02  0.1648E-02  0.6930E-02  0.6930E-02
     -3.173  0.2041E-02  0.2041E-02  0.7084E-02  0.7084E-02
     -3.097  0.4694E-02  0.4694E-02  0.7439E-02  0.7439E-02
     -3.022  0.8674E-02  0.8674E-02  0.8094E-02  0.8094E-02
     -2.946  0.1277E-01  0.1277E-01  0.9059E-02  0.9059E-02
     -2.871  0.1573E-01  0.1573E-01  0.1025E-01  0.1025E-01
     -2.795  0.1615E-01  0.1615E-01  0.1147E-01  0.1147E-01
     -2.719  0.1402E-01  0.1402E-01  0.1253E-01  0.1253E-01
     -2.644  0.1167E-01  0.1167E-01  0.1341E-01  0.1341E-01
     -2.568  0.1156E-01  0.1156E-01  0.1428E-01  0.1428E-01
     -2.493  0.1393E-01  0.1393E-01  0.1533E-01  0.1533E-01
     -2.417  0.1781E-01  0.1781E-01  0.1668E-01  0.1668E-01
     -2.342  0.2228E-01  0.2228E-01  0.1836E-01  0.1836E-01
     -2.266  0.2595E-01  0.2595E-01  0.2032E-01  0.2032E-01
     -2.191  0.2693E-01  0.2693E-01  0.2236E-01  0.2236E-01
     -2.115  0.2434E-01  0.2434E-01  0.2420E-01  0.2420E-01
     -2.039  0.1967E-01  0.1967E-01  0.2568E-01  0.2568E-01
     -1.964  0.1580E-01  0.1580E-01  0.2688E-01  0.2688E-01
     -1.888  0.1477E-01  0.1477E-01  0.2799E-01  0.2799E-01
     -1.813  0.1670E-01  0.1670E-01  0.2926E-01  0.2926E-01
     -1.737  0.2024E-01  0.2024E-01  0.3078E-01  0.3078E-01
     -1.662  0.2346E-01  0.2346E-01  0.3256E-01  0.3256E-01
     -1.586  0.2487E-01  0.2487E-01  0.3444E-01  0.3444E-01
     -1.511  0.2440E-01  0.2440E-01  0.3628E-01  0.3628E-01
     -1.435  0.2365E-01  0.2365E-01  0.3807E-01  0.3807E-01
     -1.359  0.2456E-01  0.2456E-01  0.3992E-01  0.3992E-01
     -1.284  0.2773E-01  0.2773E-01  0.4202E-01  0.4202E-01
     -1.208  0.3258E-01  0.3258E-01  0.4448E-01  0.4448E-01
     -1.133  0.3798E-01  0.3798E-01  0.4735E-01  0.4735E-01
     -1.057  0.4190E-01  0.4190E-01  0.5051E-01  0.5051E-01
     -0.982  0.4223E-01  0.4223E-01  0.5370E-01  0.5370E-01
     -0.906  0.3914E-01  0.3914E-01  0.5666E-01  0.5666E-01
     -0.831  0.3523E-01  0.3523E-01  0.5932E-01  0.5932E-01
     -0.755  0.3218E-01  0.3218E-01  0.6176E-01  0.6176E-01
     -0.679  0.3007E-01  0.3007E-01  0.6403E-01  0.6403E-01
     -0.604  0.2950E-01  0.2950E-01  0.6626E-01  0.6626E-01
     -0.528  0.3067E-01  0.3067E-01  0.6857E-01  0.6857E-01
     -0.453  0.3168E-01  0.3168E-01  0.7097E-01  0.7097E-01
     -0.377  0.3148E-01  0.3148E-01  0.7335E-01  0.7335E-01
     -0.302  0.3228E-01  0.3228E-01  0.7578E-01  0.7578E-01
     -0.226  0.3628E-01  0.3628E-01  0.7853E-01  0.7853E-01
     -0.151  0.4205E-01  0.4205E-01  0.8170E-01  0.8170E-01
     -0.075  0.4585E-01  0.4585E-01  0.8517E-01  0.8517E-01
      0.001  0.4597E-01  0.4597E-01  0.8864E-01  0.8864E-01
      0.076  0.4462E-01  0.4462E-01  0.9201E-01  0.9201E-01
      0.152  0.4482E-01  0.4482E-01  0.9540E-01  0.9540E-01
      0.227  0.4583E-01  0.4583E-01  0.9886E-01  0.9886E-01
      0.303  0.4322E-01  0.4322E-01  0.1021E+00  0.1021E+00
      0.378  0.3414E-01  0.3414E-01  0.1047E+00  0.1047E+00
      0.454  0.2111E-01  0.2111E-01  0.1063E+00  0.1063E+00
      0.529  0.9390E-02  0.9390E-02  0.1070E+00  0.1070E+00
      0.605  0.2242E-02  0.2242E-02  0.1072E+00  0.1072E+00
      0.681 -0.3838E-03 -0.3838E-03  0.1072E+00  0.1072E+00
      0.756  0.1053E-03  0.1053E-03  0.1072E+00  0.1072E+00
      0.832  0.2360E-02  0.2360E-02  0.1073E+00  0.1073E+00
      0.907  0.4817E-02  0.4817E-02  0.1077E+00  0.1077E+00
      0.983  0.5813E-02  0.5813E-02  0.1081E+00  0.1081E+00
      1.058  0.4795E-02  0.4795E-02  0.1085E+00  0.1085E+00
      1.134  0.2705E-02  0.2705E-02  0.1087E+00  0.1087E+00
      1.209  0.8989E-03  0.8989E-03  0.1088E+00  0.1088E+00
      1.285  0.5272E-04  0.5272E-04  0.1088E+00  0.1088E+00
      1.361 -0.1751E-04 -0.1751E-04  0.1088E+00  0.1088E+00
      1.436  0.1795E-03  0.1795E-03  0.1088E+00  0.1088E+00
      1.512  0.4958E-03  0.4958E-03  0.1088E+00  0.1088E+00
      1.587  0.1372E-02  0.1372E-02  0.1089E+00  0.1089E+00
      1.663  0.3290E-02  0.3290E-02  0.1092E+00  0.1092E+00
      1.738  0.5895E-02  0.5895E-02  0.1096E+00  0.1096E+00
      1.814  0.7834E-02  0.7834E-02  0.1102E+00  0.1102E+00
      1.889  0.8051E-02  0.8051E-02  0.1108E+00  0.1108E+00
      1.965  0.6966E-02  0.6966E-02  0.1114E+00  0.1114E+00
      2.041  0.5442E-02  0.5442E-02  0.1118E+00  0.1118E+00
      2.116  0.3589E-02  0.3589E-02  0.1120E+00  0.1120E+00
      2.192  0.1908E-02  0.1908E-02  0.1122E+00  0.1122E+00
      2.267  0.1938E-02  0.1938E-02  0.1123E+00  0.1123E+00
      2.343  0.4164E-02  0.4164E-02  0.1126E+00  0.1126E+00
      2.418  0.6590E-02  0.6590E-02  0.1131E+00  0.1131E+00
      2.494  0.6900E-02  0.6900E-02  0.1137E+00  0.1137E+00
      2.569  0.5241E-02  0.5241E-02  0.1141E+00  0.1141E+00
      2.645  0.3612E-02  0.3612E-02  0.1143E+00  0.1143E+00
      2.721  0.3412E-02  0.3412E-02  0.1146E+00  0.1146E+00
      2.796  0.4302E-02  0.4302E-02  0.1149E+00  0.1149E+00
      2.872  0.4745E-02  0.4745E-02  0.1153E+00  0.1153E+00
      2.947  0.3757E-02  0.3757E-02  0.1156E+00  0.1156E+00
      3.023  0.2212E-02  0.2212E-02  0.1157E+00  0.1157E+00
      3.098  0.1586E-02  0.1586E-02  0.1158E+00  0.1158E+00
      3.174  0.1875E-02  0.1875E-02  0.1160E+00  0.1160E+00
      3.249  0.1919E-02  0.1919E-02  0.1161E+00  0.1161E+00
      3.325  0.1300E-02  0.1300E-02  0.1162E+00  0.1162E+00
      3.401  0.7154E-03  0.7154E-03  0.1163E+00  0.1163E+00
      3.476  0.7381E-03  0.7381E-03  0.1163E+00  0.1163E+00
      3.552  0.1227E-02  0.1227E-02  0.1164E+00  0.1164E+00
      3.627  0.1912E-02  0.1912E-02  0.1166E+00  0.1166E+00
      3.703  0.2689E-02  0.2689E-02  0.1168E+00  0.1168E+00
      3.778  0.3334E-02  0.3334E-02  0.1170E+00  0.1170E+00
      3.854  0.3539E-02  0.3539E-02  0.1173E+00  0.1173E+00
      3.929  0.3157E-02  0.3157E-02  0.1175E+00  0.1175E+00
      4.005  0.2221E-02  0.2221E-02  0.1177E+00  0.1177E+00
      4.081  0.1046E-02  0.1046E-02  0.1178E+00  0.1178E+00
      4.156  0.1383E-03  0.1383E-03  0.1178E+00  0.1178E+00
      4.232 -0.2285E-03 -0.2285E-03  0.1178E+00  0.1178E+00
      4.307 -0.6632E-04 -0.6632E-04  0.1178E+00  0.1178E+00
      4.383  0.6102E-03  0.6102E-03  0.1178E+00  0.1178E+00
      4.458  0.1702E-02  0.1702E-02  0.1179E+00  0.1179E+00
      4.534  0.2698E-02  0.2698E-02  0.1181E+00  0.1181E+00
      4.609  0.2877E-02  0.2877E-02  0.1184E+00  0.1184E+00
      4.685  0.2144E-02  0.2144E-02  0.1185E+00  0.1185E+00
      4.761  0.1364E-02  0.1364E-02  0.1186E+00  0.1186E+00
      4.836  0.1379E-02  0.1379E-02  0.1187E+00  0.1187E+00
      4.912  0.1952E-02  0.1952E-02  0.1189E+00  0.1189E+00
      4.987  0.2319E-02  0.2319E-02  0.1191E+00  0.1191E+00
      5.063  0.2349E-02  0.2349E-02  0.1192E+00  0.1192E+00
      5.138  0.2352E-02  0.2352E-02  0.1194E+00  0.1194E+00
      5.214  0.2382E-02  0.2382E-02  0.1196E+00  0.1196E+00
      5.290  0.2507E-02  0.2507E-02  0.1198E+00  0.1198E+00
      5.365  0.2934E-02  0.2934E-02  0.1200E+00  0.1200E+00
      5.441  0.3399E-02  0.3399E-02  0.1203E+00  0.1203E+00
      5.516  0.3291E-02  0.3291E-02  0.1205E+00  0.1205E+00
      5.592  0.2682E-02  0.2682E-02  0.1207E+00  0.1207E+00
      5.667  0.2636E-02  0.2635E-02  0.1209E+00  0.1209E+00
      5.743  0.4137E-02  0.4137E-02  0.1212E+00  0.1212E+00
      5.818  0.6746E-02  0.6746E-02  0.1217E+00  0.1217E+00
      5.894  0.8588E-02  0.8589E-02  0.1224E+00  0.1224E+00
      5.970  0.7954E-02  0.7954E-02  0.1230E+00  0.1230E+00
      6.045  0.5040E-02  0.5040E-02  0.1234E+00  0.1234E+00
      6.121  0.1814E-02  0.1814E-02  0.1235E+00  0.1235E+00
      6.196  0.9959E-04  0.9952E-04  0.1235E+00  0.1235E+00
      6.272  0.2652E-03  0.2651E-03  0.1235E+00  0.1235E+00
      6.347  0.1500E-02  0.1500E-02  0.1236E+00  0.1236E+00
      6.423  0.2624E-02  0.2623E-02  0.1238E+00  0.1238E+00
      6.498  0.2945E-02  0.2945E-02  0.1241E+00  0.1241E+00
      6.574  0.2703E-02  0.2703E-02  0.1243E+00  0.1243E+00
      6.650  0.2538E-02  0.2538E-02  0.1245E+00  0.1245E+00
      6.725  0.2940E-02  0.2940E-02  0.1247E+00  0.1247E+00
      6.801  0.4167E-02  0.4167E-02  0.1250E+00  0.1250E+00
      6.876  0.5831E-02  0.5831E-02  0.1254E+00  0.1254E+00
      6.952  0.6846E-02  0.6846E-02  0.1260E+00  0.1260E+00
      7.027  0.6387E-02  0.6386E-02  0.1264E+00  0.1264E+00
      7.103  0.4716E-02  0.4716E-02  0.1268E+00  0.1268E+00
      7.178  0.3003E-02  0.3003E-02  0.1270E+00  0.1270E+00
      7.254  0.2298E-02  0.2298E-02  0.1272E+00  0.1272E+00
      7.330  0.2685E-02  0.2685E-02  0.1274E+00  0.1274E+00
      7.405  0.3694E-02  0.3693E-02  0.1277E+00  0.1277E+00
      7.481  0.5011E-02  0.5010E-02  0.1281E+00  0.1281E+00
      7.556  0.6169E-02  0.6168E-02  0.1285E+00  0.1285E+00
      7.632  0.6239E-02  0.6239E-02  0.1290E+00  0.1290E+00
      7.707  0.4793E-02  0.4794E-02  0.1294E+00  0.1294E+00
      7.783  0.2793E-02  0.2793E-02  0.1296E+00  0.1296E+00
      7.858  0.1674E-02  0.1674E-02  0.1297E+00  0.1297E+00
      7.934  0.1671E-02  0.1671E-02  0.1298E+00  0.1298E+00
      8.010  0.1801E-02  0.1801E-02  0.1300E+00  0.1300E+00
      8.085  0.1623E-02  0.1623E-02  0.1301E+00  0.1301E+00
      8.161  0.1969E-02  0.1969E-02  0.1302E+00  0.1302E+00
      8.236  0.3303E-02  0.3302E-02  0.1305E+00  0.1305E+00
      8.312  0.4543E-02  0.4543E-02  0.1308E+00  0.1308E+00
      8.387  0.4529E-02  0.4529E-02  0.1312E+00  0.1312E+00
      8.463  0.3514E-02  0.3515E-02  0.1314E+00  0.1314E+00
      8.538  0.2339E-02  0.2339E-02  0.1316E+00  0.1316E+00
      8.614  0.1558E-02  0.1558E-02  0.1317E+00  0.1317E+00
      8.690  0.1872E-02  0.1871E-02  0.1319E+00  0.1319E+00
      8.765  0.3756E-02  0.3755E-02  0.1321E+00  0.1321E+00
      8.841  0.6469E-02  0.6469E-02  0.1326E+00  0.1326E+00
      8.916  0.8639E-02  0.8640E-02  0.1333E+00  0.1333E+00
      8.992  0.9490E-02  0.9491E-02  0.1340E+00  0.1340E+00
      9.067  0.8828E-02  0.8829E-02  0.1347E+00  0.1347E+00
      9.143  0.6706E-02  0.6706E-02  0.1352E+00  0.1352E+00
      9.218  0.3729E-02  0.3729E-02  0.1355E+00  0.1355E+00
      9.294  0.1139E-02  0.1139E-02  0.1355E+00  0.1355E+00
      9.370  0.2049E-03  0.2049E-03  0.1356E+00  0.1356E+00
      9.445  0.1464E-02  0.1464E-02  0.1357E+00  0.1357E+00
      9.521  0.4168E-02  0.4167E-02  0.1360E+00  0.1360E+00
      9.596  0.6605E-02  0.6605E-02  0.1365E+00  0.1365E+00
      9.672  0.7532E-02  0.7532E-02  0.1371E+00  0.1371E+00
      9.747  0.6966E-02  0.6966E-02  0.1376E+00  0.1376E+00
      9.823  0.5628E-02  0.5628E-02  0.1380E+00  0.1380E+00
      9.898  0.4427E-02  0.4427E-02  0.1383E+00  0.1383E+00
      9.974  0.3935E-02  0.3935E-02  0.1386E+00  0.1386E+00
     10.050  0.3819E-02  0.3819E-02  0.1389E+00  0.1389E+00
     10.125  0.3593E-02  0.3593E-02  0.1392E+00  0.1392E+00
     10.201  0.3665E-02  0.3665E-02  0.1395E+00  0.1395E+00
     10.276  0.4697E-02  0.4697E-02  0.1398E+00  0.1398E+00
     10.352  0.6540E-02  0.6540E-02  0.1403E+00  0.1403E+00
     10.427  0.8526E-02  0.8526E-02  0.1410E+00  0.1410E+00
     10.503  0.9903E-02  0.9904E-02  0.1417E+00  0.1417E+00
     10.578  0.9657E-02  0.9658E-02  0.1424E+00  0.1424E+00
     10.654  0.7274E-02  0.7274E-02  0.1430E+00  0.1430E+00
     10.730  0.3794E-02  0.3794E-02  0.1433E+00  0.1433E+00
     10.805  0.9598E-03  0.9600E-03  0.1434E+00  0.1434E+00
     10.881 -0.3276E-03 -0.3275E-03  0.1433E+00  0.1433E+00
     10.956  0.3812E-04  0.3802E-04  0.1433E+00  0.1433E+00
     11.032  0.1967E-02  0.1966E-02  0.1435E+00  0.1435E+00
     11.107  0.4665E-02  0.4664E-02  0.1438E+00  0.1438E+00
     11.183  0.6314E-02  0.6314E-02  0.1443E+00  0.1443E+00
     11.258  0.5587E-02  0.5587E-02  0.1447E+00  0.1447E+00
     11.334  0.3187E-02  0.3188E-02  0.1450E+00  0.1450E+00
     11.410  0.9545E-03  0.9548E-03  0.1450E+00  0.1450E+00
     11.485 -0.1095E-03 -0.1094E-03  0.1450E+00  0.1450E+00
     11.561 -0.2728E-03 -0.2728E-03  0.1450E+00  0.1450E+00
     11.636 -0.1491E-03 -0.1491E-03  0.1450E+00  0.1450E+00
     11.712 -0.4919E-04 -0.4920E-04  0.1450E+00  0.1450E+00
     11.787 -0.1114E-04 -0.1114E-04  0.1450E+00  0.1450E+00
     11.863 -0.1806E-05 -0.1807E-05  0.1450E+00  0.1450E+00
     11.938 -0.2137E-06 -0.2138E-06  0.1450E+00  0.1450E+00
     12.014 -0.1864E-07 -0.1864E-07  0.1450E+00  0.1450E+00
     12.090 -0.1204E-08 -0.1204E-08  0.1450E+00  0.1450E+00
     12.165 -0.5778E-10 -0.5782E-10  0.1450E+00  0.1450E+00
     12.241 -0.2066E-11 -0.2068E-11  0.1450E+00  0.1450E+00
     12.316 -0.5513E-13 -0.5517E-13  0.1450E+00  0.1450E+00
     12.392 -0.1099E-14 -0.1100E-14  0.1450E+00  0.1450E+00
     12.467 -0.1714E-16 -0.1714E-16  0.1450E+00  0.1450E+00
     12.543  0.0000E+00  0.0000E+00  0.1450E+00  0.1450E+00
     12.618  0.0000E+00  0.0000E+00  0.1450E+00  0.1450E+00
     12.694  0.0000E+00  0.0000E+00  0.1450E+00  0.1450E+00
     12.770  0.0000E+00  0.0000E+00  0.1450E+00  0.1450E+00
     12.845  0.0000E+00  0.0000E+00  0.1450E+00  0.1450E+00
     12.921  0.0000E+00  0.0000E+00  0.1450E+00  0.1450E+00
     12.996  0.0000E+00  0.0000E+00  0.1450E+00  0.1450E+00
     13.072  0.0000E+00  0.0000E+00  0.1450E+00  0.1450E+00
     13.147  0.0000E+00  0.0000E+00  0.1450E+00  0.1450E+00
     13.223  0.0000E+00  0.0000E+00  0.1450E+00  0.1450E+00
