   18   18  800    2
  0.2028145E+02  0.3630000E-09  0.3630000E-09  0.2770500E-08  0.5000000E-15
  1.000000000000000E-004
  CAR 
 unknown system                          
    178      4    116
 
  0.0000000E+00  0.0000000E+00  0.0000000E+00  0.1111111E+00
      1         -7.443982       -7.443982   1.000000   1.000000
      2         -6.928082       -6.928082   1.000000   1.000000
      3         -6.112040       -6.112040   1.000000   1.000000
      4         -5.052680       -5.052680   1.000000   1.000000
      5         -4.423203       -4.423203   1.000000   1.000000
      6         -3.825552       -3.825552   1.000000   1.000000
      7         -3.156418       -3.156418   1.000000   1.000000
      8         -3.029154       -3.029154   1.000000   1.000000
      9         -3.025940       -3.025940   1.000000   1.000000
     10         -2.993310       -2.993310   1.000000   1.000000
     11         -2.967404       -2.967404   1.000000   1.000000
     12         -2.808435       -2.808435   1.000000   1.000000
     13         -2.805076       -2.805076   1.000000   1.000000
     14         -2.585124       -2.585124   1.000000   1.000000
     15         -2.554517       -2.554517   1.000000   1.000000
     16         -2.554512       -2.554512   1.000000   1.000000
     17         -2.484264       -2.484264   1.000000   1.000000
     18         -2.483736       -2.483736   1.000000   1.000000
     19         -2.461226       -2.461226   1.000000   1.000000
     20         -2.418021       -2.418021   1.000000   1.000000
     21         -2.418011       -2.418011   1.000000   1.000000
     22         -2.231344       -2.231344   1.000000   1.000000
     23         -2.165007       -2.165007   1.000000   1.000000
     24         -2.164985       -2.164985   1.000000   1.000000
     25         -2.089248       -2.089248   1.000000   1.000000
     26         -2.064323       -2.064323   1.000000   1.000000
     27         -1.916901       -1.916901   1.000000   1.000000
     28         -1.760136       -1.760136   1.000000   1.000000
     29         -1.760092       -1.760092   1.000000   1.000000
     30         -1.619936       -1.619936   1.000000   1.000000
     31         -1.364725       -1.364725   1.000000   1.000000
     32         -1.271726       -1.271726   1.000000   1.000000
     33         -1.271654       -1.271654   1.000000   1.000000
     34         -1.219794       -1.219794   1.000000   1.000000
     35         -1.181457       -1.181457   1.000000   1.000000
     36         -1.181452       -1.181452   1.000000   1.000000
     37         -1.069619       -1.069619   1.000000   1.000000
     38         -1.069597       -1.069597   1.000000   1.000000
     39         -1.062894       -1.062894   1.000000   1.000000
     40         -0.861984       -0.861984   1.000000   1.000000
     41         -0.861964       -0.861964   1.000000   1.000000
     42         -0.704048       -0.704048   1.000000   1.000000
     43         -0.703991       -0.703991   1.000000   1.000000
     44         -0.586433       -0.586433   1.000000   1.000000
     45         -0.549096       -0.549096   1.000000   1.000000
     46         -0.549079       -0.549079   1.000000   1.000000
     47         -0.546009       -0.546009   1.000000   1.000000
     48         -0.438012       -0.438012   1.000000   1.000000
     49         -0.386578       -0.386578   1.000000   1.000000
     50         -0.366151       -0.366151   1.000000   1.000000
     51         -0.345659       -0.345659   1.000000   1.000000
     52         -0.239181       -0.239181   1.000000   1.000000
     53         -0.237193       -0.237193   1.000000   1.000000
     54         -0.230831       -0.230831   1.000000   1.000000
     55         -0.230230       -0.230230   1.000000   1.000000
     56         -0.223173       -0.223173   1.000000   1.000000
     57         -0.223142       -0.223142   1.000000   1.000000
     58         -0.159556       -0.159556   1.000000   1.000000
     59         -0.159457       -0.159457   1.000000   1.000000
     60         -0.079021       -0.079021   1.000000   1.000000
     61         -0.071192       -0.071192   1.000000   1.000000
     62         -0.065750       -0.065750   1.000000   1.000000
     63          0.066172        0.066172   1.000000   1.000000
     64          0.068972        0.068972   1.000000   1.000000
     65          0.068998        0.068998   1.000000   1.000000
     66          0.108887        0.108887   1.000000   1.000000
     67          0.112226        0.112226   1.000000   1.000000
     68          0.124291        0.124291   1.000000   1.000000
     69          0.204421        0.204421   1.000000   1.000000
     70          0.241012        0.241012   1.000000   1.000000
     71          0.243844        0.243844   1.000000   1.000000
     72          0.244538        0.244538   1.000000   1.000000
     73          0.255461        0.255461   1.000000   1.000000
     74          0.255466        0.255466   1.000000   1.000000
     75          0.257552        0.257552   1.000000   1.000000
     76          0.259355        0.259355   1.000000   1.000000
     77          0.274318        0.274318   1.000000   1.000000
     78          0.318839        0.318839   1.000000   1.000000
     79          0.318894        0.318894   1.000000   1.000000
     80          0.364063        0.364063   1.000000   1.000000
     81          0.367919        0.367919   1.000000   1.000000
     82          0.402832        0.402832   1.000000   1.000000
     83          0.402841        0.402841   1.000000   1.000000
     84          0.411244        0.411244   1.000000   1.000000
     85          0.412766        0.412766   1.000000   1.000000
     86          0.547124        0.547124   1.000000   1.000000
     87          0.571157        0.571157   1.000000   1.000000
     88          1.427640        1.427640   1.000711   1.000711
     89          2.736423        2.736423  -0.000000  -0.000000
     90          3.515159        3.515159  -0.000000  -0.000000
     91          3.515173        3.515173  -0.000000  -0.000000
     92          3.671612        3.671612  -0.000000  -0.000000
     93          4.464387        4.464387  -0.000000  -0.000000
     94          4.464654        4.464654  -0.000000  -0.000000
     95          5.709074        5.709077  -0.000000  -0.000000
     96          5.718757        5.718757  -0.000000  -0.000000
     97          5.807749        5.807780  -0.000000  -0.000000
     98          6.367063        6.367090  -0.000000  -0.000000
     99          7.227697        7.227698  -0.000000  -0.000000
    100          7.228267        7.228267  -0.000000  -0.000000
    101          7.546322        7.546397   0.000000   0.000000
    102          8.853344        8.853345   0.000000   0.000000
    103          8.857287        8.857287   0.000000   0.000000
    104          8.970245        8.970245   0.000000   0.000000
    105          8.970876        8.970876   0.000000   0.000000
    106          9.090123        9.090157   0.000000   0.000000
    107          9.151748        9.151748   0.000000   0.000000
    108          9.164881        9.164887   0.000000   0.000000
    109          9.556173        9.556173   0.000000   0.000000
    110          9.565834        9.565835   0.000000   0.000000
    111          9.697472        9.697475   0.000000   0.000000
    112         10.193666       10.193668   0.000000   0.000000
    113         10.204403       10.204403   0.000000   0.000000
    114         10.607853       10.607858   0.000000   0.000000
    115         10.619661       10.619661   0.000000   0.000000
    116         10.713636       10.713655   0.000000   0.000000
 
  0.3333333E+00  0.0000000E+00  0.0000000E+00  0.2222222E+00
      1         -6.153188       -6.153188   1.000000   1.000000
      2         -5.672660       -5.672660   1.000000   1.000000
      3         -4.929685       -4.929685   1.000000   1.000000
      4         -4.241115       -4.241115   1.000000   1.000000
      5         -3.885944       -3.885944   1.000000   1.000000
      6         -3.434167       -3.434167   1.000000   1.000000
      7         -3.101860       -3.101860   1.000000   1.000000
      8         -2.998883       -2.998883   1.000000   1.000000
      9         -2.649253       -2.649253   1.000000   1.000000
     10         -2.541505       -2.541505   1.000000   1.000000
     11         -2.516264       -2.516264   1.000000   1.000000
     12         -2.372482       -2.372482   1.000000   1.000000
     13         -2.363611       -2.363611   1.000000   1.000000
     14         -2.332807       -2.332807   1.000000   1.000000
     15         -2.264195       -2.264195   1.000000   1.000000
     16         -2.238503       -2.238503   1.000000   1.000000
     17         -2.210107       -2.210107   1.000000   1.000000
     18         -2.202536       -2.202536   1.000000   1.000000
     19         -2.198128       -2.198128   1.000000   1.000000
     20         -2.142979       -2.142979   1.000000   1.000000
     21         -2.142606       -2.142606   1.000000   1.000000
     22         -2.131668       -2.131668   1.000000   1.000000
     23         -2.015123       -2.015123   1.000000   1.000000
     24         -1.979552       -1.979552   1.000000   1.000000
     25         -1.969573       -1.969573   1.000000   1.000000
     26         -1.786072       -1.786072   1.000000   1.000000
     27         -1.749687       -1.749687   1.000000   1.000000
     28         -1.704831       -1.704831   1.000000   1.000000
     29         -1.655878       -1.655878   1.000000   1.000000
     30         -1.615543       -1.615543   1.000000   1.000000
     31         -1.586967       -1.586967   1.000000   1.000000
     32         -1.577847       -1.577847   1.000000   1.000000
     33         -1.471209       -1.471209   1.000000   1.000000
     34         -1.448666       -1.448666   1.000000   1.000000
     35         -1.341637       -1.341637   1.000000   1.000000
     36         -1.276397       -1.276397   1.000000   1.000000
     37         -1.224069       -1.224069   1.000000   1.000000
     38         -1.210510       -1.210510   1.000000   1.000000
     39         -1.122037       -1.122037   1.000000   1.000000
     40         -1.090071       -1.090071   1.000000   1.000000
     41         -1.067078       -1.067078   1.000000   1.000000
     42         -1.033811       -1.033811   1.000000   1.000000
     43         -0.971789       -0.971789   1.000000   1.000000
     44         -0.955937       -0.955937   1.000000   1.000000
     45         -0.937760       -0.937760   1.000000   1.000000
     46         -0.815265       -0.815265   1.000000   1.000000
     47         -0.763043       -0.763043   1.000000   1.000000
     48         -0.729241       -0.729241   1.000000   1.000000
     49         -0.718272       -0.718272   1.000000   1.000000
     50         -0.714820       -0.714820   1.000000   1.000000
     51         -0.541690       -0.541690   1.000000   1.000000
     52         -0.539759       -0.539759   1.000000   1.000000
     53         -0.505976       -0.505976   1.000000   1.000000
     54         -0.505375       -0.505375   1.000000   1.000000
     55         -0.456614       -0.456614   1.000000   1.000000
     56         -0.403040       -0.403040   1.000000   1.000000
     57         -0.400991       -0.400991   1.000000   1.000000
     58         -0.354104       -0.354104   1.000000   1.000000
     59         -0.331215       -0.331215   1.000000   1.000000
     60         -0.325408       -0.325408   1.000000   1.000000
     61         -0.276928       -0.276928   1.000000   1.000000
     62         -0.273047       -0.273047   1.000000   1.000000
     63         -0.232606       -0.232606   1.000000   1.000000
     64         -0.208551       -0.208551   1.000000   1.000000
     65         -0.169460       -0.169460   1.000000   1.000000
     66         -0.152557       -0.152557   1.000000   1.000000
     67         -0.124399       -0.124399   1.000000   1.000000
     68         -0.117934       -0.117934   1.000000   1.000000
     69         -0.110384       -0.110384   1.000000   1.000000
     70         -0.093557       -0.093557   1.000000   1.000000
     71         -0.091249       -0.091249   1.000000   1.000000
     72         -0.089452       -0.089452   1.000000   1.000000
     73         -0.075360       -0.075360   1.000000   1.000000
     74         -0.012733       -0.012733   1.000000   1.000000
     75         -0.011088       -0.011088   1.000000   1.000000
     76          0.011679        0.011679   1.000000   1.000000
     77          0.046008        0.046008   1.000000   1.000000
     78          0.056929        0.056929   1.000000   1.000000
     79          0.102502        0.102502   1.000000   1.000000
     80          0.133447        0.133447   1.000000   1.000000
     81          0.241764        0.241764   1.000000   1.000000
     82          0.257093        0.257093   1.000000   1.000000
     83          0.267621        0.267621   1.000000   1.000000
     84          0.389656        0.389656   1.000000   1.000000
     85          0.407781        0.407781   1.000000   1.000000
     86          0.423379        0.423379   1.000000   1.000000
     87          0.891537        0.891537   1.000000   1.000000
     88          0.913759        0.913759   1.000000   1.000000
     89          1.666581        1.666581   1.031343   1.031343
     90          1.819685        1.819685   0.939596   0.939596
     91          2.597663        2.597663  -0.000022  -0.000022
     92          3.177457        3.177457  -0.000000  -0.000000
     93          3.748598        3.748598  -0.000000  -0.000000
     94          4.586197        4.586197  -0.000000  -0.000000
     95          5.149705        5.149705  -0.000000  -0.000000
     96          5.800160        5.800160  -0.000000  -0.000000
     97          5.953615        5.953615  -0.000000  -0.000000
     98          6.422676        6.422681  -0.000000  -0.000000
     99          6.633592        6.633592  -0.000000  -0.000000
    100          7.037827        7.037840  -0.000000  -0.000000
    101          7.586716        7.586755   0.000000   0.000000
    102          7.669747        7.669747   0.000000   0.000000
    103          8.284968        8.284987   0.000000   0.000000
    104          8.801478        8.801528   0.000000   0.000000
    105          8.958159        8.958163   0.000000   0.000000
    106          9.011601        9.011605   0.000000   0.000000
    107          9.552031        9.552031   0.000000   0.000000
    108          9.751386        9.751387   0.000000   0.000000
    109         10.051791       10.051807   0.000000   0.000000
    110         10.330934       10.330946   0.000000   0.000000
    111         10.442584       10.442592   0.000000   0.000000
    112         10.512212       10.512215   0.000000   0.000000
    113         10.540012       10.540012   0.000000   0.000000
    114         11.115442       11.115442   0.000000   0.000000
    115         11.143785       11.143805   0.000000   0.000000
    116         11.222906       11.222921   0.000000   0.000000
 
  0.0000000E+00  0.3333333E+00  0.0000000E+00  0.2222222E+00
      1         -6.153185       -6.153185   1.000000   1.000000
      2         -5.672644       -5.672644   1.000000   1.000000
      3         -4.929602       -4.929602   1.000000   1.000000
      4         -4.239238       -4.239238   1.000000   1.000000
      5         -3.885658       -3.885658   1.000000   1.000000
      6         -3.434191       -3.434191   1.000000   1.000000
      7         -3.101937       -3.101937   1.000000   1.000000
      8         -2.998860       -2.998860   1.000000   1.000000
      9         -2.649347       -2.649347   1.000000   1.000000
     10         -2.541503       -2.541503   1.000000   1.000000
     11         -2.516254       -2.516254   1.000000   1.000000
     12         -2.372438       -2.372438   1.000000   1.000000
     13         -2.363607       -2.363607   1.000000   1.000000
     14         -2.332779       -2.332779   1.000000   1.000000
     15         -2.264236       -2.264236   1.000000   1.000000
     16         -2.238506       -2.238506   1.000000   1.000000
     17         -2.210103       -2.210103   1.000000   1.000000
     18         -2.202659       -2.202659   1.000000   1.000000
     19         -2.198005       -2.198005   1.000000   1.000000
     20         -2.142997       -2.142997   1.000000   1.000000
     21         -2.142597       -2.142597   1.000000   1.000000
     22         -2.131660       -2.131660   1.000000   1.000000
     23         -2.015109       -2.015109   1.000000   1.000000
     24         -1.979554       -1.979554   1.000000   1.000000
     25         -1.969576       -1.969576   1.000000   1.000000
     26         -1.786072       -1.786072   1.000000   1.000000
     27         -1.749674       -1.749674   1.000000   1.000000
     28         -1.704846       -1.704846   1.000000   1.000000
     29         -1.655875       -1.655875   1.000000   1.000000
     30         -1.615524       -1.615524   1.000000   1.000000
     31         -1.586962       -1.586962   1.000000   1.000000
     32         -1.577838       -1.577838   1.000000   1.000000
     33         -1.471159       -1.471159   1.000000   1.000000
     34         -1.448673       -1.448673   1.000000   1.000000
     35         -1.341629       -1.341629   1.000000   1.000000
     36         -1.276382       -1.276382   1.000000   1.000000
     37         -1.224072       -1.224072   1.000000   1.000000
     38         -1.210429       -1.210429   1.000000   1.000000
     39         -1.122058       -1.122058   1.000000   1.000000
     40         -1.090015       -1.090015   1.000000   1.000000
     41         -1.067107       -1.067107   1.000000   1.000000
     42         -1.033811       -1.033811   1.000000   1.000000
     43         -0.971777       -0.971777   1.000000   1.000000
     44         -0.955978       -0.955978   1.000000   1.000000
     45         -0.937760       -0.937760   1.000000   1.000000
     46         -0.815108       -0.815108   1.000000   1.000000
     47         -0.763093       -0.763093   1.000000   1.000000
     48         -0.729228       -0.729228   1.000000   1.000000
     49         -0.718277       -0.718277   1.000000   1.000000
     50         -0.714807       -0.714807   1.000000   1.000000
     51         -0.541868       -0.541868   1.000000   1.000000
     52         -0.539607       -0.539607   1.000000   1.000000
     53         -0.505722       -0.505722   1.000000   1.000000
     54         -0.505511       -0.505511   1.000000   1.000000
     55         -0.456589       -0.456589   1.000000   1.000000
     56         -0.403494       -0.403494   1.000000   1.000000
     57         -0.400599       -0.400599   1.000000   1.000000
     58         -0.354337       -0.354337   1.000000   1.000000
     59         -0.331250       -0.331250   1.000000   1.000000
     60         -0.325449       -0.325449   1.000000   1.000000
     61         -0.277080       -0.277080   1.000000   1.000000
     62         -0.272995       -0.272995   1.000000   1.000000
     63         -0.232602       -0.232602   1.000000   1.000000
     64         -0.208453       -0.208453   1.000000   1.000000
     65         -0.169512       -0.169512   1.000000   1.000000
     66         -0.152592       -0.152592   1.000000   1.000000
     67         -0.124455       -0.124455   1.000000   1.000000
     68         -0.118018       -0.118018   1.000000   1.000000
     69         -0.110354       -0.110354   1.000000   1.000000
     70         -0.093414       -0.093414   1.000000   1.000000
     71         -0.091386       -0.091386   1.000000   1.000000
     72         -0.089457       -0.089457   1.000000   1.000000
     73         -0.075314       -0.075314   1.000000   1.000000
     74         -0.012724       -0.012724   1.000000   1.000000
     75         -0.011065       -0.011065   1.000000   1.000000
     76          0.011680        0.011680   1.000000   1.000000
     77          0.046026        0.046026   1.000000   1.000000
     78          0.056977        0.056977   1.000000   1.000000
     79          0.102538        0.102538   1.000000   1.000000
     80          0.133443        0.133443   1.000000   1.000000
     81          0.241774        0.241774   1.000000   1.000000
     82          0.257202        0.257202   1.000000   1.000000
     83          0.267617        0.267617   1.000000   1.000000
     84          0.389652        0.389652   1.000000   1.000000
     85          0.407768        0.407768   1.000000   1.000000
     86          0.423393        0.423393   1.000000   1.000000
     87          0.891485        0.891485   1.000000   1.000000
     88          0.913826        0.913826   1.000000   1.000000
     89          1.666582        1.666582   1.031343   1.031343
     90          1.819531        1.819531   0.939906   0.939906
     91          2.597549        2.597549  -0.000022  -0.000022
     92          3.176897        3.176897  -0.000000  -0.000000
     93          3.748212        3.748212  -0.000000  -0.000000
     94          4.584633        4.584633  -0.000000  -0.000000
     95          5.148331        5.148331  -0.000000  -0.000000
     96          5.797378        5.797378  -0.000000  -0.000000
     97          5.953718        5.953718  -0.000000  -0.000000
     98          6.415813        6.415818  -0.000000  -0.000000
     99          6.633091        6.633091  -0.000000  -0.000000
    100          7.035259        7.035273  -0.000000  -0.000000
    101          7.584087        7.584126   0.000000   0.000000
    102          7.669019        7.669019   0.000000   0.000000
    103          8.273324        8.273343   0.000000   0.000000
    104          8.786034        8.786077   0.000000   0.000000
    105          8.979732        8.979747   0.000000   0.000000
    106          8.998180        8.998180   0.000000   0.000000
    107          9.551847        9.551847   0.000000   0.000000
    108          9.749700        9.749701   0.000000   0.000000
    109         10.064611       10.064626   0.000000   0.000000
    110         10.333746       10.333759   0.000000   0.000000
    111         10.454147       10.454158   0.000000   0.000000
    112         10.498678       10.498678   0.000000   0.000000
    113         10.539918       10.539918   0.000000   0.000000
    114         11.116033       11.116033   0.000000   0.000000
    115         11.149071       11.149092   0.000000   0.000000
    116         11.221021       11.221036   0.000000   0.000000
 
  0.3333333E+00  0.3333333E+00  0.0000000E+00  0.4444444E+00
      1         -4.992201       -4.992201   1.000000   1.000000
      2         -4.612667       -4.612667   1.000000   1.000000
      3         -4.103724       -4.103724   1.000000   1.000000
      4         -3.965228       -3.965228   1.000000   1.000000
      5         -3.461331       -3.461331   1.000000   1.000000
      6         -2.967240       -2.967240   1.000000   1.000000
      7         -2.875003       -2.875003   1.000000   1.000000
      8         -2.873225       -2.873225   1.000000   1.000000
      9         -2.824712       -2.824712   1.000000   1.000000
     10         -2.823614       -2.823614   1.000000   1.000000
     11         -2.781187       -2.781187   1.000000   1.000000
     12         -2.765704       -2.765704   1.000000   1.000000
     13         -2.579932       -2.579932   1.000000   1.000000
     14         -2.392565       -2.392565   1.000000   1.000000
     15         -2.370450       -2.370450   1.000000   1.000000
     16         -2.320576       -2.320576   1.000000   1.000000
     17         -2.225986       -2.225986   1.000000   1.000000
     18         -2.027289       -2.027289   1.000000   1.000000
     19         -1.855507       -1.855507   1.000000   1.000000
     20         -1.855336       -1.855336   1.000000   1.000000
     21         -1.825452       -1.825452   1.000000   1.000000
     22         -1.713018       -1.713018   1.000000   1.000000
     23         -1.704659       -1.704659   1.000000   1.000000
     24         -1.581532       -1.581532   1.000000   1.000000
     25         -1.580963       -1.580963   1.000000   1.000000
     26         -1.526089       -1.526089   1.000000   1.000000
     27         -1.523308       -1.523308   1.000000   1.000000
     28         -1.398290       -1.398290   1.000000   1.000000
     29         -1.397526       -1.397526   1.000000   1.000000
     30         -1.356036       -1.356036   1.000000   1.000000
     31         -1.351259       -1.351259   1.000000   1.000000
     32         -1.344657       -1.344657   1.000000   1.000000
     33         -1.244664       -1.244664   1.000000   1.000000
     34         -1.239692       -1.239692   1.000000   1.000000
     35         -1.202038       -1.202038   1.000000   1.000000
     36         -1.153150       -1.153150   1.000000   1.000000
     37         -1.147038       -1.147038   1.000000   1.000000
     38         -1.140612       -1.140612   1.000000   1.000000
     39         -1.131337       -1.131337   1.000000   1.000000
     40         -1.084720       -1.084720   1.000000   1.000000
     41         -1.026171       -1.026171   1.000000   1.000000
     42         -1.021456       -1.021456   1.000000   1.000000
     43         -1.019030       -1.019030   1.000000   1.000000
     44         -1.009289       -1.009289   1.000000   1.000000
     45         -1.007746       -1.007746   1.000000   1.000000
     46         -0.993931       -0.993931   1.000000   1.000000
     47         -0.937445       -0.937445   1.000000   1.000000
     48         -0.919795       -0.919795   1.000000   1.000000
     49         -0.912030       -0.912030   1.000000   1.000000
     50         -0.831451       -0.831451   1.000000   1.000000
     51         -0.817927       -0.817927   1.000000   1.000000
     52         -0.814269       -0.814269   1.000000   1.000000
     53         -0.798713       -0.798713   1.000000   1.000000
     54         -0.777548       -0.777548   1.000000   1.000000
     55         -0.765441       -0.765441   1.000000   1.000000
     56         -0.659288       -0.659288   1.000000   1.000000
     57         -0.657418       -0.657418   1.000000   1.000000
     58         -0.602258       -0.602258   1.000000   1.000000
     59         -0.571559       -0.571559   1.000000   1.000000
     60         -0.533084       -0.533084   1.000000   1.000000
     61         -0.509207       -0.509207   1.000000   1.000000
     62         -0.460458       -0.460458   1.000000   1.000000
     63         -0.458887       -0.458887   1.000000   1.000000
     64         -0.309816       -0.309816   1.000000   1.000000
     65         -0.194726       -0.194726   1.000000   1.000000
     66         -0.191017       -0.191017   1.000000   1.000000
     67         -0.159185       -0.159185   1.000000   1.000000
     68         -0.047692       -0.047692   1.000000   1.000000
     69         -0.031497       -0.031497   1.000000   1.000000
     70         -0.018861       -0.018861   1.000000   1.000000
     71          0.027907        0.027907   1.000000   1.000000
     72          0.049403        0.049403   1.000000   1.000000
     73          0.140034        0.140034   1.000000   1.000000
     74          0.144896        0.144896   1.000000   1.000000
     75          0.145423        0.145423   1.000000   1.000000
     76          0.159469        0.159469   1.000000   1.000000
     77          0.176052        0.176052   1.000000   1.000000
     78          0.183771        0.183771   1.000000   1.000000
     79          0.238048        0.238048   1.000000   1.000000
     80          0.262251        0.262251   1.000000   1.000000
     81          0.264315        0.264315   1.000000   1.000000
     82          0.280514        0.280514   1.000000   1.000000
     83          0.283587        0.283587   1.000000   1.000000
     84          0.312090        0.312090   1.000000   1.000000
     85          0.324806        0.324806   1.000000   1.000000
     86          1.036327        1.036327   1.000000   1.000000
     87          1.813000        1.813000   0.952491   0.952491
     88          1.813447        1.813447   0.951663   0.951663
     89          2.027813        2.027813   0.193128   0.193128
     90          2.028745        2.028745   0.190111   0.190111
     91          2.398661        2.398661  -0.003301  -0.003301
     92          2.407257        2.407257  -0.002789  -0.002789
     93          2.411671        2.411671  -0.002553  -0.002553
     94          2.830845        2.830845  -0.000000  -0.000000
     95          2.855947        2.855947  -0.000000  -0.000000
     96          3.920572        3.920572  -0.000000  -0.000000
     97          4.911218        4.911218  -0.000000  -0.000000
     98          5.374919        5.374919  -0.000000  -0.000000
     99          5.512127        5.512127  -0.000000  -0.000000
    100          5.875669        5.875669  -0.000000  -0.000000
    101          5.924790        5.924790  -0.000000  -0.000000
    102          6.853318        6.853318  -0.000000  -0.000000
    103          6.862008        6.862008  -0.000000  -0.000000
    104          6.991568        6.991568  -0.000000  -0.000000
    105          7.354722        7.354723  -0.000000  -0.000000
    106          7.508487        7.508491   0.000000   0.000000
    107          7.959248        7.959249   0.000000   0.000000
    108          8.290083        8.290084   0.000000   0.000000
    109          8.503223        8.503230   0.000000   0.000000
    110          8.837077        8.837120   0.000000   0.000000
    111          9.102832        9.102835   0.000000   0.000000
    112          9.570190        9.570207   0.000000   0.000000
    113          9.748019        9.748046   0.000000   0.000000