 vasp.6.3.2 27Jun22 (build Aug 17 2022 15:43:34) complex                        
  
 executed on           tv2STDVTST date 2025.02.04  12:26:25
 running   20 mpi-ranks, with    1 threads/rank
 distrk:  each k-point on   20 cores,    1 groups
 distr:  one band on NCORE=   5 cores,    4 groups


--------------------------------------------------------------------------------------------------------


 -----------------------------------------------------------------------------
|                                                                             |
|           W    W    AA    RRRRR   N    N  II  N    N   GGGG   !!!           |
|           W    W   A  A   R    R  NN   N  II  NN   N  G    G  !!!           |
|           W    W  A    A  R    R  N N  N  II  N N  N  G       !!!           |
|           W WW W  AAAAAA  RRRRR   N  N N  II  N  N N  G  GGG   !            |
|           WW  WW  A    A  R   R   N   NN  II  N   NN  G    G                |
|           W    W  A    A  R    R  N    N  II  N    N   GGGG   !!!           |
|                                                                             |
|     Found issues when parsing the INCAR file                                |
|     In line 61: Tagname --- R W I G S contains invalid characters.          |
|     Please check if the interpretation in the OUTCAR file is correct.       |
|                                                                             |
 -----------------------------------------------------------------------------

 INCAR:
    = \=\=\=\=\=\=\=\=\=\=\=\=\=\=\=\=\=\=\=\=\=\=\=\=\=\=\=\=\=\=\=\=\=\=\=\=\=\=\=\=\=\=\=\=\=\=\=\=\=\=\=\=\=\=\=\=\=\=\=\=\=\=\=\=\=\=\=\=\=\=\=\=
    = \=\=\=\=\=\=\=\=\=\=\=\=\=\=\=\=\=\=\=\=\=\=\=\=\=\=\=\=\=\=\=\=\=\=\=\=\=\=\=\=\=\=\=\=\=\=\=\=\=\=\=\=\=\=\=\=\=\=\=\=\=\=\=\=\=\=\=\=\=\=\=\=
   ISTART = 0
   ICHARG = 2
   IPIPOL = 3
   IVDW = 11
    = \=\=\=\=\=\=\=\=\=\=\=\=\=\=\=\=\=\=\=\=\=\=\=\=\=\=\=\=\=\=\=\=\=\=\=\=\=\=\=\=\=\=\=\=\=\=\=\=\=\=\=\=\=\=\=\=\=\=\=\=\=\=\=\=\=\=\=\=\=\=\=\=
    = \=\=\=\=\=\=\=\=\=\=\=\=\=\=\=\=\=\=\=\=\=\=\=\=\=\=\=\=\=\=\=\=\=\=\=\=\=\=\=\=\=\=\=\=\=\=\=\=\=\=\=\=\=\=\=\=\=\=\=\=\=\=\=\=\=\=\=\=\=\=\=\=
   ISPIN = 2
    = \=\=\=\=\=\=\=\=\=\=\=\=\=\=\=\=\=\=\=\=\=\=\=\=\=\=\=\=\=\=\=\=\=\=\=\=\=\=\=\=\=\=\=\=\=\=\=\=\=\=\=\=\=\=\=\=\=\=\=\=\=\=\=\=\=\=\=\=\=\=\=\=
    = \=\=\=\=\=\=\=\=\=\=\=\=\=\=\=\=\=\=\=\=\=\=\=\=\=\=\=\=\=\=\=\=\=\=\=\=\=\=\=\=\=\=\=\=\=\=\=\=\=\=\=\=\=\=\=\=\=\=\=\=\=\=\=\=\=\=\=\=\=\=\=\=
   ENCUT = 400
   PREC = Normal
   EDIFF = 2E-04
   GGA = PE
   ISMEAR = 1
   SIGMA = 0.2
   LREAL = .FALSE.
    = \=\=\=\=\=\=\=\=\=\=\=\=\=\=\=\=\=\=\=\=\=\=\=\=\=\=\=\=\=\=\=\=\=\=\=\=\=\=\=\=\=\=\=\=\=\=\=\=\=\=\=\=\=\=\=\=\=\=\=\=\=\=\=\=\=\=\=\=\=\=\=\=
    = \=\=\=\=\=\=\=\=\=\=\=\=\=\=\=\=\=\=\=\=\=\=\=\=\=\=\=\=\=\=\=\=\=\=\=\=\=\=\=\=\=\=\=\=\=\=\=\=\=\=\=\=\=\=\=\=\=\=\=\=\=\=\=\=\=\=\=\=\=\=\=\=
   ISYM = 1
   NSW = 800
   IBRION = 2
   POTIM = 0.5
   ISIF = 2
   EDIFFG = -.03
    = \=\=\=\=\=\=\=\=\=\=\=\=\=\=\=\=\=\=\=\=\=\=\=\=\=\=\=\=\=\=\=\=\=\=\=\=\=\=\=\=\=\=\=\=\=\=\=\=\=\=\=\=\=\=\=\=\=\=\=\=\=\=\=\=\=\=\=\=\=\=\=\=
    = \=\=\=\=\=\=\=\=\=\=\=\=\=\=\=\=\=\=\=\=\=\=\=\=\=\=\=\=\=\=\=\=\=\=\=\=\=\=\=\=\=\=\=\=\=\=\=\=\=\=\=\=\=\=\=\=\=\=\=\=\=\=\=\=\=\=\=\=\=\=\=\=
   NPAR = 4
   LWAVE = .FALSE.
   LCHARG = .FALSE.

 POTCAR:    PAW_PBE Cu 22Jun2005                  
 POTCAR:    PAW_PBE H 15Jun2001                   
 -----------------------------------------------------------------------------
|                                                                             |
|           W    W    AA    RRRRR   N    N  II  N    N   GGGG   !!!           |
|           W    W   A  A   R    R  NN   N  II  NN   N  G    G  !!!           |
|           W    W  A    A  R    R  N N  N  II  N N  N  G       !!!           |
|           W WW W  AAAAAA  RRRRR   N  N N  II  N  N N  G  GGG   !            |
|           WW  WW  A    A  R   R   N   NN  II  N   NN  G    G                |
|           W    W  A    A  R    R  N    N  II  N    N   GGGG   !!!           |
|                                                                             |
|     You use a magnetic or noncollinear calculation, but did not specify     |
|     the initial magnetic moment with the MAGMOM tag. Note that a            |
|     default of 1 will be used for all atoms. This ferromagnetic setup       |
|     may break the symmetry of the crystal, in particular it may rule        |
|     out finding an antiferromagnetic solution. Thence, we recommend         |
|     setting the initial magnetic moment manually or verifying carefully     |
|     that this magnetic setup is desired.                                    |
|                                                                             |
 -----------------------------------------------------------------------------

 POTCAR:    PAW_PBE Cu 22Jun2005                  
   SHA256 =  0e71e558f37a4e8407882b4609ceaae59938afaad9ced71dfe8490308a0ab630 Cu/POTCAR             
   COPYR  = (c) Copyright 22Jun2005 Georg Kresse                                                    
   COPYR  = This file is part of the software VASP. Any use, copying, and all other rights are regul
   COPYR  = If you do not have a valid VASP license, you may not use, copy or distribute this file. 
   VRHFIN =Cu: d10 p1                                                                               
   LEXCH  = PE                                                                                      
   EATOM  =  1390.9808 eV,  102.2342 Ry                                                             
                                                                                                    
   TITEL  = PAW_PBE Cu 22Jun2005                                                                    
   LULTRA =        F    use ultrasoft PP ?                                                          
   IUNSCR =        1    unscreen: 0-lin 1-nonlin 2-no                                               
   RPACOR =    2.000    partial core radius                                                         
   POMASS =   63.546; ZVAL   =   11.000    mass and valenz                                          
   RCORE  =    2.300    outmost cutoff radius                                                       
   RWIGS  =    2.200; RWIGS  =    1.164    wigner-seitz radius (au A)                               
   ENMAX  =  295.446; ENMIN  =  221.585 eV                                                          
   ICORE  =        3    local potential                                                             
   LCOR   =        T    correct aug charges                                                         
   LPAW   =        T    paw PP                                                                      
   EAUG   =  586.980                                                                                
   DEXC   =    0.000                                                                                
   RMAX   =    2.344    core radius for proj-oper                                                   
   RAUG   =    1.300    factor for augmentation sphere                                              
   RDEP   =    2.302    radius for radial grids                                                     
   RDEPT  =    1.771    core radius for aug-charge                                                  
                                                                                                    
   Atomic configuration                                                                             
    9 entries                                                                                       
     n  l   j            E        occ.                                                              
     1  0  0.50     -8850.2468   2.0000                                                             
     2  0  0.50     -1062.3498   2.0000                                                             
     2  1  1.50      -916.8226   6.0000                                                             
     3  0  0.50      -114.6929   2.0000                                                             
     3  1  1.50       -72.1325   6.0000                                                             
     3  2  2.50        -5.0394  10.0000                                                             
     4  0  0.50        -4.6097   1.0000                                                             
     4  1  0.50        -4.0817   0.0000                                                             
     4  3  2.50        -1.3606   0.0000                                                             
   Description                                                                                      
     l       E           TYP  RCUT    TYP  RCUT                                                     
     2     -5.0393973     23  2.200                                                                 
     2     10.8846608     23  2.200                                                                 
     0     -4.6097109     23  2.200                                                                 
     0      8.2520465     23  2.200                                                                 
     1     -2.7211652     23  2.200                                                                 
     1     21.7055443     23  2.200                                                                 
     3      2.7211652     23  2.300                                                                 
  local pseudopotential read in
  partial core-charges read in
  partial kinetic energy density read in
  atomic valenz-charges read in
  non local Contribution for L=           2  read in
    real space projection operators read in
  non local Contribution for L=           2  read in
    real space projection operators read in
  non local Contribution for L=           0  read in
    real space projection operators read in
  non local Contribution for L=           0  read in
    real space projection operators read in
  non local Contribution for L=           1  read in
    real space projection operators read in
  non local Contribution for L=           1  read in
    real space projection operators read in
    PAW grid and wavefunctions read in
 
   number of l-projection  operators is LMAX  =           6
   number of lm-projection operators is LMMAX =          18
 
 POTCAR:    PAW_PBE H 15Jun2001                   
   SHA256 =  030f79b5d3ab3cf0e668861823c8fb652ff669f3e15e46930bd03bfd63a607b6 H/POTCAR              
   COPYR  = (c) Copyright 15Jun2001 Georg Kresse                                                    
   COPYR  = This file is part of the software VASP. Any use, copying, and all other rights are regul
   COPYR  = If you do not have a valid VASP license, you may not use, copy or distribute this file. 
   VRHFIN =H: ultrasoft test                                                                        
   LEXCH  = PE                                                                                      
   EATOM  =    12.4884 eV,    0.9179 Ry                                                             
                                                                                                    
   TITEL  = PAW_PBE H 15Jun2001                                                                     
   LULTRA =        F    use ultrasoft PP ?                                                          
   IUNSCR =        0    unscreen: 0-lin 1-nonlin 2-no                                               
   RPACOR =    0.000    partial core radius                                                         
   POMASS =    1.000; ZVAL   =    1.000    mass and valenz                                          
   RCORE  =    1.100    outmost cutoff radius                                                       
   RWIGS  =    0.700; RWIGS  =    0.370    wigner-seitz radius (au A)                               
   ENMAX  =  250.000; ENMIN  =  200.000 eV                                                          
   RCLOC  =    0.701    cutoff for local pot                                                        
   LCOR   =        T    correct aug charges                                                         
   LPAW   =        T    paw PP                                                                      
   EAUG   =  400.000                                                                                
   RMAX   =    1.123    core radius for proj-oper                                                   
   RAUG   =    1.200    factor for augmentation sphere                                              
   RDEP   =    1.112    radius for radial grids                                                     
   RDEPT  =    0.926    core radius for aug-charge                                                  
                                                                                                    
   Atomic configuration                                                                             
    2 entries                                                                                       
     n  l   j            E        occ.                                                              
     1  0  0.50        -6.4927   1.0000                                                             
     2  1  0.50        -3.4015   0.0000                                                             
   Description                                                                                      
     l       E           TYP  RCUT    TYP  RCUT                                                     
     0     -6.4927494     23  1.100                                                                 
     0      6.8029130     23  1.100                                                                 
     1     -4.0817478     23  1.100                                                                 
  local pseudopotential read in
  atomic valenz-charges read in
  non local Contribution for L=           0  read in
    real space projection operators read in
  non local Contribution for L=           0  read in
    real space projection operators read in
  non local Contribution for L=           1  read in
    real space projection operators read in
    PAW grid and wavefunctions read in
 
   number of l-projection  operators is LMAX  =           3
   number of lm-projection operators is LMMAX =           5
 
 -----------------------------------------------------------------------------
|                                                                             |
|               ----> ADVICE to this user running VASP <----                  |
|                                                                             |
|     You have a (more or less) 'large supercell' and for larger cells it     |
|     might be more efficient to use real-space projection operators.         |
|     Therefore, try LREAL= Auto in the INCAR file.                           |
|     Mind: For very accurate calculation, you might also keep the            |
|     reciprocal projection scheme (i.e. LREAL=.FALSE.).                      |
|                                                                             |
 -----------------------------------------------------------------------------

  PAW_PBE Cu 22Jun2005                  :
 energy of atom  1       EATOM=-1390.9808
 kinetic energy error for atom=    0.0232 (will be added to EATOM!!)
  PAW_PBE H 15Jun2001                   :
 energy of atom  2       EATOM=  -12.4884
 kinetic energy error for atom=    0.0098 (will be added to EATOM!!)
 
 
 POSCAR: FCC Cu
  positions in cartesian coordinates
  No initial velocities read in
 exchange correlation table for  LEXCH =        8
   RHO(1)=    0.500       N(1)  =     2000
   RHO(2)=  100.500       N(2)  =     4000

 VTST: version 4.2, (08/11/21)

 CHAIN: initializing optimizer
 
 OPT: Using VASP Conjugate-Gradient optimizer
 CHAIN: Read ICHAIN            0
 
 POSCAR: FCC Cu
  positions in cartesian coordinates
  No initial velocities read in
 


--------------------------------------------------------------------------------------------------------


 ion  position               nearest neighbor table
   1  0.000  0.000  0.000-   3 2.57   4 2.57   3 2.57   4 2.57   2 2.57   2 2.57   2 2.57   2 2.57

   2  0.500  0.500  0.000-   3 2.57   4 2.57   3 2.57   4 2.57   1 2.57   1 2.57   1 2.57   1 2.57

   3  0.000  0.500  0.066-   5 2.52   6 2.52   5 2.52   6 2.52   2 2.57   1 2.57   2 2.57   1 2.57
                             4 2.57   4 2.57   4 2.57   4 2.57
   4  0.500  0.000  0.066-   5 2.52   6 2.52   5 2.52   6 2.52   2 2.57   1 2.57   2 2.57   1 2.57
                             3 2.57   3 2.57   3 2.57   3 2.57
   5  0.000  0.000  0.129-   7 2.52   8 2.52   7 2.52   8 2.52   3 2.52   4 2.52   4 2.52   3 2.52
                             6 2.57   6 2.57   6 2.57   6 2.57
   6  0.500  0.500  0.129-   7 2.52   8 2.52   7 2.52   8 2.52   3 2.52   4 2.52   4 2.52   3 2.52
                             5 2.57   5 2.57   5 2.57   5 2.57
   7  0.000  0.500  0.192-   9 2.50  10 2.50   9 2.50  10 2.50   6 2.52   5 2.52   6 2.52   5 2.52
                             8 2.57   8 2.57   8 2.57   8 2.57
   8  0.500  0.000  0.192-   9 2.50  10 2.50   9 2.50  10 2.50   6 2.52   5 2.52   6 2.52   5 2.52
                             7 2.57   7 2.57   7 2.57   7 2.57
   9  0.000  0.000  0.254-   7 2.50   8 2.50   7 2.50   8 2.50  11 2.53  12 2.53  11 2.53  12 2.53
                            10 2.57  10 2.57  10 2.57  10 2.57
  10  0.500  0.500  0.254-   7 2.50   8 2.50   7 2.50   8 2.50  11 2.53  12 2.53  11 2.53  12 2.53
                             9 2.57   9 2.57   9 2.57   9 2.57
  11  0.000  0.500  0.317-   9 2.53  10 2.53   9 2.53  10 2.53  14 2.53  13 2.53  13 2.53  14 2.53
                            12 2.57  12 2.57  12 2.57  12 2.57
  12  0.500  0.000  0.317-   9 2.53  10 2.53   9 2.53  10 2.53  14 2.53  13 2.53  13 2.53  14 2.53
                            11 2.57  11 2.57  11 2.57  11 2.57
  13  0.000  0.000  0.381-  15 2.52  16 2.52  15 2.52  16 2.52  11 2.53  12 2.53  12 2.53  11 2.53
                            14 2.57  14 2.57  14 2.57  14 2.57
  14  0.500  0.500  0.381-  15 2.52  16 2.52  15 2.52  16 2.52  11 2.53  12 2.53  12 2.53  11 2.53
                            13 2.57  13 2.57  13 2.57  13 2.57
  15  0.000  0.500  0.444-  13 2.52  14 2.52  13 2.52  14 2.52  16 2.57  16 2.57  16 2.57  16 2.57

  16  0.500  0.000  0.444-  13 2.52  14 2.52  13 2.52  14 2.52  15 2.57  15 2.57  15 2.57  15 2.57

  17  1.000  1.000  0.502-  18 0.75
  18  1.000  0.145  0.521-  17 0.75
 
  LATTYP: Found a simple tetragonal cell.
 ALAT       =     3.6300001144
 C/A-ratio  =     7.6322311434
  
  Lattice vectors:
  
 A1 = (   3.6300001144,   0.0000000000,   0.0000000000)
 A2 = (   0.0000000000,   3.6300001144,   0.0000000000)
 A3 = (   0.0000000000,   0.0000000000,  27.7049999237)


Analysis of symmetry for initial positions (statically):
=====================================================================
 Subroutine PRICEL returns:
 Original cell was already a primitive cell.
 

 Routine SETGRP: Setting up the symmetry group for a 
 simple tetragonal supercell.


 Subroutine GETGRP returns: Found  2 space group operations
 (whereof  2 operations were pure point group operations)
 out of a pool of 16 trial point group operations.


The static configuration has the point symmetry C_1h.


Analysis of symmetry for dynamics (positions and initial velocities):
=====================================================================
 Subroutine PRICEL returns:
 Original cell was already a primitive cell.
 

 Routine SETGRP: Setting up the symmetry group for a 
 simple tetragonal supercell.


 Subroutine GETGRP returns: Found  2 space group operations
 (whereof  2 operations were pure point group operations)
 out of a pool of 16 trial point group operations.


The dynamic configuration has the point symmetry C_1h.


Analysis of structural, dynamic, and magnetic symmetry:
=====================================================================
 Subroutine PRICEL returns:
 Original cell was already a primitive cell.
 

 Routine SETGRP: Setting up the symmetry group for a 
 simple tetragonal supercell.


 Subroutine GETGRP returns: Found  2 space group operations
 (whereof  2 operations were pure point group operations)
 out of a pool of 16 trial point group operations.


The overall configuration has the point symmetry C_1h.


 Subroutine INISYM returns: Found  2 space group operations
 (whereof  2 operations are pure point group operations),
 and found     1 'primitive' translations


----------------------------------------------------------------------------------------

                                     Primitive cell                                     

  volume of cell :     365.0660

  direct lattice vectors                    reciprocal lattice vectors
     3.630000114  0.000000000  0.000000000     0.275482085  0.000000000  0.000000000
     0.000000000  3.630000114  0.000000000     0.000000000  0.275482085  0.000000000
     0.000000000  0.000000000 27.704999924     0.000000000  0.000000000  0.036094568

  length of vectors
     3.630000114  3.630000114 27.704999924     0.275482085  0.275482085  0.036094568

  position of ions in fractional coordinates (direct lattice)
     0.000000000  0.000000000  0.000000000
     0.500000000  0.500000000  0.000000000
     0.000000000  0.500000000  0.065511642
     0.500000000  0.000000000  0.065511642
     0.000000000  0.000000000  0.128761197
     0.500000000  0.500000000  0.128761197
     0.000000000  0.500000000  0.191931868
     0.500000000  0.000000000  0.191931868
     0.000000000  0.000000000  0.254065502
     0.500000000  0.500000000  0.254065502
     0.000000000  0.500000000  0.317478554
     0.500000000  0.000000000  0.317478554
     0.000000000  0.000000000  0.381322325
     0.500000000  0.500000000  0.381322325
     0.000000000  0.500000000  0.444400750
     0.500000000  0.000000000  0.444400750
     1.000000000  1.000000000  0.501506579
     1.000000000  0.145317257  0.520546524

  ion indices of the primitive-cell ions
   primitive index   ion index
                 1           1
                 2           2
                 3           3
                 4           4
                 5           5
                 6           6
                 7           7
                 8           8
                 9           9
                10          10
                11          11
                12          12
                13          13
                14          14
                15          15
                16          16
                17          17
                18          18

----------------------------------------------------------------------------------------

 
 
 KPOINTS: Auto-mesh                               

Automatic generation of k-mesh.
 Grid dimensions read from file:
 generate k-points for:    3    3    1

 Generating k-lattice:

  Cartesian coordinates                     Fractional coordinates (reciprocal lattice)
     0.091827362  0.000000000  0.000000000     0.333333333  0.000000000  0.000000000
     0.000000000  0.091827362  0.000000000     0.000000000  0.333333333  0.000000000
     0.000000000  0.000000000  0.036094568     0.000000000  0.000000000  1.000000000

  Length of vectors
     0.091827362  0.091827362  0.036094568

  Shift w.r.t. Gamma in fractional coordinates (k-lattice)
     0.000000000  0.000000000  0.000000000

 
 Subroutine IBZKPT returns following result:
 ===========================================
 
 Found      4 irreducible k-points:
 
 Following reciprocal coordinates:
            Coordinates               Weight
  0.000000  0.000000  0.000000      1.000000
  0.333333  0.000000  0.000000      2.000000
  0.000000  0.333333  0.000000      2.000000
  0.333333  0.333333  0.000000      4.000000
 
 Following cartesian coordinates:
            Coordinates               Weight
  0.000000  0.000000  0.000000      1.000000
  0.091827  0.000000  0.000000      2.000000
  0.000000  0.091827  0.000000      2.000000
  0.091827  0.091827  0.000000      4.000000
 


--------------------------------------------------------------------------------------------------------




 Dimension of arrays:
   k-points           NKPTS =      4   k-points in BZ     NKDIM =      4   number of bands    NBANDS=    116
   number of dos      NEDOS =    301   number of ions     NIONS =     18
   non local maximal  LDIM  =      6   non local SUM 2l+1 LMDIM =     18
   total plane-waves  NPLWV =  45360
   max r-space proj   IRMAX =      1   max aug-charges    IRDMAX=   3798
   dimension x,y,z NGX =    18 NGY =   18 NGZ =  140
   dimension x,y,z NGXF=    36 NGYF=   36 NGZF=  280
   support grid    NGXF=    36 NGYF=   36 NGZF=  280
   ions per type =              16   2
   NGX,Y,Z   is equivalent  to a cutoff of   8.24,  8.24,  8.40 a.u.
   NGXF,Y,Z  is equivalent  to a cutoff of  16.49, 16.49, 16.80 a.u.

 SYSTEM =  unknown system                          
 POSCAR =  FCC Cu                                  

 Startparameter for this run:
   NWRITE =      2    write-flag & timer
   PREC   = normal    normal or accurate (medium, high low for compatibility)
   ISTART =      0    job   : 0-new  1-cont  2-samecut
   ICHARG =      2    charge: 1-file 2-atom 10-const
   ISPIN  =      2    spin polarized calculation?
   LNONCOLLINEAR =      F non collinear calculations
   LSORBIT =      F    spin-orbit coupling
   INIWAV =      1    electr: 0-lowe 1-rand  2-diag
   LASPH  =      F    aspherical Exc in radial PAW
 Electronic Relaxation 1
   ENCUT  =  400.0 eV  29.40 Ry    5.42 a.u.   5.92  5.92 45.18*2*pi/ulx,y,z
   ENINI  =  400.0     initial cutoff
   ENAUG  =  587.0 eV  augmentation charge cutoff
   NELM   =     60;   NELMIN=  2; NELMDL= -5     # of ELM steps 
   EDIFF  = 0.2E-03   stopping-criterion for ELM
   LREAL  =      F    real-space projection
   NLSPLINE    = F    spline interpolate recip. space projectors
   LCOMPAT=      F    compatible to vasp.4.4
   GGA_COMPAT  = T    GGA compatible to vasp.4.4-vasp.4.6
   LMAXPAW     = -100 max onsite density
   LMAXMIX     =    2 max onsite mixed and CHGCAR
   VOSKOWN=      0    Vosko Wilk Nusair interpolation
   ROPT   =    0.00000   0.00000
 Ionic relaxation
   EDIFFG = -.3E-01   stopping-criterion for IOM
   NSW    =    800    number of steps for IOM
   NBLOCK =      1;   KBLOCK =    800    inner block; outer block 
   IBRION =      2    ionic relax: 0-MD 1-quasi-New 2-CG
   NFREE  =      1    steps in history (QN), initial steepest desc. (CG)
   ISIF   =      2    stress and relaxation
   IWAVPR =     11    prediction:  0-non 1-charg 2-wave 3-comb
   ISYM   =      1    0-nonsym 1-usesym 2-fastsym
   LCORR  =      T    Harris-Foulkes like correction to forces

   POTIM  = 0.5000    time-step for ionic-motion
   TEIN   =    0.0    initial temperature
   TEBEG  =    0.0;   TEEND  =   0.0 temperature during run
   SMASS  =  -3.00    Nose mass-parameter (am)
   estimated Nose-frequenzy (Omega)   =  0.10E-29 period in steps = 0.13E+47 mass=  -0.301E-27a.u.
   SCALEE = 1.0000    scale energy and forces
   NPACO  =    256;   APACO  = 10.0  distance and # of slots for P.C.
   PSTRESS=    0.0 pullay stress

  Mass of Ions in am
   POMASS =  63.55  1.00
  Ionic Valenz
   ZVAL   =  11.00  1.00
  Atomic Wigner-Seitz radii
   RWIGS  =  -1.00 -1.00
  virtual crystal weights 
   VCA    =   1.00  1.00
   NELECT =     178.0000    total number of electrons
   NUPDOWN=      -1.0000    fix difference up-down

 DOS related values:
   EMIN   =  10.00;   EMAX   =-10.00  energy-range for DOS
   EFERMI =   0.00
   ISMEAR =     1;   SIGMA  =   0.20  broadening in eV -4-tet -1-fermi 0-gaus

 Electronic relaxation 2 (details)
   IALGO  =     38    algorithm
   LDIAG  =      T    sub-space diagonalisation (order eigenvalues)
   LSUBROT=      F    optimize rotation matrix (better conditioning)
   TURBO    =      0    0=normal 1=particle mesh
   IRESTART =      0    0=no restart 2=restart with 2 vectors
   NREBOOT  =      0    no. of reboots
   NMIN     =      0    reboot dimension
   EREF     =   0.00    reference energy to select bands
   IMIX   =      4    mixing-type and parameters
     AMIX     =   0.40;   BMIX     =  1.00
     AMIX_MAG =   1.60;   BMIX_MAG =  1.00
     AMIN     =   0.10
     WC   =   100.;   INIMIX=   1;  MIXPRE=   1;  MAXMIX= -45

 Intra band minimization:
   WEIMIN = 0.0010     energy-eigenvalue tresh-hold
   EBREAK =  0.43E-06  absolut break condition
   DEPER  =   0.30     relativ break condition  

   TIME   =   0.40     timestep for ELM

  volume/ion in A,a.u.               =      20.28       136.87
  Fermi-wavevector in a.u.,A,eV,Ry     =   1.288520  2.434949 22.589518  1.660283
  Thomas-Fermi vector in A             =   2.420468
 
 Write flags
   LWAVE        =      F    write WAVECAR
   LDOWNSAMPLE  =      F    k-point downsampling of WAVECAR
   LCHARG       =      F    write CHGCAR
   LVTOT        =      F    write LOCPOT, total local potential
   LVHAR        =      F    write LOCPOT, Hartree potential only
   LELF         =      F    write electronic localiz. function (ELF)
   LORBIT       =      0    0 simple, 1 ext, 2 COOP (PROOUT), +10 PAW based schemes


 Dipole corrections
   LMONO  =      F    monopole corrections only (constant potential shift)
   LDIPOL =      F    correct potential (dipole corrections)
   IDIPOL =      0    1-x, 2-y, 3-z, 4-all directions 
   EPSILON=  1.0000000 bulk dielectric constant

 Exchange correlation treatment:
   GGA     =    PE    GGA type
   LEXCH   =     8    internal setting for exchange type
   LIBXC   =     F    Libxc                    
   VOSKOWN =     0    Vosko Wilk Nusair interpolation
   LHFCALC =     F    Hartree Fock is set to
   LHFONE  =     F    Hartree Fock one center treatment
   AEXX    =    0.0000 exact exchange contribution

 Linear response parameters
   LEPSILON=     F    determine dielectric tensor
   LRPA    =     F    only Hartree local field effects (RPA)
   LNABLA  =     F    use nabla operator in PAW spheres
   LVEL    =     F    velocity operator in full k-point grid
   CSHIFT  =0.1000    complex shift for real part using Kramers Kronig
   OMEGAMAX=  -1.0    maximum frequency
   DEG_THRESHOLD= 0.2000000E-02 threshold for treating states as degnerate
   RTIME   =   -0.100 relaxation time in fs
  (WPLASMAI=    0.000 imaginary part of plasma frequency in eV, 0.658/RTIME)
   DFIELD  = 0.0000000 0.0000000 0.0000000 field for delta impulse in time
 
  Optional k-point grid parameters
   LKPOINTS_OPT  =     F    use optional k-point grid
   KPOINTS_OPT_MODE=     1    mode for optional k-point grid
 
 Orbital magnetization related:
   ORBITALMAG=     F  switch on orbital magnetization
   LCHIMAG   =     F  perturbation theory with respect to B field
   DQ        =  0.001000  dq finite difference perturbation B field
   LLRAUG    =     F  two centre corrections for induced B field



--------------------------------------------------------------------------------------------------------


 conjugate gradient relaxation of ions
 charge density and potential will be updated during run
 spin polarized calculation
 Variant of blocked Davidson
 Davidson routine will perform the subspace rotation
 perform sub-space diagonalisation
    after iterative eigenvector-optimisation
 modified Broyden-mixing scheme, WC =      100.0
 initial mixing is a Kerker type mixing with AMIX =  0.4000 and BMIX =      1.0000
 Hartree-type preconditioning will be used
 using additional bands           27
 reciprocal scheme for non local part
 use partial core corrections
 calculate Harris-corrections to forces 
   (improved forces if not selfconsistent)
 use gradient corrections 
 use of overlap-Matrix (Vanderbilt PP)
 Methfessel and Paxton  Order N= 1 SIGMA  =   0.20


--------------------------------------------------------------------------------------------------------


  energy-cutoff  :      400.00
  volume of cell :      365.07
      direct lattice vectors                 reciprocal lattice vectors
     3.630000114  0.000000000  0.000000000     0.275482085  0.000000000  0.000000000
     0.000000000  3.630000114  0.000000000     0.000000000  0.275482085  0.000000000
     0.000000000  0.000000000 27.704999924     0.000000000  0.000000000  0.036094568

  length of vectors
     3.630000114  3.630000114 27.704999924     0.275482085  0.275482085  0.036094568


 
 k-points in units of 2pi/SCALE and weight: Auto-mesh                               
   0.00000000  0.00000000  0.00000000       0.111
   0.09182736  0.00000000  0.00000000       0.222
   0.00000000  0.09182736  0.00000000       0.222
   0.09182736  0.09182736  0.00000000       0.444
 
 k-points in reciprocal lattice and weights: Auto-mesh                               
   0.00000000  0.00000000  0.00000000       0.111
   0.33333333  0.00000000  0.00000000       0.222
   0.00000000  0.33333333  0.00000000       0.222
   0.33333333  0.33333333  0.00000000       0.444
 
 position of ions in fractional coordinates (direct lattice) 
   0.00000000  0.00000000  0.00000000
   0.50000000  0.50000000  0.00000000
   0.00000000  0.50000000  0.06551164
   0.50000000  0.00000000  0.06551164
   0.00000000  0.00000000  0.12876120
   0.50000000  0.50000000  0.12876120
   0.00000000  0.50000000  0.19193187
   0.50000000  0.00000000  0.19193187
   0.00000000  0.00000000  0.25406550
   0.50000000  0.50000000  0.25406550
   0.00000000  0.50000000  0.31747855
   0.50000000  0.00000000  0.31747855
   0.00000000  0.00000000  0.38132233
   0.50000000  0.50000000  0.38132233
   0.00000000  0.50000000  0.44440075
   0.50000000  0.00000000  0.44440075
   1.00000000  1.00000000  0.50150658
   1.00000000  0.14531726  0.52054652
 
 position of ions in cartesian coordinates  (Angst):
   0.00000000  0.00000000  0.00000000
   1.81500006  1.81500006  0.00000000
   0.00000000  1.81500006  1.81500003
   1.81500006  0.00000000  1.81500003
   0.00000000  0.00000000  3.56732895
   1.81500006  1.81500006  3.56732895
   0.00000000  1.81500006  5.31747238
   1.81500006  0.00000000  5.31747238
   0.00000000  0.00000000  7.03888473
   1.81500006  1.81500006  7.03888473
   0.00000000  1.81500006  8.79574330
   1.81500006  0.00000000  8.79574330
   0.00000000  0.00000000 10.56453500
   1.81500006  1.81500006 10.56453500
   0.00000000  1.81500006 12.31212275
   1.81500006  0.00000000 12.31212275
   3.63000011  3.63000011 13.89423974
   3.63000011  0.52750166 14.42174140
 


--------------------------------------------------------------------------------------------------------


 k-point   1 :   0.0000 0.0000 0.0000  plane waves:    6591
 k-point   2 :   0.3333 0.0000 0.0000  plane waves:    6616
 k-point   3 :   0.0000 0.3333 0.0000  plane waves:    6616
 k-point   4 :   0.3333 0.3333 0.0000  plane waves:    6666

 maximum and minimum number of plane-waves per node :      1339     1307

 maximum number of plane-waves:      6666
 maximum index in each direction: 
   IXMAX=    5   IYMAX=    5   IZMAX=   45
   IXMIN=   -6   IYMIN=   -6   IZMIN=  -45


 parallel 3D FFT for wavefunctions:
    minimum data exchange during FFTs selected (reduces bandwidth)
 parallel 3D FFT for charge:
    minimum data exchange during FFTs selected (reduces bandwidth)


 total amount of memory used by VASP MPI-rank0    40692. kBytes
=======================================================================

   base      :      30000. kBytes
   nonl-proj :       1929. kBytes
   fftplans  :        968. kBytes
   grid      :       2430. kBytes
   one-center:        124. kBytes
   wavefun   :       5241. kBytes
 
     INWAV:  cpu time      0.0000: real time      0.0005
 Broyden mixing: mesh for mixing (old mesh)
   NGX = 11   NGY = 11   NGZ = 91
  (NGX  = 36   NGY  = 36   NGZ  =280)
  gives a total of  11011 points

 initial charge density was supplied:
 charge density of overlapping atoms calculated
 number of electron     178.0000000 magnetization      18.0000000
 keeping initial charge density in first step


--------------------------------------------------------------------------------------------------------


 Maximum index for augmentation-charges          285 (set IRDMAX)


--------------------------------------------------------------------------------------------------------


 First call to EWALD:  gamma=   0.248
 Maximum number of real-space cells 5x 5x 1
 Maximum number of reciprocal cells 2x 2x 9

    FEWALD:  cpu time      0.0019: real time      0.0019


--------------------------------------- Iteration      1(   1)  ---------------------------------------


    POTLOK:  cpu time      0.0290: real time      0.0294
    SETDIJ:  cpu time      0.0072: real time      0.0072
     EDDAV:  cpu time      1.1548: real time      1.1658
       DOS:  cpu time      0.0011: real time      0.0011
    --------------------------------------------
      LOOP:  cpu time      1.1922: real time      1.2035

 eigenvalue-minimisations  :  1856
 total energy-change (2. order) : 0.1668921E+04  (-0.6458473E+04)
 number of electron     178.0000000 magnetization      18.0000000
 augmentation part      178.0000000 magnetization      18.0000000

 Free energy of the ion-electron system (eV)
  ---------------------------------------------------
  alpha Z        PSCENC =       521.04204123
  Ewald energy   TEWEN  =    102665.75127851
  -Hartree energ DENC   =   -124575.84241249
  -exchange      EXHF   =         0.00000000
  -V(xc)+E(xc)   XCENC  =       738.39510656
  PAW double counting   =     19653.14859652   -21346.34030725
  entropy T*S    EENTRO =         0.00435704
  eigenvalues    EBANDS =      1732.48242278
  atomic energy  EATOM  =     22280.27950853
  Solvation  Ediel_sol  =         0.00000000
  ---------------------------------------------------
  free energy    TOTEN  =      1668.92059144 eV

  energy without entropy =     1668.91623440  energy(sigma->0) =     1668.91913909


--------------------------------------------------------------------------------------------------------




--------------------------------------- Iteration      1(   2)  ---------------------------------------


     EDDAV:  cpu time      1.1241: real time      1.1350
       DOS:  cpu time      0.0013: real time      0.0013
    --------------------------------------------
      LOOP:  cpu time      1.1255: real time      1.1363

 eigenvalue-minimisations  :  1856
 total energy-change (2. order) :-0.1469607E+04  (-0.1409002E+04)
 number of electron     178.0000000 magnetization      18.0000000
 augmentation part      178.0000000 magnetization      18.0000000

 Free energy of the ion-electron system (eV)
  ---------------------------------------------------
  alpha Z        PSCENC =       521.04204123
  Ewald energy   TEWEN  =    102665.75127851
  -Hartree energ DENC   =   -124575.84241249
  -exchange      EXHF   =         0.00000000
  -V(xc)+E(xc)   XCENC  =       738.39510656
  PAW double counting   =     19653.14859652   -21346.34030725
  entropy T*S    EENTRO =        -0.00313268
  eigenvalues    EBANDS =       262.88303513
  atomic energy  EATOM  =     22280.27950853
  Solvation  Ediel_sol  =         0.00000000
  ---------------------------------------------------
  free energy    TOTEN  =       199.31371406 eV

  energy without entropy =      199.31684674  energy(sigma->0) =      199.31475829


--------------------------------------------------------------------------------------------------------




--------------------------------------- Iteration      1(   3)  ---------------------------------------


     EDDAV:  cpu time      1.1317: real time      1.1413
       DOS:  cpu time      0.0014: real time      0.0014
    --------------------------------------------
      LOOP:  cpu time      1.1331: real time      1.1427

 eigenvalue-minimisations  :  1864
 total energy-change (2. order) :-0.2524365E+03  (-0.2299929E+03)
 number of electron     178.0000000 magnetization      18.0000000
 augmentation part      178.0000000 magnetization      18.0000000

 Free energy of the ion-electron system (eV)
  ---------------------------------------------------
  alpha Z        PSCENC =       521.04204123
  Ewald energy   TEWEN  =    102665.75127851
  -Hartree energ DENC   =   -124575.84241249
  -exchange      EXHF   =         0.00000000
  -V(xc)+E(xc)   XCENC  =       738.39510656
  PAW double counting   =     19653.14859652   -21346.34030725
  entropy T*S    EENTRO =         0.01236869
  eigenvalues    EBANDS =        10.43102434
  atomic energy  EATOM  =     22280.27950853
  Solvation  Ediel_sol  =         0.00000000
  ---------------------------------------------------
  free energy    TOTEN  =       -53.12279536 eV

  energy without entropy =      -53.13516405  energy(sigma->0) =      -53.12691825


--------------------------------------------------------------------------------------------------------




--------------------------------------- Iteration      1(   4)  ---------------------------------------


     EDDAV:  cpu time      1.2347: real time      1.2452
       DOS:  cpu time      0.0014: real time      0.0015
    --------------------------------------------
      LOOP:  cpu time      1.2362: real time      1.2467

 eigenvalue-minimisations  :  2104
 total energy-change (2. order) :-0.1549975E+02  (-0.1516267E+02)
 number of electron     178.0000000 magnetization      18.0000000
 augmentation part      178.0000000 magnetization      18.0000000

 Free energy of the ion-electron system (eV)
  ---------------------------------------------------
  alpha Z        PSCENC =       521.04204123
  Ewald energy   TEWEN  =    102665.75127851
  -Hartree energ DENC   =   -124575.84241249
  -exchange      EXHF   =         0.00000000
  -V(xc)+E(xc)   XCENC  =       738.39510656
  PAW double counting   =     19653.14859652   -21346.34030725
  entropy T*S    EENTRO =         0.00391800
  eigenvalues    EBANDS =        -5.06027177
  atomic energy  EATOM  =     22280.27950853
  Solvation  Ediel_sol  =         0.00000000
  ---------------------------------------------------
  free energy    TOTEN  =       -68.62254216 eV

  energy without entropy =      -68.62646015  energy(sigma->0) =      -68.62384816


--------------------------------------------------------------------------------------------------------




--------------------------------------- Iteration      1(   5)  ---------------------------------------


     EDDAV:  cpu time      1.2359: real time      1.2471
       DOS:  cpu time      0.0014: real time      0.0014
    CHARGE:  cpu time      0.1070: real time      0.1075
    MIXING:  cpu time      0.0012: real time      0.0012
    --------------------------------------------
      LOOP:  cpu time      1.3455: real time      1.3572

 eigenvalue-minimisations  :  2120
 total energy-change (2. order) :-0.3420221E+00  (-0.3414055E+00)
 number of electron     178.0002388 magnetization      16.9350398
 augmentation part      104.0784030 magnetization      15.7240500

 Broyden mixing:
  rms(total) = 0.36531E+01    rms(broyden)= 0.36526E+01
  rms(prec ) = 0.37489E+01
  weight for this iteration     100.00

 Free energy of the ion-electron system (eV)
  ---------------------------------------------------
  alpha Z        PSCENC =       521.04204123
  Ewald energy   TEWEN  =    102665.75127851
  -Hartree energ DENC   =   -124575.84241249
  -exchange      EXHF   =         0.00000000
  -V(xc)+E(xc)   XCENC  =       738.39510656
  PAW double counting   =     19653.14859652   -21346.34030725
  entropy T*S    EENTRO =         0.00328279
  eigenvalues    EBANDS =        -5.40165865
  atomic energy  EATOM  =     22280.27950853
  Solvation  Ediel_sol  =         0.00000000
  ---------------------------------------------------
  free energy    TOTEN  =       -68.96456425 eV

  energy without entropy =      -68.96784703  energy(sigma->0) =      -68.96565851


--------------------------------------------------------------------------------------------------------




--------------------------------------- Iteration      1(   6)  ---------------------------------------


    POTLOK:  cpu time      0.0281: real time      0.0284
    SETDIJ:  cpu time      0.0072: real time      0.0072
     EDDAV:  cpu time      1.2223: real time      1.2330
       DOS:  cpu time      0.0014: real time      0.0014
    CHARGE:  cpu time      0.0983: real time      0.0987
    MIXING:  cpu time      0.0011: real time      0.0011
    --------------------------------------------
      LOOP:  cpu time      1.3584: real time      1.3698

 eigenvalue-minimisations  :  2056
 total energy-change (2. order) : 0.1102928E+02  (-0.1608464E+02)
 number of electron     178.0002650 magnetization      16.2123055
 augmentation part      117.1144758 magnetization      11.7905476

 Broyden mixing:
  rms(total) = 0.18620E+01    rms(broyden)= 0.18610E+01
  rms(prec ) = 0.19113E+01
  weight for this iteration     100.00

 eigenvalues of (default mixing * dielectric matrix)
  average eigenvalue GAMMA=   0.8021
  0.8021

 Free energy of the ion-electron system (eV)
  ---------------------------------------------------
  alpha Z        PSCENC =       521.04204123
  Ewald energy   TEWEN  =    102665.75127851
  -Hartree energ DENC   =   -124195.65063802
  -exchange      EXHF   =         0.00000000
  -V(xc)+E(xc)   XCENC  =       721.14179332
  PAW double counting   =     19982.43212973   -21590.95735892
  entropy T*S    EENTRO =        -0.01651890
  eigenvalues    EBANDS =      -441.95751846
  atomic energy  EATOM  =     22280.27950853
  Solvation  Ediel_sol  =         0.00000000
  ---------------------------------------------------
  free energy    TOTEN  =       -57.93528298 eV

  energy without entropy =      -57.91876408  energy(sigma->0) =      -57.92977668


--------------------------------------------------------------------------------------------------------




--------------------------------------- Iteration      1(   7)  ---------------------------------------


    POTLOK:  cpu time      0.0267: real time      0.0270
    SETDIJ:  cpu time      0.0066: real time      0.0067
     EDDAV:  cpu time      1.2309: real time      1.2414
       DOS:  cpu time      0.0016: real time      0.0016
    CHARGE:  cpu time      0.0970: real time      0.0974
    MIXING:  cpu time      0.0009: real time      0.0009
    --------------------------------------------
      LOOP:  cpu time      1.3637: real time      1.3750

 eigenvalue-minimisations  :  2112
 total energy-change (2. order) : 0.6071266E+01  (-0.3835462E+01)
 number of electron     178.0002567 magnetization      15.4266065
 augmentation part      112.7729503 magnetization      11.0825079

 Broyden mixing:
  rms(total) = 0.97837E+00    rms(broyden)= 0.97814E+00
  rms(prec ) = 0.99628E+00
  weight for this iteration     100.00

 eigenvalues of (default mixing * dielectric matrix)
  average eigenvalue GAMMA=   0.8152
  0.9797  0.6507

 Free energy of the ion-electron system (eV)
  ---------------------------------------------------
  alpha Z        PSCENC =       521.04204123
  Ewald energy   TEWEN  =    102665.75127851
  -Hartree energ DENC   =   -124368.23781940
  -exchange      EXHF   =         0.00000000
  -V(xc)+E(xc)   XCENC  =       729.06851480
  PAW double counting   =     20417.97836261   -22105.70002129
  entropy T*S    EENTRO =        -0.01496246
  eigenvalues    EBANDS =      -192.03091982
  atomic energy  EATOM  =     22280.27950853
  Solvation  Ediel_sol  =         0.00000000
  ---------------------------------------------------
  free energy    TOTEN  =       -51.86401729 eV

  energy without entropy =      -51.84905483  energy(sigma->0) =      -51.85902980


--------------------------------------------------------------------------------------------------------




--------------------------------------- Iteration      1(   8)  ---------------------------------------


    POTLOK:  cpu time      0.0253: real time      0.0257
    SETDIJ:  cpu time      0.0065: real time      0.0066
     EDDAV:  cpu time      1.3217: real time      1.3326
       DOS:  cpu time      0.0014: real time      0.0014
    CHARGE:  cpu time      0.1014: real time      0.1019
    MIXING:  cpu time      0.0011: real time      0.0011
    --------------------------------------------
      LOOP:  cpu time      1.4575: real time      1.4693

 eigenvalue-minimisations  :  2284
 total energy-change (2. order) : 0.3160791E+00  (-0.1057688E+01)
 number of electron     178.0002542 magnetization      14.7496880
 augmentation part      111.8896462 magnetization      10.1943831

 Broyden mixing:
  rms(total) = 0.99152E+00    rms(broyden)= 0.99140E+00
  rms(prec ) = 0.10838E+01
  weight for this iteration     100.00

 eigenvalues of (default mixing * dielectric matrix)
  average eigenvalue GAMMA=   0.7126
  1.0981  0.6426  0.3971

 Free energy of the ion-electron system (eV)
  ---------------------------------------------------
  alpha Z        PSCENC =       521.04204123
  Ewald energy   TEWEN  =    102665.75127851
  -Hartree energ DENC   =   -124416.74479749
  -exchange      EXHF   =         0.00000000
  -V(xc)+E(xc)   XCENC  =       729.68742744
  PAW double counting   =     20666.98960575   -22374.27922445
  entropy T*S    EENTRO =         0.00100769
  eigenvalues    EBANDS =      -124.27478538
  atomic energy  EATOM  =     22280.27950853
  Solvation  Ediel_sol  =         0.00000000
  ---------------------------------------------------
  free energy    TOTEN  =       -51.54793817 eV

  energy without entropy =      -51.54894586  energy(sigma->0) =      -51.54827407


--------------------------------------------------------------------------------------------------------




--------------------------------------- Iteration      1(   9)  ---------------------------------------


    POTLOK:  cpu time      0.0262: real time      0.0269
    SETDIJ:  cpu time      0.0066: real time      0.0066
     EDDAV:  cpu time      1.4564: real time      1.4685
       DOS:  cpu time      0.0014: real time      0.0014
    CHARGE:  cpu time      0.0992: real time      0.0996
    MIXING:  cpu time      0.0011: real time      0.0011
    --------------------------------------------
      LOOP:  cpu time      1.5909: real time      1.6041

 eigenvalue-minimisations  :  2604
 total energy-change (2. order) : 0.5087412E+00  (-0.6370773E+00)
 number of electron     178.0002547 magnetization      13.8819453
 augmentation part      112.0861436 magnetization      10.0936325

 Broyden mixing:
  rms(total) = 0.86438E+00    rms(broyden)= 0.86427E+00
  rms(prec ) = 0.96118E+00
  weight for this iteration     100.00

 eigenvalues of (default mixing * dielectric matrix)
  average eigenvalue GAMMA=   0.7640
  1.3640  0.7135  0.7135  0.2651

 Free energy of the ion-electron system (eV)
  ---------------------------------------------------
  alpha Z        PSCENC =       521.04204123
  Ewald energy   TEWEN  =    102665.75127851
  -Hartree energ DENC   =   -124354.77528091
  -exchange      EXHF   =         0.00000000
  -V(xc)+E(xc)   XCENC  =       729.19861555
  PAW double counting   =     20829.08225315   -22545.62643010
  entropy T*S    EENTRO =        -0.00951356
  eigenvalues    EBANDS =      -175.98166938
  atomic energy  EATOM  =     22280.27950853
  Solvation  Ediel_sol  =         0.00000000
  ---------------------------------------------------
  free energy    TOTEN  =       -51.03919699 eV

  energy without entropy =      -51.02968342  energy(sigma->0) =      -51.03602580


--------------------------------------------------------------------------------------------------------




--------------------------------------- Iteration      1(  10)  ---------------------------------------


    POTLOK:  cpu time      0.0252: real time      0.0255
    SETDIJ:  cpu time      0.0064: real time      0.0064
     EDDAV:  cpu time      1.6420: real time      1.6560
       DOS:  cpu time      0.0014: real time      0.0014
    CHARGE:  cpu time      0.0983: real time      0.0988
    MIXING:  cpu time      0.0011: real time      0.0011
    --------------------------------------------
      LOOP:  cpu time      1.7745: real time      1.7893

 eigenvalue-minimisations  :  3020
 total energy-change (2. order) :-0.1702991E+00  (-0.5558988E+00)
 number of electron     178.0002547 magnetization      13.1725913
 augmentation part      112.0075835 magnetization       9.1632644

 Broyden mixing:
  rms(total) = 0.81160E+00    rms(broyden)= 0.81149E+00
  rms(prec ) = 0.98463E+00
  weight for this iteration     100.00

 eigenvalues of (default mixing * dielectric matrix)
  average eigenvalue GAMMA=   0.7230
  1.5254  0.7848  0.7848  0.3407  0.1793

 Free energy of the ion-electron system (eV)
  ---------------------------------------------------
  alpha Z        PSCENC =       521.04204123
  Ewald energy   TEWEN  =    102665.75127851
  -Hartree energ DENC   =   -124400.44588999
  -exchange      EXHF   =         0.00000000
  -V(xc)+E(xc)   XCENC  =       728.44781940
  PAW double counting   =     20982.47729679   -22705.91690999
  entropy T*S    EENTRO =        -0.01853385
  eigenvalues    EBANDS =      -122.82610676
  atomic energy  EATOM  =     22280.27950853
  Solvation  Ediel_sol  =         0.00000000
  ---------------------------------------------------
  free energy    TOTEN  =       -51.20949614 eV

  energy without entropy =      -51.19096228  energy(sigma->0) =      -51.20331818


--------------------------------------------------------------------------------------------------------




--------------------------------------- Iteration      1(  11)  ---------------------------------------


    POTLOK:  cpu time      0.0252: real time      0.0255
    SETDIJ:  cpu time      0.0065: real time      0.0065
     EDDAV:  cpu time      1.4873: real time      1.5006
       DOS:  cpu time      0.0024: real time      0.0024
    CHARGE:  cpu time      0.1052: real time      0.1059
    MIXING:  cpu time      0.0015: real time      0.0015
    --------------------------------------------
      LOOP:  cpu time      1.6281: real time      1.6425

 eigenvalue-minimisations  :  2656
 total energy-change (2. order) :-0.8461295E+00  (-0.1125305E+01)
 number of electron     178.0002547 magnetization      11.7868305
 augmentation part      111.9844204 magnetization       8.1075261

 Broyden mixing:
  rms(total) = 0.88226E+00    rms(broyden)= 0.88209E+00
  rms(prec ) = 0.12633E+01
  weight for this iteration     100.00

 eigenvalues of (default mixing * dielectric matrix)
  average eigenvalue GAMMA=   0.6880
  1.7078  0.8083  0.8083  0.4580  0.2214  0.1240

 Free energy of the ion-electron system (eV)
  ---------------------------------------------------
  alpha Z        PSCENC =       521.04204123
  Ewald energy   TEWEN  =    102665.75127851
  -Hartree energ DENC   =   -124417.44685312
  -exchange      EXHF   =         0.00000000
  -V(xc)+E(xc)   XCENC  =       727.73946680
  PAW double counting   =     21075.71210320   -22802.53487445
  entropy T*S    EENTRO =         0.00787951
  eigenvalues    EBANDS =      -102.60617587
  atomic energy  EATOM  =     22280.27950853
  Solvation  Ediel_sol  =         0.00000000
  ---------------------------------------------------
  free energy    TOTEN  =       -52.05562565 eV

  energy without entropy =      -52.06350516  energy(sigma->0) =      -52.05825215


--------------------------------------------------------------------------------------------------------




--------------------------------------- Iteration      1(  12)  ---------------------------------------


    POTLOK:  cpu time      0.0267: real time      0.0270
    SETDIJ:  cpu time      0.0066: real time      0.0067
     EDDAV:  cpu time      1.5183: real time      1.5308
       DOS:  cpu time      0.0014: real time      0.0014
    CHARGE:  cpu time      0.0965: real time      0.0970
    MIXING:  cpu time      0.0014: real time      0.0014
    --------------------------------------------
      LOOP:  cpu time      1.6510: real time      1.6642

 eigenvalue-minimisations  :  2744
 total energy-change (2. order) : 0.4909365E+00  (-0.5098292E+00)
 number of electron     178.0002554 magnetization       9.6404405
 augmentation part      112.4849432 magnetization       5.7617036

 Broyden mixing:
  rms(total) = 0.62079E+00    rms(broyden)= 0.62065E+00
  rms(prec ) = 0.63034E+00
  weight for this iteration     100.00

 eigenvalues of (default mixing * dielectric matrix)
  average eigenvalue GAMMA=   0.8373
  2.4113  1.4274  0.6432  0.6432  0.3981  0.2277  0.1104

 Free energy of the ion-electron system (eV)
  ---------------------------------------------------
  alpha Z        PSCENC =       521.04204123
  Ewald energy   TEWEN  =    102665.75127851
  -Hartree energ DENC   =   -124398.44778481
  -exchange      EXHF   =         0.00000000
  -V(xc)+E(xc)   XCENC  =       726.70342963
  PAW double counting   =     21218.77169531   -22950.26014652
  entropy T*S    EENTRO =        -0.02356383
  eigenvalues    EBANDS =      -115.38114725
  atomic energy  EATOM  =     22280.27950853
  Solvation  Ediel_sol  =         0.00000000
  ---------------------------------------------------
  free energy    TOTEN  =       -51.56468920 eV

  energy without entropy =      -51.54112537  energy(sigma->0) =      -51.55683459


--------------------------------------------------------------------------------------------------------




--------------------------------------- Iteration      1(  13)  ---------------------------------------


    POTLOK:  cpu time      0.0252: real time      0.0255
    SETDIJ:  cpu time      0.0064: real time      0.0064
     EDDAV:  cpu time      1.4661: real time      1.4783
       DOS:  cpu time      0.0014: real time      0.0014
    CHARGE:  cpu time      0.0997: real time      0.1002
    MIXING:  cpu time      0.0015: real time      0.0015
    --------------------------------------------
      LOOP:  cpu time      1.6004: real time      1.6133

 eigenvalue-minimisations  :  2632
 total energy-change (2. order) :-0.2234986E+01  (-0.1600551E+00)
 number of electron     178.0002559 magnetization       7.3081852
 augmentation part      112.6711044 magnetization       4.3325812

 Broyden mixing:
  rms(total) = 0.56613E+00    rms(broyden)= 0.56608E+00
  rms(prec ) = 0.62325E+00
  weight for this iteration     100.00

 eigenvalues of (default mixing * dielectric matrix)
  average eigenvalue GAMMA=   0.9646
  3.5962  1.3677  0.7395  0.7395  0.5248  0.4102  0.2298  0.1089

 Free energy of the ion-electron system (eV)
  ---------------------------------------------------
  alpha Z        PSCENC =       521.04204123
  Ewald energy   TEWEN  =    102665.75127851
  -Hartree energ DENC   =   -124413.76299506
  -exchange      EXHF   =         0.00000000
  -V(xc)+E(xc)   XCENC  =       724.88602076
  PAW double counting   =     21282.30955406   -23012.98458543
  entropy T*S    EENTRO =        -0.01830363
  eigenvalues    EBANDS =      -101.30219395
  atomic energy  EATOM  =     22280.27950853
  Solvation  Ediel_sol  =         0.00000000
  ---------------------------------------------------
  free energy    TOTEN  =       -53.79967498 eV

  energy without entropy =      -53.78137135  energy(sigma->0) =      -53.79357377


--------------------------------------------------------------------------------------------------------




--------------------------------------- Iteration      1(  14)  ---------------------------------------


    POTLOK:  cpu time      0.0252: real time      0.0255
    SETDIJ:  cpu time      0.0068: real time      0.0068
     EDDAV:  cpu time      1.3827: real time      1.3941
       DOS:  cpu time      0.0015: real time      0.0015
    CHARGE:  cpu time      0.1064: real time      0.1069
    MIXING:  cpu time      0.0014: real time      0.0014
    --------------------------------------------
      LOOP:  cpu time      1.5240: real time      1.5361

 eigenvalue-minimisations  :  2448
 total energy-change (2. order) :-0.1726990E+01  (-0.1283548E+00)
 number of electron     178.0002556 magnetization       4.1870538
 augmentation part      112.4965449 magnetization       1.7493080

 Broyden mixing:
  rms(total) = 0.41956E+00    rms(broyden)= 0.41952E+00
  rms(prec ) = 0.46779E+00
  weight for this iteration     100.00

 eigenvalues of (default mixing * dielectric matrix)
  average eigenvalue GAMMA=   1.2610
  6.1385  1.5312  1.1236  0.6533  0.6533  0.5303  0.3815  0.2282  0.1090

 Free energy of the ion-electron system (eV)
  ---------------------------------------------------
  alpha Z        PSCENC =       521.04204123
  Ewald energy   TEWEN  =    102665.75127851
  -Hartree energ DENC   =   -124429.64464198
  -exchange      EXHF   =         0.00000000
  -V(xc)+E(xc)   XCENC  =       724.19968720
  PAW double counting   =     21315.42766171   -23049.67426545
  entropy T*S    EENTRO =        -0.00233106
  eigenvalues    EBANDS =       -82.90560317
  atomic energy  EATOM  =     22280.27950853
  Solvation  Ediel_sol  =         0.00000000
  ---------------------------------------------------
  free energy    TOTEN  =       -55.52666448 eV

  energy without entropy =      -55.52433342  energy(sigma->0) =      -55.52588746


--------------------------------------------------------------------------------------------------------




--------------------------------------- Iteration      1(  15)  ---------------------------------------


    POTLOK:  cpu time      0.0253: real time      0.0256
    SETDIJ:  cpu time      0.0064: real time      0.0064
     EDDAV:  cpu time      1.2974: real time      1.3084
       DOS:  cpu time      0.0015: real time      0.0015
    CHARGE:  cpu time      0.1006: real time      0.1010
    MIXING:  cpu time      0.0016: real time      0.0016
    --------------------------------------------
      LOOP:  cpu time      1.4328: real time      1.4446

 eigenvalue-minimisations  :  2268
 total energy-change (2. order) :-0.2900078E+01  (-0.2871972E+00)
 number of electron     178.0002545 magnetization       2.7994555
 augmentation part      112.0350264 magnetization       1.1693402

 Broyden mixing:
  rms(total) = 0.25347E+00    rms(broyden)= 0.25335E+00
  rms(prec ) = 0.27484E+00
  weight for this iteration     100.00

 eigenvalues of (default mixing * dielectric matrix)
  average eigenvalue GAMMA=   1.6210
  9.8906  2.0506  1.1063  0.6679  0.6679  0.6894  0.4088  0.3907  0.2286  0.1090

 Free energy of the ion-electron system (eV)
  ---------------------------------------------------
  alpha Z        PSCENC =       521.04204123
  Ewald energy   TEWEN  =    102665.75127851
  -Hartree energ DENC   =   -124468.99889936
  -exchange      EXHF   =         0.00000000
  -V(xc)+E(xc)   XCENC  =       722.99918846
  PAW double counting   =     21279.19131758   -23015.68133034
  entropy T*S    EENTRO =         0.00318080
  eigenvalues    EBANDS =       -43.01302829
  atomic energy  EATOM  =     22280.27950853
  Solvation  Ediel_sol  =         0.00000000
  ---------------------------------------------------
  free energy    TOTEN  =       -58.42674288 eV

  energy without entropy =      -58.42992369  energy(sigma->0) =      -58.42780315


--------------------------------------------------------------------------------------------------------




--------------------------------------- Iteration      1(  16)  ---------------------------------------


    POTLOK:  cpu time      0.0254: real time      0.0276
    SETDIJ:  cpu time      0.0064: real time      0.0064
     EDDAV:  cpu time      1.4250: real time      1.4366
       DOS:  cpu time      0.0015: real time      0.0015
    CHARGE:  cpu time      0.0963: real time      0.0967
    MIXING:  cpu time      0.0018: real time      0.0018
    --------------------------------------------
      LOOP:  cpu time      1.5563: real time      1.5706

 eigenvalue-minimisations  :  2508
 total energy-change (2. order) :-0.1497870E+01  (-0.1777251E+00)
 number of electron     178.0002545 magnetization       2.1313656
 augmentation part      111.9618355 magnetization       1.1474329

 Broyden mixing:
  rms(total) = 0.18974E+00    rms(broyden)= 0.18967E+00
  rms(prec ) = 0.21153E+00
  weight for this iteration     100.00

 eigenvalues of (default mixing * dielectric matrix)
  average eigenvalue GAMMA=   1.6799
 11.3830  2.1818  1.1088  0.7572  0.7572  0.6652  0.5252  0.2285  0.3815  0.3815
  0.1090

 Free energy of the ion-electron system (eV)
  ---------------------------------------------------
  alpha Z        PSCENC =       521.04204123
  Ewald energy   TEWEN  =    102665.75127851
  -Hartree energ DENC   =   -124467.21754095
  -exchange      EXHF   =         0.00000000
  -V(xc)+E(xc)   XCENC  =       722.21849483
  PAW double counting   =     21172.02952194   -22902.83331614
  entropy T*S    EENTRO =        -0.01792412
  eigenvalues    EBANDS =       -51.17667681
  atomic energy  EATOM  =     22280.27950853
  Solvation  Ediel_sol  =         0.00000000
  ---------------------------------------------------
  free energy    TOTEN  =       -59.92461298 eV

  energy without entropy =      -59.90668886  energy(sigma->0) =      -59.91863827


--------------------------------------------------------------------------------------------------------




--------------------------------------- Iteration      1(  17)  ---------------------------------------


    POTLOK:  cpu time      0.0263: real time      0.0266
    SETDIJ:  cpu time      0.0066: real time      0.0066
     EDDAV:  cpu time      1.4124: real time      1.4240
       DOS:  cpu time      0.0015: real time      0.0015
    CHARGE:  cpu time      0.0957: real time      0.0962
    MIXING:  cpu time      0.0017: real time      0.0017
    --------------------------------------------
      LOOP:  cpu time      1.5441: real time      1.5565

 eigenvalue-minimisations  :  2520
 total energy-change (2. order) :-0.5437322E+00  (-0.6142225E-01)
 number of electron     178.0002547 magnetization       1.6724252
 augmentation part      112.0647524 magnetization       0.9829921

 Broyden mixing:
  rms(total) = 0.14058E+00    rms(broyden)= 0.14051E+00
  rms(prec ) = 0.15205E+00
  weight for this iteration     100.00

 eigenvalues of (default mixing * dielectric matrix)
  average eigenvalue GAMMA=   1.6787
 12.3407  2.2615  1.0499  0.8685  0.8685  0.6488  0.6000  0.1090  0.2285  0.4131
  0.4131  0.3424

 Free energy of the ion-electron system (eV)
  ---------------------------------------------------
  alpha Z        PSCENC =       521.04204123
  Ewald energy   TEWEN  =    102665.75127851
  -Hartree energ DENC   =   -124456.71793396
  -exchange      EXHF   =         0.00000000
  -V(xc)+E(xc)   XCENC  =       721.70883177
  PAW double counting   =     21127.13972713   -22854.58993167
  entropy T*S    EENTRO =        -0.02592105
  eigenvalues    EBANDS =       -65.05594566
  atomic energy  EATOM  =     22280.27950853
  Solvation  Ediel_sol  =         0.00000000
  ---------------------------------------------------
  free energy    TOTEN  =       -60.46834518 eV

  energy without entropy =      -60.44242412  energy(sigma->0) =      -60.45970483


--------------------------------------------------------------------------------------------------------




--------------------------------------- Iteration      1(  18)  ---------------------------------------


    POTLOK:  cpu time      0.0251: real time      0.0254
    SETDIJ:  cpu time      0.0063: real time      0.0064
     EDDAV:  cpu time      1.2808: real time      1.2912
       DOS:  cpu time      0.0015: real time      0.0015
    CHARGE:  cpu time      0.1001: real time      0.1008
    MIXING:  cpu time      0.0018: real time      0.0018
    --------------------------------------------
      LOOP:  cpu time      1.4156: real time      1.4269

 eigenvalue-minimisations  :  2224
 total energy-change (2. order) :-0.3732816E+00  (-0.3494013E-01)
 number of electron     178.0002550 magnetization       1.2342410
 augmentation part      112.2033474 magnetization       0.7793316

 Broyden mixing:
  rms(total) = 0.95783E-01    rms(broyden)= 0.95749E-01
  rms(prec ) = 0.10858E+00
  weight for this iteration     100.00

 eigenvalues of (default mixing * dielectric matrix)
  average eigenvalue GAMMA=   1.7347
 13.5276  2.2486  1.1534  1.1534  0.8718  0.8718  0.6433  0.6433  0.1090  0.2285
  0.3958  0.3958  0.3087

 Free energy of the ion-electron system (eV)
  ---------------------------------------------------
  alpha Z        PSCENC =       521.04204123
  Ewald energy   TEWEN  =    102665.75127851
  -Hartree energ DENC   =   -124443.91442612
  -exchange      EXHF   =         0.00000000
  -V(xc)+E(xc)   XCENC  =       721.25095056
  PAW double counting   =     21100.55472172   -22825.78485144
  entropy T*S    EENTRO =        -0.02270672
  eigenvalues    EBANDS =       -79.99814302
  atomic energy  EATOM  =     22280.27950853
  Solvation  Ediel_sol  =         0.00000000
  ---------------------------------------------------
  free energy    TOTEN  =       -60.84162676 eV

  energy without entropy =      -60.81892004  energy(sigma->0) =      -60.83405786


--------------------------------------------------------------------------------------------------------




--------------------------------------- Iteration      1(  19)  ---------------------------------------


    POTLOK:  cpu time      0.0251: real time      0.0254
    SETDIJ:  cpu time      0.0065: real time      0.0065
     EDDAV:  cpu time      1.4176: real time      1.4295
       DOS:  cpu time      0.0015: real time      0.0015
    CHARGE:  cpu time      0.0965: real time      0.0969
    MIXING:  cpu time      0.0019: real time      0.0019
    --------------------------------------------
      LOOP:  cpu time      1.5491: real time      1.5617

 eigenvalue-minimisations  :  2536
 total energy-change (2. order) :-0.3237668E+00  (-0.2149100E-01)
 number of electron     178.0002551 magnetization       0.9121933
 augmentation part      112.2662296 magnetization       0.6175606

 Broyden mixing:
  rms(total) = 0.90891E-01    rms(broyden)= 0.90850E-01
  rms(prec ) = 0.10148E+00
  weight for this iteration     100.00

 eigenvalues of (default mixing * dielectric matrix)
  average eigenvalue GAMMA=   1.7098
 14.0952  2.2416  1.5564  1.1524  0.8459  0.8459  0.6523  0.6523  0.1090  0.2285
  0.4352  0.4352  0.3750  0.3125

 Free energy of the ion-electron system (eV)
  ---------------------------------------------------
  alpha Z        PSCENC =       521.04204123
  Ewald energy   TEWEN  =    102665.75127851
  -Hartree energ DENC   =   -124426.43327540
  -exchange      EXHF   =         0.00000000
  -V(xc)+E(xc)   XCENC  =       720.92608207
  PAW double counting   =     21089.87279366   -22814.96052046
  entropy T*S    EENTRO =        -0.02835442
  eigenvalues    EBANDS =       -97.61494728
  atomic energy  EATOM  =     22280.27950853
  Solvation  Ediel_sol  =         0.00000000
  ---------------------------------------------------
  free energy    TOTEN  =       -61.16539357 eV

  energy without entropy =      -61.13703915  energy(sigma->0) =      -61.15594210


--------------------------------------------------------------------------------------------------------




--------------------------------------- Iteration      1(  20)  ---------------------------------------


    POTLOK:  cpu time      0.0250: real time      0.0253
    SETDIJ:  cpu time      0.0064: real time      0.0064
     EDDAV:  cpu time      1.2746: real time      1.2849
       DOS:  cpu time      0.0014: real time      0.0015
    CHARGE:  cpu time      0.0947: real time      0.0954
    MIXING:  cpu time      0.0022: real time      0.0022
    --------------------------------------------
      LOOP:  cpu time      1.4043: real time      1.4155

 eigenvalue-minimisations  :  2208
 total energy-change (2. order) :-0.2361758E+00  (-0.1156626E-01)
 number of electron     178.0002552 magnetization       0.8105283
 augmentation part      112.2829311 magnetization       0.6250430

 Broyden mixing:
  rms(total) = 0.74278E-01    rms(broyden)= 0.74258E-01
  rms(prec ) = 0.78369E-01
  weight for this iteration     100.00

 eigenvalues of (default mixing * dielectric matrix)
  average eigenvalue GAMMA=   1.6956
 14.3735  2.2915  1.7226  1.0894  1.0894  0.8228  0.8228  0.6968  0.6968  0.1090
  0.2285  0.4100  0.4100  0.3551  0.3157

 Free energy of the ion-electron system (eV)
  ---------------------------------------------------
  alpha Z        PSCENC =       521.04204123
  Ewald energy   TEWEN  =    102665.75127851
  -Hartree energ DENC   =   -124412.10895744
  -exchange      EXHF   =         0.00000000
  -V(xc)+E(xc)   XCENC  =       720.73213361
  PAW double counting   =     21080.13338337   -22805.47498551
  entropy T*S    EENTRO =        -0.02661811
  eigenvalues    EBANDS =      -111.72935361
  atomic energy  EATOM  =     22280.27950853
  Solvation  Ediel_sol  =         0.00000000
  ---------------------------------------------------
  free energy    TOTEN  =       -61.40156941 eV

  energy without entropy =      -61.37495130  energy(sigma->0) =      -61.39269671


--------------------------------------------------------------------------------------------------------




--------------------------------------- Iteration      1(  21)  ---------------------------------------


    POTLOK:  cpu time      0.0252: real time      0.0263
    SETDIJ:  cpu time      0.0063: real time      0.0064
     EDDAV:  cpu time      1.3175: real time      1.3282
       DOS:  cpu time      0.0016: real time      0.0016
    CHARGE:  cpu time      0.1002: real time      0.1007
    MIXING:  cpu time      0.0027: real time      0.0027
    --------------------------------------------
      LOOP:  cpu time      1.4536: real time      1.4659

 eigenvalue-minimisations  :  2280
 total energy-change (2. order) :-0.3004075E+00  (-0.1062691E-01)
 number of electron     178.0002550 magnetization       0.7595832
 augmentation part      112.1951681 magnetization       0.6142472

 Broyden mixing:
  rms(total) = 0.71403E-01    rms(broyden)= 0.71374E-01
  rms(prec ) = 0.85629E-01
  weight for this iteration     100.00

 eigenvalues of (default mixing * dielectric matrix)
  average eigenvalue GAMMA=   1.6862
 14.4985  2.6098  1.7936  1.7936  0.8059  0.8059  0.8495  0.7224  0.6551  0.6551
  0.1090  0.2285  0.3990  0.3990  0.3451  0.3091

 Free energy of the ion-electron system (eV)
  ---------------------------------------------------
  alpha Z        PSCENC =       521.04204123
  Ewald energy   TEWEN  =    102665.75127851
  -Hartree energ DENC   =   -124402.49458514
  -exchange      EXHF   =         0.00000000
  -V(xc)+E(xc)   XCENC  =       720.63376395
  PAW double counting   =     21075.69148752   -22802.26251626
  entropy T*S    EENTRO =        -0.02992240
  eigenvalues    EBANDS =      -120.31303287
  atomic energy  EATOM  =     22280.27950853
  Solvation  Ediel_sol  =         0.00000000
  ---------------------------------------------------
  free energy    TOTEN  =       -61.70197693 eV

  energy without entropy =      -61.67205453  energy(sigma->0) =      -61.69200280


--------------------------------------------------------------------------------------------------------




--------------------------------------- Iteration      1(  22)  ---------------------------------------


    POTLOK:  cpu time      0.0268: real time      0.0277
    SETDIJ:  cpu time      0.0066: real time      0.0066
     EDDAV:  cpu time      1.3126: real time      1.3240
       DOS:  cpu time      0.0015: real time      0.0015
    CHARGE:  cpu time      0.0967: real time      0.0972
    MIXING:  cpu time      0.0023: real time      0.0023
    --------------------------------------------
      LOOP:  cpu time      1.4465: real time      1.4592

 eigenvalue-minimisations  :  2288
 total energy-change (2. order) :-0.1762002E+00  (-0.5199079E-02)
 number of electron     178.0002549 magnetization       0.5433228
 augmentation part      112.1631494 magnetization       0.4195836

 Broyden mixing:
  rms(total) = 0.59013E-01    rms(broyden)= 0.58987E-01
  rms(prec ) = 0.63534E-01
  weight for this iteration     100.00

 eigenvalues of (default mixing * dielectric matrix)
  average eigenvalue GAMMA=   1.7076
 14.7503  3.5027  2.1232  1.5381  1.0792  0.8822  0.8822  0.6825  0.6825  0.6052
  0.1090  0.5238  0.2285  0.3934  0.3934  0.3484  0.3048

 Free energy of the ion-electron system (eV)
  ---------------------------------------------------
  alpha Z        PSCENC =       521.04204123
  Ewald energy   TEWEN  =    102665.75127851
  -Hartree energ DENC   =   -124390.12315775
  -exchange      EXHF   =         0.00000000
  -V(xc)+E(xc)   XCENC  =       720.52159776
  PAW double counting   =     21067.39239642   -22794.18247730
  entropy T*S    EENTRO =        -0.03100421
  eigenvalues    EBANDS =      -132.52836033
  atomic energy  EATOM  =     22280.27950853
  Solvation  Ediel_sol  =         0.00000000
  ---------------------------------------------------
  free energy    TOTEN  =       -61.87817714 eV

  energy without entropy =      -61.84717294  energy(sigma->0) =      -61.86784241


--------------------------------------------------------------------------------------------------------




--------------------------------------- Iteration      1(  23)  ---------------------------------------


    POTLOK:  cpu time      0.0253: real time      0.0258
    SETDIJ:  cpu time      0.0064: real time      0.0064
     EDDAV:  cpu time      1.3862: real time      1.3975
       DOS:  cpu time      0.0014: real time      0.0015
    CHARGE:  cpu time      0.0968: real time      0.0972
    MIXING:  cpu time      0.0024: real time      0.0024
    --------------------------------------------
      LOOP:  cpu time      1.5186: real time      1.5307

 eigenvalue-minimisations  :  2464
 total energy-change (2. order) :-0.2042681E+00  (-0.4159067E-02)
 number of electron     178.0002550 magnetization       0.3306590
 augmentation part      112.1921090 magnetization       0.2560399

 Broyden mixing:
  rms(total) = 0.48091E-01    rms(broyden)= 0.48082E-01
  rms(prec ) = 0.57339E-01
  weight for this iteration     100.00

 eigenvalues of (default mixing * dielectric matrix)
  average eigenvalue GAMMA=   1.7300
 14.9166  4.2692  2.3282  1.4634  1.4634  0.9219  0.9219  0.6926  0.6926  0.6113
  0.6113  0.1090  0.2285  0.4767  0.3929  0.3929  0.3413  0.3069

 Free energy of the ion-electron system (eV)
  ---------------------------------------------------
  alpha Z        PSCENC =       521.04204123
  Ewald energy   TEWEN  =    102665.75127851
  -Hartree energ DENC   =   -124376.03819489
  -exchange      EXHF   =         0.00000000
  -V(xc)+E(xc)   XCENC  =       720.25151280
  PAW double counting   =     21063.92430216   -22790.50484868
  entropy T*S    EENTRO =        -0.02997273
  eigenvalues    EBANDS =      -146.75807213
  atomic energy  EATOM  =     22280.27950853
  Solvation  Ediel_sol  =         0.00000000
  ---------------------------------------------------
  free energy    TOTEN  =       -62.08244519 eV

  energy without entropy =      -62.05247246  energy(sigma->0) =      -62.07245428


--------------------------------------------------------------------------------------------------------




--------------------------------------- Iteration      1(  24)  ---------------------------------------


    POTLOK:  cpu time      0.0252: real time      0.0262
    SETDIJ:  cpu time      0.0064: real time      0.0064
     EDDAV:  cpu time      1.3038: real time      1.3142
       DOS:  cpu time      0.0015: real time      0.0015
[...]
     58      -0.6023      1.00000
     59      -0.5716      1.00000
     60      -0.5331      1.00000
     61      -0.5092      1.00000
     62      -0.4605      1.00000
     63      -0.4589      1.00000
     64      -0.3098      1.00000
     65      -0.1947      1.00000
     66      -0.1910      1.00000
     67      -0.1592      1.00000
     68      -0.0477      1.00000
     69      -0.0315      1.00000
     70      -0.0189      1.00000
     71       0.0279      1.00000
     72       0.0494      1.00000
     73       0.1400      1.00000
     74       0.1449      1.00000
     75       0.1454      1.00000
     76       0.1595      1.00000
     77       0.1761      1.00000
     78       0.1838      1.00000
     79       0.2380      1.00000
     80       0.2623      1.00000
     81       0.2643      1.00000
     82       0.2805      1.00000
     83       0.2836      1.00000
     84       0.3121      1.00000
     85       0.3248      1.00000
     86       1.0363      1.00000
     87       1.8130      0.95249
     88       1.8134      0.95166
     89       2.0278      0.19313
     90       2.0287      0.19011
     91       2.3987     -0.00330
     92       2.4073     -0.00279
     93       2.4117     -0.00255
     94       2.8308     -0.00000
     95       2.8559     -0.00000
     96       3.9206     -0.00000
     97       4.9112     -0.00000
     98       5.3749     -0.00000
     99       5.5121     -0.00000
    100       5.8757     -0.00000
    101       5.9248     -0.00000
    102       6.8533     -0.00000
    103       6.8620     -0.00000
    104       6.9916     -0.00000
    105       7.3547     -0.00000
    106       7.5085      0.00000
    107       7.9592      0.00000
    108       8.2901      0.00000
    109       8.5032      0.00000
    110       8.8371      0.00000
    111       9.1028      0.00000
    112       9.5702      0.00000
    113       9.7480      0.00000
    114       9.9552      0.00000
    115      10.3194      0.00000
    116      10.5788      0.00000


--------------------------------------------------------------------------------------------------------


 soft charge-density along one line, spin component           1
         0         1         2         3         4         5         6         7         8         9
 total charge-density along one line
 
 soft charge-density along one line, spin component           2
         0         1         2         3         4         5         6         7         8         9
 total charge-density along one line
 
 pseudopotential strength for first ion, spin component:           1
 -6.895  -0.000   0.000  -0.000   0.000  -1.709   0.000  -0.000
 -0.000  -6.835  -0.000  -0.000   0.000   0.000  -1.756   0.000
  0.000  -0.000  -6.815  -0.000  -0.000  -0.000   0.000  -1.772
 -0.000  -0.000  -0.000  -6.835  -0.000   0.000   0.000   0.000
  0.000   0.000  -0.000  -0.000  -6.871  -0.000  -0.000   0.000
 -1.709   0.000  -0.000   0.000  -0.000   8.189  -0.000   0.000
  0.000  -1.756   0.000   0.000  -0.000  -0.000   8.223  -0.000
 -0.000   0.000  -1.772   0.000   0.000   0.000  -0.000   8.234
  0.000   0.000   0.000  -1.756   0.000  -0.000  -0.000  -0.000
 -0.000  -0.000   0.000   0.000  -1.727   0.000   0.000  -0.000
  0.000   0.000  -0.009   0.000  -0.000   0.000   0.000   0.003
  0.000   0.000  -0.017   0.000  -0.000   0.000   0.000   0.006
  0.000  -0.010  -0.000  -0.000  -0.000  -0.000   0.010   0.000
 -0.000   0.000  -0.011   0.000   0.000  -0.000  -0.000   0.011
  0.000  -0.000  -0.000  -0.010   0.000  -0.000  -0.000   0.000
  0.000  -0.011  -0.000   0.000  -0.000   0.000   0.013   0.000
  0.000   0.000  -0.013   0.000   0.000  -0.000  -0.000   0.012
  0.000   0.000  -0.000  -0.011   0.000  -0.000  -0.000  -0.000
 pseudopotential strength for first ion, spin component:           2
 -6.895  -0.000   0.000  -0.000   0.000  -1.709   0.000  -0.000
 -0.000  -6.835  -0.000  -0.000   0.000   0.000  -1.756   0.000
  0.000  -0.000  -6.815  -0.000  -0.000  -0.000   0.000  -1.772
 -0.000  -0.000  -0.000  -6.835  -0.000   0.000   0.000   0.000
  0.000   0.000  -0.000  -0.000  -6.871  -0.000  -0.000   0.000
 -1.709   0.000  -0.000   0.000  -0.000   8.189  -0.000   0.000
  0.000  -1.756   0.000   0.000  -0.000  -0.000   8.223  -0.000
 -0.000   0.000  -1.772   0.000   0.000   0.000  -0.000   8.234
  0.000   0.000   0.000  -1.756   0.000  -0.000  -0.000  -0.000
 -0.000  -0.000   0.000   0.000  -1.727   0.000   0.000  -0.000
  0.000   0.000  -0.009   0.000  -0.000   0.000   0.000   0.003
  0.000   0.000  -0.017   0.000  -0.000   0.000   0.000   0.006
  0.000  -0.010  -0.000  -0.000  -0.000  -0.000   0.010   0.000
 -0.000   0.000  -0.011   0.000   0.000  -0.000  -0.000   0.011
  0.000  -0.000  -0.000  -0.010   0.000  -0.000  -0.000   0.000
  0.000  -0.011  -0.000   0.000  -0.000   0.000   0.013   0.000
  0.000   0.000  -0.013   0.000   0.000  -0.000  -0.000   0.012
  0.000   0.000  -0.000  -0.011   0.000  -0.000  -0.000  -0.000
 total augmentation occupancy for first ion, spin component:           1
  1.895   0.000   0.000   0.000   0.000  -0.003   0.000   0.000  -0.000   0.000   0.000   0.000   0.000   0.000   0.000   0.000
  0.000   1.931  -0.000   0.000   0.000   0.000  -0.025   0.000   0.000  -0.000  -0.000  -0.000   0.032   0.000   0.000  -0.014
  0.000  -0.000   1.938   0.000  -0.000   0.000   0.000  -0.034   0.000   0.000   0.024   0.007  -0.000   0.038   0.000   0.000
  0.000   0.000   0.000   1.931   0.000  -0.000   0.000   0.000  -0.025   0.000   0.000   0.000   0.000   0.000   0.032   0.000
  0.000   0.000  -0.000   0.000   1.923   0.000  -0.000   0.000   0.000  -0.030   0.000  -0.000  -0.000   0.000   0.000   0.000
 -0.003   0.000   0.000  -0.000   0.000   0.012   0.000   0.000   0.000   0.000   0.000   0.000   0.000   0.000   0.000   0.000
  0.000  -0.025   0.000   0.000  -0.000   0.000   0.011  -0.000   0.000   0.000   0.000  -0.000   0.025   0.000   0.000  -0.002
  0.000   0.000  -0.034   0.000   0.000   0.000  -0.000   0.012   0.000  -0.000  -0.035   0.001  -0.000   0.020   0.000   0.000
 -0.000   0.000   0.000  -0.025   0.000   0.000   0.000   0.000   0.011   0.000   0.000   0.000   0.000   0.000   0.025   0.000
  0.000  -0.000   0.000   0.000  -0.030   0.000   0.000  -0.000   0.000   0.012   0.000   0.000  -0.000  -0.000   0.000  -0.000
  0.000  -0.000   0.024   0.000   0.000   0.000   0.000  -0.035   0.000   0.000   1.670  -0.128   0.000   0.168   0.000  -0.000
  0.000  -0.000   0.007   0.000  -0.000   0.000  -0.000   0.001   0.000   0.000  -0.128   0.016  -0.000  -0.027   0.000   0.000
  0.000   0.032  -0.000   0.000  -0.000   0.000   0.025  -0.000   0.000  -0.000   0.000  -0.000   0.184   0.000   0.000  -0.011
  0.000   0.000   0.038   0.000   0.000   0.000   0.000   0.020   0.000  -0.000   0.168  -0.027   0.000   0.122   0.000  -0.000
  0.000   0.000   0.000   0.032   0.000   0.000   0.000   0.000   0.025   0.000   0.000   0.000   0.000   0.000   0.184   0.000
  0.000  -0.014   0.000   0.000   0.000   0.000  -0.002   0.000   0.000  -0.000  -0.000   0.000  -0.011  -0.000   0.000   0.001
  0.000  -0.000  -0.016   0.000  -0.000   0.000  -0.000  -0.001   0.000   0.000  -0.024   0.003  -0.000  -0.009   0.000   0.000
 -0.000   0.000   0.000  -0.014   0.000  -0.000   0.000   0.000  -0.002   0.000   0.000   0.000   0.000   0.000  -0.011   0.000
 total augmentation occupancy for first ion, spin component:           2
  0.000   0.000   0.000   0.000   0.000   0.000   0.000   0.000   0.000   0.000   0.000   0.000   0.000   0.000  -0.000   0.000
  0.000   0.000   0.000   0.000  -0.000   0.000   0.000   0.000   0.000  -0.000   0.000   0.000  -0.000  -0.000   0.000   0.000
  0.000   0.000  -0.000   0.000  -0.000   0.000   0.000  -0.000   0.000  -0.000  -0.000   0.000  -0.000   0.000   0.000   0.000
  0.000   0.000   0.000  -0.000   0.000   0.000   0.000   0.000  -0.000   0.000   0.000   0.000   0.000   0.000  -0.000   0.000
  0.000  -0.000  -0.000   0.000  -0.000   0.000  -0.000   0.000   0.000  -0.000  -0.000   0.000  -0.000  -0.000   0.000   0.000
  0.000   0.000   0.000   0.000   0.000  -0.000   0.000   0.000  -0.000   0.000   0.000   0.000   0.000   0.000  -0.000   0.000
  0.000   0.000   0.000   0.000  -0.000   0.000  -0.000  -0.000   0.000  -0.000   0.000  -0.000   0.000  -0.000   0.000  -0.000
  0.000   0.000  -0.000   0.000   0.000   0.000  -0.000   0.000   0.000  -0.000  -0.000   0.000  -0.000  -0.000   0.000   0.000
  0.000   0.000   0.000  -0.000   0.000  -0.000   0.000   0.000  -0.000   0.000   0.000   0.000   0.000   0.000   0.000   0.000
  0.000  -0.000  -0.000   0.000  -0.000   0.000  -0.000  -0.000   0.000   0.000  -0.000   0.000  -0.000  -0.000   0.000   0.000
  0.000   0.000  -0.000   0.000  -0.000   0.000   0.000  -0.000   0.000  -0.000  -0.000   0.000  -0.000   0.000   0.000  -0.000
  0.000   0.000   0.000   0.000   0.000   0.000  -0.000   0.000   0.000   0.000   0.000  -0.000   0.000   0.000   0.000  -0.000
  0.000  -0.000  -0.000   0.000  -0.000   0.000   0.000  -0.000   0.000  -0.000  -0.000   0.000   0.000  -0.000   0.000   0.000
  0.000  -0.000   0.000   0.000  -0.000   0.000  -0.000  -0.000   0.000  -0.000   0.000   0.000  -0.000  -0.000   0.000   0.000
 -0.000   0.000   0.000  -0.000   0.000  -0.000   0.000   0.000   0.000   0.000   0.000   0.000   0.000   0.000   0.000   0.000
  0.000   0.000   0.000   0.000   0.000   0.000  -0.000   0.000   0.000   0.000  -0.000  -0.000   0.000   0.000   0.000  -0.000
  0.000   0.000  -0.000   0.000   0.000   0.000   0.000   0.000   0.000   0.000  -0.000  -0.000   0.000   0.000   0.000  -0.000
  0.000   0.000   0.000   0.000   0.000   0.000   0.000   0.000  -0.000   0.000   0.000   0.000   0.000   0.000  -0.000   0.000


------------------------ aborting loop because EDIFF is reached ----------------------------------------


    CHARGE:  cpu time      0.0972: real time      0.0979
    FORLOC:  cpu time      0.0024: real time      0.0024
    FORNL :  cpu time      0.7889: real time      0.7920
    STRESS:  cpu time      0.7082: real time      0.7125
    FORCOR:  cpu time      0.0257: real time      0.0259
    FORHAR:  cpu time      0.0049: real time      0.0049
    MIXING:  cpu time      0.0007: real time      0.0007
    OFIELD:  cpu time      0.0000: real time      0.0000

 ---------------------------------------------------------------------------------------------

         DFTD3 V3.0 Rev 1        
 Edisp (eV)   -6.90828

 E6    (eV) :    -2.8348
 E8    (eV) :    -4.0735
 % E8        : 58.97
    FORVDW:  cpu time      0.0954: real time      0.0960

  FORCE on cell =-STRESS in cart. coord.  units (eV):
  Direction    XX          YY          ZZ          XY          YZ          ZX
  --------------------------------------------------------------------------------------
  Alpha Z   521.04204   521.04204   521.04204
  Ewald  114785.72910114786.38788************     0.00000     0.31814    -0.00000
  Hartree121053.12935121053.23818************    -0.00000    -1.22138    -0.00000
  E(xc)   -1035.00135 -1034.99423 -1035.66059    -0.00000     0.03163     0.00000
  Local  ************************241788.76407    -0.00000     2.12445     0.00000
  n-local  -342.15899  -342.18661  -343.67519     6.22455    -0.17868    -0.00232
  augment  1514.12183  1514.11348  1518.68922    -0.00000     0.01824    -0.00000
  Kinetic  1458.41816  1458.19967  1455.77332    -5.35138    -1.14207     0.00798
  Fock        0.00000     0.00000     0.00000     0.00000     0.00000     0.00000
  vdW        -8.38692    -8.38105    -6.74322     0.00000     0.00019     0.00000
  -------------------------------------------------------------------------------------
  Total      -4.46948    -4.47341    -1.15969     0.00000    -0.04947     0.00000
  in kB     -19.61537   -19.63261    -5.08955     0.00000    -0.21709     0.00000
  external pressure =      -14.78 kB  Pullay stress =        0.00 kB


 VOLUME and BASIS-vectors are now :
 -----------------------------------------------------------------------------
  energy-cutoff  :      400.00
  volume of cell :      365.07
      direct lattice vectors                 reciprocal lattice vectors
     3.630000114  0.000000000  0.000000000     0.275482085  0.000000000  0.000000000
     0.000000000  3.630000114  0.000000000     0.000000000  0.275482085  0.000000000
     0.000000000  0.000000000 27.704999924     0.000000000  0.000000000  0.036094568

  length of vectors
     3.630000114  3.630000114 27.704999924     0.275482085  0.275482085  0.036094568


 FORCES acting on ions
    electron-ion (+dipol)            ewald-force                    non-local-force                 convergence-correction
 -----------------------------------------------------------------------------------------------
   -.522E-13 0.400E+00 0.568E+04   -.962E-07 -.394E+00 -.568E+04   0.000E+00 0.525E-02 -.310E+01   0.217E-10 -.119E-01 0.107E-01
   0.772E-06 -.385E+00 0.568E+04   0.962E-07 0.379E+00 -.568E+04   0.000E+00 0.246E-02 -.307E+01   -.220E-10 0.108E-01 0.120E-01
   -.519E-13 0.122E+00 0.413E+04   -.130E-06 -.119E+00 -.413E+04   0.000E+00 0.223E-01 -.106E+01   0.454E-10 -.200E-01 -.289E-01
   0.751E-06 -.242E+00 0.413E+04   0.130E-06 0.239E+00 -.413E+04   0.000E+00 -.273E-01 -.107E+01   -.428E-10 0.354E-01 -.289E-01
   -.293E-13 -.833E+00 0.251E+04   -.131E-06 0.813E+00 -.251E+04   0.000E+00 -.546E-01 -.475E-01   0.335E-11 0.899E-01 0.521E-01
   0.752E-06 0.767E+00 0.251E+04   0.131E-06 -.755E+00 -.251E+04   0.000E+00 0.457E-01 -.347E-02   -.204E-10 -.598E-01 0.493E-01
   -.244E-13 -.147E-01 0.880E+03   -.134E-06 0.879E-02 -.880E+03   0.000E+00 0.264E-01 -.839E-01   -.211E-10 -.151E-01 0.111E+00
   0.749E-06 0.637E-01 0.880E+03   0.134E-06 -.594E-01 -.880E+03   0.000E+00 -.196E-01 -.861E-01   -.103E-10 0.162E-01 0.108E+00
   -.346E-13 0.584E-01 -.765E+03   -.134E-06 -.574E-01 0.764E+03   0.000E+00 -.404E-02 0.588E-01   -.389E-11 0.403E-02 0.169E+00
   0.749E-06 -.850E-01 -.765E+03   0.134E-06 0.848E-01 0.765E+03   0.000E+00 0.612E-02 0.593E-01   0.135E-10 0.952E-04 0.189E+00
   -.318E-13 0.394E+00 -.240E+04   -.132E-06 -.379E+00 0.240E+04   0.000E+00 0.138E-01 0.373E-01   0.644E-11 -.295E-01 0.120E+00
   0.751E-06 -.450E+00 -.240E+04   0.132E-06 0.436E+00 0.240E+04   0.000E+00 -.139E-01 0.310E-01   -.117E-10 0.341E-01 0.119E+00
   -.310E-13 0.433E-01 -.402E+04   -.131E-06 -.296E-01 0.402E+04   0.000E+00 -.117E-01 0.109E+01   0.791E-11 -.377E-02 0.166E+00
   0.750E-06 0.127E-01 -.402E+04   0.131E-06 -.316E-01 0.402E+04   0.000E+00 0.315E-01 0.120E+01   0.399E-10 -.854E-02 0.613E-01
   -.458E-13 -.918E+00 -.558E+04   -.954E-07 0.101E+01 0.558E+04   0.000E+00 -.781E-01 0.340E+01   0.302E-11 -.206E-01 -.594E-01
   0.770E-06 0.557E+00 -.558E+04   0.953E-07 -.623E+00 0.558E+04   0.000E+00 0.661E-01 0.337E+01   0.154E-10 0.230E-02 -.729E-01
   0.317E-07 0.375E+01 -.443E+03   -.366E-09 -.459E+01 0.439E+03   0.000E+00 0.862E+00 0.481E+01   0.250E-11 0.369E-03 -.840E-02
   0.324E-07 -.324E+01 -.422E+03   -.162E-09 0.407E+01 0.427E+03   0.000E+00 -.851E+00 -.482E+01   0.720E-12 -.182E-04 -.108E-01
 -----------------------------------------------------------------------------------------------
   0.611E-05 0.575E-02 -.168E+01   0.960E-13 0.373E-13 -.381E-11   0.000E+00 0.218E-01 0.713E+00   0.277E-10 0.240E-01 0.959E+00
 
 
 POSITION                                       TOTAL-FORCE (eV/Angst)
 -----------------------------------------------------------------------------------
      0.00000     -0.00706     -0.03948         0.000000     -0.003741      0.009623
      1.81500      1.80672     -0.03933         0.000000      0.004197      0.010148
      0.00000      1.80732      1.70971         0.000000      0.002135      0.000451
      1.81500     -0.00782      1.70968         0.000000      0.002252      0.000283
      0.00000     -0.00821      3.47066         0.000000      0.011436     -0.003990
      1.81500      1.80907      3.47047         0.000000     -0.005224     -0.001782
      0.00000      1.80860      5.22097         0.000000      0.002411     -0.004378
      1.81500     -0.00569      5.22100         0.000000     -0.001858     -0.004891
      0.00000     -0.00512      6.93926         0.000000     -0.001783     -0.008276
      1.81500      1.80939      6.93982         0.000000      0.003022     -0.004474
      0.00000      1.81131      8.68686         0.000000     -0.003369     -0.003120
      1.81500     -0.00525      8.68665         0.000000      0.003582     -0.003320
      0.00000     -0.00271     10.43786         0.000000     -0.004312      0.015221
      1.81500      1.81130     10.44512         0.000000      0.000980     -0.006597
      0.00000      1.81362     12.18072         0.000000     -0.004324     -0.005745
      1.81500     -0.00327     12.18120         0.000000     -0.000365     -0.008079
      3.63000      0.24201     14.58516         0.000000      0.004577      0.013043
      3.63000      0.37330     15.33184         0.000000     -0.009614      0.005885
 -----------------------------------------------------------------------------------
    total drift:                                0.000006      0.051581     -0.005883


--------------------------------------------------------------------------------------------------------



  FREE ENERGIE OF THE ION-ELECTRON SYSTEM (eV)
  ---------------------------------------------------
  free  energy   TOTEN  =       -70.02393088 eV

  energy  without entropy=      -70.00351562  energy(sigma->0) =      -70.01712580
 
 d Force = 0.2738706E-03[ 0.144E-03, 0.404E-03]  d Energy = 0.3054580E-03-0.316E-04
 d Force =-0.5506332E+01[-0.551E+01,-0.550E+01]  d Ewald  =-0.5506333E+01 0.572E-06


--------------------------------------------------------------------------------------------------------


    POTLOK:  cpu time      0.0325: real time      0.0328


--------------------------------------------------------------------------------------------------------


 stress matrix after NEB project (eV)
     -4.46948      0.00000      0.00000
      0.00000     -4.47341     -0.04947
      0.00000     -0.04947     -1.15969
  FORCES: max atom, RMS     0.015821    0.008636
  FORCE total and by dimension    0.036639    0.015221
  Stress total and by dimension    6.429421    4.473411
 Conjugate gradient step on ions:
 trial-energy change:   -0.000305  1 .order   -0.000274   -0.000404   -0.000144
  (g-gl).g = 0.211E-03      g.g   = 0.380E-03  gl.gl    = 0.153E-02
 g(Force)  = 0.380E-03   g(Stress)= 0.000E+00 ortho     = 0.189E-05
 gamma     =   0.13749
 trial     =   1.06033
 opt step  =   1.64866  (harmonic =   1.64866) maximal distance =0.00331318
 next E    =   -70.023939   (d E  =  -0.00031)


--------------------------------------------------------------------------------------------------------


  
 reached required accuracy - stopping structural energy minimisation
     LOOP+:  cpu time      6.6205: real time      6.7052
    4ORBIT:  cpu time      0.0000: real time      0.0000

 total amount of memory used by VASP MPI-rank0    40692. kBytes
=======================================================================

   base      :      30000. kBytes
   nonl-proj :       1929. kBytes
   fftplans  :        968. kBytes
   grid      :       2430. kBytes
   one-center:        124. kBytes
   wavefun   :       5241. kBytes
 
  
  
 General timing and accounting informations for this job:
 ========================================================
  
                  Total CPU time used (sec):      609.108
                            User time (sec):      593.491
                          System time (sec):       15.617
                         Elapsed time (sec):      616.430
  
                   Maximum memory used (kb):      250276.
                   Average memory used (kb):          N/A
  
                          Minor page faults:       372734
                          Major page faults:         6646
                 Voluntary context switches:         8870
