<?xml version="1.0" encoding="ISO-8859-1"?>
<modeling>
 <generator>
  <i name="program" type="string">vasp </i>
  <i name="version" type="string">6.3.2  </i>
  <i name="subversion" type="string">27Jun22 (build Aug 17 2022 15:43:34) complex                          parallel </i>
  <i name="platform" type="string">tv2STDVTST </i>
  <i name="date" type="string">2025 02 04 </i>
  <i name="time" type="string">12:26:25 </i>
 </generator>
 <incar>
  <i type="int" name="ISTART">     0</i>
  <i type="string" name="PREC">Normal</i>
  <i type="int" name="ISPIN">     2</i>
  <i type="int" name="ICHARG">     2</i>
  <i type="int" name="IBRION">     2</i>
  <i name="EDIFF">      0.00020000</i>
  <i name="EDIFFG">     -0.03000000</i>
  <i type="int" name="NSW">   800</i>
  <i type="int" name="ISIF">     2</i>
  <i type="int" name="ISYM">     1</i>
  <i name="ENCUT">    400.00000000</i>
  <i name="POTIM">      0.50000000</i>
  <i type="logical" name="LREAL"> F  </i>
  <i type="int" name="ISMEAR">     1</i>
  <i name="SIGMA">      0.20000000</i>
  <i type="logical" name="LWAVE"> F  </i>
  <i type="logical" name="LCHARG"> F  </i>
  <i type="string" name="GGA">PE</i>
  <i type="int" name="IVDW">    11</i>
 </incar>
 <primitive_cell>
  <structure name="primitive_cell" >
   <crystal>
    <varray name="basis" >
     <v>       3.63000011       0.00000000       0.00000000 </v>
     <v>       0.00000000       3.63000011       0.00000000 </v>
     <v>       0.00000000       0.00000000      27.70499992 </v>
    </varray>
    <i name="volume">    365.06603650 </i>
    <varray name="rec_basis" >
     <v>       0.27548208       0.00000000       0.00000000 </v>
     <v>       0.00000000       0.27548208       0.00000000 </v>
     <v>       0.00000000       0.00000000       0.03609457 </v>
    </varray>
   </crystal>
   <varray name="positions" >
    <v>       0.00000000       0.00000000       0.00000000 </v>
    <v>       0.50000000       0.50000000       0.00000000 </v>
    <v>       0.00000000       0.50000000       0.06551164 </v>
    <v>       0.50000000       0.00000000       0.06551164 </v>
    <v>       0.00000000       0.00000000       0.12876120 </v>
    <v>       0.50000000       0.50000000       0.12876120 </v>
    <v>       0.00000000       0.50000000       0.19193187 </v>
    <v>       0.50000000       0.00000000       0.19193187 </v>
    <v>       0.00000000       0.00000000       0.25406550 </v>
    <v>       0.50000000       0.50000000       0.25406550 </v>
    <v>       0.00000000       0.50000000       0.31747855 </v>
    <v>       0.50000000       0.00000000       0.31747855 </v>
    <v>       0.00000000       0.00000000       0.38132233 </v>
    <v>       0.50000000       0.50000000       0.38132233 </v>
    <v>       0.00000000       0.50000000       0.44440075 </v>
    <v>       0.50000000       0.00000000       0.44440075 </v>
    <v>       1.00000000       1.00000000       0.50150658 </v>
    <v>       1.00000000       0.14531726       0.52054652 </v>
   </varray>
  </structure>
  <varray name="primitive_index" >
   <v type="int" >        1 </v>
   <v type="int" >        2 </v>
   <v type="int" >        3 </v>
   <v type="int" >        4 </v>
   <v type="int" >        5 </v>
   <v type="int" >        6 </v>
   <v type="int" >        7 </v>
   <v type="int" >        8 </v>
   <v type="int" >        9 </v>
   <v type="int" >       10 </v>
   <v type="int" >       11 </v>
   <v type="int" >       12 </v>
   <v type="int" >       13 </v>
   <v type="int" >       14 </v>
   <v type="int" >       15 </v>
   <v type="int" >       16 </v>
   <v type="int" >       17 </v>
   <v type="int" >       18 </v>
  </varray>
 </primitive_cell>
 <kpoints>
  <generation param="Monkhorst-Pack">
   <v type="int" name="divisions">       3        3        1 </v>
   <v name="usershift">      0.00000000       0.00000000       0.00000000 </v>
   <v name="genvec1">      0.33333333       0.00000000       0.00000000 </v>
   <v name="genvec2">      0.00000000       0.33333333       0.00000000 </v>
   <v name="genvec3">      0.00000000       0.00000000       1.00000000 </v>
   <v name="shift">      0.00000000       0.00000000       0.00000000 </v>
  </generation>
  <varray name="kpointlist" >
   <v>       0.00000000       0.00000000       0.00000000 </v>
   <v>       0.33333333       0.00000000       0.00000000 </v>
   <v>       0.00000000       0.33333333       0.00000000 </v>
   <v>       0.33333333       0.33333333       0.00000000 </v>
  </varray>
  <varray name="weights" >
   <v>       0.11111111 </v>
   <v>       0.22222222 </v>
   <v>       0.22222222 </v>
   <v>       0.44444444 </v>
  </varray>
 </kpoints>
 <parameters>
  <separator name="general" >
   <i type="string" name="SYSTEM">unknown system</i>
   <i type="logical" name="LCOMPAT"> F  </i>
  </separator>
  <separator name="electronic" >
   <i type="string" name="PREC">normal</i>
   <i name="ENMAX">    400.00000000</i>
   <i name="ENAUG">    586.98000000</i>
   <i name="EDIFF">      0.00020000</i>
   <i type="int" name="IALGO">    38</i>
   <i type="int" name="IWAVPR">    11</i>
   <i type="int" name="NBANDS">   116</i>
   <i type="int" name="NBANDSLOW">    -1</i>
   <i type="int" name="NBANDSHIGH">    -1</i>
   <i name="NELECT">    178.00000000</i>
   <i type="int" name="TURBO">     0</i>
   <i type="int" name="IRESTART">     0</i>
   <i type="int" name="NREBOOT">     0</i>
   <i type="int" name="NMIN">     0</i>
   <i name="EREF">      0.00000000</i>
   <separator name="electronic smearing" >
    <i type="int" name="ISMEAR">     1</i>
    <i name="SIGMA">      0.20000000</i>
    <i name="KSPACING">      0.50000000</i>
    <i type="logical" name="KGAMMA"> T  </i>
    <i type="logical" name="KBLOWUP"> T  </i>
   </separator>
   <separator name="electronic projectors" >
    <i type="logical" name="LREAL"> F  </i>
    <v name="ROPT">      0.00000000      0.00000000</v>
    <i type="int" name="LMAXPAW">  -100</i>
    <i type="int" name="LMAXMIX">     2</i>
    <i type="logical" name="NLSPLINE"> F  </i>
   </separator>
   <separator name="electronic startup" >
    <i type="int" name="ISTART">     0</i>
    <i type="int" name="ICHARG">     2</i>
    <i type="int" name="INIWAV">     1</i>
   </separator>
   <separator name="electronic spin" >
    <i type="int" name="ISPIN">     2</i>
    <i type="logical" name="LNONCOLLINEAR"> F  </i>
    <v name="MAGMOM">      1.00000000      1.00000000      1.00000000      1.00000000      1.00000000      1.00000000      1.00000000      1.00000000      1.00000000      1.00000000      1.00000000      1.00000000      1.00000000      1.00000000      1.00000000      1.00000000      1.00000000      1.00000000</v>
    <i name="NUPDOWN">     -1.00000000</i>
    <i type="logical" name="LSORBIT"> F  </i>
    <v name="SAXIS">      0.00000000      0.00000000      1.00000000</v>
    <i type="logical" name="LSPIRAL"> F  </i>
    <v name="QSPIRAL">      0.00000000      0.00000000      0.00000000</v>
    <i type="logical" name="LZEROZ"> F  </i>
   </separator>
   <separator name="electronic exchange-correlation" >
    <i type="logical" name="LASPH"> F  </i>
    <i type="logical" name="LMETAGGA"> F  </i>
   </separator>
   <separator name="electronic convergence" >
    <i type="int" name="NELM">    60</i>
    <i type="int" name="NELMDL">    -5</i>
    <i type="int" name="NELMIN">     2</i>
    <i name="ENINI">    400.00000000</i>
    <separator name="electronic convergence detail" >
     <i type="logical" name="LDIAG"> T  </i>
     <i type="logical" name="LSUBROT"> F  </i>
     <i name="WEIMIN">      0.00100000</i>
     <i name="EBREAK">      0.00000043</i>
     <i name="DEPER">      0.30000000</i>
     <i type="int" name="NRMM">     4</i>
     <i name="TIME">      0.40000000</i>
    </separator>
   </separator>
   <separator name="electronic mixer" >
    <i name="AMIX">      0.40000000</i>
    <i name="BMIX">      1.00000000</i>
    <i name="AMIN">      0.10000000</i>
    <i name="AMIX_MAG">      1.60000000</i>
    <i name="BMIX_MAG">      1.00000000</i>
    <separator name="electronic mixer details" >
     <i type="int" name="IMIX">     4</i>
     <i type="logical" name="MIXFIRST"> F  </i>
     <i type="int" name="MAXMIX">   -45</i>
     <i name="WC">    100.00000000</i>
     <i type="int" name="INIMIX">     1</i>
     <i type="int" name="MIXPRE">     1</i>
     <i type="int" name="MREMOVE">     5</i>
    </separator>
   </separator>
   <separator name="electronic dipolcorrection" >
    <i type="logical" name="LDIPOL"> F  </i>
    <i type="logical" name="LMONO"> F  </i>
    <i type="int" name="IDIPOL">     0</i>
    <i name="EPSILON">      1.00000000</i>
    <v name="DIPOL">   -100.00000000   -100.00000000   -100.00000000</v>
    <i name="EFIELD">      0.00000000</i>
   </separator>
  </separator>
  <separator name="grids" >
   <i type="int" name="NGX">    18</i>
   <i type="int" name="NGY">    18</i>
   <i type="int" name="NGZ">   140</i>
   <i type="int" name="NGXF">    36</i>
   <i type="int" name="NGYF">    36</i>
   <i type="int" name="NGZF">   280</i>
   <i type="logical" name="ADDGRID"> F  </i>
  </separator>
  <separator name="ionic" >
   <i type="int" name="NSW">   800</i>
   <i type="int" name="IBRION">     2</i>
   <i type="int" name="MDALGO">     0</i>
   <i type="int" name="ISIF">     2</i>
   <i name="PSTRESS">      0.00000000</i>
   <i name="EDIFFG">     -0.03000000</i>
   <i type="int" name="NFREE">     1</i>
   <i name="POTIM">      0.50000000</i>
   <i name="SMASS">     -3.00000000</i>
   <i name="SCALEE">      1.00000000</i>
  </separator>
  <separator name="ionic md" >
   <i name="TEBEG">      0.00010000</i>
   <i name="TEEND">      0.00010000</i>
   <i type="int" name="NBLOCK">     1</i>
   <i type="int" name="KBLOCK">   800</i>
   <i type="int" name="NPACO">   256</i>
   <i name="APACO">     10.00000000</i>
  </separator>
  <separator name="symmetry" >
   <i type="int" name="ISYM">     1</i>
   <i name="SYMPREC">      0.00001000</i>
  </separator>
  <separator name="dos" >
   <i type="int" name="LORBIT">     0</i>
   <v name="RWIGS">     -1.00000000     -1.00000000</v>
   <i type="int" name="NEDOS">   301</i>
   <i name="EMIN">     10.00000000</i>
   <i name="EMAX">    -10.00000000</i>
   <i name="EFERMI">      0.00000000</i>
  </separator>
  <separator name="writing" >
   <i type="int" name="NWRITE">     2</i>
   <i type="logical" name="LWAVE"> F  </i>
   <i type="logical" name="LDOWNSAMPLE"> F  </i>
   <i type="logical" name="LCHARG"> F  </i>
   <i type="logical" name="LPARD"> F  </i>
   <i type="logical" name="LVTOT"> F  </i>
   <i type="logical" name="LVHAR"> F  </i>
   <i type="logical" name="LELF"> F  </i>
   <i type="logical" name="LOPTICS"> F  </i>
   <v name="STM">      0.00000000      0.00000000      0.00000000      0.00000000      0.00000000      0.00000000      0.00000000</v>
  </separator>
  <separator name="performance" >
   <i type="int" name="NPAR">     4</i>
   <i type="int" name="NSIM">     4</i>
   <i type="int" name="NBLK">    -1</i>
   <i type="logical" name="LPLANE"> T  </i>
   <i type="logical" name="LSCALAPACK"> T  </i>
   <i type="logical" name="LSCAAWARE"> F  </i>
   <i type="logical" name="LSCALU"> F  </i>
   <i type="logical" name="LASYNC"> F  </i>
   <i type="logical" name="LORBITALREAL"> F  </i>
  </separator>
  <separator name="miscellaneous" >
   <i type="int" name="IDIOT">     3</i>
   <i type="int" name="PHON_NSTRUCT">    -1</i>
   <i type="logical" name="LMUSIC"> F  </i>
   <v name="POMASS">     63.54600000      1.00000000</v>
   <v name="DARWINR">      0.00000000      0.00000000</v>
   <v name="DARWINV">      1.00000000      1.00000000</v>
   <i type="logical" name="LCORR"> T  </i>
  </separator>
  <i type="logical" name="GGA_COMPAT"> T  </i>
  <i type="logical" name="LBERRY"> F  </i>
  <i type="int" name="ICORELEVEL">     0</i>
  <i type="logical" name="LDAU"> F  </i>
  <i type="int" name="I_CONSTRAINED_M">     0</i>
  <separator name="electronic exchange-correlation" >
   <i type="string" name="GGA">PE</i>
   <i type="int" name="VOSKOWN">     0</i>
   <i type="logical" name="LHFCALC"> F  </i>
   <i type="string" name="PRECFOCK"></i>
   <i type="logical" name="LSYMGRAD"> F  </i>
   <i type="logical" name="LHFONE"> F  </i>
   <i type="logical" name="LRHFCALC"> F  </i>
   <i type="logical" name="LTHOMAS"> F  </i>
   <i type="logical" name="LMODELHF"> F  </i>
   <i type="logical" name="LFOCKACE"> F  </i>
   <i name="ENCUT4O">     -1.00000000</i>
   <i type="int" name="EXXOEP">     0</i>
   <i type="int" name="FOURORBIT">     0</i>
   <i name="AEXX">      0.00000000</i>
   <i name="HFALPHA">      0.00000000</i>
   <i name="MCALPHA">      0.00000000</i>
   <i name="ALDAX">      1.00000000</i>
   <i name="AGGAX">      1.00000000</i>
   <i name="ALDAC">      1.00000000</i>
   <i name="AGGAC">      1.00000000</i>
   <i type="int" name="NKREDX">     1</i>
   <i type="int" name="NKREDY">     1</i>
   <i type="int" name="NKREDZ">     1</i>
   <i type="logical" name="SHIFTRED"> F  </i>
   <i type="logical" name="ODDONLY"> F  </i>
   <i type="logical" name="EVENONLY"> F  </i>
   <i type="int" name="LMAXFOCK">     0</i>
   <i type="int" name="NMAXFOCKAE">     0</i>
   <i type="logical" name="LFOCKAEDFT"> F  </i>
   <i name="HFSCREEN">      0.00000000</i>
   <i name="HFSCREENC">      0.00000000</i>
   <i type="int" name="NBANDSGWLOW">     0</i>
  </separator>
  <separator name="vdW DFT" >
   <i type="logical" name="LUSE_VDW"> F  </i>
   <i name="Zab_VDW">     -0.84910000</i>
   <i name="PARAM1">      0.12340000</i>
   <i name="PARAM2">      1.00000000</i>
   <i name="PARAM3">      0.00000000</i>
  </separator>
  <separator name="model GW" >
   <i type="int" name="MODEL_GW">     0</i>
   <i name="MODEL_EPS0">     12.16886788</i>
   <i name="MODEL_ALPHA">      1.00000000</i>
  </separator>
  <separator name="linear response parameters" >
   <i type="logical" name="LEPSILON"> F  </i>
   <i type="logical" name="LRPA"> F  </i>
   <i type="logical" name="LNABLA"> F  </i>
   <i type="logical" name="LVEL"> F  </i>
   <i name="CSHIFT">      0.10000000</i>
   <i name="OMEGAMAX">     -1.00000000</i>
   <i name="DEG_THRESHOLD">      0.00200000</i>
   <i name="RTIME">     -0.10000000</i>
   <i name="WPLASMAI">      0.00000000</i>
   <v name="DFIELD">      0.00000000      0.00000000      0.00000000</v>
   <v name="WPLASMA">      0.00000000      0.00000000      0.00000000      0.00000000      0.00000000      0.00000000      0.00000000      0.00000000      0.00000000</v>
  </separator>
  <separator name="orbital magnetization" >
   <i type="logical" name="NUCIND"> F  </i>
   <v name="MAGPOS">      0.00000000      0.00000000      0.00000000</v>
   <i type="logical" name="LNICSALL"> T  </i>
   <i type="logical" name="ORBITALMAG"> F  </i>
   <i type="logical" name="LMAGBLOCH"> F  </i>
   <i type="logical" name="LCHIMAG"> F  </i>
   <i type="logical" name="LGAUGE"> T  </i>
   <i type="int" name="MAGATOM">     0</i>
   <v name="MAGDIPOL">      0.00000000      0.00000000      0.00000000</v>
   <v name="AVECCONST">      0.00000000      0.00000000      0.00000000</v>
  </separator>
  <separator name="response functions" >
   <i type="logical" name="LFINITE_TEMPERATURE"> F  </i>
   <i type="logical" name="LADDER"> F  </i>
   <i type="logical" name="LRPAFORCE"> F  </i>
   <i type="logical" name="LFXC"> F  </i>
   <i type="logical" name="LHARTREE"> T  </i>
   <i type="int" name="IBSE">     0</i>
   <v type="int" name="KPOINT">    -1     0     0     0</v>
   <i type="logical" name="LTCTC"> F  </i>
   <i type="logical" name="LTCTE"> F  </i>
   <i type="logical" name="LTETE"> F  </i>
   <i type="logical" name="LTRIPLET"> F  </i>
   <i type="logical" name="LFXCEPS"> F  </i>
   <i type="logical" name="LFXHEG"> F  </i>
   <i type="int" name="NATURALO">     2</i>
   <i type="logical" name="LHOLEGF"> F  </i>
   <i type="logical" name="L2ORDER"> F  </i>
   <i type="logical" name="LDMP1"> F  </i>
   <i type="logical" name="LMP2LT"> F  </i>
   <i type="logical" name="LSMP2LT"> F  </i>
   <i type="logical" name="LGWLF"> F  </i>
   <i name="ENCUTGW">     -2.00000000</i>
   <i name="ENCUTGWSOFT">     -2.00000000</i>
   <i name="ENCUTLF">     -1.00000000</i>
   <i type="logical" name="LESF_SPLINES"> F  </i>
   <i type="int" name="LMAXMP2">    -1</i>
   <i name="SCISSOR">      0.00000000</i>
   <i type="int" name="NOMEGA">     0</i>
   <i type="int" name="NOMEGAR">     0</i>
   <i type="int" name="NBANDSGW">    -1</i>
   <i type="int" name="NBANDSO">    -1</i>
   <i type="int" name="NBANDSV">    -1</i>
   <i type="int" name="NELMGW">     1</i>
   <i type="int" name="NELMHF">     1</i>
   <i type="int" name="DIM">     3</i>
   <i type="int" name="IESPILON">     4</i>
   <i type="int" name="ANTIRES">     0</i>
   <i name="OMEGAMAX">    -30.00000000</i>
   <i name="OMEGAMIN">    -30.00000000</i>
   <i name="OMEGATL">   -200.00000000</i>
   <i type="int" name="OMEGAGRID">     0</i>
   <i name="CSHIFT">     -0.10000000</i>
   <i type="logical" name="LSELFENERGY"> F  </i>
   <i type="logical" name="LSPECTRAL"> F  </i>
   <i type="logical" name="LSPECTRALGW"> F  </i>
   <i type="logical" name="LSINGLES"> F  </i>
   <i type="logical" name="LFERMIGW"> F  </i>
   <i type="logical" name="ODDONLYGW"> F  </i>
   <i type="logical" name="EVENONLYGW"> F  </i>
   <i type="int" name="NKREDLFX">     1</i>
   <i type="int" name="NKREDLFY">     1</i>
   <i type="int" name="NKREDLFZ">     1</i>
   <i type="int" name="MAXMEM">  2800</i>
   <i type="int" name="TELESCOPE">     0</i>
   <i type="int" name="NTAUPAR">    -1</i>
   <i type="int" name="NOMEGAPAR">    -1</i>
   <i name="DAMP_NEWTON">      0.80000001</i>
   <i name="LAMBDA">      1.00000000</i>
  </separator>
  <separator name="External order field" >
   <i name="OFIELD_KAPPA">      0.00000000</i>
   <v name="OFIELD_K">      0.00000000      0.00000000      0.00000000</v>
   <i name="OFIELD_Q6_NEAR">      0.00000000</i>
   <i name="OFIELD_Q6_FAR">      0.00000000</i>
   <i name="OFIELD_A">      0.00000000</i>
  </separator>
  <separator name="optional k-points parameters" >
   <i type="int" name="KPOINTS_OPT_MODE">     1</i>
   <i type="logical" name="LKPOINTS_OPT"> F  </i>
  </separator>
 </parameters>
 <atominfo>
  <atoms>      18 </atoms>
  <types>       2 </types>
  <array name="atoms" >
   <dimension dim="1">ion</dimension>
   <field type="string">element</field>
   <field type="int">atomtype</field>
   <set>
    <rc><c>Cu</c><c>   1</c></rc>
    <rc><c>Cu</c><c>   1</c></rc>
    <rc><c>Cu</c><c>   1</c></rc>
    <rc><c>Cu</c><c>   1</c></rc>
    <rc><c>Cu</c><c>   1</c></rc>
    <rc><c>Cu</c><c>   1</c></rc>
    <rc><c>Cu</c><c>   1</c></rc>
    <rc><c>Cu</c><c>   1</c></rc>
    <rc><c>Cu</c><c>   1</c></rc>
    <rc><c>Cu</c><c>   1</c></rc>
    <rc><c>Cu</c><c>   1</c></rc>
    <rc><c>Cu</c><c>   1</c></rc>
    <rc><c>Cu</c><c>   1</c></rc>
    <rc><c>Cu</c><c>   1</c></rc>
    <rc><c>Cu</c><c>   1</c></rc>
    <rc><c>Cu</c><c>   1</c></rc>
    <rc><c>H </c><c>   2</c></rc>
    <rc><c>H </c><c>   2</c></rc>
   </set>
  </array>
  <array name="atomtypes" >
   <dimension dim="1">type</dimension>
   <field type="int">atomspertype</field>
   <field type="string">element</field>
   <field>mass</field>
   <field>valence</field>
   <field type="string">pseudopotential</field>
   <set>
    <rc><c>  16</c><c>Cu</c><c>     63.54600000</c><c>     11.00000000</c><c>  PAW_PBE Cu 22Jun2005                  </c></rc>
    <rc><c>   2</c><c>H </c><c>      1.00000000</c><c>      1.00000000</c><c>  PAW_PBE H 15Jun2001                   </c></rc>
   </set>
  </array>
 </atominfo>
 <structure name="initialpos" >
  <crystal>
   <varray name="basis" >
    <v>       3.63000011       0.00000000       0.00000000 </v>
    <v>       0.00000000       3.63000011       0.00000000 </v>
    <v>       0.00000000       0.00000000      27.70499992 </v>
   </varray>
   <i name="volume">    365.06603650 </i>
   <varray name="rec_basis" >
    <v>       0.27548208       0.00000000       0.00000000 </v>
    <v>       0.00000000       0.27548208       0.00000000 </v>
    <v>       0.00000000       0.00000000       0.03609457 </v>
   </varray>
  </crystal>
  <varray name="positions" >
   <v>       0.00000000       0.00000000       0.00000000 </v>
   <v>       0.50000000       0.50000000       0.00000000 </v>
   <v>       0.00000000       0.50000000       0.06551164 </v>
   <v>       0.50000000       0.00000000       0.06551164 </v>
   <v>       0.00000000       0.00000000       0.12876120 </v>
   <v>       0.50000000       0.50000000       0.12876120 </v>
   <v>       0.00000000       0.50000000       0.19193187 </v>
   <v>       0.50000000       0.00000000       0.19193187 </v>
   <v>       0.00000000       0.00000000       0.25406550 </v>
   <v>       0.50000000       0.50000000       0.25406550 </v>
   <v>       0.00000000       0.50000000       0.31747855 </v>
   <v>       0.50000000       0.00000000       0.31747855 </v>
   <v>       0.00000000       0.00000000       0.38132233 </v>
   <v>       0.50000000       0.50000000       0.38132233 </v>
   <v>       0.00000000       0.50000000       0.44440075 </v>
   <v>       0.50000000       0.00000000       0.44440075 </v>
   <v>       1.00000000       1.00000000       0.50150658 </v>
   <v>       1.00000000       0.14531726       0.52054652 </v>
  </varray>
 </structure>
 <calculation>
  <scstep>
   <time name="dav">    1.15    1.17</time>
   <time name="total">    1.19    1.20</time>
   <energy>
    <i name="alphaZ">    521.04204123 </i>
    <i name="ewald"> 102665.75127851 </i>
    <i name="hartreedc">-124575.84241249 </i>
    <i name="XCdc">    738.39510656 </i>
    <i name="pawpsdc">  19653.14859652 </i>
    <i name="pawaedc"> -21346.34030725 </i>
    <i name="eentropy">      0.00435704 </i>
    <i name="bandstr">   1732.48242278 </i>
    <i name="atom">  22280.27950853 </i>
    <i name="e_fr_energy">   1668.92059144 </i>
    <i name="e_wo_entrp">   1668.91623440 </i>
    <i name="e_0_energy">   1668.91913909 </i>
   </energy>
  </scstep>
  <scstep>
   <time name="dav">    1.12    1.14</time>
   <time name="total">    1.13    1.14</time>
   <energy>
    <i name="e_fr_energy">    199.31371406 </i>
    <i name="e_wo_entrp">    199.31684674 </i>
    <i name="e_0_energy">    199.31475829 </i>
   </energy>
  </scstep>
  <scstep>
   <time name="dav">    1.13    1.14</time>
   <time name="total">    1.13    1.14</time>
   <energy>
    <i name="e_fr_energy">    -53.12279536 </i>
    <i name="e_wo_entrp">    -53.13516405 </i>
    <i name="e_0_energy">    -53.12691825 </i>
   </energy>
  </scstep>
  <scstep>
   <time name="dav">    1.23    1.25</time>
   <time name="total">    1.24    1.25</time>
   <energy>
    <i name="e_fr_energy">    -68.62254216 </i>
    <i name="e_wo_entrp">    -68.62646015 </i>
    <i name="e_0_energy">    -68.62384816 </i>
   </energy>
  </scstep>
  <scstep>
   <time name="dav">    1.24    1.25</time>
   <time name="total">    1.35    1.36</time>
   <energy>
    <i name="e_fr_energy">    -68.96456425 </i>
    <i name="e_wo_entrp">    -68.96784703 </i>
    <i name="e_0_energy">    -68.96565851 </i>
   </energy>
  </scstep>
  <scstep>
   <time name="dav">    1.22    1.23</time>
   <time name="total">    1.36    1.37</time>
   <energy>
    <i name="e_fr_energy">    -57.93528298 </i>
    <i name="e_wo_entrp">    -57.91876408 </i>
    <i name="e_0_energy">    -57.92977668 </i>
   </energy>
  </scstep>
  <scstep>
   <time name="dav">    1.23    1.24</time>
   <time name="total">    1.36    1.37</time>
   <energy>
    <i name="e_fr_energy">    -51.86401729 </i>
    <i name="e_wo_entrp">    -51.84905483 </i>
    <i name="e_0_energy">    -51.85902980 </i>
   </energy>
  </scstep>
  <scstep>
   <time name="dav">    1.32    1.33</time>
   <time name="total">    1.46    1.47</time>
   <energy>
    <i name="e_fr_energy">    -51.54793817 </i>
    <i name="e_wo_entrp">    -51.54894586 </i>
    <i name="e_0_energy">    -51.54827407 </i>
   </energy>
  </scstep>
  <scstep>
   <time name="dav">    1.46    1.47</time>
   <time name="total">    1.59    1.60</time>
   <energy>
    <i name="e_fr_energy">    -51.03919699 </i>
    <i name="e_wo_entrp">    -51.02968342 </i>
    <i name="e_0_energy">    -51.03602580 </i>
   </energy>
  </scstep>
  <scstep>
   <time name="dav">    1.64    1.66</time>
   <time name="total">    1.77    1.79</time>
   <energy>
    <i name="e_fr_energy">    -51.20949614 </i>
    <i name="e_wo_entrp">    -51.19096228 </i>
    <i name="e_0_energy">    -51.20331818 </i>
   </energy>
  </scstep>
  <scstep>
   <time name="dav">    1.49    1.50</time>
   <time name="total">    1.63    1.64</time>
   <energy>
    <i name="e_fr_energy">    -52.05562565 </i>
    <i name="e_wo_entrp">    -52.06350516 </i>
    <i name="e_0_energy">    -52.05825215 </i>
   </energy>
  </scstep>
  <scstep>
   <time name="dav">    1.52    1.53</time>
   <time name="total">    1.65    1.66</time>
   <energy>
    <i name="e_fr_energy">    -51.56468920 </i>
    <i name="e_wo_entrp">    -51.54112537 </i>
    <i name="e_0_energy">    -51.55683459 </i>
   </energy>
  </scstep>
  <scstep>
   <time name="dav">    1.47    1.48</time>
   <time name="total">    1.60    1.61</time>
   <energy>
    <i name="e_fr_energy">    -53.79967498 </i>
    <i name="e_wo_entrp">    -53.78137135 </i>
    <i name="e_0_energy">    -53.79357377 </i>
   </energy>
  </scstep>
  <scstep>
   <time name="dav">    1.38    1.39</time>
   <time name="total">    1.52    1.54</time>
   <energy>
    <i name="e_fr_energy">    -55.52666448 </i>
    <i name="e_wo_entrp">    -55.52433342 </i>
    <i name="e_0_energy">    -55.52588746 </i>
   </energy>
  </scstep>
  <scstep>
   <time name="dav">    1.30    1.31</time>
   <time name="total">    1.43    1.44</time>
   <energy>
    <i name="e_fr_energy">    -58.42674288 </i>
    <i name="e_wo_entrp">    -58.42992369 </i>
    <i name="e_0_energy">    -58.42780315 </i>
   </energy>
  </scstep>
  <scstep>
   <time name="dav">    1.42    1.44</time>
   <time name="total">    1.56    1.57</time>
   <energy>
    <i name="e_fr_energy">    -59.92461298 </i>
    <i name="e_wo_entrp">    -59.90668886 </i>
    <i name="e_0_energy">    -59.91863827 </i>
   </energy>
  </scstep>
  <scstep>
   <time name="dav">    1.41    1.42</time>
   <time name="total">    1.54    1.56</time>
   <energy>
    <i name="e_fr_energy">    -60.46834518 </i>
    <i name="e_wo_entrp">    -60.44242412 </i>
    <i name="e_0_energy">    -60.45970483 </i>
   </energy>
  </scstep>
  <scstep>
   <time name="dav">    1.28    1.29</time>
   <time name="total">    1.42    1.43</time>
   <energy>
    <i name="e_fr_energy">    -60.84162676 </i>
    <i name="e_wo_entrp">    -60.81892004 </i>
    <i name="e_0_energy">    -60.83405786 </i>
   </energy>
  </scstep>
  <scstep>
   <time name="dav">    1.42    1.43</time>
   <time name="total">    1.55    1.56</time>
   <energy>
    <i name="e_fr_energy">    -61.16539357 </i>
    <i name="e_wo_entrp">    -61.13703915 </i>
    <i name="e_0_energy">    -61.15594210 </i>
   </energy>
  </scstep>
  <scstep>
   <time name="dav">    1.27    1.28</time>
   <time name="total">    1.40    1.42</time>
   <energy>
    <i name="e_fr_energy">    -61.40156941 </i>
    <i name="e_wo_entrp">    -61.37495130 </i>
    <i name="e_0_energy">    -61.39269671 </i>
   </energy>
  </scstep>
  <scstep>
   <time name="dav">    1.32    1.33</time>
   <time name="total">    1.45    1.47</time>
   <energy>
    <i name="e_fr_energy">    -61.70197693 </i>
    <i name="e_wo_entrp">    -61.67205453 </i>
    <i name="e_0_energy">    -61.69200280 </i>
   </energy>
  </scstep>
  <scstep>
   <time name="dav">    1.31    1.32</time>
   <time name="total">    1.45    1.46</time>
   <energy>
    <i name="e_fr_energy">    -61.87817714 </i>
    <i name="e_wo_entrp">    -61.84717294 </i>
    <i name="e_0_energy">    -61.86784241 </i>
   </energy>
  </scstep>
  <scstep>
   <time name="dav">    1.39    1.40</time>
   <time name="total">    1.52    1.53</time>
   <energy>
    <i name="e_fr_energy">    -62.08244519 </i>
    <i name="e_wo_entrp">    -62.05247246 </i>
    <i name="e_0_energy">    -62.07245428 </i>
   </energy>
  </scstep>
  <scstep>
   <time name="dav">    1.30    1.31</time>
   <time name="total">    1.44    1.45</time>
   <energy>
    <i name="e_fr_energy">    -62.31155266 </i>
    <i name="e_wo_entrp">    -62.28049593 </i>
    <i name="e_0_energy">    -62.30120041 </i>
   </energy>
  </scstep>
  <scstep>
   <time name="dav">    1.38    1.39</time>
   <time name="total">    1.51    1.52</time>
   <energy>
    <i name="e_fr_energy">    -62.50808509 </i>
    <i name="e_wo_entrp">    -62.47553687 </i>
    <i name="e_0_energy">    -62.49723569 </i>
   </energy>
  </scstep>
  <scstep>
   <time name="dav">    1.32    1.33</time>
   <time name="total">    1.46    1.47</time>
   <energy>
    <i name="e_fr_energy">    -62.64351735 </i>
    <i name="e_wo_entrp">    -62.61143435 </i>
    <i name="e_0_energy">    -62.63282302 </i>
   </energy>
  </scstep>
  <scstep>
   <time name="dav">    1.24    1.25</time>
   <time name="total">    1.37    1.38</time>
   <energy>
    <i name="e_fr_energy">    -62.72411019 </i>
    <i name="e_wo_entrp">    -62.69185456 </i>
    <i name="e_0_energy">    -62.71335831 </i>
   </energy>
  </scstep>
  <scstep>
   <time name="dav">    1.17    1.18</time>
   <time name="total">    1.30    1.31</time>
   <energy>
    <i name="e_fr_energy">    -62.74463183 </i>
    <i name="e_wo_entrp">    -62.71246414 </i>
    <i name="e_0_energy">    -62.73390927 </i>
   </energy>
  </scstep>
  <scstep>
   <time name="dav">    1.02    1.02</time>
   <time name="total">    1.15    1.16</time>
   <energy>
    <i name="e_fr_energy">    -62.75894644 </i>
    <i name="e_wo_entrp">    -62.72698161 </i>
    <i name="e_0_energy">    -62.74829150 </i>
   </energy>
  </scstep>
  <scstep>
   <time name="dav">    0.92    0.93</time>
   <time name="total">    1.06    1.06</time>
   <energy>
    <i name="e_fr_energy">    -62.76305519 </i>
    <i name="e_wo_entrp">    -62.73120663 </i>
    <i name="e_0_energy">    -62.75243900 </i>
   </energy>
  </scstep>
  <scstep>
   <time name="dav">    0.88    0.89</time>
   <time name="total">    0.92    0.92</time>
   <energy>
    <i name="alphaZ">    521.04204123 </i>
    <i name="ewald"> 102665.75127851 </i>
    <i name="hartreedc">-124352.48018035 </i>
    <i name="XCdc">    719.51533953 </i>
    <i name="pawpsdc">  21070.76395890 </i>
    <i name="pawaedc"> -22796.88283329 </i>
    <i name="eentropy">     -0.03202948 </i>
    <i name="bandstr">   -170.72012775 </i>
    <i name="atom">  22280.27950853 </i>
    <i name="e_fr_energy">    -62.76304416 </i>
    <i name="e_wo_entrp">    -62.73101468 </i>
    <i name="e_0_energy">    -62.75236767 </i>
   </energy>
  </scstep>
  <structure>
   <crystal>
    <varray name="basis" >
     <v>       3.63000011       0.00000000       0.00000000 </v>
     <v>       0.00000000       3.63000011       0.00000000 </v>
     <v>       0.00000000       0.00000000      27.70499992 </v>
    </varray>
    <i name="volume">    365.06603650 </i>
    <varray name="rec_basis" >
     <v>       0.27548208       0.00000000       0.00000000 </v>
     <v>       0.00000000       0.27548208       0.00000000 </v>
     <v>       0.00000000       0.00000000       0.03609457 </v>
    </varray>
   </crystal>
   <varray name="positions" >
    <v>       0.00000000       0.00000000       0.00000000 </v>
    <v>       0.50000000       0.50000000       0.00000000 </v>
    <v>       0.00000000       0.50000000       0.06551164 </v>
    <v>       0.50000000       0.00000000       0.06551164 </v>
    <v>       0.00000000       0.00000000       0.12876120 </v>
    <v>       0.50000000       0.50000000       0.12876120 </v>
    <v>       0.00000000       0.50000000       0.19193187 </v>
    <v>       0.50000000       0.00000000       0.19193187 </v>
    <v>       0.00000000       0.00000000       0.25406550 </v>
    <v>       0.50000000       0.50000000       0.25406550 </v>
    <v>       0.00000000       0.50000000       0.31747855 </v>
    <v>       0.50000000       0.00000000       0.31747855 </v>
    <v>       0.00000000       0.00000000       0.38132233 </v>
    <v>       0.50000000       0.50000000       0.38132233 </v>
    <v>       0.00000000       0.50000000       0.44440075 </v>
    <v>       0.50000000       0.00000000       0.44440075 </v>
    <v>       1.00000000       1.00000000       0.50150658 </v>
    <v>       1.00000000       0.14531726       0.52054652 </v>
   </varray>
  </structure>
  <varray name="forces" >
   <v>       0.00000000      -0.00146951       0.25045599 </v>
   <v>       0.00000000       0.00159578       0.25177864 </v>
   <v>       0.00000000       0.00036635      -0.23462603 </v>
   <v>       0.00000000      -0.00158229      -0.23457793 </v>
   <v>       0.00000000       0.00638584       0.00928205 </v>
   <v>       0.00000000      -0.00610040       0.01207399 </v>
   <v>       0.00000000      -0.00708248      -0.01099786 </v>
   <v>       0.00000000       0.00938742      -0.01264387 </v>
   <v>       0.00000000      -0.01346672      -0.02312221 </v>
   <v>       0.00000000       0.01065660       0.08200434 </v>
   <v>       0.00000000      -0.00061316       0.00353385 </v>
   <v>       0.00000000      -0.00404450       0.00261279 </v>
   <v>       0.00000000      -0.01412063      -0.09821069 </v>
   <v>       0.00000000       0.01188139       0.09359302 </v>
   <v>       0.00000000       0.03916276      -0.36232099 </v>
   <v>       0.00000000      -0.08792524      -0.38867109 </v>
   <v>       0.00000000      -0.53540136      -0.28581323 </v>
   <v>       0.00000000       0.59237014       0.94564923 </v>
  </varray>
  <varray name="stress" >
   <v>     -19.10086424       0.00000000       0.00000000 </v>
   <v>       0.00000000     -17.98561201       1.78563987 </v>
   <v>       0.00000000       1.78563992      -3.13456565 </v>
  </varray>
  <energy>
   <i name="e_fr_energy">    -69.70145450 </i>
   <i name="e_wo_entrp">    -69.66942502 </i>
   <i name="e_0_energy">    -69.69077800 </i>
  </energy>
  <time name="totalsc">   45.39   45.78</time>
 </calculation>
 <calculation>
  <scstep>
   <time name="dav">    1.19    1.20</time>
   <time name="total">    1.32    1.33</time>
   <energy>
    <i name="alphaZ">    521.04204123 </i>
    <i name="ewald"> 102892.89977845 </i>
    <i name="hartreedc">-124580.32769804 </i>
    <i name="XCdc">    719.52857060 </i>
    <i name="pawpsdc">  21070.99702503 </i>
    <i name="pawaedc"> -22797.17406018 </i>
    <i name="eentropy">     -0.03563929 </i>
    <i name="bandstr">   -169.95962096 </i>
    <i name="atom">  22280.27950853 </i>
    <i name="e_fr_energy">    -62.75009463 </i>
    <i name="e_wo_entrp">    -62.71445534 </i>
    <i name="e_0_energy">    -62.73821487 </i>
   </energy>
  </scstep>
  <scstep>
   <time name="dav">    1.49    1.50</time>
   <time name="total">    1.61    1.63</time>
   <energy>
    <i name="e_fr_energy">    -62.76901727 </i>
    <i name="e_wo_entrp">    -62.73676271 </i>
    <i name="e_0_energy">    -62.75826575 </i>
   </energy>
  </scstep>
  <scstep>
   <time name="dav">    1.30    1.31</time>
   <time name="total">    1.43    1.44</time>
   <energy>
    <i name="e_fr_energy">    -62.78465443 </i>
    <i name="e_wo_entrp">    -62.75726813 </i>
    <i name="e_0_energy">    -62.77552567 </i>
   </energy>
  </scstep>
  <scstep>
   <time name="dav">    1.35    1.36</time>
   <time name="total">    1.47    1.49</time>
   <energy>
    <i name="e_fr_energy">    -62.76469163 </i>
    <i name="e_wo_entrp">    -62.73414220 </i>
    <i name="e_0_energy">    -62.75450849 </i>
   </energy>
  </scstep>
  <scstep>
   <time name="dav">    1.46    1.47</time>
   <time name="total">    1.59    1.60</time>
   <energy>
    <i name="e_fr_energy">    -62.76532861 </i>
    <i name="e_wo_entrp">    -62.72210300 </i>
    <i name="e_0_energy">    -62.75092008 </i>
   </energy>
  </scstep>
  <scstep>
   <time name="dav">    1.54    1.55</time>
   <time name="total">    1.67    1.68</time>
   <energy>
    <i name="e_fr_energy">    -62.76286503 </i>
    <i name="e_wo_entrp">    -62.73292575 </i>
    <i name="e_0_energy">    -62.75288527 </i>
   </energy>
  </scstep>
  <scstep>
   <time name="dav">    1.52    1.53</time>
   <time name="total">    1.65    1.66</time>
   <energy>
    <i name="e_fr_energy">    -62.76187673 </i>
    <i name="e_wo_entrp">    -62.72751407 </i>
    <i name="e_0_energy">    -62.75042251 </i>
   </energy>
  </scstep>
  <scstep>
   <time name="dav">    1.19    1.20</time>
   <time name="total">    1.22    1.23</time>
   <energy>
    <i name="alphaZ">    521.04204123 </i>
    <i name="ewald"> 102892.89977845 </i>
    <i name="hartreedc">-124575.50329735 </i>
    <i name="XCdc">    719.39541272 </i>
    <i name="pawpsdc">  21075.71947967 </i>
    <i name="pawaedc"> -22802.04674806 </i>
    <i name="eentropy">     -0.03451768 </i>
    <i name="bandstr">   -174.51363399 </i>
    <i name="atom">  22280.27950853 </i>
    <i name="e_fr_energy">    -62.76197648 </i>
    <i name="e_wo_entrp">    -62.72745880 </i>
    <i name="e_0_energy">    -62.75047059 </i>
   </energy>
  </scstep>
  <structure>
   <crystal>
    <varray name="basis" >
     <v>       3.63000011       0.00000000       0.00000000 </v>
     <v>       0.00000000       3.63000011       0.00000000 </v>
     <v>       0.00000000       0.00000000      27.70499992 </v>
    </varray>
    <i name="volume">    365.06603650 </i>
    <varray name="rec_basis" >
     <v>       0.27548208       0.00000000       0.00000000 </v>
     <v>       0.00000000       0.27548208       0.00000000 </v>
     <v>       0.00000000       0.00000000       0.03609457 </v>
    </varray>
   </crystal>
   <varray name="positions" >
    <v>       0.00000000      -0.00001953       0.00043612 </v>
    <v>       0.50000000       0.50002121       0.00043842 </v>
    <v>       0.00000000       0.50000487       0.06510309 </v>
    <v>       0.50000000      -0.00002103       0.06510317 </v>
    <v>       0.00000000       0.00008487       0.12877736 </v>
    <v>       0.50000000       0.49991893       0.12878222 </v>
    <v>       0.00000000       0.49990587       0.19191272 </v>
    <v>       0.50000000       0.00012476       0.19190985 </v>
    <v>       0.00000000      -0.00017897       0.25402524 </v>
    <v>       0.50000000       0.50014163       0.25420830 </v>
    <v>       0.00000000       0.49999185       0.31748471 </v>
    <v>       0.50000000      -0.00005375       0.31748310 </v>
    <v>       0.00000000      -0.00018766       0.38115131 </v>
    <v>       0.50000000       0.50015790       0.38148530 </v>
    <v>       0.00000000       0.50052047       0.44376984 </v>
    <v>       0.50000000      -0.00116853       0.44372396 </v>
    <v>       1.00000000       0.99288452       0.50100889 </v>
    <v>       1.00000000       0.15318985       0.52219318 </v>
   </varray>
  </structure>
  <varray name="forces" >
   <v>       0.00000000      -0.00068645       0.15100415 </v>
   <v>       0.00000000       0.00087512       0.15238408 </v>
   <v>       0.00000000       0.00052763      -0.10710155 </v>
   <v>       0.00000000      -0.00168816      -0.10645279 </v>
   <v>       0.00000000       0.00196971      -0.03608225 </v>
   <v>       0.00000000      -0.00176640      -0.03497321 </v>
   <v>       0.00000000      -0.00403372      -0.00129420 </v>
   <v>       0.00000000       0.00560440      -0.00233709 </v>
   <v>       0.00000000      -0.00793083      -0.01015964 </v>
   <v>       0.00000000       0.00524298       0.04151312 </v>
   <v>       0.00000000      -0.00486249       0.00603058 </v>
   <v>       0.00000000       0.00018847       0.00743863 </v>
   <v>       0.00000000       0.00102551      -0.12747908 </v>
   <v>       0.00000000      -0.00525277      -0.02016680 </v>
   <v>       0.00000000       0.01133116      -0.21677548 </v>
   <v>       0.00000000      -0.05201750      -0.24006615 </v>
   <v>       0.00000000       0.62608374       0.81279843 </v>
   <v>       0.00000000      -0.57461041      -0.26828077 </v>
  </varray>
  <varray name="stress" >
   <v>     -18.51517021       0.00000000       0.00000000 </v>
   <v>       0.00000000     -20.16616427      -1.04348263 </v>
   <v>       0.00000000      -1.04348265      -5.28423310 </v>
  </varray>
  <energy>
   <i name="e_fr_energy">    -69.71999731 </i>
   <i name="e_wo_entrp">    -69.68547963 </i>
   <i name="e_0_energy">    -69.70849142 </i>
  </energy>
  <time name="totalsc">   13.85   14.00</time>
 </calculation>
 <calculation>
  <scstep>
   <time name="dav">    1.18    1.19</time>
   <time name="total">    1.31    1.32</time>
   <energy>
    <i name="alphaZ">    521.04204123 </i>
    <i name="ewald"> 102798.59803940 </i>
    <i name="hartreedc">-124481.13128304 </i>
    <i name="XCdc">    719.39411444 </i>
    <i name="pawpsdc">  21075.95705558 </i>
    <i name="pawaedc"> -22802.30735625 </i>
    <i name="eentropy">     -0.03294643 </i>
    <i name="bandstr">   -174.58063605 </i>
    <i name="atom">  22280.27950853 </i>
    <i name="e_fr_energy">    -62.78146259 </i>
    <i name="e_wo_entrp">    -62.74851616 </i>
    <i name="e_0_energy">    -62.77048044 </i>
   </energy>
  </scstep>
  <scstep>
   <time name="dav">    1.71    1.72</time>
   <time name="total">    1.84    1.85</time>
   <energy>
    <i name="e_fr_energy">    -62.78662077 </i>
    <i name="e_wo_entrp">    -62.75312853 </i>
    <i name="e_0_energy">    -62.77545669 </i>
   </energy>
  </scstep>
  <scstep>
   <time name="dav">    1.52    1.53</time>
   <time name="total">    1.65    1.66</time>
   <energy>
    <i name="e_fr_energy">    -62.78478713 </i>
    <i name="e_wo_entrp">    -62.75132721 </i>
    <i name="e_0_energy">    -62.77363383 </i>
   </energy>
  </scstep>
  <scstep>
   <time name="dav">    1.22    1.23</time>
   <time name="total">    1.35    1.36</time>
   <energy>
    <i name="e_fr_energy">    -62.78414420 </i>
    <i name="e_wo_entrp">    -62.75221469 </i>
    <i name="e_0_energy">    -62.77350103 </i>
   </energy>
  </scstep>
  <scstep>
   <time name="dav">    1.27    1.28</time>
   <time name="total">    1.40    1.41</time>
   <energy>
    <i name="e_fr_energy">    -62.78425371 </i>
    <i name="e_wo_entrp">    -62.74758087 </i>
    <i name="e_0_energy">    -62.77202943 </i>
   </energy>
  </scstep>
  <scstep>
   <time name="dav">    1.18    1.19</time>
   <time name="total">    1.31    1.32</time>
   <energy>
    <i name="e_fr_energy">    -62.78406319 </i>
    <i name="e_wo_entrp">    -62.75252786 </i>
    <i name="e_0_energy">    -62.77355141 </i>
   </energy>
  </scstep>
  <scstep>
   <time name="dav">    0.94    0.95</time>
   <time name="total">    1.07    1.08</time>
   <energy>
    <i name="e_fr_energy">    -62.78385503 </i>
    <i name="e_wo_entrp">    -62.75045670 </i>
    <i name="e_0_energy">    -62.77272225 </i>
   </energy>
  </scstep>
  <scstep>
   <time name="dav">    0.87    0.88</time>
   <time name="total">    0.90    0.91</time>
   <energy>
    <i name="alphaZ">    521.04204123 </i>
    <i name="ewald"> 102798.59803940 </i>
    <i name="hartreedc">-124482.08898146 </i>
    <i name="XCdc">    719.44328764 </i>
    <i name="pawpsdc">  21074.03377105 </i>
    <i name="pawaedc"> -22800.33954949 </i>
    <i name="eentropy">     -0.03350220 </i>
    <i name="bandstr">   -173.71851468 </i>
    <i name="atom">  22280.27950853 </i>
    <i name="e_fr_energy">    -62.78389999 </i>
    <i name="e_wo_entrp">    -62.75039779 </i>
    <i name="e_0_energy">    -62.77273259 </i>
   </energy>
  </scstep>
  <structure>
   <crystal>
    <varray name="basis" >
     <v>       3.63000011       0.00000000       0.00000000 </v>
     <v>       0.00000000       3.63000011       0.00000000 </v>
     <v>       0.00000000       0.00000000      27.70499992 </v>
    </varray>
    <i name="volume">    365.06603650 </i>
    <varray name="rec_basis" >
     <v>       0.27548208       0.00000000       0.00000000 </v>
     <v>       0.00000000       0.27548208       0.00000000 </v>
     <v>       0.00000000       0.00000000       0.03609457 </v>
    </varray>
   </crystal>
   <varray name="positions" >
    <v>       0.00000000      -0.00001144       0.00025538 </v>
    <v>       0.50000000       0.50001242       0.00025672 </v>
    <v>       0.00000000       0.50000285       0.06527241 </v>
    <v>       0.50000000      -0.00001231       0.06527246 </v>
    <v>       0.00000000       0.00004970       0.12877066 </v>
    <v>       0.50000000       0.49995253       0.12877351 </v>
    <v>       0.00000000       0.49994488       0.19192065 </v>
    <v>       0.50000000       0.00007305       0.19191898 </v>
    <v>       0.00000000      -0.00010480       0.25404193 </v>
    <v>       0.50000000       0.50008293       0.25414912 </v>
    <v>       0.00000000       0.49999523       0.31748216 </v>
    <v>       0.50000000      -0.00003147       0.31748122 </v>
    <v>       0.00000000      -0.00010989       0.38122219 </v>
    <v>       0.50000000       0.50009246       0.38141776 </v>
    <v>       0.00000000       0.50030477       0.44403131 </v>
    <v>       0.50000000      -0.00068425       0.44400445 </v>
    <v>       1.00000000       0.99583343       0.50121515 </v>
    <v>       1.00000000       0.14992716       0.52151075 </v>
   </varray>
  </structure>
  <varray name="forces" >
   <v>       0.00000000      -0.00087160       0.18922624 </v>
   <v>       0.00000000       0.00111157       0.18990871 </v>
   <v>       0.00000000       0.00054121      -0.16407174 </v>
   <v>       0.00000000      -0.00159240      -0.16369682 </v>
   <v>       0.00000000       0.00433754      -0.01531543 </v>
   <v>       0.00000000      -0.00379527      -0.01270631 </v>
   <v>       0.00000000      -0.00552562      -0.00265628 </v>
   <v>       0.00000000       0.00768485      -0.00399776 </v>
   <v>       0.00000000      -0.01125556      -0.01250999 </v>
   <v>       0.00000000       0.00844905       0.06869673 </v>
   <v>       0.00000000      -0.00325166       0.00934350 </v>
   <v>       0.00000000      -0.00152717       0.00968413 </v>
   <v>       0.00000000      -0.00581852      -0.12002064 </v>
   <v>       0.00000000       0.00252741       0.03060012 </v>
   <v>       0.00000000       0.02163790      -0.28393855 </v>
   <v>       0.00000000      -0.06939519      -0.30903233 </v>
   <v>       0.00000000       0.32360819       0.53206503 </v>
   <v>       0.00000000      -0.26686474       0.05842137 </v>
  </varray>
  <varray name="stress" >
   <v>     -20.67640353       0.00000000       0.00000000 </v>
   <v>       0.00000000     -21.54953957      -0.22361869 </v>
   <v>       0.00000000      -0.22361868      -6.75805865 </v>
  </varray>
  <energy>
   <i name="e_fr_energy">    -69.72952205 </i>
   <i name="e_wo_entrp">    -69.69601985 </i>
   <i name="e_0_energy">    -69.71835465 </i>
  </energy>
  <time name="totalsc">   12.70   12.84</time>
 </calculation>
 <calculation>
  <scstep>
   <time name="dav">    1.16    1.17</time>
   <time name="total">    1.29    1.30</time>
   <energy>
    <i name="alphaZ">    521.04204123 </i>
    <i name="ewald"> 103051.57836002 </i>
    <i name="hartreedc">-124734.42102167 </i>
    <i name="XCdc">    719.52812320 </i>
    <i name="pawpsdc">  21074.02509485 </i>
    <i name="pawaedc"> -22800.32912476 </i>
    <i name="eentropy">     -0.03498615 </i>
    <i name="bandstr">   -174.46107860 </i>
    <i name="atom">  22280.27950853 </i>
    <i name="e_fr_energy">    -62.79308335 </i>
    <i name="e_wo_entrp">    -62.75809720 </i>
    <i name="e_0_energy">    -62.78142130 </i>
   </energy>
  </scstep>
  <scstep>
   <time name="dav">    1.63    1.65</time>
   <time name="total">    1.77    1.79</time>
   <energy>
    <i name="e_fr_energy">    -62.81544711 </i>
    <i name="e_wo_entrp">    -62.78465952 </i>
    <i name="e_0_energy">    -62.80518458 </i>
   </energy>
  </scstep>
  <scstep>
   <time name="dav">    1.35    1.36</time>
   <time name="total">    1.49    1.50</time>
   <energy>
    <i name="e_fr_energy">    -62.80982282 </i>
    <i name="e_wo_entrp">    -62.77649019 </i>
    <i name="e_0_energy">    -62.79871194 </i>
   </energy>
  </scstep>
  <scstep>
   <time name="dav">    1.25    1.26</time>
   <time name="total">    1.39    1.40</time>
   <energy>
    <i name="e_fr_energy">    -62.80773435 </i>
    <i name="e_wo_entrp">    -62.77328143 </i>
    <i name="e_0_energy">    -62.79625005 </i>
   </energy>
  </scstep>
  <scstep>
   <time name="dav">    1.22    1.23</time>
   <time name="total">    1.36    1.37</time>
   <energy>
    <i name="e_fr_energy">    -62.80775872 </i>
    <i name="e_wo_entrp">    -62.77287774 </i>
    <i name="e_0_energy">    -62.79613173 </i>
   </energy>
  </scstep>
  <scstep>
   <time name="dav">    1.22    1.23</time>
   <time name="total">    1.35    1.36</time>
   <energy>
    <i name="e_fr_energy">    -62.80768843 </i>
    <i name="e_wo_entrp">    -62.77518538 </i>
    <i name="e_0_energy">    -62.79685408 </i>
   </energy>
  </scstep>
  <scstep>
   <time name="dav">    1.25    1.26</time>
   <time name="total">    1.28    1.29</time>
   <energy>
    <i name="alphaZ">    521.04204123 </i>
    <i name="ewald"> 103051.57836002 </i>
    <i name="hartreedc">-124733.58544904 </i>
    <i name="XCdc">    719.51404572 </i>
    <i name="pawpsdc">  21085.79686815 </i>
    <i name="pawaedc"> -22812.35522259 </i>
    <i name="eentropy">     -0.03677193 </i>
    <i name="bandstr">   -175.04096661 </i>
    <i name="atom">  22280.27950853 </i>
    <i name="e_fr_energy">    -62.80758651 </i>
    <i name="e_wo_entrp">    -62.77081458 </i>
    <i name="e_0_energy">    -62.79532920 </i>
   </energy>
  </scstep>
  <structure>
   <crystal>
    <varray name="basis" >
     <v>       3.63000011       0.00000000       0.00000000 </v>
     <v>       0.00000000       3.63000011       0.00000000 </v>
     <v>       0.00000000       0.00000000      27.70499992 </v>
    </varray>
    <i name="volume">    365.06603650 </i>
    <varray name="rec_basis" >
     <v>       0.27548208       0.00000000       0.00000000 </v>
     <v>       0.00000000       0.27548208       0.00000000 </v>
     <v>       0.00000000       0.00000000       0.03609457 </v>
    </varray>
   </crystal>
   <varray name="positions" >
    <v>       0.00000000      -0.00002863       0.00070436 </v>
    <v>       0.50000000       0.50003311       0.00070757 </v>
    <v>       0.00000000       0.50001109       0.06487288 </v>
    <v>       0.50000000      -0.00003880       0.06487355 </v>
    <v>       0.00000000       0.00013113       0.12875164 </v>
    <v>       0.50000000       0.49987898       0.12876029 </v>
    <v>       0.00000000       0.49984585       0.19190997 </v>
    <v>       0.50000000       0.00020871       0.19190518 </v>
    <v>       0.00000000      -0.00030223       0.25400840 </v>
    <v>       0.50000000       0.50023358       0.25430689 </v>
    <v>       0.00000000       0.49995285       0.31749915 </v>
    <v>       0.50000000      -0.00006818       0.31749821 </v>
    <v>       0.00000000      -0.00024397       0.38097296 </v>
    <v>       0.50000000       0.50017642       0.38152148 </v>
    <v>       0.00000000       0.50074369       0.44336551 </v>
    <v>       0.50000000      -0.00192338       0.44328313 </v>
    <v>       1.00000000       0.99738271       0.50189733 </v>
    <v>       1.00000000       0.14932434       0.52215829 </v>
   </varray>
  </structure>
  <varray name="forces" >
   <v>       0.00000000      -0.00018557       0.10852705 </v>
   <v>       0.00000000      -0.00015022       0.11076545 </v>
   <v>       0.00000000       0.00058297      -0.03780149 </v>
   <v>       0.00000000      -0.00160704      -0.03768772 </v>
   <v>       0.00000000      -0.00114158      -0.04686403 </v>
   <v>       0.00000000       0.00113334      -0.04818744 </v>
   <v>       0.00000000      -0.00189246       0.00393675 </v>
   <v>       0.00000000       0.00271313       0.00337023 </v>
   <v>       0.00000000      -0.00349210      -0.00554046 </v>
   <v>       0.00000000       0.00126417       0.02333001 </v>
   <v>       0.00000000      -0.00631727      -0.00050333 </v>
   <v>       0.00000000       0.00183251      -0.00020282 </v>
   <v>       0.00000000       0.00628388      -0.14248923 </v>
   <v>       0.00000000      -0.01487531      -0.08244242 </v>
   <v>       0.00000000      -0.00458086      -0.21055215 </v>
   <v>       0.00000000      -0.02876928      -0.21959100 </v>
   <v>       0.00000000       0.27062862       0.47719241 </v>
   <v>       0.00000000      -0.22142692       0.10474018 </v>
  </varray>
  <varray name="stress" >
   <v>     -21.97519459       0.00000000       0.00000000 </v>
   <v>       0.00000000     -22.66278084      -0.10479574 </v>
   <v>       0.00000000      -0.10479582      -7.44599892 </v>
  </varray>
  <energy>
   <i name="e_fr_energy">    -69.76038273 </i>
   <i name="e_wo_entrp">    -69.72361079 </i>
   <i name="e_0_energy">    -69.74812542 </i>
  </energy>
  <time name="totalsc">   11.81   11.98</time>
 </calculation>
 <calculation>
  <scstep>
   <time name="dav">    1.18    1.19</time>
   <time name="total">    1.31    1.33</time>
   <energy>
    <i name="alphaZ">    521.04204123 </i>
    <i name="ewald"> 103769.43806369 </i>
    <i name="hartreedc">-125448.57703917 </i>
    <i name="XCdc">    719.78442441 </i>
    <i name="pawpsdc">  21086.17420543 </i>
    <i name="pawaedc"> -22812.71531284 </i>
    <i name="eentropy">     -0.03817236 </i>
    <i name="bandstr">   -178.07738780 </i>
    <i name="atom">  22280.27950853 </i>
    <i name="e_fr_energy">    -62.68966889 </i>
    <i name="e_wo_entrp">    -62.65149653 </i>
    <i name="e_0_energy">    -62.67694477 </i>
   </energy>
  </scstep>
  <scstep>
   <time name="dav">    1.65    1.66</time>
   <time name="total">    1.78    1.80</time>
   <energy>
    <i name="e_fr_energy">    -62.88477587 </i>
    <i name="e_wo_entrp">    -62.86158686 </i>
    <i name="e_0_energy">    -62.87704620 </i>
   </energy>
  </scstep>
  <scstep>
   <time name="dav">    1.46    1.47</time>
   <time name="total">    1.60    1.61</time>
   <energy>
    <i name="e_fr_energy">    -62.86793887 </i>
    <i name="e_wo_entrp">    -62.84516331 </i>
    <i name="e_0_energy">    -62.86034702 </i>
   </energy>
  </scstep>
  <scstep>
   <time name="dav">    1.48    1.49</time>
   <time name="total">    1.62    1.63</time>
   <energy>
    <i name="e_fr_energy">    -62.82597736 </i>
    <i name="e_wo_entrp">    -62.79634604 </i>
    <i name="e_0_energy">    -62.81610026 </i>
   </energy>
  </scstep>
  <scstep>
   <time name="dav">    1.49    1.51</time>
   <time name="total">    1.63    1.64</time>
   <energy>
    <i name="e_fr_energy">    -62.82336037 </i>
    <i name="e_wo_entrp">    -62.78044647 </i>
    <i name="e_0_energy">    -62.80905574 </i>
   </energy>
  </scstep>
  <scstep>
   <time name="dav">    1.23    1.24</time>
   <time name="total">    1.37    1.38</time>
   <energy>
    <i name="e_fr_energy">    -62.82202353 </i>
    <i name="e_wo_entrp">    -62.78612861 </i>
    <i name="e_0_energy">    -62.81005856 </i>
   </energy>
  </scstep>
  <scstep>
   <time name="dav">    1.38    1.39</time>
   <time name="total">    1.52    1.53</time>
   <energy>
    <i name="e_fr_energy">    -62.81954858 </i>
    <i name="e_wo_entrp">    -62.78032274 </i>
    <i name="e_0_energy">    -62.80647330 </i>
   </energy>
  </scstep>
  <scstep>
   <time name="dav">    1.37    1.39</time>
   <time name="total">    1.51    1.52</time>
   <energy>
    <i name="e_fr_energy">    -62.81988560 </i>
    <i name="e_wo_entrp">    -62.78111920 </i>
    <i name="e_0_energy">    -62.80696347 </i>
   </energy>
  </scstep>
  <scstep>
   <time name="dav">    1.18    1.19</time>
   <time name="total">    1.32    1.33</time>
   <energy>
    <i name="e_fr_energy">    -62.81962856 </i>
    <i name="e_wo_entrp">    -62.78101248 </i>
    <i name="e_0_energy">    -62.80675654 </i>
   </energy>
  </scstep>
  <scstep>
   <time name="dav">    0.93    0.94</time>
   <time name="total">    0.96    0.97</time>
   <energy>
    <i name="alphaZ">    521.04204123 </i>
    <i name="ewald"> 103769.43806369 </i>
    <i name="hartreedc">-125445.49574310 </i>
    <i name="XCdc">    719.71372866 </i>
    <i name="pawpsdc">  21125.95644697 </i>
    <i name="pawaedc"> -22853.25164869 </i>
    <i name="eentropy">     -0.03879730 </i>
    <i name="bandstr">   -180.46311382 </i>
    <i name="atom">  22280.27950853 </i>
    <i name="e_fr_energy">    -62.81951383 </i>
    <i name="e_wo_entrp">    -62.78071653 </i>
    <i name="e_0_energy">    -62.80658140 </i>
   </energy>
  </scstep>
  <structure>
   <crystal>
    <varray name="basis" >
     <v>       3.63000011       0.00000000       0.00000000 </v>
     <v>       0.00000000       3.63000011       0.00000000 </v>
     <v>       0.00000000       0.00000000      27.70499992 </v>
    </varray>
    <i name="volume">    365.06603650 </i>
    <varray name="rec_basis" >
     <v>       0.27548208       0.00000000       0.00000000 </v>
     <v>       0.00000000       0.27548208       0.00000000 </v>
     <v>       0.00000000       0.00000000       0.03609457 </v>
    </varray>
   </crystal>
   <varray name="positions" >
    <v>       0.00000000      -0.00007711       0.00196994 </v>
    <v>       0.50000000       0.50009142       0.00197841 </v>
    <v>       0.00000000       0.50003430       0.06374668 </v>
    <v>       0.50000000      -0.00011346       0.06374912 </v>
    <v>       0.00000000       0.00036067       0.12869804 </v>
    <v>       0.50000000       0.49967166       0.12872304 </v>
    <v>       0.00000000       0.49956671       0.19187984 </v>
    <v>       0.50000000       0.00059111       0.19186630 </v>
    <v>       0.00000000      -0.00085874       0.25391388 </v>
    <v>       0.50000000       0.50065823       0.25475161 </v>
    <v>       0.00000000       0.49983341       0.31754705 </v>
    <v>       0.50000000      -0.00017165       0.31754612 </v>
    <v>       0.00000000      -0.00062193       0.38027043 </v>
    <v>       0.50000000       0.50041307       0.38181385 </v>
    <v>       0.00000000       0.50198091       0.44148877 </v>
    <v>       0.50000000      -0.00541623       0.44124989 </v>
    <v>       1.00000000       0.00174978       0.50382023 </v>
    <v>       1.00000000       0.14762511       0.52398359 </v>
   </varray>
  </structure>
  <varray name="forces" >
   <v>       0.00000000       0.00266290      -0.13001548 </v>
   <v>       0.00000000      -0.00286527      -0.12549236 </v>
   <v>       0.00000000       0.00037625       0.32485527 </v>
   <v>       0.00000000       0.00012045       0.32430376 </v>
   <v>       0.00000000      -0.01340655      -0.15227902 </v>
   <v>       0.00000000       0.01401682      -0.16154002 </v>
   <v>       0.00000000       0.00716930       0.01635684 </v>
   <v>       0.00000000      -0.00829859       0.01721772 </v>
   <v>       0.00000000       0.01502725       0.01797506 </v>
   <v>       0.00000000      -0.01496112      -0.07610254 </v>
   <v>       0.00000000      -0.01454185      -0.01500463 </v>
   <v>       0.00000000       0.01160320      -0.01407524 </v>
   <v>       0.00000000       0.03944311      -0.20424568 </v>
   <v>       0.00000000      -0.07331870      -0.39631350 </v>
   <v>       0.00000000      -0.07598690       0.01950530 </v>
   <v>       0.00000000       0.07828217       0.04482717 </v>
   <v>       0.00000000       0.06639515       0.23890109 </v>
   <v>       0.00000000      -0.03171763       0.27112625 </v>
  </varray>
  <varray name="stress" >
   <v>     -17.83189342       0.00000000       0.00000000 </v>
   <v>       0.00000000     -17.93368352       0.50258601 </v>
   <v>       0.00000000       0.50258605      -1.35081737 </v>
  </varray>
  <energy>
   <i name="e_fr_energy">    -69.79329142 </i>
   <i name="e_wo_entrp">    -69.75449412 </i>
   <i name="e_0_energy">    -69.78035898 </i>
  </energy>
  <time name="totalsc">   16.52   16.70</time>
 </calculation>
 <calculation>
  <scstep>
   <time name="dav">    1.16    1.17</time>
   <time name="total">    1.30    1.31</time>
   <energy>
    <i name="alphaZ">    521.04204123 </i>
    <i name="ewald"> 104177.45569225 </i>
    <i name="hartreedc">-125853.12716461 </i>
    <i name="XCdc">    719.77150531 </i>
    <i name="pawpsdc">  21126.02024924 </i>
    <i name="pawaedc"> -22853.28091154 </i>
    <i name="eentropy">     -0.03973127 </i>
    <i name="bandstr">   -180.93874626 </i>
    <i name="atom">  22280.27950853 </i>
    <i name="e_fr_energy">    -62.81755712 </i>
    <i name="e_wo_entrp">    -62.77782585 </i>
    <i name="e_0_energy">    -62.80431336 </i>
   </energy>
  </scstep>
  <scstep>
   <time name="dav">    1.50    1.52</time>
   <time name="total">    1.64    1.65</time>
   <energy>
    <i name="e_fr_energy">    -62.84549400 </i>
    <i name="e_wo_entrp">    -62.80659244 </i>
    <i name="e_0_energy">    -62.83252681 </i>
   </energy>
  </scstep>
  <scstep>
   <time name="dav">    1.31    1.32</time>
   <time name="total">    1.44    1.45</time>
   <energy>
    <i name="e_fr_energy">    -62.84223753 </i>
    <i name="e_wo_entrp">    -62.80395802 </i>
    <i name="e_0_energy">    -62.82947769 </i>
   </energy>
  </scstep>
  <scstep>
   <time name="dav">    1.33    1.35</time>
   <time name="total">    1.47    1.48</time>
   <energy>
    <i name="e_fr_energy">    -62.83973396 </i>
    <i name="e_wo_entrp">    -62.80134252 </i>
    <i name="e_0_energy">    -62.82693681 </i>
   </energy>
  </scstep>
  <scstep>
   <time name="dav">    1.39    1.40</time>
   <time name="total">    1.52    1.54</time>
   <energy>
    <i name="e_fr_energy">    -62.83995580 </i>
    <i name="e_wo_entrp">    -62.79662407 </i>
    <i name="e_0_energy">    -62.82551189 </i>
   </energy>
  </scstep>
  <scstep>
   <time name="dav">    1.42    1.43</time>
   <time name="total">    1.55    1.56</time>
   <energy>
    <i name="e_fr_energy">    -62.83979882 </i>
    <i name="e_wo_entrp">    -62.80358280 </i>
    <i name="e_0_energy">    -62.82772681 </i>
   </energy>
  </scstep>
  <scstep>
   <time name="dav">    1.62    1.63</time>
   <time name="total">    1.76    1.77</time>
   <energy>
    <i name="e_fr_energy">    -62.83873498 </i>
    <i name="e_wo_entrp">    -62.79841750 </i>
    <i name="e_0_energy">    -62.82529582 </i>
   </energy>
  </scstep>
  <scstep>
   <time name="dav">    1.08    1.09</time>
   <time name="total">    1.12    1.13</time>
   <energy>
    <i name="alphaZ">    521.04204123 </i>
    <i name="ewald"> 104177.45569225 </i>
    <i name="hartreedc">-125851.60939626 </i>
    <i name="XCdc">    719.77557828 </i>
    <i name="pawpsdc">  21136.06972367 </i>
    <i name="pawaedc"> -22863.53108791 </i>
    <i name="eentropy">     -0.03993520 </i>
    <i name="bandstr">   -182.28086744 </i>
    <i name="atom">  22280.27950853 </i>
    <i name="e_fr_energy">    -62.83874286 </i>
    <i name="e_wo_entrp">    -62.79880766 </i>
    <i name="e_0_energy">    -62.82543113 </i>
   </energy>
  </scstep>
  <structure>
   <crystal>
    <varray name="basis" >
     <v>       3.63000011       0.00000000       0.00000000 </v>
     <v>       0.00000000       3.63000011       0.00000000 </v>
     <v>       0.00000000       0.00000000      27.70499992 </v>
    </varray>
    <i name="volume">    365.06603650 </i>
    <varray name="rec_basis" >
     <v>       0.27548208       0.00000000       0.00000000 </v>
     <v>       0.00000000       0.27548208       0.00000000 </v>
     <v>       0.00000000       0.00000000       0.03609457 </v>
    </varray>
   </crystal>
   <varray name="positions" >
    <v>       0.00000000      -0.00005370       0.00218157 </v>
    <v>       0.50000000       0.50006856       0.00220132 </v>
    <v>       0.00000000       0.50004898       0.06398791 </v>
    <v>       0.50000000      -0.00013981       0.06398989 </v>
    <v>       0.00000000       0.00023734       0.12836502 </v>
    <v>       0.50000000       0.49981297       0.12837720 </v>
    <v>       0.00000000       0.49957351       0.19190204 </v>
    <v>       0.50000000       0.00060565       0.19188695 </v>
    <v>       0.00000000      -0.00083366       0.25391505 </v>
    <v>       0.50000000       0.50058433       0.25476351 </v>
    <v>       0.00000000       0.49956029       0.31753435 </v>
    <v>       0.50000000      -0.00002890       0.31753534 </v>
    <v>       0.00000000      -0.00014662       0.37958526 </v>
    <v>       0.50000000       0.49935333       0.38111051 </v>
    <v>       0.00000000       0.50125776       0.44081904 </v>
    <v>       0.50000000      -0.00551020       0.44057298 </v>
    <v>       1.00000000       0.00444213       0.50503812 </v>
    <v>       1.00000000       0.14648530       0.52523074 </v>
   </varray>
  </structure>
  <varray name="forces" >
   <v>       0.00000000       0.00188169      -0.14307634 </v>
   <v>       0.00000000      -0.00320922      -0.13900243 </v>
   <v>       0.00000000      -0.00165121       0.25416323 </v>
   <v>       0.00000000       0.00171266       0.25353909 </v>
   <v>       0.00000000      -0.00964321      -0.04037993 </v>
   <v>       0.00000000       0.00884998      -0.04725189 </v>
   <v>       0.00000000       0.00620528      -0.02459847 </v>
   <v>       0.00000000      -0.00927399      -0.02340255 </v>
   <v>       0.00000000       0.01122822       0.01752915 </v>
   <v>       0.00000000      -0.01143505      -0.08804122 </v>
   <v>       0.00000000      -0.00030069      -0.08926300 </v>
   <v>       0.00000000      -0.00402473      -0.08898246 </v>
   <v>       0.00000000       0.00371677      -0.11516146 </v>
   <v>       0.00000000      -0.03514724      -0.31857255 </v>
   <v>       0.00000000      -0.05831736       0.04425999 </v>
   <v>       0.00000000       0.06919081       0.07153572 </v>
   <v>       0.00000000      -0.06706142       0.08158284 </v>
   <v>       0.00000000       0.09727868       0.39512228 </v>
  </varray>
  <varray name="stress" >
   <v>     -15.34336906       0.00000000       0.00000000 </v>
   <v>       0.00000000     -15.14739482       0.82881072 </v>
   <v>       0.00000000       0.82881068       1.83539716 </v>
  </varray>
  <energy>
   <i name="e_fr_energy">    -69.82356208 </i>
   <i name="e_wo_entrp">    -69.78362688 </i>
   <i name="e_0_energy">    -69.81025035 </i>
  </energy>
  <time name="totalsc">   13.69   13.83</time>
 </calculation>
 <calculation>
  <scstep>
   <time name="dav">    1.18    1.19</time>
   <time name="total">    1.32    1.33</time>
   <energy>
    <i name="alphaZ">    521.04204123 </i>
    <i name="ewald"> 105126.39853328 </i>
    <i name="hartreedc">-126799.66369334 </i>
    <i name="XCdc">    719.94244845 </i>
    <i name="pawpsdc">  21136.14205888 </i>
    <i name="pawaedc"> -22863.57890995 </i>
    <i name="eentropy">     -0.04245155 </i>
    <i name="bandstr">   -183.25240987 </i>
    <i name="atom">  22280.27950853 </i>
    <i name="e_fr_energy">    -62.73287433 </i>
    <i name="e_wo_entrp">    -62.69042278 </i>
    <i name="e_0_energy">    -62.71872381 </i>
   </energy>
  </scstep>
  <scstep>
   <time name="dav">    1.51    1.52</time>
   <time name="total">    1.64    1.66</time>
   <energy>
    <i name="e_fr_energy">    -62.87313400 </i>
    <i name="e_wo_entrp">    -62.83249843 </i>
    <i name="e_0_energy">    -62.85958881 </i>
   </energy>
  </scstep>
  <scstep>
   <time name="dav">    1.34    1.35</time>
   <time name="total">    1.48    1.49</time>
   <energy>
    <i name="e_fr_energy">    -62.87968598 </i>
    <i name="e_wo_entrp">    -62.84933467 </i>
    <i name="e_0_energy">    -62.86956888 </i>
   </energy>
  </scstep>
  <scstep>
   <time name="dav">    1.40    1.41</time>
   <time name="total">    1.53    1.54</time>
   <energy>
    <i name="e_fr_energy">    -62.85368394 </i>
    <i name="e_wo_entrp">    -62.81627292 </i>
    <i name="e_0_energy">    -62.84121360 </i>
   </energy>
  </scstep>
  <scstep>
   <time name="dav">    1.59    1.61</time>
   <time name="total">    1.73    1.74</time>
   <energy>
    <i name="e_fr_energy">    -62.85276272 </i>
    <i name="e_wo_entrp">    -62.80282654 </i>
    <i name="e_0_energy">    -62.83611733 </i>
   </energy>
  </scstep>
  <scstep>
   <time name="dav">    1.43    1.44</time>
   <time name="total">    1.57    1.60</time>
   <energy>
    <i name="e_fr_energy">    -62.84989273 </i>
    <i name="e_wo_entrp">    -62.81226520 </i>
    <i name="e_0_energy">    -62.83735022 </i>
   </energy>
  </scstep>
  <scstep>
   <time name="dav">    1.46    1.48</time>
   <time name="total">    1.60    1.61</time>
   <energy>
    <i name="e_fr_energy">    -62.84603288 </i>
    <i name="e_wo_entrp">    -62.80240555 </i>
    <i name="e_0_energy">    -62.83149044 </i>
   </energy>
  </scstep>
  <scstep>
   <time name="dav">    1.46    1.47</time>
   <time name="total">    1.60    1.61</time>
   <energy>
    <i name="e_fr_energy">    -62.84618677 </i>
    <i name="e_wo_entrp">    -62.80337125 </i>
    <i name="e_0_energy">    -62.83191493 </i>
   </energy>
  </scstep>
  <scstep>
   <time name="dav">    1.16    1.17</time>
   <time name="total">    1.19    1.20</time>
   <energy>
    <i name="alphaZ">    521.04204123 </i>
    <i name="ewald"> 105126.39853328 </i>
    <i name="hartreedc">-126795.58357313 </i>
    <i name="XCdc">    719.92945195 </i>
    <i name="pawpsdc">  21162.04224998 </i>
    <i name="pawaedc"> -22889.95126746 </i>
    <i name="eentropy">     -0.04231508 </i>
    <i name="bandstr">   -186.96064805 </i>
    <i name="atom">  22280.27950853 </i>
    <i name="e_fr_energy">    -62.84601875 </i>
    <i name="e_wo_entrp">    -62.80370367 </i>
    <i name="e_0_energy">    -62.83191372 </i>
   </energy>
  </scstep>
  <structure>
   <crystal>
    <varray name="basis" >
     <v>       3.63000011       0.00000000       0.00000000 </v>
     <v>       0.00000000       3.63000011       0.00000000 </v>
     <v>       0.00000000       0.00000000      27.70499992 </v>
    </varray>
    <i name="volume">    365.06603650 </i>
    <varray name="rec_basis" >
     <v>       0.27548208       0.00000000       0.00000000 </v>
     <v>       0.00000000       0.27548208       0.00000000 </v>
     <v>       0.00000000       0.00000000       0.03609457 </v>
    </varray>
   </crystal>
   <varray name="positions" >
    <v>       0.00000000       0.00000042       0.00267090 </v>
    <v>       0.50000000       0.50001570       0.00271672 </v>
    <v>       0.00000000       0.50008291       0.06454570 </v>
    <v>       0.50000000      -0.00020073       0.06454660 </v>
    <v>       0.00000000      -0.00004781       0.12759503 </v>
    <v>       0.50000000       0.50013968       0.12757753 </v>
    <v>       0.00000000       0.49958924       0.19195336 </v>
    <v>       0.50000000       0.00063928       0.19193471 </v>
    <v>       0.00000000      -0.00077569       0.25391776 </v>
    <v>       0.50000000       0.50041345       0.25479102 </v>
    <v>       0.00000000       0.49892880       0.31750498 </v>
    <v>       0.50000000       0.00030115       0.31751039 </v>
    <v>       0.00000000       0.00095239       0.37800103 </v>
    <v>       0.50000000       0.49690301       0.37948423 </v>
    <v>       0.00000000       0.49958571       0.43927050 </v>
    <v>       0.50000000      -0.00572746       0.43900783 </v>
    <v>       1.00000000       0.01066736       0.50785410 </v>
    <v>       1.00000000       0.14384984       0.52811439 </v>
   </varray>
  </structure>
  <varray name="forces" >
   <v>       0.00000000       0.00052844      -0.12679398 </v>
   <v>       0.00000000      -0.00294754      -0.12762376 </v>
   <v>       0.00000000      -0.00548721       0.09669431 </v>
   <v>       0.00000000       0.00638841       0.09626288 </v>
   <v>       0.00000000      -0.00012232       0.19370505 </v>
   <v>       0.00000000      -0.00221134       0.19354795 </v>
   <v>       0.00000000       0.00447120      -0.11070808 </v>
   <v>       0.00000000      -0.01036290      -0.10825567 </v>
   <v>       0.00000000       0.00328818       0.02169925 </v>
   <v>       0.00000000      -0.00333048      -0.10679337 </v>
   <v>       0.00000000       0.03625995      -0.27267405 </v>
   <v>       0.00000000      -0.04536372      -0.27486493 </v>
   <v>       0.00000000      -0.08043234       0.12139286 </v>
   <v>       0.00000000       0.05481417      -0.15123669 </v>
   <v>       0.00000000      -0.01753506       0.07334522 </v>
   <v>       0.00000000       0.04733032       0.10869866 </v>
   <v>       0.00000000      -0.43195365      -0.38778707 </v>
   <v>       0.00000000       0.44666588       0.76139141 </v>
  </varray>
  <varray name="stress" >
   <v>     -13.97692497       0.00000000       0.00000000 </v>
   <v>       0.00000000     -13.06446602       1.71686629 </v>
   <v>       0.00000000       1.71686633       4.31446046 </v>
  </varray>
  <energy>
   <i name="e_fr_energy">    -69.85557562 </i>
   <i name="e_wo_entrp">    -69.81326053 </i>
   <i name="e_0_energy">    -69.84147059 </i>
  </energy>
  <time name="totalsc">   15.55   15.76</time>
 </calculation>
 <calculation>
  <scstep>
   <time name="dav">    1.19    1.20</time>
   <time name="total">    1.33    1.34</time>
   <energy>
    <i name="alphaZ">    521.04204123 </i>
    <i name="ewald"> 105363.85364341 </i>
    <i name="hartreedc">-127033.36410806 </i>
    <i name="XCdc">    719.92920111 </i>
    <i name="pawpsdc">  21162.04485476 </i>
    <i name="pawaedc"> -22889.90472104 </i>
    <i name="eentropy">     -0.04240095 </i>
    <i name="bandstr">   -186.68905211 </i>
    <i name="atom">  22280.27950853 </i>
    <i name="e_fr_energy">    -62.85103312 </i>
    <i name="e_wo_entrp">    -62.80863217 </i>
    <i name="e_0_energy">    -62.83689947 </i>
   </energy>
  </scstep>
  <scstep>
   <time name="dav">    1.51    1.52</time>
   <time name="total">    1.65    1.66</time>
   <energy>
    <i name="e_fr_energy">    -62.85913514 </i>
    <i name="e_wo_entrp">    -62.81380543 </i>
    <i name="e_0_energy">    -62.84402524 </i>
   </energy>
  </scstep>
  <scstep>
   <time name="dav">    1.36    1.38</time>
   <time name="total">    1.50    1.51</time>
   <energy>
    <i name="e_fr_energy">    -62.85938824 </i>
    <i name="e_wo_entrp">    -62.81804666 </i>
    <i name="e_0_energy">    -62.84560771 </i>
   </energy>
  </scstep>
  <scstep>
   <time name="dav">    1.25    1.26</time>
   <time name="total">    1.39    1.40</time>
   <energy>
    <i name="e_fr_energy">    -62.85797423 </i>
    <i name="e_wo_entrp">    -62.81752438 </i>
    <i name="e_0_energy">    -62.84449095 </i>
   </energy>
  </scstep>
  <scstep>
   <time name="dav">    1.20    1.21</time>
   <time name="total">    1.34    1.35</time>
   <energy>
    <i name="e_fr_energy">    -62.85762799 </i>
    <i name="e_wo_entrp">    -62.81279334 </i>
    <i name="e_0_energy">    -62.84268311 </i>
   </energy>
  </scstep>
  <scstep>
   <time name="dav">    1.23    1.24</time>
   <time name="total">    1.37    1.38</time>
   <energy>
    <i name="e_fr_energy">    -62.85758544 </i>
    <i name="e_wo_entrp">    -62.81581783 </i>
    <i name="e_0_energy">    -62.84366291 </i>
   </energy>
  </scstep>
  <scstep>
   <time name="dav">    1.15    1.16</time>
   <time name="total">    1.29    1.30</time>
   <energy>
    <i name="e_fr_energy">    -62.85729706 </i>
    <i name="e_wo_entrp">    -62.81447676 </i>
    <i name="e_0_energy">    -62.84302363 </i>
   </energy>
  </scstep>
  <scstep>
   <time name="dav">    0.86    0.87</time>
   <time name="total">    0.90    0.91</time>
   <energy>
    <i name="alphaZ">    521.04204123 </i>
    <i name="ewald"> 105363.85364341 </i>
    <i name="hartreedc">-127032.35108469 </i>
    <i name="XCdc">    719.90206012 </i>
    <i name="pawpsdc">  21165.33359932 </i>
    <i name="pawaedc"> -22893.24468224 </i>
    <i name="eentropy">     -0.04283700 </i>
    <i name="bandstr">   -187.62956413 </i>
    <i name="atom">  22280.27950853 </i>
    <i name="e_fr_energy">    -62.85731546 </i>
    <i name="e_wo_entrp">    -62.81447846 </i>
    <i name="e_0_energy">    -62.84303646 </i>
   </energy>
  </scstep>
  <structure>
   <crystal>
    <varray name="basis" >
     <v>       3.63000011       0.00000000       0.00000000 </v>
     <v>       0.00000000       3.63000011       0.00000000 </v>
     <v>       0.00000000       0.00000000      27.70499992 </v>
    </varray>
    <i name="volume">    365.06603650 </i>
    <varray name="rec_basis" >
     <v>       0.27548208       0.00000000       0.00000000 </v>
     <v>       0.00000000       0.27548208       0.00000000 </v>
     <v>       0.00000000       0.00000000       0.03609457 </v>
    </varray>
   </crystal>
   <varray name="positions" >
    <v>       0.00000000       0.00001583       0.00271811 </v>
    <v>       0.50000000       0.49999017       0.00276980 </v>
    <v>       0.00000000       0.50006751       0.06473570 </v>
    <v>       0.50000000      -0.00018800       0.06473610 </v>
    <v>       0.00000000      -0.00011757       0.12751744 </v>
    <v>       0.50000000       0.50020947       0.12749265 </v>
    <v>       0.00000000       0.49961232       0.19190333 </v>
    <v>       0.50000000       0.00060280       0.19188519 </v>
    <v>       0.00000000      -0.00074745       0.25393067 </v>
    <v>       0.50000000       0.50035761       0.25473741 </v>
    <v>       0.00000000       0.49893173       0.31734392 </v>
    <v>       0.50000000       0.00018582       0.31734917 </v>
    <v>       0.00000000       0.00087265       0.37768496 </v>
    <v>       0.50000000       0.49654432       0.37900405 </v>
    <v>       0.00000000       0.49910424       0.43893596 </v>
    <v>       0.50000000      -0.00557628       0.43868922 </v>
    <v>       1.00000000       0.01031757       0.50831882 </v>
    <v>       1.00000000       0.14513450       0.52924427 </v>
   </varray>
  </structure>
  <varray name="forces" >
   <v>       0.00000000      -0.00074813      -0.11353887 </v>
   <v>       0.00000000      -0.00243086      -0.11533357 </v>
   <v>       0.00000000      -0.00590542       0.03561624 </v>
   <v>       0.00000000       0.00562627       0.03518646 </v>
   <v>       0.00000000       0.00212511       0.22351738 </v>
   <v>       0.00000000      -0.00555750       0.22560054 </v>
   <v>       0.00000000       0.00259473      -0.10362329 </v>
   <v>       0.00000000      -0.00946127      -0.10138414 </v>
   <v>       0.00000000       0.00151470      -0.00645422 </v>
   <v>       0.00000000      -0.00325127      -0.12240338 </v>
   <v>       0.00000000       0.03419076      -0.28716834 </v>
   <v>       0.00000000      -0.04664673      -0.28979543 </v>
   <v>       0.00000000      -0.08704516       0.14643314 </v>
   <v>       0.00000000       0.06970686      -0.09262150 </v>
   <v>       0.00000000      -0.00710210       0.09889013 </v>
   <v>       0.00000000       0.03296772       0.12377524 </v>
   <v>       0.00000000      -0.04292045       0.03982480 </v>
   <v>       0.00000000       0.06234273       0.30347882 </v>
  </varray>
  <varray name="stress" >
   <v>     -10.27003760       0.00000000       0.00000000 </v>
   <v>       0.00000000     -10.20274918       0.77403524 </v>
   <v>       0.00000000       0.77403530       6.53436213 </v>
  </varray>
  <energy>
   <i name="e_fr_energy">    -69.87290144 </i>
   <i name="e_wo_entrp">    -69.83006443 </i>
   <i name="e_0_energy">    -69.85862243 </i>
  </energy>
  <time name="totalsc">   12.65   12.84</time>
 </calculation>
 <calculation>
  <scstep>
   <time name="dav">    1.15    1.16</time>
   <time name="total">    1.29    1.30</time>
   <energy>
    <i name="alphaZ">    521.04204123 </i>
[...]
       <r>     8.1606     1.5751   104.1792 </r>
       <r>     8.2362     2.6421   104.3788 </r>
       <r>     8.3118     3.6341   104.6534 </r>
       <r>     8.3873     3.6229   104.9271 </r>
       <r>     8.4629     2.8115   105.1395 </r>
       <r>     8.5384     1.8711   105.2809 </r>
       <r>     8.6140     1.2463   105.3751 </r>
       <r>     8.6895     1.4979   105.4883 </r>
       <r>     8.7651     3.0051   105.7153 </r>
       <r>     8.8407     5.1755   106.1064 </r>
       <r>     8.9162     6.9111   106.6285 </r>
       <r>     8.9918     7.5917   107.2021 </r>
       <r>     9.0673     7.0627   107.7358 </r>
       <r>     9.1429     5.3648   108.1411 </r>
       <r>     9.2184     2.9832   108.3665 </r>
       <r>     9.2940     0.9109   108.4353 </r>
       <r>     9.3695     0.1639   108.4477 </r>
       <r>     9.4451     1.1712   108.5362 </r>
       <r>     9.5207     3.3340   108.7881 </r>
       <r>     9.5962     5.2841   109.1874 </r>
       <r>     9.6718     6.0254   109.6426 </r>
       <r>     9.7473     5.5726   110.0637 </r>
       <r>     9.8229     4.5024   110.4039 </r>
       <r>     9.8984     3.5414   110.6714 </r>
       <r>     9.9740     3.1479   110.9093 </r>
       <r>    10.0496     3.0554   111.1401 </r>
       <r>    10.1251     2.8745   111.3573 </r>
       <r>    10.2007     2.9324   111.5789 </r>
       <r>    10.2762     3.7578   111.8628 </r>
       <r>    10.3518     5.2319   112.2581 </r>
       <r>    10.4273     6.8207   112.7734 </r>
       <r>    10.5029     7.9225   113.3720 </r>
       <r>    10.5784     7.7260   113.9558 </r>
       <r>    10.6540     5.8191   114.3955 </r>
       <r>    10.7296     3.0352   114.6248 </r>
       <r>    10.8051     0.7679   114.6828 </r>
       <r>    10.8807    -0.2621   114.6630 </r>
       <r>    10.9562     0.0305   114.6653 </r>
       <r>    11.0318     1.5734   114.7842 </r>
       <r>    11.1073     3.7319   115.0662 </r>
       <r>    11.1829     5.0514   115.4478 </r>
       <r>    11.2585     4.4697   115.7855 </r>
       <r>    11.3340     2.5497   115.9782 </r>
       <r>    11.4096     0.7636   116.0359 </r>
       <r>    11.4851    -0.0876   116.0293 </r>
       <r>    11.5607    -0.2182   116.0128 </r>
       <r>    11.6362    -0.1193   116.0038 </r>
       <r>    11.7118    -0.0393   116.0008 </r>
       <r>    11.7874    -0.0089   116.0001 </r>
       <r>    11.8629    -0.0014   116.0000 </r>
       <r>    11.9385    -0.0002   116.0000 </r>
       <r>    12.0140    -0.0000   116.0000 </r>
       <r>    12.0896    -0.0000   116.0000 </r>
       <r>    12.1651    -0.0000   116.0000 </r>
       <r>    12.2407    -0.0000   116.0000 </r>
       <r>    12.3162    -0.0000   116.0000 </r>
       <r>    12.3918    -0.0000   116.0000 </r>
       <r>    12.4674    -0.0000   116.0000 </r>
       <r>    12.5429     0.0000   116.0000 </r>
       <r>    12.6185     0.0000   116.0000 </r>
       <r>    12.6940     0.0000   116.0000 </r>
       <r>    12.7696     0.0000   116.0000 </r>
       <r>    12.8451     0.0000   116.0000 </r>
       <r>    12.9207     0.0000   116.0000 </r>
       <r>    12.9963     0.0000   116.0000 </r>
       <r>    13.0718     0.0000   116.0000 </r>
       <r>    13.1474     0.0000   116.0000 </r>
       <r>    13.2229     0.0000   116.0000 </r>
      </set>
      <set comment="spin 2">
       <r>    -9.4440     0.0000     0.0000 </r>
       <r>    -9.3684     0.0000     0.0000 </r>
       <r>    -9.2929     0.0000     0.0000 </r>
       <r>    -9.2173     0.0000     0.0000 </r>
       <r>    -9.1418     0.0000     0.0000 </r>
       <r>    -9.0662    -0.0000    -0.0000 </r>
       <r>    -8.9906    -0.0000    -0.0000 </r>
       <r>    -8.9151    -0.0000    -0.0000 </r>
       <r>    -8.8395    -0.0000    -0.0000 </r>
       <r>    -8.7640    -0.0000    -0.0000 </r>
       <r>    -8.6884    -0.0000    -0.0000 </r>
       <r>    -8.6129    -0.0000    -0.0000 </r>
       <r>    -8.5373    -0.0000    -0.0000 </r>
       <r>    -8.4617    -0.0000    -0.0000 </r>
       <r>    -8.3862    -0.0000    -0.0000 </r>
       <r>    -8.3106    -0.0000    -0.0000 </r>
       <r>    -8.2351    -0.0000    -0.0000 </r>
       <r>    -8.1595    -0.0000    -0.0000 </r>
       <r>    -8.0840    -0.0000    -0.0000 </r>
       <r>    -8.0084    -0.0003    -0.0000 </r>
       <r>    -7.9329    -0.0018    -0.0002 </r>
       <r>    -7.8573    -0.0072    -0.0007 </r>
       <r>    -7.7817    -0.0186    -0.0021 </r>
       <r>    -7.7062    -0.0227    -0.0038 </r>
       <r>    -7.6306     0.0260    -0.0019 </r>
       <r>    -7.5551     0.1731     0.0112 </r>
       <r>    -7.4795     0.3691     0.0391 </r>
       <r>    -7.4040     0.4585     0.0737 </r>
       <r>    -7.3284     0.3503     0.1002 </r>
       <r>    -7.2528     0.1412     0.1109 </r>
       <r>    -7.1773     0.0008     0.1109 </r>
       <r>    -7.1017     0.0207     0.1125 </r>
       <r>    -7.0262     0.1891     0.1268 </r>
       <r>    -6.9506     0.3905     0.1563 </r>
       <r>    -6.8751     0.4550     0.1907 </r>
       <r>    -6.7995     0.3268     0.2154 </r>
       <r>    -6.7240     0.1294     0.2251 </r>
       <r>    -6.6484    -0.0001     0.2251 </r>
       <r>    -6.5728    -0.0536     0.2211 </r>
       <r>    -6.4973    -0.0967     0.2138 </r>
       <r>    -6.4217    -0.1221     0.2046 </r>
       <r>    -6.3462     0.0585     0.2090 </r>
       <r>    -6.2706     0.6971     0.2616 </r>
       <r>    -6.1951     1.6628     0.3873 </r>
       <r>    -6.1195     2.2503     0.5573 </r>
       <r>    -6.0439     1.8867     0.6999 </r>
       <r>    -5.9684     0.9035     0.7681 </r>
       <r>    -5.8928     0.1871     0.7823 </r>
       <r>    -5.8173     0.2876     0.8040 </r>
       <r>    -5.7417     1.0409     0.8826 </r>
       <r>    -5.6662     1.7289     1.0133 </r>
       <r>    -5.5906     1.6897     1.1409 </r>
       <r>    -5.5151     0.9907     1.2158 </r>
       <r>    -5.4395     0.2502     1.2347 </r>
       <r>    -5.3639    -0.1490     1.2234 </r>
       <r>    -5.2884    -0.2614     1.2037 </r>
       <r>    -5.2128    -0.1010     1.1960 </r>
       <r>    -5.1373     0.6204     1.2429 </r>
       <r>    -5.0617     2.0292     1.3962 </r>
       <r>    -4.9862     3.4373     1.6560 </r>
       <r>    -4.9106     3.7183     1.9369 </r>
       <r>    -4.8350     2.6840     2.1397 </r>
       <r>    -4.7595     1.4877     2.2521 </r>
       <r>    -4.6839     1.1960     2.3425 </r>
       <r>    -4.6084     1.5512     2.4597 </r>
       <r>    -4.5328     1.6396     2.5835 </r>
       <r>    -4.4573     1.2586     2.6786 </r>
       <r>    -4.3817     1.0231     2.7559 </r>
       <r>    -4.3062     1.4108     2.8625 </r>
       <r>    -4.2306     2.2194     3.0302 </r>
       <r>    -4.1550     2.9567     3.2536 </r>
       <r>    -4.0795     3.4698     3.5158 </r>
       <r>    -4.0039     3.9199     3.8120 </r>
       <r>    -3.9284     4.1754     4.1274 </r>
       <r>    -3.8528     3.7035     4.4073 </r>
       <r>    -3.7773     2.3570     4.5854 </r>
       <r>    -3.7017     0.8999     4.6534 </r>
       <r>    -3.6261     0.4343     4.6862 </r>
       <r>    -3.5506     1.3705     4.7897 </r>
       <r>    -3.4750     2.8541     5.0054 </r>
       <r>    -3.3995     3.3727     5.2602 </r>
       <r>    -3.3239     2.4372     5.4443 </r>
       <r>    -3.2484     1.3188     5.5440 </r>
       <r>    -3.1728     1.6329     5.6674 </r>
       <r>    -3.0972     3.7555     5.9511 </r>
       <r>    -3.0217     6.9389     6.4754 </r>
       <r>    -2.9461    10.2198     7.2476 </r>
       <r>    -2.8706    12.5816     8.1982 </r>
       <r>    -2.7950    12.9184     9.1742 </r>
       <r>    -2.7195    11.2123    10.0214 </r>
       <r>    -2.6439     9.3369    10.7269 </r>
       <r>    -2.5684     9.2476    11.4256 </r>
       <r>    -2.4928    11.1426    12.2675 </r>
       <r>    -2.4172    14.2473    13.3440 </r>
       <r>    -2.3417    17.8211    14.6905 </r>
       <r>    -2.2661    20.7579    16.2588 </r>
       <r>    -2.1906    21.5440    17.8866 </r>
       <r>    -2.1150    19.4734    19.3580 </r>
       <r>    -2.0395    15.7324    20.5467 </r>
       <r>    -1.9639    12.6398    21.5017 </r>
       <r>    -1.8883    11.8161    22.3945 </r>
       <r>    -1.8128    13.3620    23.4040 </r>
       <r>    -1.7372    16.1924    24.6275 </r>
       <r>    -1.6617    18.7670    26.0454 </r>
       <r>    -1.5861    19.8971    27.5488 </r>
       <r>    -1.5106    19.5168    29.0234 </r>
       <r>    -1.4350    18.9201    30.4529 </r>
       <r>    -1.3595    19.6501    31.9376 </r>
       <r>    -1.2839    22.1815    33.6136 </r>
       <r>    -1.2083    26.0638    35.5829 </r>
       <r>    -1.1328    30.3853    37.8787 </r>
       <r>    -1.0572    33.5228    40.4115 </r>
       <r>    -0.9817    33.7815    42.9639 </r>
       <r>    -0.9061    31.3155    45.3300 </r>
       <r>    -0.8306    28.1801    47.4592 </r>
       <r>    -0.7550    25.7436    49.4043 </r>
       <r>    -0.6794    24.0580    51.2220 </r>
       <r>    -0.6039    23.5995    53.0051 </r>
       <r>    -0.5283    24.5324    54.8587 </r>
       <r>    -0.4528    25.3406    56.7733 </r>
       <r>    -0.3772    25.1850    58.6762 </r>
       <r>    -0.3017    25.8253    60.6275 </r>
       <r>    -0.2261    29.0267    62.8206 </r>
       <r>    -0.1506    33.6400    65.3624 </r>
       <r>    -0.0750    36.6794    68.1337 </r>
       <r>     0.0006    36.7790    70.9126 </r>
       <r>     0.0761    35.6981    73.6098 </r>
       <r>     0.1517    35.8548    76.3189 </r>
       <r>     0.2272    36.6667    79.0893 </r>
       <r>     0.3028    34.5770    81.7018 </r>
       <r>     0.3783    27.3131    83.7655 </r>
       <r>     0.4539    16.8855    85.0413 </r>
       <r>     0.5295     7.5123    85.6089 </r>
       <r>     0.6050     1.7933    85.7444 </r>
       <r>     0.6806    -0.3071    85.7212 </r>
       <r>     0.7561     0.0843    85.7275 </r>
       <r>     0.8317     1.8879    85.8702 </r>
       <r>     0.9072     3.8538    86.1614 </r>
       <r>     0.9828     4.6508    86.5128 </r>
       <r>     1.0583     3.8362    86.8026 </r>
       <r>     1.1339     2.1640    86.9661 </r>
       <r>     1.2095     0.7191    87.0204 </r>
       <r>     1.2850     0.0422    87.0236 </r>
       <r>     1.3606    -0.0140    87.0226 </r>
       <r>     1.4361     0.1436    87.0334 </r>
       <r>     1.5117     0.3967    87.0634 </r>
       <r>     1.5872     1.0972    87.1463 </r>
       <r>     1.6628     2.6321    87.3452 </r>
       <r>     1.7384     4.7157    87.7015 </r>
       <r>     1.8139     6.2673    88.1750 </r>
       <r>     1.8895     6.4410    88.6617 </r>
       <r>     1.9650     5.5727    89.0827 </r>
       <r>     2.0406     4.3536    89.4117 </r>
       <r>     2.1161     2.8714    89.6286 </r>
       <r>     2.1917     1.5265    89.7440 </r>
       <r>     2.2673     1.5500    89.8611 </r>
       <r>     2.3428     3.3308    90.1127 </r>
       <r>     2.4184     5.2717    90.5110 </r>
       <r>     2.4939     5.5204    90.9281 </r>
       <r>     2.5695     4.1925    91.2449 </r>
       <r>     2.6450     2.8898    91.4633 </r>
       <r>     2.7206     2.7300    91.6695 </r>
       <r>     2.7961     3.4415    91.9295 </r>
       <r>     2.8717     3.7961    92.2164 </r>
       <r>     2.9473     3.0057    92.4435 </r>
       <r>     3.0228     1.7695    92.5772 </r>
       <r>     3.0984     1.2688    92.6730 </r>
       <r>     3.1739     1.4997    92.7863 </r>
       <r>     3.2495     1.5354    92.9023 </r>
       <r>     3.3250     1.0400    92.9809 </r>
       <r>     3.4006     0.5723    93.0242 </r>
       <r>     3.4762     0.5904    93.0688 </r>
       <r>     3.5517     0.9818    93.1430 </r>
       <r>     3.6273     1.5297    93.2585 </r>
       <r>     3.7028     2.1515    93.4211 </r>
       <r>     3.7784     2.6672    93.6226 </r>
       <r>     3.8539     2.8315    93.8366 </r>
       <r>     3.9295     2.5256    94.0274 </r>
       <r>     4.0050     1.7770    94.1616 </r>
       <r>     4.0806     0.8372    94.2249 </r>
       <r>     4.1562     0.1106    94.2333 </r>
       <r>     4.2317    -0.1828    94.2194 </r>
       <r>     4.3073    -0.0531    94.2154 </r>
       <r>     4.3828     0.4882    94.2523 </r>
       <r>     4.4584     1.3618    94.3552 </r>
       <r>     4.5339     2.1585    94.5183 </r>
       <r>     4.6095     2.3018    94.6922 </r>
       <r>     4.6851     1.7151    94.8218 </r>
       <r>     4.7606     1.0912    94.9043 </r>
       <r>     4.8362     1.1034    94.9876 </r>
       <r>     4.9117     1.5617    95.1056 </r>
       <r>     4.9873     1.8550    95.2458 </r>
       <r>     5.0628     1.8789    95.3877 </r>
       <r>     5.1384     1.8818    95.5299 </r>
       <r>     5.2139     1.9059    95.6739 </r>
       <r>     5.2895     2.0054    95.8254 </r>
       <r>     5.3651     2.3474    96.0028 </r>
       <r>     5.4406     2.7192    96.2082 </r>
       <r>     5.5162     2.6331    96.4072 </r>
       <r>     5.5917     2.1454    96.5693 </r>
       <r>     5.6673     2.1084    96.7286 </r>
       <r>     5.7428     3.3092    96.9786 </r>
       <r>     5.8184     5.3969    97.3864 </r>
       <r>     5.8940     6.8708    97.9055 </r>
       <r>     5.9695     6.3634    98.3863 </r>
       <r>     6.0451     4.0323    98.6910 </r>
       <r>     6.1206     1.4516    98.8007 </r>
       <r>     6.1962     0.0796    98.8067 </r>
       <r>     6.2717     0.2121    98.8227 </r>
       <r>     6.3473     1.1996    98.9133 </r>
       <r>     6.4228     2.0988    99.0719 </r>
       <r>     6.4984     2.3561    99.2499 </r>
       <r>     6.5740     2.1623    99.4133 </r>
       <r>     6.6495     2.0301    99.5667 </r>
       <r>     6.7251     2.3524    99.7444 </r>
       <r>     6.8006     3.3332    99.9963 </r>
       <r>     6.8762     4.6647   100.3487 </r>
       <r>     6.9517     5.4770   100.7626 </r>
       <r>     7.0273     5.1092   101.1486 </r>
       <r>     7.1029     3.7725   101.4336 </r>
       <r>     7.1784     2.4028   101.6152 </r>
       <r>     7.2540     1.8382   101.7541 </r>
       <r>     7.3295     2.1481   101.9164 </r>
       <r>     7.4051     2.9547   102.1396 </r>
       <r>     7.4806     4.0079   102.4424 </r>
       <r>     7.5562     4.9347   102.8153 </r>
       <r>     7.6318     4.9913   103.1924 </r>
       <r>     7.7073     3.8354   103.4822 </r>
       <r>     7.7829     2.2345   103.6510 </r>
       <r>     7.8584     1.3393   103.7522 </r>
       <r>     7.9340     1.3372   103.8533 </r>
       <r>     8.0095     1.4404   103.9621 </r>
       <r>     8.0851     1.2981   104.0602 </r>
       <r>     8.1606     1.5749   104.1792 </r>
       <r>     8.2362     2.6419   104.3788 </r>
       <r>     8.3118     3.6341   104.6534 </r>
       <r>     8.3873     3.6230   104.9271 </r>
       <r>     8.4629     2.8117   105.1395 </r>
       <r>     8.5384     1.8712   105.2809 </r>
       <r>     8.6140     1.2460   105.3751 </r>
       <r>     8.6895     1.4971   105.4882 </r>
       <r>     8.7651     3.0043   105.7152 </r>
       <r>     8.8407     5.1752   106.1062 </r>
       <r>     8.9162     6.9116   106.6284 </r>
       <r>     8.9918     7.5924   107.2021 </r>
       <r>     9.0673     7.0632   107.7357 </r>
       <r>     9.1429     5.3650   108.1411 </r>
       <r>     9.2184     2.9834   108.3665 </r>
       <r>     9.2940     0.9110   108.4353 </r>
       <r>     9.3695     0.1639   108.4477 </r>
       <r>     9.4451     1.1711   108.5362 </r>
       <r>     9.5207     3.3338   108.7881 </r>
       <r>     9.5962     5.2839   109.1873 </r>
       <r>     9.6718     6.0252   109.6426 </r>
       <r>     9.7473     5.5726   110.0636 </r>
       <r>     9.8229     4.5026   110.4038 </r>
       <r>     9.8984     3.5416   110.6714 </r>
       <r>     9.9740     3.1480   110.9092 </r>
       <r>    10.0496     3.0554   111.1401 </r>
       <r>    10.1251     2.8745   111.3573 </r>
       <r>    10.2007     2.9322   111.5788 </r>
       <r>    10.2762     3.7575   111.8627 </r>
       <r>    10.3518     5.2317   112.2580 </r>
       <r>    10.4273     6.8209   112.7734 </r>
       <r>    10.5029     7.9228   113.3720 </r>
       <r>    10.5784     7.7262   113.9558 </r>
       <r>    10.6540     5.8192   114.3954 </r>
       <r>    10.7296     3.0353   114.6248 </r>
       <r>    10.8051     0.7680   114.6828 </r>
       <r>    10.8807    -0.2620   114.6630 </r>
       <r>    10.9562     0.0304   114.6653 </r>
       <r>    11.0318     1.5731   114.7842 </r>
       <r>    11.1073     3.7316   115.0661 </r>
       <r>    11.1829     5.0512   115.4478 </r>
       <r>    11.2585     4.4699   115.7855 </r>
       <r>    11.3340     2.5501   115.9782 </r>
       <r>    11.4096     0.7639   116.0359 </r>
       <r>    11.4851    -0.0875   116.0293 </r>
       <r>    11.5607    -0.2182   116.0128 </r>
       <r>    11.6362    -0.1193   116.0038 </r>
       <r>    11.7118    -0.0394   116.0008 </r>
       <r>    11.7874    -0.0089   116.0001 </r>
       <r>    11.8629    -0.0014   116.0000 </r>
       <r>    11.9385    -0.0002   116.0000 </r>
       <r>    12.0140    -0.0000   116.0000 </r>
       <r>    12.0896    -0.0000   116.0000 </r>
       <r>    12.1651    -0.0000   116.0000 </r>
       <r>    12.2407    -0.0000   116.0000 </r>
       <r>    12.3162    -0.0000   116.0000 </r>
       <r>    12.3918    -0.0000   116.0000 </r>
       <r>    12.4674    -0.0000   116.0000 </r>
       <r>    12.5429     0.0000   116.0000 </r>
       <r>    12.6185     0.0000   116.0000 </r>
       <r>    12.6940     0.0000   116.0000 </r>
       <r>    12.7696     0.0000   116.0000 </r>
       <r>    12.8451     0.0000   116.0000 </r>
       <r>    12.9207     0.0000   116.0000 </r>
       <r>    12.9963     0.0000   116.0000 </r>
       <r>    13.0718     0.0000   116.0000 </r>
       <r>    13.1474     0.0000   116.0000 </r>
       <r>    13.2229     0.0000   116.0000 </r>
      </set>
     </set>
    </array>
   </total>
  </dos>
 </calculation>
 <structure name="finalpos" >
  <crystal>
   <varray name="basis" >
    <v>       3.63000011       0.00000000       0.00000000 </v>
    <v>       0.00000000       3.63000011       0.00000000 </v>
    <v>       0.00000000       0.00000000      27.70499992 </v>
   </varray>
   <i name="volume">    365.06603650 </i>
   <varray name="rec_basis" >
    <v>       0.27548208       0.00000000       0.00000000 </v>
    <v>       0.00000000       0.27548208       0.00000000 </v>
    <v>       0.00000000       0.00000000       0.03609457 </v>
   </varray>
  </crystal>
  <varray name="positions" >
   <v>       0.00000000      -0.00194428      -0.00142513 </v>
   <v>       0.50000000       0.49771868      -0.00141975 </v>
   <v>       0.00000000       0.49788345       0.06171114 </v>
   <v>       0.50000000      -0.00215310       0.06171023 </v>
   <v>       0.00000000      -0.00226165       0.12527207 </v>
   <v>       0.50000000       0.49836591       0.12526529 </v>
   <v>       0.00000000       0.49823610       0.18844850 </v>
   <v>       0.50000000      -0.00156623       0.18844986 </v>
   <v>       0.00000000      -0.00141111       0.25046946 </v>
   <v>       0.50000000       0.49845557       0.25048985 </v>
   <v>       0.00000000       0.49898210       0.31354832 </v>
   <v>       0.50000000      -0.00144713       0.31354076 </v>
   <v>       0.00000000      -0.00074646       0.37675001 </v>
   <v>       0.50000000       0.49897989       0.37701217 </v>
   <v>       0.00000000       0.49961998       0.43965795 </v>
   <v>       0.50000000      -0.00090061       0.43967501 </v>
   <v>       1.00000000       0.06666890       0.52644496 </v>
   <v>       1.00000000       0.10283723       0.55339608 </v>
  </varray>
 </structure>
</modeling>
