unknown system                          
           1
     3.630000    0.000000    0.000000
     0.000000    3.630000    0.000000
     0.000000    0.000000   27.705000
   Cu   H 
    16     2
Direct configuration=     1
   0.00000000  0.00000000  0.00000000
   0.50000000  0.50000000  0.00000000
   0.00000000  0.50000000  0.06551164
   0.50000000  0.00000000  0.06551164
   0.00000000  0.00000000  0.12876120
   0.50000000  0.50000000  0.12876120
   0.00000000  0.50000000  0.19193187
   0.50000000  0.00000000  0.19193187
   0.00000000  0.00000000  0.25406550
   0.50000000  0.50000000  0.25406550
   0.00000000  0.50000000  0.31747855
   0.50000000  0.00000000  0.31747855
   0.00000000  0.00000000  0.38132233
   0.50000000  0.50000000  0.38132233
   0.00000000  0.50000000  0.44440075
   0.50000000  0.00000000  0.44440075
   1.00000000  1.00000000  0.50150658
   1.00000000  0.14531726  0.52054652
Direct configuration=     2
   0.00000000 -0.00001953  0.00043612
   0.50000000  0.50002121  0.00043842
   0.00000000  0.50000487  0.06510309
   0.50000000 -0.00002103  0.06510317
   0.00000000  0.00008487  0.12877736
   0.50000000  0.49991893  0.12878222
   0.00000000  0.49990587  0.19191272
   0.50000000  0.00012476  0.19190985
   0.00000000 -0.00017897  0.25402524
   0.50000000  0.50014163  0.25420830
   0.00000000  0.49999185  0.31748471
   0.50000000 -0.00005375  0.31748310
   0.00000000 -0.00018766  0.38115131
   0.50000000  0.50015790  0.38148530
   0.00000000  0.50052047  0.44376984
   0.50000000 -0.00116853  0.44372396
   1.00000000  0.99288452  0.50100889
   1.00000000  0.15318985  0.52219318
Direct configuration=     3
   0.00000000 -0.00001144  0.00025538
   0.50000000  0.50001242  0.00025672
   0.00000000  0.50000285  0.06527241
   0.50000000 -0.00001231  0.06527246
   0.00000000  0.00004970  0.12877066
   0.50000000  0.49995253  0.12877351
   0.00000000  0.49994488  0.19192065
   0.50000000  0.00007305  0.19191898
   0.00000000 -0.00010480  0.25404193
   0.50000000  0.50008293  0.25414912
   0.00000000  0.49999523  0.31748216
   0.50000000 -0.00003147  0.31748122
   0.00000000 -0.00010989  0.38122219
   0.50000000  0.50009246  0.38141776
   0.00000000  0.50030477  0.44403131
   0.50000000 -0.00068425  0.44400445
   1.00000000  0.99583343  0.50121515
   1.00000000  0.14992716  0.52151075
Direct configuration=     4
   0.00000000 -0.00002863  0.00070436
   0.50000000  0.50003311  0.00070757
   0.00000000  0.50001109  0.06487288
   0.50000000 -0.00003880  0.06487355
   0.00000000  0.00013113  0.12875164
   0.50000000  0.49987898  0.12876029
   0.00000000  0.49984585  0.19190997
   0.50000000  0.00020871  0.19190518
   0.00000000 -0.00030223  0.25400840
   0.50000000  0.50023358  0.25430689
   0.00000000  0.49995285  0.31749915
   0.50000000 -0.00006818  0.31749821
   0.00000000 -0.00024397  0.38097296
   0.50000000  0.50017642  0.38152148
   0.00000000  0.50074369  0.44336551
   0.50000000 -0.00192338  0.44328313
   1.00000000  0.99738271  0.50189733
   1.00000000  0.14932434  0.52215829
Direct configuration=     5
   0.00000000 -0.00007711  0.00196994
   0.50000000  0.50009142  0.00197841
   0.00000000  0.50003430  0.06374668
   0.50000000 -0.00011346  0.06374912
   0.00000000  0.00036067  0.12869804
   0.50000000  0.49967166  0.12872304
   0.00000000  0.49956671  0.19187984
   0.50000000  0.00059111  0.19186630
   0.00000000 -0.00085874  0.25391388
   0.50000000  0.50065823  0.25475161
   0.00000000  0.49983341  0.31754705
   0.50000000 -0.00017165  0.31754612
   0.00000000 -0.00062193  0.38027043
   0.50000000  0.50041307  0.38181385
   0.00000000  0.50198091  0.44148877
   0.50000000 -0.00541623  0.44124989
   1.00000000  0.00174978  0.50382023
   1.00000000  0.14762511  0.52398359
Direct configuration=     6
   0.00000000 -0.00005370  0.00218157
   0.50000000  0.50006856  0.00220132
   0.00000000  0.50004898  0.06398791
   0.50000000 -0.00013981  0.06398989
   0.00000000  0.00023734  0.12836502
   0.50000000  0.49981297  0.12837720
   0.00000000  0.49957351  0.19190204
   0.50000000  0.00060565  0.19188695
   0.00000000 -0.00083366  0.25391505
   0.50000000  0.50058433  0.25476351
   0.00000000  0.49956029  0.31753435
   0.50000000 -0.00002890  0.31753534
   0.00000000 -0.00014662  0.37958526
   0.50000000  0.49935333  0.38111051
   0.00000000  0.50125776  0.44081904
   0.50000000 -0.00551020  0.44057298
   1.00000000  0.00444213  0.50503812
   1.00000000  0.14648530  0.52523074
Direct configuration=     7
   0.00000000  0.00000042  0.00267090
   0.50000000  0.50001570  0.00271672
   0.00000000  0.50008291  0.06454570
   0.50000000 -0.00020073  0.06454660
   0.00000000 -0.00004781  0.12759503
   0.50000000  0.50013968  0.12757753
   0.00000000  0.49958924  0.19195336
   0.50000000  0.00063928  0.19193471
   0.00000000 -0.00077569  0.25391776
   0.50000000  0.50041345  0.25479102
   0.00000000  0.49892880  0.31750498
   0.50000000  0.00030115  0.31751039
   0.00000000  0.00095239  0.37800103
   0.50000000  0.49690301  0.37948423
   0.00000000  0.49958571  0.43927050
   0.50000000 -0.00572746  0.43900783
   1.00000000  0.01066736  0.50785410
   1.00000000  0.14384984  0.52811439
Direct configuration=     8
   0.00000000  0.00001583  0.00271811
   0.50000000  0.49999017  0.00276980
   0.00000000  0.50006751  0.06473570
   0.50000000 -0.00018800  0.06473610
   0.00000000 -0.00011757  0.12751744
   0.50000000  0.50020947  0.12749265
   0.00000000  0.49961232  0.19190333
   0.50000000  0.00060280  0.19188519
   0.00000000 -0.00074745  0.25393067
   0.50000000  0.50035761  0.25473741
   0.00000000  0.49893173  0.31734392
   0.50000000  0.00018582  0.31734917
   0.00000000  0.00087265  0.37768496
   0.50000000  0.49654432  0.37900405
   0.00000000  0.49910424  0.43893596
   0.50000000 -0.00557628  0.43868922
   1.00000000  0.01031757  0.50831882
   1.00000000  0.14513450  0.52924427
Direct configuration=     9
   0.00000000  0.00002799  0.00275533
   0.50000000  0.49997005  0.00281164
   0.00000000  0.50005537  0.06488547
   0.50000000 -0.00017796  0.06488547
   0.00000000 -0.00017256  0.12745629
   0.50000000  0.50026448  0.12742575
   0.00000000  0.49963051  0.19186389
   0.50000000  0.00057404  0.19184615
   0.00000000 -0.00072518  0.25394084
   0.50000000  0.50031360  0.25469515
   0.00000000  0.49893403  0.31721696
   0.50000000  0.00009492  0.31722208
   0.00000000  0.00080980  0.37743580
   0.50000000  0.49626156  0.37862552
   0.00000000  0.49872470  0.43867225
   0.50000000 -0.00545710  0.43843807
   1.00000000  0.01004183  0.50868516
   1.00000000  0.14614719  0.53013495
Direct configuration=    10
   0.00000000  0.00002406  0.00270827
   0.50000000  0.49994674  0.00276502
   0.00000000  0.50001613  0.06495683
   0.50000000 -0.00014782  0.06495639
   0.00000000 -0.00018414  0.12758377
   0.50000000  0.50025108  0.12755272
   0.00000000  0.49964375  0.19177334
   0.50000000  0.00051241  0.19175730
   0.00000000 -0.00071387  0.25392913
   0.50000000  0.50027261  0.25458546
   0.00000000  0.49909817  0.31695518
   0.50000000 -0.00019576  0.31695840
   0.00000000  0.00031370  0.37740918
   0.50000000  0.49651926  0.37839772
   0.00000000  0.49853066  0.43860753
   0.50000000 -0.00528879  0.43839177
   1.00000000  0.01095437  0.50909648
   1.00000000  0.14576470  0.53061230
Direct configuration=    11
   0.00000000  0.00001229  0.00256710
   0.50000000  0.49987680  0.00262517
   0.00000000  0.49989843  0.06517092
   0.50000000 -0.00005741  0.06516913
   0.00000000 -0.00021891  0.12796624
   0.50000000  0.50021086  0.12793361
   0.00000000  0.49968347  0.19150169
   0.50000000  0.00032753  0.19149072
   0.00000000 -0.00067992  0.25389398
   0.50000000  0.50014964  0.25425638
   0.00000000  0.49959061  0.31616984
   0.50000000 -0.00106778  0.31616734
   0.00000000 -0.00117460  0.37732932
   0.50000000  0.49729234  0.37771432
   0.00000000  0.49794854  0.43841335
   0.50000000 -0.00478385  0.43825286
   1.00000000  0.01369198  0.51033045
   1.00000000  0.14461723  0.53204435
Direct configuration=    12
   0.00000000 -0.00001124  0.00228474
   0.50000000  0.49973694  0.00234546
   0.00000000  0.49966302  0.06559910
   0.50000000  0.00012342  0.06559462
   0.00000000 -0.00028843  0.12873116
   0.50000000  0.50013043  0.12869541
   0.00000000  0.49976289  0.19095840
   0.50000000 -0.00004223  0.19095758
   0.00000000 -0.00061203  0.25382370
   0.50000000  0.49990370  0.25359823
   0.00000000  0.50057547  0.31459916
   0.50000000 -0.00281183  0.31458523
   0.00000000 -0.00415118  0.37716959
   0.50000000  0.49883850  0.37634752
   0.00000000  0.49678430  0.43802500
   0.50000000 -0.00377397  0.43797504
   1.00000000  0.01916720  0.51279838
   1.00000000  0.14232230  0.53490847
Direct configuration=    13
   0.00000000 -0.00010990  0.00223897
   0.50000000  0.49974928  0.00229316
   0.00000000  0.49966295  0.06566483
   0.50000000  0.00007250  0.06565975
   0.00000000 -0.00027120  0.12891454
   0.50000000  0.50000650  0.12889567
   0.00000000  0.49971906  0.19103526
   0.50000000 -0.00017510  0.19103692
   0.00000000 -0.00031375  0.25311404
   0.50000000  0.49937393  0.25280889
   0.00000000  0.49972191  0.31415655
   0.50000000 -0.00232322  0.31414386
   0.00000000 -0.00422269  0.37686442
   0.50000000  0.49850579  0.37596497
   0.00000000  0.49638398  0.43800183
   0.50000000 -0.00330070  0.43798350
   1.00000000  0.02119867  0.51381320
   1.00000000  0.14163924  0.53640641
Direct configuration=    14
   0.00000000 -0.00025786  0.00217031
   0.50000000  0.49976780  0.00221473
   0.00000000  0.49966285  0.06576343
   0.50000000 -0.00000387  0.06575744
   0.00000000 -0.00024536  0.12918959
   0.50000000  0.49982061  0.12919602
   0.00000000  0.49965331  0.19115055
   0.50000000 -0.00037439  0.19115591
   0.00000000  0.00013363  0.25204966
   0.50000000  0.49857935  0.25162499
   0.00000000  0.49844169  0.31349271
   0.50000000 -0.00159037  0.31348189
   0.00000000 -0.00432993  0.37640671
   0.50000000  0.49800678  0.37539120
   0.00000000  0.49578357  0.43796709
   0.50000000 -0.00259088  0.43799618
   1.00000000  0.02424558  0.51533528
   1.00000000  0.14061476  0.53865310
Direct configuration=    15
   0.00000000 -0.00038494  0.00227488
   0.50000000  0.49978906  0.00230487
   0.00000000  0.49972348  0.06570085
   0.50000000 -0.00018334  0.06569587
   0.00000000 -0.00026712  0.12904274
   0.50000000  0.49967152  0.12906879
   0.00000000  0.49967780  0.19111008
   0.50000000 -0.00066172  0.19111231
   0.00000000 -0.00029796  0.25130434
   0.50000000  0.49859396  0.25108579
   0.00000000  0.49759419  0.31321822
   0.50000000 -0.00113537  0.31320740
   0.00000000 -0.00357279  0.37592123
   0.50000000  0.49733146  0.37540904
   0.00000000  0.49605107  0.43797794
   0.50000000 -0.00272766  0.43800054
   1.00000000  0.02970899  0.51696250
   1.00000000  0.13640661  0.53959938
Direct configuration=    16
   0.00000000 -0.00032317  0.00222406
   0.50000000  0.49977873  0.00226106
   0.00000000  0.49969402  0.06573127
   0.50000000 -0.00009611  0.06572579
   0.00000000 -0.00025654  0.12911411
   0.50000000  0.49974398  0.12913063
   0.00000000  0.49966590  0.19112975
   0.50000000 -0.00052207  0.19113350
   0.00000000 -0.00008820  0.25166659
   0.50000000  0.49858686  0.25134786
   0.00000000  0.49800610  0.31335163
   0.50000000 -0.00135651  0.31334081
   0.00000000 -0.00394078  0.37615719
   0.50000000  0.49765968  0.37540037
   0.00000000  0.49592105  0.43797267
   0.50000000 -0.00266118  0.43799842
   1.00000000  0.02705362  0.51617163
   1.00000000  0.13845189  0.53913946
Direct configuration=    17
   0.00000000 -0.00040404  0.00239190
   0.50000000  0.49976854  0.00241495
   0.00000000  0.49974211  0.06560795
   0.50000000 -0.00028849  0.06560433
   0.00000000 -0.00030421  0.12878715
   0.50000000  0.49961743  0.12881367
   0.00000000  0.49966994  0.19090830
   0.50000000 -0.00077497  0.19090641
   0.00000000 -0.00090969  0.25130729
   0.50000000  0.49901263  0.25129733
   0.00000000  0.49771612  0.31326328
   0.50000000 -0.00133686  0.31325138
   0.00000000 -0.00304512  0.37578477
   0.50000000  0.49720070  0.37570664
   0.00000000  0.49663046  0.43798486
   0.50000000 -0.00323470  0.43797957
   1.00000000  0.02892470  0.51682711
   1.00000000  0.13733270  0.54015988
Direct configuration=    18
   0.00000000 -0.00059187  0.00278179
   0.50000000  0.49974489  0.00277240
   0.00000000  0.49985383  0.06532152
   0.50000000 -0.00073535  0.06532219
   0.00000000 -0.00041494  0.12802769
   0.50000000  0.49932348  0.12807744
   0.00000000  0.49967932  0.19039391
   0.50000000 -0.00136240  0.19037891
   0.00000000 -0.00281786  0.25047272
   0.50000000  0.50000163  0.25117997
   0.00000000  0.49704255  0.31305805
   0.50000000 -0.00129121  0.31304366
   0.00000000 -0.00096469  0.37491972
   0.50000000  0.49613456  0.37641805
   0.00000000  0.49827828  0.43801319
   0.50000000 -0.00456690  0.43793578
   1.00000000  0.03327089  0.51834968
   1.00000000  0.13473305  0.54253013
Direct configuration=    19
   0.00000000 -0.00055334  0.00270181
   0.50000000  0.49974974  0.00269907
   0.00000000  0.49983091  0.06538028
   0.50000000 -0.00064369  0.06538006
   0.00000000 -0.00039223  0.12818348
   0.50000000  0.49938378  0.12822847
   0.00000000  0.49967739  0.19049942
   0.50000000 -0.00124190  0.19048712
   0.00000000 -0.00242644  0.25064391
   0.50000000  0.49979875  0.25120405
   0.00000000  0.49718072  0.31310015
   0.50000000 -0.00130057  0.31308627
   0.00000000 -0.00139145  0.37509717
   0.50000000  0.49635325  0.37627212
   0.00000000  0.49794026  0.43800738
   0.50000000 -0.00429362  0.43794476
   1.00000000  0.03237935  0.51803735
   1.00000000  0.13526632  0.54204392
Direct configuration=    20
   0.00000000 -0.00050373  0.00277136
   0.50000000  0.49956891  0.00276441
   0.00000000  0.49963512  0.06518443
   0.50000000 -0.00067280  0.06518465
   0.00000000 -0.00044434  0.12785567
   0.50000000  0.49916724  0.12787822
   0.00000000  0.49886656  0.18990261
   0.50000000 -0.00084088  0.18989041
   0.00000000 -0.00232076  0.25070011
   0.50000000  0.49933281  0.25126655
   0.00000000  0.49760186  0.31302282
   0.50000000 -0.00178354  0.31300950
   0.00000000 -0.00137680  0.37510444
   0.50000000  0.49680754  0.37638841
   0.00000000  0.49858388  0.43805277
   0.50000000 -0.00456098  0.43795279
   1.00000000  0.03587908  0.51902537
   1.00000000  0.13237808  0.54304225
Direct configuration=    21
   0.00000000 -0.00049151  0.00278850
   0.50000000  0.49952435  0.00278052
   0.00000000  0.49958688  0.06513617
   0.50000000 -0.00067997  0.06513650
   0.00000000 -0.00045719  0.12777489
   0.50000000  0.49911388  0.12779191
   0.00000000  0.49866676  0.18975555
   0.50000000 -0.00074207  0.18974338
   0.00000000 -0.00229472  0.25071395
   0.50000000  0.49921800  0.25128195
   0.00000000  0.49770563  0.31300377
   0.50000000 -0.00190255  0.31299059
   0.00000000 -0.00137319  0.37510623
   0.50000000  0.49691949  0.37641707
   0.00000000  0.49874247  0.43806396
   0.50000000 -0.00462686  0.43795477
   1.00000000  0.03674146  0.51926883
   1.00000000  0.13166639  0.54328825
Direct configuration=    22
   0.00000000 -0.00046911  0.00277939
   0.50000000  0.49942542  0.00277197
   0.00000000  0.49947663  0.06504122
   0.50000000 -0.00068699  0.06504133
   0.00000000 -0.00054333  0.12761962
   0.50000000  0.49905044  0.12762357
   0.00000000  0.49831573  0.18949820
   0.50000000 -0.00058612  0.18948719
   0.00000000 -0.00213577  0.25075262
   0.50000000  0.49890585  0.25126008
   0.00000000  0.49794524  0.31299102
   0.50000000 -0.00212677  0.31297840
   0.00000000 -0.00147822  0.37518036
   0.50000000  0.49719478  0.37640197
   0.00000000  0.49891663  0.43809536
   0.50000000 -0.00457794  0.43797197
   1.00000000  0.03779607  0.51957220
   1.00000000  0.13089472  0.54393032
Direct configuration=    23
   0.00000000 -0.00040372  0.00275280
   0.50000000  0.49913663  0.00274702
   0.00000000  0.49915480  0.06476404
   0.50000000 -0.00070748  0.06476352
   0.00000000 -0.00079477  0.12716637
   0.50000000  0.49886523  0.12713217
   0.00000000  0.49729102  0.18874697
   0.50000000 -0.00013092  0.18873935
   0.00000000 -0.00167180  0.25086549
   0.50000000  0.49799467  0.25119624
   0.00000000  0.49864466  0.31295380
   0.50000000 -0.00278129  0.31294284
   0.00000000 -0.00178481  0.37539676
   0.50000000  0.49799839  0.37635789
   0.00000000  0.49942502  0.43818705
   0.50000000 -0.00443512  0.43802218
   1.00000000  0.04087457  0.52045775
   1.00000000  0.12864217  0.54580455
Direct configuration=    24
   0.00000000 -0.00043992  0.00276752
   0.50000000  0.49929651  0.00276083
   0.00000000  0.49933297  0.06491749
   0.50000000 -0.00069614  0.06491732
   0.00000000 -0.00065556  0.12741730
   0.50000000  0.49896777  0.12740423
   0.00000000  0.49785833  0.18916288
   0.50000000 -0.00038294  0.18915338
   0.00000000 -0.00192867  0.25080300
   0.50000000  0.49849913  0.25123158
   0.00000000  0.49825744  0.31297441
   0.50000000 -0.00241893  0.31296253
   0.00000000 -0.00161507  0.37527696
   0.50000000  0.49755349  0.37638230
   0.00000000  0.49914356  0.43813629
   0.50000000 -0.00451419  0.43799438
   1.00000000  0.03917022  0.51996748
   1.00000000  0.12988925  0.54476692
Direct configuration=    25
   0.00000000 -0.00044422  0.00276927
   0.50000000  0.49931550  0.00276247
   0.00000000  0.49935413  0.06493571
   0.50000000 -0.00069479  0.06493559
   0.00000000 -0.00063903  0.12744710
   0.50000000  0.49897994  0.12743653
   0.00000000  0.49792569  0.18921226
   0.50000000 -0.00041286  0.18920254
   0.00000000 -0.00195917  0.25079558
   0.50000000  0.49855903  0.25123578
   0.00000000  0.49821146  0.31297685
   0.50000000 -0.00237590  0.31296487
   0.00000000 -0.00159492  0.37526273
   0.50000000  0.49750066  0.37638519
   0.00000000  0.49911014  0.43813026
   0.50000000 -0.00452358  0.43799108
   1.00000000  0.03896784  0.51990926
   1.00000000  0.13003733  0.54464370
Direct configuration=    26
   0.00000000 -0.00046389  0.00269964
   0.50000000  0.49927261  0.00269609
   0.00000000  0.49930801  0.06488398
   0.50000000 -0.00072109  0.06488332
   0.00000000 -0.00079022  0.12735375
   0.50000000  0.49902317  0.12733752
   0.00000000  0.49795321  0.18918688
   0.50000000 -0.00051487  0.18917858
   0.00000000 -0.00185661  0.25076856
   0.50000000  0.49839212  0.25112230
   0.00000000  0.49829176  0.31301436
   0.50000000 -0.00240459  0.31300291
   0.00000000 -0.00166377  0.37536848
   0.50000000  0.49761045  0.37630655
   0.00000000  0.49900858  0.43816920
   0.50000000 -0.00423783  0.43802887
   1.00000000  0.03965456  0.52008661
   1.00000000  0.12945564  0.54490918
Direct configuration=    27
   0.00000000 -0.00052290  0.00249074
   0.50000000  0.49914397  0.00249695
   0.00000000  0.49916964  0.06472876
   0.50000000 -0.00079997  0.06472653
   0.00000000 -0.00124380  0.12707370
   0.50000000  0.49915286  0.12704049
   0.00000000  0.49803578  0.18911073
   0.50000000 -0.00082089  0.18910672
   0.00000000 -0.00154893  0.25068748
   0.50000000  0.49789137  0.25078186
   0.00000000  0.49853269  0.31312688
   0.50000000 -0.00249066  0.31311703
   0.00000000 -0.00187032  0.37568574
   0.50000000  0.49793984  0.37607061
   0.00000000  0.49870389  0.43828602
   0.50000000 -0.00338058  0.43814226
   1.00000000  0.04171472  0.52061865
   1.00000000  0.12771056  0.54570561
Direct configuration=    28
   0.00000000 -0.00064093  0.00207295
   0.50000000  0.49888667  0.00209868
   0.00000000  0.49889290  0.06441833
   0.50000000 -0.00095773  0.06441294
   0.00000000 -0.00215094  0.12651361
   0.50000000  0.49941223  0.12644644
   0.00000000  0.49820091  0.18895842
   0.50000000 -0.00143295  0.18896298
   0.00000000 -0.00093357  0.25052534
   0.50000000  0.49688987  0.25010098
   0.00000000  0.49901453  0.31335193
   0.50000000 -0.00266280  0.31334527
   0.00000000 -0.00228342  0.37632024
   0.50000000  0.49859860  0.37559874
   0.00000000  0.49809451  0.43851967
   0.50000000 -0.00166608  0.43836904
   1.00000000  0.04583504  0.52168274
   1.00000000  0.12422041  0.54729847
Direct configuration=    29
   0.00000000 -0.00060114  0.00221379
   0.50000000  0.49897341  0.00223295
   0.00000000  0.49898619  0.06452298
   0.50000000 -0.00090455  0.06451866
   0.00000000 -0.00184513  0.12670243
   0.50000000  0.49932479  0.12664670
   0.00000000  0.49814524  0.18900977
   0.50000000 -0.00122661  0.18901144
   0.00000000 -0.00114102  0.25058000
   0.50000000  0.49722749  0.25033052
   0.00000000  0.49885209  0.31327606
   0.50000000 -0.00260477  0.31326832
   0.00000000 -0.00214416  0.37610634
   0.50000000  0.49837652  0.37575782
   0.00000000  0.49829994  0.43844091
   0.50000000 -0.00224407  0.43829259
   1.00000000  0.04444602  0.52132402
   1.00000000  0.12539700  0.54676149
Direct configuration=    30
   0.00000000 -0.00076347  0.00194532
   0.50000000  0.49895533  0.00196882
   0.00000000  0.49886035  0.06430972
   0.50000000 -0.00095041  0.06430524
   0.00000000 -0.00188049  0.12663414
   0.50000000  0.49914848  0.12658833
   0.00000000  0.49840991  0.18898076
   0.50000000 -0.00162506  0.18898278
   0.00000000 -0.00127215  0.25052614
   0.50000000  0.49742355  0.25023462
   0.00000000  0.49869898  0.31324223
   0.50000000 -0.00234239  0.31323370
   0.00000000 -0.00205548  0.37629217
   0.50000000  0.49836851  0.37575291
   0.00000000  0.49809033  0.43854457
   0.50000000 -0.00165777  0.43841692
   1.00000000  0.04676854  0.52191445
   1.00000000  0.12314049  0.54712398
Direct configuration=    31
   0.00000000 -0.00076881  0.00193649
   0.50000000  0.49895473  0.00196013
   0.00000000  0.49885621  0.06430270
   0.50000000 -0.00095192  0.06429821
   0.00000000 -0.00188165  0.12663190
   0.50000000  0.49914267  0.12658640
   0.00000000  0.49841862  0.18897981
   0.50000000 -0.00163817  0.18898183
   0.00000000 -0.00127647  0.25052436
   0.50000000  0.49743000  0.25023146
   0.00000000  0.49869395  0.31324111
   0.50000000 -0.00233375  0.31323256
   0.00000000 -0.00205256  0.37629828
   0.50000000  0.49836825  0.37575275
   0.00000000  0.49808344  0.43854798
   0.50000000 -0.00163847  0.43842102
   1.00000000  0.04684496  0.52193388
   1.00000000  0.12306623  0.54713591
Direct configuration=    32
   0.00000000 -0.00076413  0.00194424
   0.50000000  0.49895526  0.00196775
   0.00000000  0.49885984  0.06430886
   0.50000000 -0.00095059  0.06430437
   0.00000000 -0.00188063  0.12663387
   0.50000000  0.49914776  0.12658809
   0.00000000  0.49841098  0.18898064
   0.50000000 -0.00162667  0.18898266
   0.00000000 -0.00127268  0.25052592
   0.50000000  0.49742434  0.25023423
   0.00000000  0.49869837  0.31324209
   0.50000000 -0.00234133  0.31323356
   0.00000000 -0.00205512  0.37629292
   0.50000000  0.49836848  0.37575289
   0.00000000  0.49808949  0.43854499
   0.50000000 -0.00165539  0.43841743
   1.00000000  0.04677793  0.52191684
   1.00000000  0.12313136  0.54712544
Direct configuration=    33
   0.00000000 -0.00076738  0.00193886
   0.50000000  0.49895489  0.00196246
   0.00000000  0.49885732  0.06430458
   0.50000000 -0.00095151  0.06430010
   0.00000000 -0.00188134  0.12663250
   0.50000000  0.49914423  0.12658692
   0.00000000  0.49841629  0.18898006
   0.50000000 -0.00163466  0.18898209
   0.00000000 -0.00127531  0.25052484
   0.50000000  0.49742827  0.25023231
   0.00000000  0.49869530  0.31324141
   0.50000000 -0.00233607  0.31323286
   0.00000000 -0.00205335  0.37629664
   0.50000000  0.49836832  0.37575279
   0.00000000  0.49808528  0.43854706
   0.50000000 -0.00164364  0.43841992
   1.00000000  0.04682448  0.52192867
   1.00000000  0.12308613  0.54713271
Direct configuration=    34
   0.00000000 -0.00076575  0.00194155
   0.50000000  0.49895507  0.00196510
   0.00000000  0.49885858  0.06430672
   0.50000000 -0.00095105  0.06430224
   0.00000000 -0.00188099  0.12663318
   0.50000000  0.49914600  0.12658750
   0.00000000  0.49841364  0.18898035
   0.50000000 -0.00163067  0.18898237
   0.00000000 -0.00127400  0.25052538
   0.50000000  0.49742630  0.25023327
   0.00000000  0.49869683  0.31324175
   0.50000000 -0.00233870  0.31323321
   0.00000000 -0.00205424  0.37629478
   0.50000000  0.49836840  0.37575284
   0.00000000  0.49808738  0.43854603
   0.50000000 -0.00164952  0.43841867
   1.00000000  0.04680121  0.52192276
   1.00000000  0.12310875  0.54712908
Direct configuration=    35
   0.00000000 -0.00088138  0.00176631
   0.50000000  0.49895646  0.00179110
   0.00000000  0.49878504  0.06416824
   0.50000000 -0.00098111  0.06416402
   0.00000000 -0.00182320  0.12662259
   0.50000000  0.49896941  0.12658778
   0.00000000  0.49856407  0.18896664
   0.50000000 -0.00185075  0.18896801
   0.00000000 -0.00141626  0.25050070
   0.50000000  0.49765112  0.25022709
   0.00000000  0.49854437  0.31319845
   0.50000000 -0.00212822  0.31318909
   0.00000000 -0.00196502  0.37637775
   0.50000000  0.49832843  0.37579901
   0.00000000  0.49802132  0.43860923
   0.50000000 -0.00138698  0.43849860
   1.00000000  0.04770915  0.52212124
   1.00000000  0.12222082  0.54744093
Direct configuration=    36
   0.00000000 -0.00119148  0.00129638
   0.50000000  0.49896017  0.00132445
   0.00000000  0.49858781  0.06379688
   0.50000000 -0.00106173  0.06379336
   0.00000000 -0.00166821  0.12659416
   0.50000000  0.49849585  0.12658854
   0.00000000  0.49896749  0.18892987
   0.50000000 -0.00244095  0.18892949
   0.00000000 -0.00179778  0.25043451
   0.50000000  0.49825400  0.25021050
   0.00000000  0.49813550  0.31308234
   0.50000000 -0.00156376  0.31307078
   0.00000000 -0.00172576  0.37660026
   0.50000000  0.49822122  0.37592282
   0.00000000  0.49784416  0.43877873
   0.50000000 -0.00068292  0.43871294
   1.00000000  0.05014402  0.52265352
   1.00000000  0.11983963  0.54827725
Direct configuration=    37
   0.00000000 -0.00181166  0.00035650
   0.50000000  0.49896759  0.00039117
   0.00000000  0.49819335  0.06305416
   0.50000000 -0.00122296  0.06305205
   0.00000000 -0.00135824  0.12653732
   0.50000000  0.49754873  0.12659004
   0.00000000  0.49977433  0.18885633
   0.50000000 -0.00362136  0.18885245
   0.00000000 -0.00256083  0.25030214
   0.50000000  0.49945978  0.25017733
   0.00000000  0.49731778  0.31285011
   0.50000000 -0.00043484  0.31283415
   0.00000000 -0.00124723  0.37704528
   0.50000000  0.49800680  0.37617044
   0.00000000  0.49748982  0.43911772
   0.50000000  0.00072521  0.43914162
   1.00000000  0.05501376  0.52371808
   1.00000000  0.11507723  0.54994988
Direct configuration=    38
   0.00000000 -0.00194485 -0.00006338
   0.50000000  0.49887086 -0.00003235
   0.00000000  0.49814495  0.06284863
   0.50000000 -0.00142548  0.06284707
   0.00000000 -0.00128510  0.12639038
   0.50000000  0.49728887  0.12645559
   0.00000000  0.49934049  0.18884461
   0.50000000 -0.00320285  0.18883766
   0.00000000 -0.00234321  0.25026527
   0.50000000  0.49936383  0.25022750
   0.00000000  0.49739127  0.31287908
   0.50000000 -0.00042141  0.31286255
   0.00000000 -0.00142262  0.37699594
   0.50000000  0.49838043  0.37629160
   0.00000000  0.49796166  0.43928832
   0.50000000  0.00055407  0.43933762
   1.00000000  0.05694319  0.52413832
   1.00000000  0.11312315  0.55058238
Direct configuration=    39
   0.00000000 -0.00206452 -0.00044065
   0.50000000  0.49878394 -0.00041289
   0.00000000  0.49810146  0.06266395
   0.50000000 -0.00160745  0.06266289
   0.00000000 -0.00121937  0.12625835
   0.50000000  0.49705539  0.12633478
   0.00000000  0.49895068  0.18883409
   0.50000000 -0.00282681  0.18882436
   0.00000000 -0.00214768  0.25023214
   0.50000000  0.49927762  0.25027258
   0.00000000  0.49745731  0.31290511
   0.50000000 -0.00040934  0.31288807
   0.00000000 -0.00158020  0.37695161
   0.50000000  0.49871614  0.37640046
   0.00000000  0.49838561  0.43944160
   0.50000000  0.00040030  0.43951372
   1.00000000  0.05867681  0.52451592
   1.00000000  0.11136738  0.55115070
Direct configuration=    40
   0.00000000 -0.00230386 -0.00119520
   0.50000000  0.49861011 -0.00117397
   0.00000000  0.49801448  0.06229460
   0.50000000 -0.00197139  0.06229454
   0.00000000 -0.00108792  0.12599429
   0.50000000  0.49658842  0.12609316
   0.00000000  0.49817106  0.18881305
   0.50000000 -0.00207474  0.18879777
   0.00000000 -0.00175661  0.25016588
   0.50000000  0.49910520  0.25036274
   0.00000000  0.49758938  0.31295717
   0.50000000 -0.00038519  0.31293911
   0.00000000 -0.00189537  0.37686295
   0.50000000  0.49938755  0.37661817
   0.00000000  0.49923352  0.43974816
   0.50000000  0.00009275  0.43986594
   1.00000000  0.06214404  0.52527110
   1.00000000  0.10785583  0.55228732
Direct configuration=    41
   0.00000000 -0.00232890 -0.00162554
   0.50000000  0.49835039 -0.00161070
   0.00000000  0.49801755  0.06204200
   0.50000000 -0.00227664  0.06204218
   0.00000000 -0.00138931  0.12573248
   0.50000000  0.49678156  0.12582530
   0.00000000  0.49773323  0.18875644
   0.50000000 -0.00154264  0.18874158
   0.00000000 -0.00144917  0.25018451
   0.50000000  0.49884519  0.25042894
   0.00000000  0.49799717  0.31310322
   0.50000000 -0.00066943  0.31308650
   0.00000000 -0.00191929  0.37673885
   0.50000000  0.49974300  0.37678026
   0.00000000  0.49983762  0.43989944
   0.50000000 -0.00032797  0.44002436
   1.00000000  0.06504597  0.52610520
   1.00000000  0.10486891  0.55274175
Direct configuration=    42
   0.00000000 -0.00232269 -0.00151892
   0.50000000  0.49841474 -0.00150250
   0.00000000  0.49801679  0.06210458
   0.50000000 -0.00220101  0.06210471
   0.00000000 -0.00131464  0.12579734
   0.50000000  0.49673371  0.12589167
   0.00000000  0.49784171  0.18877046
   0.50000000 -0.00167447  0.18875550
   0.00000000 -0.00152534  0.25017990
   0.50000000  0.49890961  0.25041254
   0.00000000  0.49789614  0.31306704
   0.50000000 -0.00059901  0.31304999
   0.00000000 -0.00191336  0.37676960
   0.50000000  0.49965494  0.37674010
   0.00000000  0.49968795  0.43986196