 145 145   0   0
  0.2265927E+02  0.1089000E-08  0.1089000E-08  0.2770500E-08  0.5000000E-15
  1.000000000000000E-004
  CAR 
 unknown system                          
     13.10770805    -18.63666984  301      1.71757324      1.00000000
    -18.637  0.0000E+00  0.0000E+00  0.0000E+00  0.0000E+00
    -18.531  0.0000E+00  0.0000E+00  0.0000E+00  0.0000E+00
    -18.425  0.0000E+00  0.0000E+00  0.0000E+00  0.0000E+00
    -18.319 -0.5125E-32 -0.5125E-32 -0.5423E-33 -0.5423E-33
    -18.213 -0.2666E-28 -0.2666E-28 -0.2822E-29 -0.2822E-29
    -18.108 -0.7891E-25 -0.7891E-25 -0.8352E-26 -0.8352E-26
    -18.002 -0.1327E-21 -0.1327E-21 -0.1405E-22 -0.1405E-22
    -17.896 -0.1267E-18 -0.1267E-18 -0.1342E-19 -0.1342E-19
    -17.790 -0.6664E-16 -0.6664E-16 -0.7065E-17 -0.7065E-17
    -17.684 -0.2028E-13 -0.2028E-13 -0.2153E-14 -0.2153E-14
    -17.579 -0.3480E-11 -0.3480E-11 -0.3704E-12 -0.3704E-12
    -17.473 -0.3351E-09 -0.3351E-09 -0.3583E-10 -0.3583E-10
    -17.367 -0.1797E-07 -0.1797E-07 -0.1937E-08 -0.1937E-08
    -17.261 -0.5299E-06 -0.5299E-06 -0.5801E-07 -0.5801E-07
    -17.155 -0.8386E-05 -0.8386E-05 -0.9454E-06 -0.9454E-06
    -17.049 -0.6744E-04 -0.6744E-04 -0.8081E-05 -0.8081E-05
    -16.944 -0.2316E-03 -0.2316E-03 -0.3259E-04 -0.3259E-04
    -16.838  0.4046E-05  0.4047E-05 -0.3216E-04 -0.3216E-04
    -16.732  0.1992E-02  0.1992E-02  0.1786E-03  0.1786E-03
    -16.626  0.4740E-02  0.4740E-02  0.6802E-03  0.6802E-03
    -16.520  0.4339E-02  0.4339E-02  0.1139E-02  0.1139E-02
    -16.415  0.1437E-02  0.1437E-02  0.1291E-02  0.1291E-02
    -16.309 -0.1402E-03 -0.1402E-03  0.1277E-02  0.1277E-02
    -16.203 -0.1983E-03 -0.1983E-03  0.1256E-02  0.1256E-02
    -16.097 -0.4737E-04 -0.4737E-04  0.1251E-02  0.1251E-02
    -15.991 -0.5115E-05 -0.5115E-05  0.1250E-02  0.1250E-02
    -15.885 -0.2850E-06 -0.2850E-06  0.1250E-02  0.1250E-02
    -15.780 -0.8576E-08 -0.8576E-08  0.1250E-02  0.1250E-02
    -15.674 -0.1424E-09 -0.1424E-09  0.1250E-02  0.1250E-02
    -15.568 -0.1318E-11 -0.1318E-11  0.1250E-02  0.1250E-02
    -15.462 -0.6854E-14 -0.6854E-14  0.1250E-02  0.1250E-02
    -15.356 -0.2098E-16 -0.2098E-16  0.1250E-02  0.1250E-02
    -15.251  0.0000E+00  0.0000E+00  0.1250E-02  0.1250E-02
    -15.145  0.0000E+00  0.0000E+00  0.1250E-02  0.1250E-02
    -15.039  0.0000E+00  0.0000E+00  0.1250E-02  0.1250E-02
    -14.933  0.0000E+00  0.0000E+00  0.1250E-02  0.1250E-02
    -14.827  0.0000E+00  0.0000E+00  0.1250E-02  0.1250E-02
    -14.722  0.0000E+00  0.0000E+00  0.1250E-02  0.1250E-02
    -14.616  0.0000E+00  0.0000E+00  0.1250E-02  0.1250E-02
    -14.510  0.0000E+00  0.0000E+00  0.1250E-02  0.1250E-02
    -14.404  0.0000E+00  0.0000E+00  0.1250E-02  0.1250E-02
    -14.298  0.0000E+00  0.0000E+00  0.1250E-02  0.1250E-02
    -14.192  0.0000E+00  0.0000E+00  0.1250E-02  0.1250E-02
    -14.087  0.0000E+00  0.0000E+00  0.1250E-02  0.1250E-02
    -13.981  0.0000E+00  0.0000E+00  0.1250E-02  0.1250E-02
    -13.875  0.0000E+00  0.0000E+00  0.1250E-02  0.1250E-02
    -13.769  0.0000E+00  0.0000E+00  0.1250E-02  0.1250E-02
    -13.663  0.0000E+00  0.0000E+00  0.1250E-02  0.1250E-02
    -13.558  0.0000E+00  0.0000E+00  0.1250E-02  0.1250E-02
    -13.452  0.0000E+00  0.0000E+00  0.1250E-02  0.1250E-02
    -13.346  0.0000E+00  0.0000E+00  0.1250E-02  0.1250E-02
    -13.240  0.0000E+00  0.0000E+00  0.1250E-02  0.1250E-02
    -13.134  0.0000E+00  0.0000E+00  0.1250E-02  0.1250E-02
    -13.028  0.0000E+00  0.0000E+00  0.1250E-02  0.1250E-02
    -12.923  0.0000E+00  0.0000E+00  0.1250E-02  0.1250E-02
    -12.817  0.0000E+00  0.0000E+00  0.1250E-02  0.1250E-02
    -12.711  0.0000E+00  0.0000E+00  0.1250E-02  0.1250E-02
    -12.605  0.0000E+00  0.0000E+00  0.1250E-02  0.1250E-02
    -12.499  0.0000E+00  0.0000E+00  0.1250E-02  0.1250E-02
    -12.394  0.0000E+00  0.0000E+00  0.1250E-02  0.1250E-02
    -12.288  0.0000E+00  0.0000E+00  0.1250E-02  0.1250E-02
    -12.182  0.0000E+00  0.0000E+00  0.1250E-02  0.1250E-02
    -12.076  0.0000E+00  0.0000E+00  0.1250E-02  0.1250E-02
    -11.970  0.0000E+00  0.0000E+00  0.1250E-02  0.1250E-02
    -11.865  0.0000E+00  0.0000E+00  0.1250E-02  0.1250E-02
    -11.759  0.0000E+00  0.0000E+00  0.1250E-02  0.1250E-02
    -11.653  0.0000E+00  0.0000E+00  0.1250E-02  0.1250E-02
    -11.547  0.0000E+00  0.0000E+00  0.1250E-02  0.1250E-02
    -11.441  0.0000E+00  0.0000E+00  0.1250E-02  0.1250E-02
    -11.335  0.0000E+00  0.0000E+00  0.1250E-02  0.1250E-02
    -11.230  0.0000E+00  0.0000E+00  0.1250E-02  0.1250E-02
    -11.124  0.0000E+00  0.0000E+00  0.1250E-02  0.1250E-02
    -11.018  0.0000E+00  0.0000E+00  0.1250E-02  0.1250E-02
    -10.912  0.0000E+00  0.0000E+00  0.1250E-02  0.1250E-02
    -10.806  0.0000E+00  0.0000E+00  0.1250E-02  0.1250E-02
    -10.701  0.0000E+00  0.0000E+00  0.1250E-02  0.1250E-02
    -10.595  0.0000E+00  0.0000E+00  0.1250E-02  0.1250E-02
    -10.489  0.0000E+00  0.0000E+00  0.1250E-02  0.1250E-02
    -10.383  0.0000E+00  0.0000E+00  0.1250E-02  0.1250E-02
    -10.277  0.0000E+00  0.0000E+00  0.1250E-02  0.1250E-02
    -10.172  0.0000E+00  0.0000E+00  0.1250E-02  0.1250E-02
    -10.066  0.0000E+00  0.0000E+00  0.1250E-02  0.1250E-02
     -9.960  0.0000E+00  0.0000E+00  0.1250E-02  0.1250E-02
     -9.854  0.0000E+00  0.0000E+00  0.1250E-02  0.1250E-02
     -9.748  0.0000E+00  0.0000E+00  0.1250E-02  0.1250E-02
     -9.642  0.0000E+00  0.0000E+00  0.1250E-02  0.1250E-02
     -9.537  0.0000E+00  0.0000E+00  0.1250E-02  0.1250E-02
     -9.431  0.0000E+00  0.0000E+00  0.1250E-02  0.1250E-02
     -9.325  0.0000E+00  0.0000E+00  0.1250E-02  0.1250E-02
     -9.219  0.0000E+00  0.0000E+00  0.1250E-02  0.1250E-02
     -9.113 -0.2554E-30 -0.2554E-30  0.1250E-02  0.1250E-02
     -9.008 -0.8919E-27 -0.8919E-27  0.1250E-02  0.1250E-02
     -8.902 -0.1771E-23 -0.1771E-23  0.1250E-02  0.1250E-02
     -8.796 -0.1996E-20 -0.1996E-20  0.1250E-02  0.1250E-02
     -8.690 -0.1277E-17 -0.1277E-17  0.1250E-02  0.1250E-02
     -8.584 -0.4472E-15 -0.4472E-15  0.1250E-02  0.1250E-02
     -8.478 -0.9096E-13 -0.9096E-13  0.1250E-02  0.1250E-02
     -8.373 -0.1041E-10 -0.1041E-10  0.1250E-02  0.1250E-02
     -8.267 -0.6672E-09 -0.6672E-09  0.1250E-02  0.1250E-02
     -8.161 -0.2380E-07 -0.2380E-07  0.1250E-02  0.1250E-02
     -8.055 -0.4678E-06 -0.4678E-06  0.1250E-02  0.1250E-02
     -7.949 -0.4991E-05 -0.4991E-05  0.1249E-02  0.1249E-02
     -7.844 -0.2797E-04 -0.2797E-04  0.1246E-02  0.1246E-02
     -7.738 -0.7297E-04 -0.7297E-04  0.1239E-02  0.1239E-02
     -7.632 -0.9012E-05 -0.9012E-05  0.1238E-02  0.1238E-02
     -7.526  0.5313E-03  0.5313E-03  0.1294E-02  0.1294E-02
     -7.420  0.1823E-02  0.1823E-02  0.1487E-02  0.1487E-02
     -7.315  0.3247E-02  0.3247E-02  0.1830E-02  0.1830E-02
     -7.209  0.3411E-02  0.3411E-02  0.2191E-02  0.2191E-02
     -7.103  0.2115E-02  0.2115E-02  0.2415E-02  0.2415E-02
     -6.997  0.1752E-02  0.1752E-02  0.2601E-02  0.2601E-02
     -6.891  0.4449E-02  0.4449E-02  0.3071E-02  0.3071E-02
     -6.785  0.8023E-02  0.8023E-02  0.3920E-02  0.3920E-02
     -6.680  0.8053E-02  0.8053E-02  0.4772E-02  0.4772E-02
     -6.574  0.4482E-02  0.4482E-02  0.5247E-02  0.5247E-02
     -6.468  0.2207E-02  0.2207E-02  0.5480E-02  0.5480E-02
     -6.362  0.4351E-02  0.4351E-02  0.5940E-02  0.5940E-02
     -6.256  0.8744E-02  0.8744E-02  0.6866E-02  0.6866E-02
     -6.151  0.1116E-01  0.1116E-01  0.8047E-02  0.8047E-02
     -6.045  0.9764E-02  0.9764E-02  0.9080E-02  0.9080E-02
     -5.939  0.6845E-02  0.6845E-02  0.9804E-02  0.9804E-02
     -5.833  0.6357E-02  0.6357E-02  0.1048E-01  0.1048E-01
     -5.727  0.8885E-02  0.8885E-02  0.1142E-01  0.1142E-01
     -5.621  0.1173E-01  0.1173E-01  0.1266E-01  0.1266E-01
     -5.516  0.1238E-01  0.1238E-01  0.1397E-01  0.1397E-01
     -5.410  0.1012E-01  0.1012E-01  0.1504E-01  0.1504E-01
     -5.304  0.8222E-02  0.8222E-02  0.1591E-01  0.1591E-01
     -5.198  0.1044E-01  0.1044E-01  0.1701E-01  0.1701E-01
     -5.092  0.1269E-01  0.1269E-01  0.1836E-01  0.1836E-01
     -4.987  0.1192E-01  0.1192E-01  0.1962E-01  0.1962E-01
     -4.881  0.1384E-01  0.1384E-01  0.2108E-01  0.2108E-01
     -4.775  0.1760E-01  0.1760E-01  0.2294E-01  0.2294E-01
     -4.669  0.1692E-01  0.1692E-01  0.2473E-01  0.2473E-01
     -4.563  0.1482E-01  0.1482E-01  0.2630E-01  0.2630E-01
     -4.458  0.1462E-01  0.1462E-01  0.2785E-01  0.2785E-01
     -4.352  0.1514E-01  0.1514E-01  0.2945E-01  0.2945E-01
     -4.246  0.1669E-01  0.1669E-01  0.3122E-01  0.3122E-01
     -4.140  0.1889E-01  0.1889E-01  0.3321E-01  0.3321E-01
     -4.034  0.2199E-01  0.2199E-01  0.3554E-01  0.3554E-01
     -3.928  0.2669E-01  0.2669E-01  0.3837E-01  0.3837E-01
     -3.823  0.2960E-01  0.2960E-01  0.4150E-01  0.4150E-01
     -3.717  0.2813E-01  0.2813E-01  0.4447E-01  0.4447E-01
     -3.611  0.2682E-01  0.2682E-01  0.4731E-01  0.4731E-01
     -3.505  0.3076E-01  0.3076E-01  0.5057E-01  0.5057E-01
     -3.399  0.3900E-01  0.3900E-01  0.5470E-01  0.5470E-01
     -3.294  0.5075E-01  0.5075E-01  0.6007E-01  0.6007E-01
     -3.188  0.6349E-01  0.6349E-01  0.6678E-01  0.6678E-01
     -3.082  0.7329E-01  0.7329E-01  0.7454E-01  0.7454E-01
     -2.976  0.8106E-01  0.8106E-01  0.8312E-01  0.8312E-01
     -2.870  0.8808E-01  0.8808E-01  0.9244E-01  0.9244E-01
     -2.764  0.9830E-01  0.9830E-01  0.1028E+00  0.1028E+00
     -2.659  0.1160E+00  0.1160E+00  0.1151E+00  0.1151E+00
     -2.553  0.1353E+00  0.1353E+00  0.1294E+00  0.1294E+00
     -2.447  0.1596E+00  0.1596E+00  0.1463E+00  0.1463E+00
     -2.341  0.1917E+00  0.1917E+00  0.1666E+00  0.1666E+00
     -2.235  0.2081E+00  0.2081E+00  0.1886E+00  0.1886E+00
     -2.130  0.1946E+00  0.1946E+00  0.2092E+00  0.2092E+00
     -2.024  0.1704E+00  0.1704E+00  0.2272E+00  0.2272E+00
     -1.918  0.1659E+00  0.1659E+00  0.2448E+00  0.2448E+00
     -1.812  0.1859E+00  0.1859E+00  0.2645E+00  0.2645E+00
     -1.706  0.2120E+00  0.2120E+00  0.2869E+00  0.2869E+00
     -1.601  0.2272E+00  0.2272E+00  0.3109E+00  0.3109E+00
     -1.495  0.2422E+00  0.2422E+00  0.3366E+00  0.3366E+00
     -1.389  0.2730E+00  0.2730E+00  0.3654E+00  0.3654E+00
     -1.283  0.3043E+00  0.3043E+00  0.3976E+00  0.3976E+00
     -1.177  0.3214E+00  0.3214E+00  0.4316E+00  0.4316E+00
     -1.071  0.3203E+00  0.3203E+00  0.4655E+00  0.4655E+00
     -0.966  0.2977E+00  0.2977E+00  0.4970E+00  0.4970E+00
     -0.860  0.2715E+00  0.2715E+00  0.5258E+00  0.5258E+00
     -0.754  0.2698E+00  0.2698E+00  0.5543E+00  0.5543E+00
     -0.648  0.2997E+00  0.2997E+00  0.5860E+00  0.5860E+00
     -0.542  0.3337E+00  0.3337E+00  0.6213E+00  0.6213E+00
     -0.437  0.3390E+00  0.3390E+00  0.6572E+00  0.6572E+00
     -0.331  0.3257E+00  0.3257E+00  0.6917E+00  0.6917E+00
     -0.225  0.3238E+00  0.3238E+00  0.7259E+00  0.7259E+00
     -0.119  0.3450E+00  0.3450E+00  0.7624E+00  0.7624E+00
     -0.013  0.3949E+00  0.3949E+00  0.8042E+00  0.8042E+00
      0.093  0.4472E+00  0.4472E+00  0.8515E+00  0.8515E+00
      0.198  0.4299E+00  0.4299E+00  0.8970E+00  0.8970E+00
      0.304  0.3108E+00  0.3108E+00  0.9299E+00  0.9299E+00
      0.410  0.1573E+00  0.1573E+00  0.9466E+00  0.9466E+00
      0.516  0.6117E-01  0.6117E-01  0.9530E+00  0.9530E+00
      0.622  0.3496E-01  0.3496E-01  0.9567E+00  0.9567E+00
      0.727  0.3676E-01  0.3676E-01  0.9606E+00  0.9606E+00
      0.833  0.4009E-01  0.4009E-01  0.9649E+00  0.9649E+00
      0.939  0.3703E-01  0.3703E-01  0.9688E+00  0.9688E+00
      1.045  0.3045E-01  0.3045E-01  0.9720E+00  0.9720E+00
      1.151  0.2341E-01  0.2341E-01  0.9745E+00  0.9745E+00
      1.256  0.2047E-01  0.2047E-01  0.9767E+00  0.9767E+00
      1.362  0.3038E-01  0.3038E-01  0.9799E+00  0.9799E+00
      1.468  0.4365E-01  0.4365E-01  0.9845E+00  0.9845E+00
      1.574  0.4334E-01  0.4334E-01  0.9891E+00  0.9891E+00
      1.680  0.3421E-01  0.3421E-01  0.9927E+00  0.9927E+00
      1.786  0.2515E-01  0.2515E-01  0.9954E+00  0.9954E+00
      1.891  0.1827E-01  0.1827E-01  0.9973E+00  0.9973E+00
      1.997  0.1617E-01  0.1617E-01  0.9990E+00  0.9990E+00
      2.103  0.1841E-01  0.1841E-01  0.1001E+01  0.1001E+01
      2.209  0.2434E-01  0.2434E-01  0.1004E+01  0.1004E+01
      2.315  0.3132E-01  0.3132E-01  0.1007E+01  0.1007E+01
      2.420  0.3333E-01  0.3333E-01  0.1010E+01  0.1010E+01
      2.526  0.3117E-01  0.3117E-01  0.1014E+01  0.1014E+01
      2.632  0.3077E-01  0.3077E-01  0.1017E+01  0.1017E+01
      2.738  0.3267E-01  0.3267E-01  0.1020E+01  0.1020E+01
      2.844  0.3096E-01  0.3096E-01  0.1024E+01  0.1024E+01
      2.950  0.2540E-01  0.2540E-01  0.1026E+01  0.1026E+01
      3.055  0.2274E-01  0.2274E-01  0.1029E+01  0.1029E+01
      3.161  0.1924E-01  0.1924E-01  0.1031E+01  0.1031E+01
      3.267  0.1166E-01  0.1166E-01  0.1032E+01  0.1032E+01
      3.373  0.1021E-01  0.1021E-01  0.1033E+01  0.1033E+01
      3.479  0.2126E-01  0.2126E-01  0.1035E+01  0.1035E+01
      3.584  0.3594E-01  0.3594E-01  0.1039E+01  0.1039E+01
      3.690  0.4101E-01  0.4101E-01  0.1043E+01  0.1043E+01
      3.796  0.3398E-01  0.3398E-01  0.1047E+01  0.1047E+01
      3.902  0.2451E-01  0.2451E-01  0.1050E+01  0.1050E+01
      4.008  0.2160E-01  0.2160E-01  0.1052E+01  0.1052E+01
      4.113  0.2263E-01  0.2263E-01  0.1054E+01  0.1054E+01
      4.219  0.2139E-01  0.2139E-01  0.1057E+01  0.1057E+01
      4.325  0.1826E-01  0.1826E-01  0.1059E+01  0.1059E+01
      4.431  0.1632E-01  0.1632E-01  0.1060E+01  0.1060E+01
      4.537  0.1587E-01  0.1587E-01  0.1062E+01  0.1062E+01
      4.643  0.1774E-01  0.1774E-01  0.1064E+01  0.1064E+01
      4.748  0.2225E-01  0.2225E-01  0.1066E+01  0.1066E+01
      4.854  0.2238E-01  0.2238E-01  0.1069E+01  0.1069E+01
      4.960  0.1819E-01  0.1819E-01  0.1070E+01  0.1070E+01
      5.066  0.1797E-01  0.1797E-01  0.1072E+01  0.1072E+01
      5.172  0.2233E-01  0.2233E-01  0.1075E+01  0.1075E+01
      5.277  0.2869E-01  0.2869E-01  0.1078E+01  0.1078E+01
      5.383  0.3382E-01  0.3382E-01  0.1081E+01  0.1081E+01
      5.489  0.3251E-01  0.3251E-01  0.1085E+01  0.1085E+01
      5.595  0.2554E-01  0.2554E-01  0.1088E+01  0.1088E+01
      5.701  0.2230E-01  0.2230E-01  0.1090E+01  0.1090E+01
      5.807  0.2747E-01  0.2747E-01  0.1093E+01  0.1093E+01
      5.912  0.3047E-01  0.3047E-01  0.1096E+01  0.1096E+01
      6.018  0.2510E-01  0.2510E-01  0.1099E+01  0.1099E+01
      6.124  0.2192E-01  0.2192E-01  0.1101E+01  0.1101E+01
      6.230  0.2323E-01  0.2323E-01  0.1103E+01  0.1103E+01
      6.336  0.2247E-01  0.2247E-01  0.1106E+01  0.1106E+01
      6.441  0.2293E-01  0.2293E-01  0.1108E+01  0.1108E+01
      6.547  0.2838E-01  0.2838E-01  0.1111E+01  0.1111E+01
      6.653  0.3624E-01  0.3624E-01  0.1115E+01  0.1115E+01
      6.759  0.4422E-01  0.4422E-01  0.1120E+01  0.1120E+01
      6.865  0.4817E-01  0.4817E-01  0.1125E+01  0.1125E+01
      6.970  0.4305E-01  0.4305E-01  0.1129E+01  0.1129E+01
      7.076  0.3111E-01  0.3111E-01  0.1133E+01  0.1133E+01
      7.182  0.2282E-01  0.2282E-01  0.1135E+01  0.1135E+01
      7.288  0.2405E-01  0.2405E-01  0.1138E+01  0.1138E+01
      7.394  0.3038E-01  0.3038E-01  0.1141E+01  0.1141E+01
      7.500  0.3680E-01  0.3681E-01  0.1145E+01  0.1145E+01
      7.605  0.3891E-01  0.3892E-01  0.1149E+01  0.1149E+01
      7.711  0.3467E-01  0.3467E-01  0.1153E+01  0.1153E+01
      7.817  0.2967E-01  0.2967E-01  0.1156E+01  0.1156E+01
      7.923  0.2873E-01  0.2873E-01  0.1159E+01  0.1159E+01
      8.029  0.3100E-01  0.3101E-01  0.1162E+01  0.1162E+01
      8.134  0.3568E-01  0.3569E-01  0.1166E+01  0.1166E+01
      8.240  0.4080E-01  0.4080E-01  0.1170E+01  0.1170E+01
      8.346  0.3829E-01  0.3828E-01  0.1174E+01  0.1174E+01
      8.452  0.2887E-01  0.2887E-01  0.1177E+01  0.1177E+01
      8.558  0.2452E-01  0.2452E-01  0.1180E+01  0.1180E+01
      8.663  0.3137E-01  0.3138E-01  0.1183E+01  0.1183E+01
      8.769  0.4275E-01  0.4275E-01  0.1188E+01  0.1188E+01
      8.875  0.4776E-01  0.4776E-01  0.1193E+01  0.1193E+01
      8.981  0.4550E-01  0.4550E-01  0.1198E+01  0.1198E+01
      9.087  0.4040E-01  0.4040E-01  0.1202E+01  0.1202E+01
      9.193  0.3525E-01  0.3525E-01  0.1206E+01  0.1206E+01
      9.298  0.3303E-01  0.3303E-01  0.1209E+01  0.1209E+01
      9.404  0.3470E-01  0.3470E-01  0.1213E+01  0.1213E+01
      9.510  0.3501E-01  0.3501E-01  0.1216E+01  0.1216E+01
      9.616  0.3361E-01  0.3361E-01  0.1220E+01  0.1220E+01
      9.722  0.3824E-01  0.3825E-01  0.1224E+01  0.1224E+01
      9.827  0.4777E-01  0.4777E-01  0.1229E+01  0.1229E+01
      9.933  0.5103E-01  0.5103E-01  0.1234E+01  0.1234E+01
     10.039  0.4330E-01  0.4329E-01  0.1239E+01  0.1239E+01
     10.145  0.3513E-01  0.3513E-01  0.1243E+01  0.1243E+01
     10.251  0.3912E-01  0.3912E-01  0.1247E+01  0.1247E+01
     10.357  0.5294E-01  0.5295E-01  0.1252E+01  0.1252E+01
     10.462  0.5609E-01  0.5609E-01  0.1258E+01  0.1258E+01
     10.568  0.4373E-01  0.4373E-01  0.1263E+01  0.1263E+01
     10.674  0.4043E-01  0.4043E-01  0.1267E+01  0.1267E+01
     10.780  0.5157E-01  0.5157E-01  0.1273E+01  0.1273E+01
     10.886  0.5363E-01  0.5358E-01  0.1278E+01  0.1278E+01
     10.991  0.3903E-01  0.3890E-01  0.1283E+01  0.1283E+01
     11.097  0.1951E-01  0.1946E-01  0.1285E+01  0.1285E+01
     11.203  0.5102E-02  0.5207E-02  0.1285E+01  0.1285E+01
     11.309 -0.6259E-03 -0.5186E-03  0.1285E+01  0.1285E+01
     11.415 -0.9207E-03 -0.8988E-03  0.1285E+01  0.1285E+01
     11.520 -0.2829E-03 -0.2903E-03  0.1285E+01  0.1285E+01
     11.626 -0.4226E-04 -0.4586E-04  0.1285E+01  0.1285E+01
     11.732 -0.3425E-05 -0.3969E-05  0.1285E+01  0.1285E+01
     11.838 -0.1555E-06 -0.1942E-06  0.1285E+01  0.1285E+01
     11.944 -0.3997E-08 -0.5427E-08  0.1285E+01  0.1285E+01
     12.050 -0.5848E-10 -0.8685E-10  0.1285E+01  0.1285E+01
     12.155 -0.4876E-12 -0.7966E-12  0.1285E+01  0.1285E+01
     12.261 -0.2318E-14 -0.4189E-14  0.1285E+01  0.1285E+01
     12.367 -0.6995E-17 -0.1195E-16  0.1285E+01  0.1285E+01
     12.473  0.0000E+00  0.0000E+00  0.1285E+01  0.1285E+01
     12.579  0.0000E+00  0.0000E+00  0.1285E+01  0.1285E+01
     12.684  0.0000E+00  0.0000E+00  0.1285E+01  0.1285E+01
     12.790  0.0000E+00  0.0000E+00  0.1285E+01  0.1285E+01
     12.896  0.0000E+00  0.0000E+00  0.1285E+01  0.1285E+01
     13.002  0.0000E+00  0.0000E+00  0.1285E+01  0.1285E+01
     13.108  0.0000E+00  0.0000E+00  0.1285E+01  0.1285E+01
