  145  145  800    2
  0.2265927E+02  0.1089000E-08  0.1089000E-08  0.2770500E-08  0.5000000E-15
  1.000000000000000E-004
  CAR 
 unknown system                          
   1590      3   1028
 
  0.0000000E+00  0.0000000E+00  0.0000000E+00  0.1111111E+00
      1        -16.636670      -16.636670   1.000000   1.000000
      2         -7.505559       -7.505559   1.000000   1.000000
      3         -6.909569       -6.909569   1.000000   1.000000
      4         -6.218140       -6.218140   1.000000   1.000000
      5         -6.218140       -6.218140   1.000000   1.000000
      6         -6.217536       -6.217536   1.000000   1.000000
      7         -6.216811       -6.216811   1.000000   1.000000
      8         -6.095267       -6.095267   1.000000   1.000000
      9         -5.667006       -5.667006   1.000000   1.000000
     10         -5.667006       -5.667006   1.000000   1.000000
     11         -5.661840       -5.661840   1.000000   1.000000
     12         -5.650681       -5.650681   1.000000   1.000000
     13         -5.065825       -5.065825   1.000000   1.000000
     14         -5.065825       -5.065825   1.000000   1.000000
     15         -5.063893       -5.063893   1.000000   1.000000
     16         -5.057899       -5.057899   1.000000   1.000000
     17         -5.045680       -5.045680   1.000000   1.000000
     18         -4.936644       -4.936644   1.000000   1.000000
     19         -4.936644       -4.936644   1.000000   1.000000
     20         -4.920218       -4.920218   1.000000   1.000000
     21         -4.894631       -4.894631   1.000000   1.000000
     22         -4.633522       -4.633522   1.000000   1.000000
     23         -4.633522       -4.633522   1.000000   1.000000
     24         -4.611200       -4.611200   1.000000   1.000000
     25         -4.606521       -4.606521   1.000000   1.000000
     26         -4.180023       -4.180023   1.000000   1.000000
     27         -4.180023       -4.180023   1.000000   1.000000
     28         -4.079391       -4.079391   1.000000   1.000000
     29         -4.071536       -4.071536   1.000000   1.000000
     30         -4.025910       -4.025910   1.000000   1.000000
     31         -4.025910       -4.025910   1.000000   1.000000
     32         -3.993151       -3.993151   1.000000   1.000000
     33         -3.980613       -3.980613   1.000000   1.000000
     34         -3.938399       -3.938399   1.000000   1.000000
     35         -3.732503       -3.732503   1.000000   1.000000
     36         -3.732503       -3.732503   1.000000   1.000000
     37         -3.526225       -3.526225   1.000000   1.000000
     38         -3.510723       -3.510723   1.000000   1.000000
     39         -3.508187       -3.508187   1.000000   1.000000
     40         -3.507795       -3.507795   1.000000   1.000000
     41         -3.507795       -3.507795   1.000000   1.000000
     42         -3.506630       -3.506630   1.000000   1.000000
     43         -3.401483       -3.401483   1.000000   1.000000
     44         -3.401483       -3.401483   1.000000   1.000000
     45         -3.285565       -3.285565   1.000000   1.000000
     46         -3.183849       -3.183849   1.000000   1.000000
     47         -3.117998       -3.117998   1.000000   1.000000
     48         -3.112838       -3.112838   1.000000   1.000000
     49         -3.106006       -3.106006   1.000000   1.000000
     50         -3.105418       -3.105418   1.000000   1.000000
     51         -3.105418       -3.105418   1.000000   1.000000
     52         -3.087018       -3.087018   1.000000   1.000000
     53         -3.077298       -3.077298   1.000000   1.000000
     54         -3.060350       -3.060350   1.000000   1.000000
     55         -3.060350       -3.060350   1.000000   1.000000
     56         -3.049170       -3.049170   1.000000   1.000000
     57         -3.019235       -3.019235   1.000000   1.000000
     58         -3.013849       -3.013849   1.000000   1.000000
     59         -2.988354       -2.988354   1.000000   1.000000
     60         -2.988354       -2.988354   1.000000   1.000000
     61         -2.987301       -2.987301   1.000000   1.000000
     62         -2.987140       -2.987140   1.000000   1.000000
     63         -2.987058       -2.987058   1.000000   1.000000
     64         -2.986960       -2.986960   1.000000   1.000000
     65         -2.985302       -2.985302   1.000000   1.000000
     66         -2.985302       -2.985302   1.000000   1.000000
     67         -2.962256       -2.962256   1.000000   1.000000
     68         -2.950247       -2.950247   1.000000   1.000000
     69         -2.950247       -2.950247   1.000000   1.000000
     70         -2.915872       -2.915872   1.000000   1.000000
     71         -2.915311       -2.915311   1.000000   1.000000
     72         -2.912852       -2.912852   1.000000   1.000000
     73         -2.912852       -2.912852   1.000000   1.000000
     74         -2.905889       -2.905889   1.000000   1.000000
     75         -2.866489       -2.866489   1.000000   1.000000
     76         -2.866489       -2.866489   1.000000   1.000000
     77         -2.865393       -2.865393   1.000000   1.000000
     78         -2.864098       -2.864098   1.000000   1.000000
     79         -2.829147       -2.829147   1.000000   1.000000
     80         -2.823359       -2.823359   1.000000   1.000000
     81         -2.815262       -2.815262   1.000000   1.000000
     82         -2.815262       -2.815262   1.000000   1.000000
     83         -2.812246       -2.812246   1.000000   1.000000
     84         -2.704468       -2.704468   1.000000   1.000000
     85         -2.698589       -2.698589   1.000000   1.000000
     86         -2.697382       -2.697382   1.000000   1.000000
     87         -2.697382       -2.697382   1.000000   1.000000
     88         -2.697015       -2.697015   1.000000   1.000000
     89         -2.685386       -2.685386   1.000000   1.000000
     90         -2.673083       -2.673083   1.000000   1.000000
     91         -2.668895       -2.668895   1.000000   1.000000
     92         -2.668239       -2.668239   1.000000   1.000000
     93         -2.668239       -2.668239   1.000000   1.000000
     94         -2.666474       -2.666474   1.000000   1.000000
     95         -2.666474       -2.666474   1.000000   1.000000
     96         -2.663785       -2.663785   1.000000   1.000000
     97         -2.663785       -2.663785   1.000000   1.000000
     98         -2.661935       -2.661935   1.000000   1.000000
     99         -2.642830       -2.642830   1.000000   1.000000
    100         -2.640645       -2.640645   1.000000   1.000000
    101         -2.618227       -2.618227   1.000000   1.000000
    102         -2.614082       -2.614082   1.000000   1.000000
    103         -2.614082       -2.614082   1.000000   1.000000
    104         -2.612218       -2.612218   1.000000   1.000000
    105         -2.607778       -2.607778   1.000000   1.000000
    106         -2.607778       -2.607778   1.000000   1.000000
    107         -2.557369       -2.557369   1.000000   1.000000
    108         -2.557364       -2.557364   1.000000   1.000000
    109         -2.521558       -2.521558   1.000000   1.000000
    110         -2.481528       -2.481528   1.000000   1.000000
    111         -2.450951       -2.450951   1.000000   1.000000
    112         -2.450951       -2.450951   1.000000   1.000000
    113         -2.407742       -2.407742   1.000000   1.000000
    114         -2.405981       -2.405981   1.000000   1.000000
    115         -2.403963       -2.403963   1.000000   1.000000
    116         -2.403963       -2.403963   1.000000   1.000000
    117         -2.401366       -2.401366   1.000000   1.000000
    118         -2.389577       -2.389577   1.000000   1.000000
    119         -2.387610       -2.387610   1.000000   1.000000
    120         -2.387610       -2.387610   1.000000   1.000000
    121         -2.387170       -2.387170   1.000000   1.000000
    122         -2.367900       -2.367900   1.000000   1.000000
    123         -2.367900       -2.367900   1.000000   1.000000
    124         -2.353279       -2.353279   1.000000   1.000000
    125         -2.353279       -2.353279   1.000000   1.000000
    126         -2.351063       -2.351063   1.000000   1.000000
    127         -2.350644       -2.350644   1.000000   1.000000
    128         -2.336423       -2.336423   1.000000   1.000000
    129         -2.330241       -2.330241   1.000000   1.000000
    130         -2.330241       -2.330241   1.000000   1.000000
    131         -2.327001       -2.327001   1.000000   1.000000
    132         -2.326708       -2.326708   1.000000   1.000000
    133         -2.325677       -2.325677   1.000000   1.000000
    134         -2.324981       -2.324981   1.000000   1.000000
    135         -2.323909       -2.323909   1.000000   1.000000
    136         -2.323909       -2.323909   1.000000   1.000000
    137         -2.317702       -2.317702   1.000000   1.000000
    138         -2.315636       -2.315636   1.000000   1.000000
    139         -2.315636       -2.315636   1.000000   1.000000
    140         -2.315563       -2.315563   1.000000   1.000000
    141         -2.314620       -2.314620   1.000000   1.000000
    142         -2.283256       -2.283256   1.000000   1.000000
    143         -2.283014       -2.283014   1.000000   1.000000
    144         -2.282472       -2.282472   1.000000   1.000000
    145         -2.282472       -2.282472   1.000000   1.000000
    146         -2.281899       -2.281899   1.000000   1.000000
    147         -2.281899       -2.281899   1.000000   1.000000
    148         -2.276794       -2.276794   1.000000   1.000000
    149         -2.276127       -2.276128   1.000000   1.000000
    150         -2.271451       -2.271451   1.000000   1.000000
    151         -2.262444       -2.262444   1.000000   1.000000
    152         -2.262444       -2.262444   1.000000   1.000000
    153         -2.262204       -2.262204   1.000000   1.000000
    154         -2.250184       -2.250184   1.000000   1.000000
    155         -2.222190       -2.222190   1.000000   1.000000
    156         -2.222190       -2.222190   1.000000   1.000000
    157         -2.219108       -2.219108   1.000000   1.000000
    158         -2.217292       -2.217292   1.000000   1.000000
    159         -2.196490       -2.196490   1.000000   1.000000
    160         -2.188700       -2.188700   1.000000   1.000000
    161         -2.188700       -2.188700   1.000000   1.000000
    162         -2.186938       -2.186938   1.000000   1.000000
    163         -2.186938       -2.186938   1.000000   1.000000
    164         -2.186702       -2.186702   1.000000   1.000000
    165         -2.186014       -2.186014   1.000000   1.000000
    166         -2.182440       -2.182440   1.000000   1.000000
    167         -2.172492       -2.172492   1.000000   1.000000
    168         -2.172492       -2.172492   1.000000   1.000000
    169         -2.167317       -2.167317   1.000000   1.000000
    170         -2.164921       -2.164921   1.000000   1.000000
    171         -2.164921       -2.164921   1.000000   1.000000
    172         -2.162551       -2.162551   1.000000   1.000000
    173         -2.159175       -2.159175   1.000000   1.000000
    174         -2.125949       -2.125949   1.000000   1.000000
    175         -2.125949       -2.125949   1.000000   1.000000
    176         -2.124790       -2.124790   1.000000   1.000000
    177         -2.122140       -2.122140   1.000000   1.000000
    178         -2.097969       -2.097969   1.000000   1.000000
    179         -2.097969       -2.097969   1.000000   1.000000
    180         -2.042463       -2.042463   1.000000   1.000000
    181         -2.038242       -2.038242   1.000000   1.000000
    182         -2.035777       -2.035777   1.000000   1.000000
    183         -2.035777       -2.035777   1.000000   1.000000
    184         -2.007391       -2.007391   1.000000   1.000000
    185         -2.000621       -2.000621   1.000000   1.000000
    186         -2.000573       -2.000573   1.000000   1.000000
    187         -2.000573       -2.000573   1.000000   1.000000
    188         -1.981108       -1.981108   1.000000   1.000000
    189         -1.980668       -1.980668   1.000000   1.000000
    190         -1.978305       -1.978305   1.000000   1.000000
    191         -1.978305       -1.978305   1.000000   1.000000
    192         -1.974761       -1.974761   1.000000   1.000000
    193         -1.972580       -1.972580   1.000000   1.000000
    194         -1.956733       -1.956733   1.000000   1.000000
    195         -1.942391       -1.942391   1.000000   1.000000
    196         -1.941201       -1.941201   1.000000   1.000000
    197         -1.941201       -1.941201   1.000000   1.000000
    198         -1.939987       -1.939987   1.000000   1.000000
    199         -1.938938       -1.938938   1.000000   1.000000
    200         -1.935471       -1.935471   1.000000   1.000000
    201         -1.935471       -1.935471   1.000000   1.000000
    202         -1.886951       -1.886951   1.000000   1.000000
    203         -1.856639       -1.856639   1.000000   1.000000
    204         -1.856639       -1.856639   1.000000   1.000000
    205         -1.855746       -1.855746   1.000000   1.000000
    206         -1.850319       -1.850319   1.000000   1.000000
    207         -1.847871       -1.847871   1.000000   1.000000
    208         -1.847871       -1.847871   1.000000   1.000000
    209         -1.840813       -1.840813   1.000000   1.000000
    210         -1.838435       -1.838435   1.000000   1.000000
    211         -1.796095       -1.796095   1.000000   1.000000
    212         -1.796095       -1.796095   1.000000   1.000000
    213         -1.788038       -1.788038   1.000000   1.000000
    214         -1.783348       -1.783348   1.000000   1.000000
    215         -1.783348       -1.783348   1.000000   1.000000
    216         -1.767730       -1.767730   1.000000   1.000000
    217         -1.767730       -1.767730   1.000000   1.000000
    218         -1.762610       -1.762610   1.000000   1.000000
    219         -1.759488       -1.759488   1.000000   1.000000
    220         -1.752869       -1.752869   1.000000   1.000000
    221         -1.752869       -1.752869   1.000000   1.000000
    222         -1.752205       -1.752205   1.000000   1.000000
    223         -1.751525       -1.751525   1.000000   1.000000
    224         -1.744762       -1.744762   1.000000   1.000000
    225         -1.740245       -1.740245   1.000000   1.000000
    226         -1.735995       -1.735995   1.000000   1.000000
    227         -1.735832       -1.735832   1.000000   1.000000
    228         -1.735832       -1.735832   1.000000   1.000000
    229         -1.733436       -1.733436   1.000000   1.000000
    230         -1.733436       -1.733436   1.000000   1.000000
    231         -1.728380       -1.728380   1.000000   1.000000
    232         -1.689174       -1.689174   1.000000   1.000000
    233         -1.674811       -1.674811   1.000000   1.000000
    234         -1.665920       -1.665920   1.000000   1.000000
    235         -1.665920       -1.665920   1.000000   1.000000
    236         -1.662800       -1.662800   1.000000   1.000000
    237         -1.661001       -1.661001   1.000000   1.000000
    238         -1.661001       -1.661001   1.000000   1.000000
    239         -1.660732       -1.660732   1.000000   1.000000
    240         -1.653149       -1.653149   1.000000   1.000000
    241         -1.652028       -1.652028   1.000000   1.000000
    242         -1.647746       -1.647746   1.000000   1.000000
    243         -1.646900       -1.646900   1.000000   1.000000
    244         -1.646774       -1.646774   1.000000   1.000000
    245         -1.646774       -1.646774   1.000000   1.000000
    246         -1.644515       -1.644515   1.000000   1.000000
    247         -1.643559       -1.643559   1.000000   1.000000
    248         -1.643559       -1.643559   1.000000   1.000000
    249         -1.641414       -1.641414   1.000000   1.000000
    250         -1.614609       -1.614609   1.000000   1.000000
    251         -1.611721       -1.611721   1.000000   1.000000
    252         -1.611721       -1.611721   1.000000   1.000000
    253         -1.572372       -1.572372   1.000000   1.000000
    254         -1.564629       -1.564629   1.000000   1.000000
    255         -1.564629       -1.564629   1.000000   1.000000
    256         -1.562988       -1.562988   1.000000   1.000000
    257         -1.562988       -1.562988   1.000000   1.000000
    258         -1.562341       -1.562341   1.000000   1.000000
    259         -1.561860       -1.561860   1.000000   1.000000
    260         -1.561387       -1.561387   1.000000   1.000000
    261         -1.493593       -1.493593   1.000000   1.000000
    262         -1.482641       -1.482641   1.000000   1.000000
    263         -1.481419       -1.481419   1.000000   1.000000
    264         -1.478379       -1.478379   1.000000   1.000000
    265         -1.478119       -1.478119   1.000000   1.000000
    266         -1.478119       -1.478119   1.000000   1.000000
    267         -1.477377       -1.477377   1.000000   1.000000
    268         -1.476278       -1.476278   1.000000   1.000000
    269         -1.476278       -1.476278   1.000000   1.000000
    270         -1.475750       -1.475750   1.000000   1.000000
    271         -1.475059       -1.475059   1.000000   1.000000
    272         -1.470838       -1.470838   1.000000   1.000000
    273         -1.470838       -1.470838   1.000000   1.000000
    274         -1.452056       -1.452056   1.000000   1.000000
    275         -1.451184       -1.451184   1.000000   1.000000
    276         -1.451184       -1.451184   1.000000   1.000000
    277         -1.447455       -1.447455   1.000000   1.000000
    278         -1.444121       -1.444121   1.000000   1.000000
    279         -1.444121       -1.444121   1.000000   1.000000
    280         -1.440515       -1.440515   1.000000   1.000000
    281         -1.426163       -1.426163   1.000000   1.000000
    282         -1.415685       -1.415685   1.000000   1.000000
    283         -1.411082       -1.411082   1.000000   1.000000
    284         -1.409260       -1.409260   1.000000   1.000000
    285         -1.409260       -1.409260   1.000000   1.000000
    286         -1.402480       -1.402480   1.000000   1.000000
    287         -1.396416       -1.396416   1.000000   1.000000
    288         -1.396015       -1.396015   1.000000   1.000000
    289         -1.393204       -1.393204   1.000000   1.000000
    290         -1.393204       -1.393204   1.000000   1.000000
    291         -1.380032       -1.380032   1.000000   1.000000
    292         -1.379294       -1.379294   1.000000   1.000000
    293         -1.379294       -1.379294   1.000000   1.000000
    294         -1.337632       -1.337632   1.000000   1.000000
    295         -1.336608       -1.336608   1.000000   1.000000
    296         -1.326042       -1.326042   1.000000   1.000000
    297         -1.326042       -1.326042   1.000000   1.000000
    298         -1.318164       -1.318164   1.000000   1.000000
    299         -1.313543       -1.313543   1.000000   1.000000
    300         -1.313543       -1.313543   1.000000   1.000000
    301         -1.307461       -1.307461   1.000000   1.000000
    302         -1.297462       -1.297462   1.000000   1.000000
    303         -1.297462       -1.297462   1.000000   1.000000
    304         -1.294831       -1.294831   1.000000   1.000000
    305         -1.294831       -1.294831   1.000000   1.000000
    306         -1.292883       -1.292883   1.000000   1.000000
    307         -1.284546       -1.284546   1.000000   1.000000
    308         -1.283572       -1.283572   1.000000   1.000000
    309         -1.283572       -1.283572   1.000000   1.000000
    310         -1.280048       -1.280048   1.000000   1.000000
    311         -1.278151       -1.278151   1.000000   1.000000
    312         -1.265648       -1.265648   1.000000   1.000000
    313         -1.265648       -1.265648   1.000000   1.000000
    314         -1.263384       -1.263384   1.000000   1.000000
    315         -1.257390       -1.257390   1.000000   1.000000
    316         -1.255009       -1.255009   1.000000   1.000000
    317         -1.252599       -1.252599   1.000000   1.000000
    318         -1.251403       -1.251403   1.000000   1.000000
    319         -1.249544       -1.249544   1.000000   1.000000
    320         -1.249544       -1.249544   1.000000   1.000000
    321         -1.247562       -1.247562   1.000000   1.000000
    322         -1.246688       -1.246688   1.000000   1.000000
    323         -1.245669       -1.245669   1.000000   1.000000
    324         -1.245114       -1.245114   1.000000   1.000000
    325         -1.245114       -1.245114   1.000000   1.000000
    326         -1.244039       -1.244039   1.000000   1.000000
    327         -1.244039       -1.244039   1.000000   1.000000
    328         -1.239710       -1.239710   1.000000   1.000000
    329         -1.235580       -1.235580   1.000000   1.000000
    330         -1.235580       -1.235580   1.000000   1.000000
    331         -1.218446       -1.218446   1.000000   1.000000
    332         -1.211299       -1.211299   1.000000   1.000000
    333         -1.211299       -1.211299   1.000000   1.000000
    334         -1.207166       -1.207166   1.000000   1.000000
    335         -1.203178       -1.203178   1.000000   1.000000
    336         -1.203178       -1.203178   1.000000   1.000000
    337         -1.203148       -1.203148   1.000000   1.000000
    338         -1.201543       -1.201543   1.000000   1.000000
    339         -1.199534       -1.199534   1.000000   1.000000
    340         -1.199240       -1.199240   1.000000   1.000000
    341         -1.197629       -1.197629   1.000000   1.000000
    342         -1.197629       -1.197629   1.000000   1.000000
    343         -1.195674       -1.195674   1.000000   1.000000
    344         -1.193385       -1.193385   1.000000   1.000000
    345         -1.191478       -1.191478   1.000000   1.000000
    346         -1.191478       -1.191478   1.000000   1.000000
    347         -1.189784       -1.189784   1.000000   1.000000
    348         -1.165565       -1.165565   1.000000   1.000000
    349         -1.161864       -1.161864   1.000000   1.000000
    350         -1.151740       -1.151741   1.000000   1.000000
    351         -1.151740       -1.151741   1.000000   1.000000
    352         -1.150400       -1.150400   1.000000   1.000000
    353         -1.148124       -1.148124   1.000000   1.000000
    354         -1.147815       -1.147815   1.000000   1.000000
    355         -1.147247       -1.147247   1.000000   1.000000
    356         -1.147247       -1.147247   1.000000   1.000000
    357         -1.145874       -1.145874   1.000000   1.000000
    358         -1.143962       -1.143962   1.000000   1.000000
    359         -1.143962       -1.143962   1.000000   1.000000
    360         -1.131243       -1.131243   1.000000   1.000000
    361         -1.131222       -1.131222   1.000000   1.000000
    362         -1.131222       -1.131222   1.000000   1.000000
    363         -1.130710       -1.130710   1.000000   1.000000
    364         -1.114276       -1.114276   1.000000   1.000000
    365         -1.112474       -1.112474   1.000000   1.000000
    366         -1.112474       -1.112474   1.000000   1.000000
    367         -1.110114       -1.110114   1.000000   1.000000
    368         -1.108024       -1.108024   1.000000   1.000000
    369         -1.108024       -1.108024   1.000000   1.000000
    370         -1.107396       -1.107396   1.000000   1.000000
    371         -1.103943       -1.103943   1.000000   1.000000
    372         -1.101776       -1.101777   1.000000   1.000000
    373         -1.100944       -1.100944   1.000000   1.000000
    374         -1.100133       -1.100133   1.000000   1.000000
    375         -1.099582       -1.099582   1.000000   1.000000
    376         -1.099582       -1.099582   1.000000   1.000000
    377         -1.097493       -1.097493   1.000000   1.000000
    378         -1.097493       -1.097493   1.000000   1.000000
    379         -1.095373       -1.095373   1.000000   1.000000
    380         -1.084031       -1.084031   1.000000   1.000000
    381         -1.084031       -1.084031   1.000000   1.000000
    382         -1.064279       -1.064279   1.000000   1.000000
    383         -1.060793       -1.060793   1.000000   1.000000
    384         -1.058427       -1.058427   1.000000   1.000000
    385         -1.058427       -1.058427   1.000000   1.000000
    386         -1.049057       -1.049057   1.000000   1.000000
    387         -1.039274       -1.039274   1.000000   1.000000
    388         -1.038634       -1.038634   1.000000   1.000000
    389         -1.038634       -1.038634   1.000000   1.000000
    390         -1.031512       -1.031512   1.000000   1.000000
    391         -1.028657       -1.028657   1.000000   1.000000
    392         -1.028657       -1.028657   1.000000   1.000000
    393         -1.027545       -1.027545   1.000000   1.000000
    394         -0.968415       -0.968415   1.000000   1.000000
    395         -0.946165       -0.946164   1.000000   1.000000
    396         -0.942635       -0.942635   1.000000   1.000000
    397         -0.942635       -0.942635   1.000000   1.000000
    398         -0.941656       -0.941656   1.000000   1.000000
    399         -0.938279       -0.938279   1.000000   1.000000
    400         -0.937562       -0.937562   1.000000   1.000000
    401         -0.937562       -0.937562   1.000000   1.000000
    402         -0.934979       -0.934979   1.000000   1.000000
    403         -0.923841       -0.923841   1.000000   1.000000
    404         -0.923438       -0.923438   1.000000   1.000000
    405         -0.922083       -0.922083   1.000000   1.000000
    406         -0.922083       -0.922083   1.000000   1.000000
    407         -0.907475       -0.907475   1.000000   1.000000
    408         -0.905759       -0.905759   1.000000   1.000000
    409         -0.904728       -0.904728   1.000000   1.000000
    410         -0.904728       -0.904728   1.000000   1.000000
    411         -0.902562       -0.902562   1.000000   1.000000
    412         -0.902562       -0.902562   1.000000   1.000000
    413         -0.901610       -0.901610   1.000000   1.000000
    414         -0.900068       -0.900068   1.000000   1.000000
    415         -0.898618       -0.898618   1.000000   1.000000
    416         -0.896890       -0.896890   1.000000   1.000000
    417         -0.896890       -0.896890   1.000000   1.000000
    418         -0.893644       -0.893644   1.000000   1.000000
    419         -0.888127       -0.888127   1.000000   1.000000
    420         -0.886401       -0.886401   1.000000   1.000000
    421         -0.886401       -0.886401   1.000000   1.000000
    422         -0.875331       -0.875331   1.000000   1.000000
    423         -0.875331       -0.875331   1.000000   1.000000
    424         -0.853611       -0.853611   1.000000   1.000000
    425         -0.846923       -0.846923   1.000000   1.000000
    426         -0.845157       -0.845157   1.000000   1.000000
    427         -0.845157       -0.845157   1.000000   1.000000
    428         -0.842684       -0.842684   1.000000   1.000000
    429         -0.836802       -0.836802   1.000000   1.000000
    430         -0.834782       -0.834782   1.000000   1.000000
    431         -0.834782       -0.834782   1.000000   1.000000
    432         -0.822228       -0.822228   1.000000   1.000000
    433         -0.820141       -0.820141   1.000000   1.000000
    434         -0.820141       -0.820141   1.000000   1.000000
    435         -0.818712       -0.818712   1.000000   1.000000
    436         -0.810877       -0.810877   1.000000   1.000000
    437         -0.810877       -0.810877   1.000000   1.000000
    438         -0.809631       -0.809631   1.000000   1.000000
    439         -0.808725       -0.808725   1.000000   1.000000
    440         -0.807869       -0.807869   1.000000   1.000000
    441         -0.802669       -0.802669   1.000000   1.000000
    442         -0.802537       -0.802538   1.000000   1.000000
    443         -0.802537       -0.802538   1.000000   1.000000
    444         -0.801082       -0.801082   1.000000   1.000000
    445         -0.792767       -0.792767   1.000000   1.000000
    446         -0.792767       -0.792767   1.000000   1.000000
    447         -0.791356       -0.791356   1.000000   1.000000
    448         -0.786424       -0.786424   1.000000   1.000000
    449         -0.785157       -0.785157   1.000000   1.000000
    450         -0.765301       -0.765301   1.000000   1.000000
    451         -0.765301       -0.765301   1.000000   1.000000
    452         -0.745082       -0.745082   1.000000   1.000000
    453         -0.744808       -0.744808   1.000000   1.000000
    454         -0.744638       -0.744638   1.000000   1.000000
    455         -0.744638       -0.744638   1.000000   1.000000
    456         -0.738148       -0.738148   1.000000   1.000000
    457         -0.731814       -0.731814   1.000000   1.000000
    458         -0.725168       -0.725168   1.000000   1.000000
    459         -0.725168       -0.725168   1.000000   1.000000
    460         -0.699694       -0.699694   1.000000   1.000000
    461         -0.693517       -0.693517   1.000000   1.000000
    462         -0.692537       -0.692537   1.000000   1.000000
    463         -0.677676       -0.677676   1.000000   1.000000
    464         -0.677676       -0.677676   1.000000   1.000000