unknown system                          
           1
    10.890000    0.000000    0.000000
     0.000000   10.890000    0.000000
     0.000000    0.000000   27.705000
   Cu   O 
   144     1
Direct configuration=     1
   0.00000000  0.00000000  0.00000000
   0.00000000  0.33333333  0.00000000
   0.00000000  0.66666667  0.00000000
   0.33333333  0.00000000  0.00000000
   0.33333333  0.33333333  0.00000000
   0.33333333  0.66666667  0.00000000
   0.66666667  0.00000000  0.00000000
   0.66666667  0.33333333  0.00000000
   0.66666667  0.66666667  0.00000000
   0.16666667  0.16666667  0.00000000
   0.16666667  0.50000000  0.00000000
   0.16666667  0.83333333  0.00000000
   0.50000000  0.16666667  0.00000000
   0.50000000  0.50000000  0.00000000
   0.50000000  0.83333333  0.00000000
   0.83333333  0.16666667  0.00000000
   0.83333333  0.50000000  0.00000000
   0.83333333  0.83333333  0.00000000
   0.00000000  0.16666667  0.06551164
   0.00000000  0.50000000  0.06551164
   0.00000000  0.83333333  0.06551164
   0.33333333  0.16666667  0.06551164
   0.33333333  0.50000000  0.06551164
   0.33333333  0.83333333  0.06551164
   0.66666667  0.16666667  0.06551164
   0.66666667  0.50000000  0.06551164
   0.66666667  0.83333333  0.06551164
   0.16666667  0.00000000  0.06551164
   0.16666667  0.33333333  0.06551164
   0.16666667  0.66666667  0.06551164
   0.50000000  0.00000000  0.06551164
   0.50000000  0.33333333  0.06551164
   0.50000000  0.66666667  0.06551164
   0.83333333  0.00000000  0.06551164
   0.83333333  0.33333333  0.06551164
   0.83333333  0.66666667  0.06551164
   0.00000000  0.00000000  0.13119553
   0.00000000  0.33333333  0.13119553
   0.00000000  0.66666667  0.13119553
   0.33333333  0.00000000  0.13119553
   0.33333333  0.33333333  0.13119553
   0.33333333  0.66666667  0.13119553
   0.66666667  0.00000000  0.13119553
   0.66666667  0.33333333  0.13119553
   0.66666667  0.66666667  0.13119553
   0.16666667  0.16666667  0.13119553
   0.16666667  0.50000000  0.13119553
   0.16666667  0.83333333  0.13119553
   0.50000000  0.16666667  0.13119553
   0.50000000  0.50000000  0.13119553
   0.50000000  0.83333333  0.13119553
   0.83333333  0.16666667  0.13119553
   0.83333333  0.50000000  0.13119553
   0.83333333  0.83333333  0.13119553
   0.00000000  0.16666667  0.19620680
   0.00000000  0.50000000  0.19620680
   0.00000000  0.83333333  0.19620680
   0.33333333  0.16666667  0.19620680
   0.33333333  0.50000000  0.19620680
   0.33333333  0.83333333  0.19620680
   0.66666667  0.16666667  0.19620680
   0.66666667  0.50000000  0.19620680
   0.66666667  0.83333333  0.19620680
   0.16666667  0.00000000  0.19620680
   0.16666667  0.33333333  0.19620680
   0.16666667  0.66666667  0.19620680
   0.50000000  0.00000000  0.19620680
   0.50000000  0.33333333  0.19620680
   0.50000000  0.66666667  0.19620680
   0.83333333  0.00000000  0.19620680
   0.83333333  0.33333333  0.19620680
   0.83333333  0.66666667  0.19620680
   0.00000000  0.00000000  0.25873860
   0.00000000  0.33333333  0.25873860
   0.00000000  0.66666667  0.25873860
   0.33333333  0.00000000  0.25873860
   0.33333333  0.33333333  0.25873860
   0.33333333  0.66666667  0.25873860
   0.66666667  0.00000000  0.25873860
   0.66666667  0.33333333  0.25873860
   0.66666667  0.66666667  0.25873860
   0.16666667  0.16666667  0.25873860
   0.16666667  0.50000000  0.25873860
   0.16666667  0.83333333  0.25873860
   0.50000000  0.16666667  0.25873860
   0.50000000  0.50000000  0.25873860
   0.50000000  0.83333333  0.25873860
   0.83333333  0.16666667  0.25873860
   0.83333333  0.50000000  0.25873860
   0.83333333  0.83333333  0.25873860
   0.00000000  0.16666667  0.32119954
   0.00000000  0.50000000  0.32119954
   0.00000000  0.83333333  0.32119954
   0.33333333  0.16666667  0.32119954
   0.33333333  0.50000000  0.32119954
   0.33333333  0.83333333  0.32119954
   0.66666667  0.16666667  0.32119954
   0.66666667  0.50000000  0.32119954
   0.66666667  0.83333333  0.32119954
   0.16666667  0.00000000  0.32119954
   0.16666667  0.33333333  0.32119954
   0.16666667  0.66666667  0.32119954
   0.50000000  0.00000000  0.32119954
   0.50000000  0.33333333  0.32119954
   0.50000000  0.66666667  0.32119954
   0.83333333  0.00000000  0.32119954
   0.83333333  0.33333333  0.32119954
   0.83333333  0.66666667  0.32119954
   0.00000000  0.00000000  0.38476372
   0.00000000  0.33333333  0.38476372
   0.00000000  0.66666667  0.38476372
   0.33333333  0.00000000  0.38476372
   0.33333333  0.33333333  0.38476372
   0.33333333  0.66666667  0.38476372
   0.66666667  0.00000000  0.38476372
   0.66666667  0.33333333  0.38476372
   0.66666667  0.66666667  0.38476372
   0.16666667  0.16666667  0.38476372
   0.16666667  0.50000000  0.38476372
   0.16666667  0.83333333  0.38476372
   0.50000000  0.16666667  0.38476372
   0.50000000  0.50000000  0.38476372
   0.50000000  0.83333333  0.38476372
   0.83333333  0.16666667  0.38476372
   0.83333333  0.50000000  0.38476372
   0.83333333  0.83333333  0.38476372
   0.00000000  0.16666667  0.44736473
   0.00000000  0.50000000  0.44736473
   0.00000000  0.83333333  0.44736473
   0.33333333  0.16666667  0.44736473
   0.33333333  0.50000000  0.44736473
   0.33333333  0.83333333  0.44736473
   0.66666667  0.16666667  0.44736473
   0.66666667  0.50000000  0.44736473
   0.66666667  0.83333333  0.44736473
   0.16666667  0.00000000  0.44736473
   0.16666667  0.33333333  0.44736473
   0.16666667  0.66666667  0.44736473
   0.50000000  0.00000000  0.44736473
   0.50000000  0.33333333  0.44736473
   0.50000000  0.66666667  0.44736473
   0.83333333  0.00000000  0.44736473
   0.83333333  0.33333333  0.44736473
   0.83333333  0.66666667  0.44736473
   0.33333333  0.33333333  0.50150658
Direct configuration=     2
   0.00000000  0.00000000  0.00000000
   0.00000000  0.33333333  0.00000000
   0.00000000  0.66666667  0.00000000
   0.33333333  0.00000000  0.00000000
   0.33333333  0.33333333  0.00000000
   0.33333333  0.66666667  0.00000000
   0.66666667  0.00000000  0.00000000
   0.66666667  0.33333333  0.00000000
   0.66666667  0.66666667  0.00000000
   0.16666667  0.16666667  0.00000000
   0.16666667  0.50000000  0.00000000
   0.16666667  0.83333333  0.00000000
   0.50000000  0.16666667  0.00000000
   0.50000000  0.50000000  0.00000000
   0.50000000  0.83333333  0.00000000
   0.83333333  0.16666667  0.00000000
   0.83333333  0.50000000  0.00000000
   0.83333333  0.83333333  0.00000000
   0.00000000  0.16666667  0.06551164
   0.00000000  0.50000000  0.06551164
   0.00000000  0.83333333  0.06551164
   0.33333333  0.16666667  0.06551164
   0.33333333  0.50000000  0.06551164
   0.33333333  0.83333333  0.06551164
   0.66666667  0.16666667  0.06551164
   0.66666667  0.50000000  0.06551164
   0.66666667  0.83333333  0.06551164
   0.16666667  0.00000000  0.06551164
   0.16666667  0.33333333  0.06551164
   0.16666667  0.66666667  0.06551164
   0.50000000  0.00000000  0.06551164
   0.50000000  0.33333333  0.06551164
   0.50000000  0.66666667  0.06551164
   0.83333333  0.00000000  0.06551164
   0.83333333  0.33333333  0.06551164
   0.83333333  0.66666667  0.06551164
   0.00000000  0.00000000  0.13119553
   0.00000000  0.33333333  0.13119553
   0.00000000  0.66666667  0.13119553
   0.33333333  0.00000000  0.13119553
   0.33333333  0.33333333  0.13119553
   0.33333333  0.66666667  0.13119553
   0.66666667  0.00000000  0.13119553
   0.66666667  0.33333333  0.13119553
   0.66666667  0.66666667  0.13119553
   0.16666667  0.16666667  0.13119553
   0.16666667  0.50000000  0.13119553
   0.16666667  0.83333333  0.13119553
   0.50000000  0.16666667  0.13119553
   0.50000000  0.50000000  0.13119553
   0.50000000  0.83333333  0.13119553
   0.83333333  0.16666667  0.13119553
   0.83333333  0.50000000  0.13119553
   0.83333333  0.83333333  0.13119553
   0.00000696  0.16667178  0.19573190
   0.00000696  0.49999488  0.19573190
   0.00000008  0.83333333  0.19572774
   0.33333333  0.16671511  0.19573578
   0.33333333  0.49995156  0.19573578
   0.33333333  0.83333333  0.19579100
   0.66665971  0.16667178  0.19573190
   0.66665971  0.49999488  0.19573190
   0.66666658  0.83333333  0.19572774
   0.16667178  0.00000696  0.19573190
   0.16671511  0.33333333  0.19573578
   0.16667178  0.66665971  0.19573190
   0.49999488  0.00000696  0.19573190
   0.49995156  0.33333333  0.19573578
   0.49999488  0.66665971  0.19573190
   0.83333333  0.00000008  0.19572774
   0.83333333  0.33333333  0.19579100
   0.83333333  0.66666658  0.19572774
   0.00000991  0.00000991  0.25868683
   0.00000985  0.33333333  0.25872377
   0.00000991  0.66665676  0.25868683
   0.33333333  0.00000985  0.25872377
   0.33333333  0.33333333  0.25871280
   0.33333333  0.66665682  0.25872377
   0.66665676  0.00000991  0.25868683
   0.66665682  0.33333333  0.25872377
   0.66665676  0.66665676  0.25868683
   0.16668644  0.16668644  0.25871583
   0.16668644  0.49998022  0.25871583
   0.16667717  0.83333333  0.25866329
   0.49998022  0.16668644  0.25871583
   0.49998022  0.49998022  0.25871583
   0.49998949  0.83333333  0.25866329
   0.83333333  0.16667717  0.25866329
   0.83333333  0.49998949  0.25866329
   0.83333333  0.83333333  0.25867411
  -0.00000402  0.16659309  0.32124087
  -0.00000402  0.50007357  0.32124087
   0.00000793  0.83333333  0.32131296
   0.33333333  0.16663374  0.32134328
   0.33333333  0.50003292  0.32134328
   0.33333333  0.83333333  0.32132152
   0.66667069  0.16659309  0.32124087
   0.66667069  0.50007357  0.32124087
   0.66665874  0.83333333  0.32131296
   0.16659309 -0.00000402  0.32124087
   0.16663374  0.33333333  0.32134328
   0.16659309  0.66667069  0.32124087
   0.50007357 -0.00000402  0.32124087
   0.50003292  0.33333333  0.32134328
   0.50007357  0.66667069  0.32124087
   0.83333333  0.00000793  0.32131296
   0.83333333  0.33333333  0.32132152
   0.83333333  0.66665874  0.32131296
  -0.00000814 -0.00000814  0.38483357
   0.00046958  0.33333333  0.38497688
  -0.00000814  0.66667481  0.38483357
   0.33333333  0.00046958  0.38497688
   0.33333333  0.33333333  0.38410451
   0.33333333  0.66619708  0.38497688
   0.66667481 -0.00000814  0.38483357
   0.66619708  0.33333333  0.38497688
   0.66667481  0.66667481  0.38483357
   0.16670184  0.16670184  0.38473054
   0.16670184  0.49996483  0.38473054
   0.16667840  0.83333333  0.38480440
   0.49996483  0.16670184  0.38473054
   0.49996483  0.49996483  0.38473054
   0.49998827  0.83333333  0.38480440
   0.83333333  0.16667840  0.38480440
   0.83333333  0.49998827  0.38480440
   0.83333333  0.83333333  0.38479762
  -0.00017914  0.16655836  0.44725817
  -0.00017914  0.50010830  0.44725817
   0.00004683  0.83333333  0.44735627
   0.33333333  0.16887608  0.44892072
   0.33333333  0.49779059  0.44892072
   0.33333333  0.83333333  0.44734995
   0.66684580  0.16655836  0.44725817
   0.66684580  0.50010830  0.44725817
   0.66661984  0.83333333  0.44735627
   0.16655836 -0.00017914  0.44725817
   0.16887608  0.33333333  0.44892072
   0.16655836  0.66684580  0.44725817
   0.50010830 -0.00017914  0.44725817
   0.49779059  0.33333333  0.44892072
   0.50010830  0.66684580  0.44725817
   0.83333333  0.00004683  0.44735627
   0.83333333  0.33333333  0.44734995
   0.83333333  0.66661984  0.44735627
   0.33333333  0.33333333  0.49614020
Direct configuration=     3
   0.00000000  0.00000000  0.00000000
   0.00000000  0.33333333  0.00000000
   0.00000000  0.66666667  0.00000000
   0.33333333  0.00000000  0.00000000
   0.33333333  0.33333333  0.00000000
   0.33333333  0.66666667  0.00000000
   0.66666667  0.00000000  0.00000000
   0.66666667  0.33333333  0.00000000
   0.66666667  0.66666667  0.00000000
   0.16666667  0.16666667  0.00000000
   0.16666667  0.50000000  0.00000000
   0.16666667  0.83333333  0.00000000
   0.50000000  0.16666667  0.00000000
   0.50000000  0.50000000  0.00000000
   0.50000000  0.83333333  0.00000000
   0.83333333  0.16666667  0.00000000
   0.83333333  0.50000000  0.00000000
   0.83333333  0.83333333  0.00000000
   0.00000000  0.16666667  0.06551164
   0.00000000  0.50000000  0.06551164
   0.00000000  0.83333333  0.06551164
   0.33333333  0.16666667  0.06551164
   0.33333333  0.50000000  0.06551164
   0.33333333  0.83333333  0.06551164
   0.66666667  0.16666667  0.06551164
   0.66666667  0.50000000  0.06551164
   0.66666667  0.83333333  0.06551164
   0.16666667  0.00000000  0.06551164
   0.16666667  0.33333333  0.06551164
   0.16666667  0.66666667  0.06551164
   0.50000000  0.00000000  0.06551164
   0.50000000  0.33333333  0.06551164
   0.50000000  0.66666667  0.06551164
   0.83333333  0.00000000  0.06551164
   0.83333333  0.33333333  0.06551164
   0.83333333  0.66666667  0.06551164
   0.00000000  0.00000000  0.13119553
   0.00000000  0.33333333  0.13119553
   0.00000000  0.66666667  0.13119553
   0.33333333  0.00000000  0.13119553
   0.33333333  0.33333333  0.13119553
   0.33333333  0.66666667  0.13119553
   0.66666667  0.00000000  0.13119553
   0.66666667  0.33333333  0.13119553
   0.66666667  0.66666667  0.13119553
   0.16666667  0.16666667  0.13119553
   0.16666667  0.50000000  0.13119553
   0.16666667  0.83333333  0.13119553
   0.50000000  0.16666667  0.13119553
   0.50000000  0.50000000  0.13119553
   0.50000000  0.83333333  0.13119553
   0.83333333  0.16666667  0.13119553
   0.83333333  0.50000000  0.13119553
   0.83333333  0.83333333  0.13119553
   0.00002731  0.16668674  0.19434320
   0.00002731  0.49997993  0.19434320
   0.00000032  0.83333333  0.19432686
   0.33333333  0.16685676  0.19435840
   0.33333333  0.49980991  0.19435840
   0.33333333  0.83333333  0.19457512
   0.66663936  0.16668674  0.19434320
   0.66663936  0.49997993  0.19434320
   0.66666634  0.83333333  0.19432686
   0.16668674  0.00002731  0.19434320
   0.16685676  0.33333333  0.19435840
   0.16668674  0.66663936  0.19434320
   0.49997993  0.00002731  0.19434320
   0.49980991  0.33333333  0.19435840
   0.49997993  0.66663936  0.19434320
   0.83333333  0.00000032  0.19432686
   0.83333333  0.33333333  0.19457512
   0.83333333  0.66666634  0.19432686
   0.00003889  0.00003889  0.25853546
   0.00003864  0.33333333  0.25868042
   0.00003889  0.66662778  0.25853546
   0.33333333  0.00003864  0.25868042
   0.33333333  0.33333333  0.25863734
   0.33333333  0.66662803  0.25868042
   0.66662778  0.00003889  0.25853546
   0.66662803  0.33333333  0.25868042
   0.66662778  0.66662778  0.25853546
   0.16674427  0.16674427  0.25864923
   0.16674427  0.49992239  0.25864923
   0.16670790  0.83333333  0.25844308
   0.49992239  0.16674427  0.25864923
   0.49992239  0.49992239  0.25864923
   0.49995877  0.83333333  0.25844308
   0.83333333  0.16670790  0.25844308
   0.83333333  0.49995877  0.25844308
   0.83333333  0.83333333  0.25848555
  -0.00001579  0.16637795  0.32136170
  -0.00001579  0.50028871  0.32136170
   0.00003112  0.83333333  0.32164460
   0.33333333  0.16653746  0.32176361
   0.33333333  0.50012920  0.32176361
   0.33333333  0.83333333  0.32167822
   0.66668246  0.16637795  0.32136170
   0.66668246  0.50028871  0.32136170
   0.66663554  0.83333333  0.32164460
   0.16637795 -0.00001579  0.32136170
   0.16653746  0.33333333  0.32176361
   0.16637795  0.66668246  0.32136170
   0.50028871 -0.00001579  0.32136170
   0.50012920  0.33333333  0.32176361
   0.50028871  0.66668246  0.32136170
   0.83333333  0.00003112  0.32164460
   0.83333333  0.33333333  0.32167822
   0.83333333  0.66663554  0.32164460
  -0.00003194 -0.00003194  0.38503785
   0.00184275  0.33333333  0.38560021
  -0.00003194  0.66669861  0.38503785
   0.33333333  0.00184275  0.38560021
   0.33333333  0.33333333  0.38217685
   0.33333333  0.66482391  0.38560021
   0.66669861 -0.00003194  0.38503785
   0.66482391  0.33333333  0.38560021
   0.66669861  0.66669861  0.38503785
   0.16680470  0.16680470  0.38463354
   0.16680470  0.49986197  0.38463354
   0.16671271  0.83333333  0.38492338
   0.49986197  0.16680470  0.38463354
   0.49986197  0.49986197  0.38463354
   0.49995396  0.83333333  0.38492338
   0.83333333  0.16671271  0.38492338
   0.83333333  0.49995396  0.38492338
   0.83333333  0.83333333  0.38489677
  -0.00070297  0.16624166  0.44694658
  -0.00070297  0.50042501  0.44694658
   0.00018376  0.83333333  0.44733153
   0.33333333  0.17533689  0.45347080
   0.33333333  0.49132978  0.45347080
   0.33333333  0.83333333  0.44730674
   0.66736964  0.16624166  0.44694658
   0.66736964  0.50042501  0.44694658
   0.66648291  0.83333333  0.44733153
   0.16624166 -0.00070297  0.44694658
   0.17533689  0.33333333  0.45347080
   0.16624166  0.66736964  0.44694658
   0.50042501 -0.00070297  0.44694658
   0.49132978  0.33333333  0.45347080
   0.50042501  0.66736964  0.44694658
   0.83333333  0.00018376  0.44733153
   0.83333333  0.33333333  0.44730674
   0.83333333  0.66648291  0.44733153
   0.33333333  0.33333333  0.48044771
Direct configuration=     4
   0.00000000  0.00000000  0.00000000
   0.00000000  0.33333333  0.00000000
   0.00000000  0.66666667  0.00000000
   0.33333333  0.00000000  0.00000000
   0.33333333  0.33333333  0.00000000
   0.33333333  0.66666667  0.00000000
   0.66666667  0.00000000  0.00000000
   0.66666667  0.33333333  0.00000000
   0.66666667  0.66666667  0.00000000
   0.16666667  0.16666667  0.00000000
   0.16666667  0.50000000  0.00000000
   0.16666667  0.83333333  0.00000000
   0.50000000  0.16666667  0.00000000
   0.50000000  0.50000000  0.00000000
   0.50000000  0.83333333  0.00000000
   0.83333333  0.16666667  0.00000000
   0.83333333  0.50000000  0.00000000
   0.83333333  0.83333333  0.00000000
   0.00000000  0.16666667  0.06551164
   0.00000000  0.50000000  0.06551164
   0.00000000  0.83333333  0.06551164
   0.33333333  0.16666667  0.06551164
   0.33333333  0.50000000  0.06551164
   0.33333333  0.83333333  0.06551164
   0.66666667  0.16666667  0.06551164
   0.66666667  0.50000000  0.06551164
   0.66666667  0.83333333  0.06551164
   0.16666667  0.00000000  0.06551164
   0.16666667  0.33333333  0.06551164
   0.16666667  0.66666667  0.06551164
   0.50000000  0.00000000  0.06551164
   0.50000000  0.33333333  0.06551164
   0.50000000  0.66666667  0.06551164
   0.83333333  0.00000000  0.06551164
   0.83333333  0.33333333  0.06551164
   0.83333333  0.66666667  0.06551164
   0.00000000  0.00000000  0.13119553
   0.00000000  0.33333333  0.13119553
   0.00000000  0.66666667  0.13119553
   0.33333333  0.00000000  0.13119553
   0.33333333  0.33333333  0.13119553
   0.33333333  0.66666667  0.13119553
   0.66666667  0.00000000  0.13119553
   0.66666667  0.33333333  0.13119553
   0.66666667  0.66666667  0.13119553
   0.16666667  0.16666667  0.13119553
   0.16666667  0.50000000  0.13119553
   0.16666667  0.83333333  0.13119553
   0.50000000  0.16666667  0.13119553
   0.50000000  0.50000000  0.13119553
   0.50000000  0.83333333  0.13119553
   0.83333333  0.16666667  0.13119553
   0.83333333  0.50000000  0.13119553
   0.83333333  0.83333333  0.13119553
   0.00001635  0.16667868  0.19509109
   0.00001635  0.49998798  0.19509109
   0.00000019  0.83333333  0.19508130
   0.33333333  0.16678047  0.19510019
   0.33333333  0.49988620  0.19510019
   0.33333333  0.83333333  0.19522994
   0.66665032  0.16667868  0.19509109
   0.66665032  0.49998798  0.19509109
   0.66666647  0.83333333  0.19508130
   0.16667868  0.00001635  0.19509109
   0.16678047  0.33333333  0.19510019
   0.16667868  0.66665032  0.19509109
   0.49998798  0.00001635  0.19509109
   0.49988620  0.33333333  0.19510019
   0.49998798  0.66665032  0.19509109
   0.83333333  0.00000019  0.19508130
   0.83333333  0.33333333  0.19522994
   0.83333333  0.66666647  0.19508130
   0.00002328  0.00002328  0.25861698
   0.00002313  0.33333333  0.25870377
   0.00002328  0.66664338  0.25861698
   0.33333333  0.00002313  0.25870377
   0.33333333  0.33333333  0.25867798
   0.33333333  0.66664354  0.25870377
   0.66664338  0.00002328  0.25861698
   0.66664354  0.33333333  0.25870377
   0.66664338  0.66664338  0.25861698
   0.16671313  0.16671313  0.25868510
   0.16671313  0.49995354  0.25868510
   0.16669135  0.83333333  0.25856168
   0.49995354  0.16671313  0.25868510
   0.49995354  0.49995354  0.25868510
   0.49997531  0.83333333  0.25856168
   0.83333333  0.16669135  0.25856168
   0.83333333  0.49997531  0.25856168
   0.83333333  0.83333333  0.25858710
  -0.00000945  0.16649382  0.32129663
  -0.00000945  0.50017285  0.32129663
   0.00001863  0.83333333  0.32146599
   0.33333333  0.16658931  0.32153724
   0.33333333  0.50007735  0.32153724
   0.33333333  0.83333333  0.32148612
   0.66667612  0.16649382  0.32129663
   0.66667612  0.50017285  0.32129663
   0.66664803  0.83333333  0.32146599
   0.16649382 -0.00000945  0.32129663
   0.16658931  0.33333333  0.32153724
   0.16649382  0.66667612  0.32129663
   0.50017285 -0.00000945  0.32129663
   0.50007735  0.33333333  0.32153724
   0.50017285  0.66667612  0.32129663
   0.83333333  0.00001863  0.32146599
   0.83333333  0.33333333  0.32148612
   0.83333333  0.66664803  0.32146599
  -0.00001912 -0.00001912  0.38492783
   0.00110323  0.33333333  0.38526451
  -0.00001912  0.66668579  0.38492783
   0.33333333  0.00110323  0.38526451
   0.33333333  0.33333333  0.38321500
   0.33333333  0.66556344  0.38526451
   0.66668579 -0.00001912  0.38492783
   0.66556344  0.33333333  0.38526451
   0.66668579  0.66668579  0.38492783
   0.16674930  0.16674930  0.38468578
   0.16674930  0.49991736  0.38468578
   0.16669423  0.83333333  0.38485931
   0.49991736  0.16674930  0.38468578
   0.49991736  0.49991736  0.38468578
   0.49997243  0.83333333  0.38485931
   0.83333333  0.16669423  0.38485931
   0.83333333  0.49997243  0.38485931
   0.83333333  0.83333333  0.38484337
  -0.00042086  0.16641222  0.44711439
  -0.00042086  0.50025445  0.44711439
   0.00011001  0.83333333  0.44734485
   0.33333333  0.17185740  0.45102034
   0.33333333  0.49480927  0.45102034
   0.33333333  0.83333333  0.44733001
   0.66708753  0.16641222  0.44711439
   0.66708753  0.50025445  0.44711439
   0.66655665  0.83333333  0.44734485
   0.16641222 -0.00042086  0.44711439
   0.17185740  0.33333333  0.45102034
   0.16641222  0.66708753  0.44711439
   0.50025445 -0.00042086  0.44711439
   0.49480927  0.33333333  0.45102034
   0.50025445  0.66708753  0.44711439
   0.83333333  0.00011001  0.44734485
   0.83333333  0.33333333  0.44733001
   0.83333333  0.66655665  0.44734485
   0.33333333  0.33333333  0.48889895
Direct configuration=     5
   0.00000000  0.00000000  0.00000000
   0.00000000  0.33333333  0.00000000
   0.00000000  0.66666667  0.00000000
   0.33333333  0.00000000  0.00000000
   0.33333333  0.33333333  0.00000000
   0.33333333  0.66666667  0.00000000
   0.66666667  0.00000000  0.00000000
   0.66666667  0.33333333  0.00000000
   0.66666667  0.66666667  0.00000000
   0.16666667  0.16666667  0.00000000
   0.16666667  0.50000000  0.00000000
   0.16666667  0.83333333  0.00000000
   0.50000000  0.16666667  0.00000000
   0.50000000  0.50000000  0.00000000
   0.50000000  0.83333333  0.00000000
   0.83333333  0.16666667  0.00000000
   0.83333333  0.50000000  0.00000000
   0.83333333  0.83333333  0.00000000
   0.00000000  0.16666667  0.06551164
   0.00000000  0.50000000  0.06551164
   0.00000000  0.83333333  0.06551164
   0.33333333  0.16666667  0.06551164
   0.33333333  0.50000000  0.06551164
   0.33333333  0.83333333  0.06551164
   0.66666667  0.16666667  0.06551164
   0.66666667  0.50000000  0.06551164
   0.66666667  0.83333333  0.06551164
   0.16666667  0.00000000  0.06551164
   0.16666667  0.33333333  0.06551164
   0.16666667  0.66666667  0.06551164
   0.50000000  0.00000000  0.06551164
   0.50000000  0.33333333  0.06551164
   0.50000000  0.66666667  0.06551164
   0.83333333  0.00000000  0.06551164
   0.83333333  0.33333333  0.06551164
   0.83333333  0.66666667  0.06551164
   0.00000000  0.00000000  0.13119553
   0.00000000  0.33333333  0.13119553
   0.00000000  0.66666667  0.13119553
   0.33333333  0.00000000  0.13119553
   0.33333333  0.33333333  0.13119553
   0.33333333  0.66666667  0.13119553
   0.66666667  0.00000000  0.13119553
   0.66666667  0.33333333  0.13119553
   0.66666667  0.66666667  0.13119553
   0.16666667  0.16666667  0.13119553
   0.16666667  0.50000000  0.13119553
   0.16666667  0.83333333  0.13119553
   0.50000000  0.16666667  0.13119553
   0.50000000  0.50000000  0.13119553
   0.50000000  0.83333333  0.13119553
   0.83333333  0.16666667  0.13119553
   0.83333333  0.50000000  0.13119553
   0.83333333  0.83333333  0.13119553
   0.00001847  0.16668024  0.19494643
   0.00001847  0.49998642  0.19494643
   0.00000022  0.83333333  0.19493538
   0.33333333  0.16679523  0.19495671
   0.33333333  0.49987144  0.19495671
   0.33333333  0.83333333  0.19510328
   0.66664820  0.16668024  0.19494643
   0.66664820  0.49998642  0.19494643
   0.66666645  0.83333333  0.19493538
   0.16668024  0.00001847  0.19494643
   0.16679523  0.33333333  0.19495671
   0.16668024  0.66664820  0.19494643
   0.49998642  0.00001847  0.19494643
   0.49987144  0.33333333  0.19495671
   0.49998642  0.66664820  0.19494643
   0.83333333  0.00000022  0.19493538
   0.83333333  0.33333333  0.19510328
   0.83333333  0.66666645  0.19493538
   0.00002630  0.00002630  0.25860121
   0.00002613  0.33333333  0.25869925
   0.00002630  0.66664037  0.25860121
   0.33333333  0.00002613  0.25869925
   0.33333333  0.33333333  0.25867012
   0.33333333  0.66664054  0.25869925
   0.66664037  0.00002630  0.25860121
   0.66664054  0.33333333  0.25869925
   0.66664037  0.66664037  0.25860121
   0.16671915  0.16671915  0.25867816
   0.16671915  0.49994751  0.25867816
   0.16669455  0.83333333  0.25853874
   0.49994751  0.16671915  0.25867816
   0.49994751  0.49994751  0.25867816
   0.49997211  0.83333333  0.25853874
   0.83333333  0.16669455  0.25853874
   0.83333333  0.49997211  0.25853874
   0.83333333  0.83333333  0.25856746
  -0.00001068  0.16647141  0.32130921
  -0.00001068  0.50019526  0.32130921
   0.00002105  0.83333333  0.32150054
   0.33333333  0.16657929  0.32158102
   0.33333333  0.50008738  0.32158102
   0.33333333  0.83333333  0.32152328
   0.66667735  0.16647141  0.32130921
   0.66667735  0.50019526  0.32130921
   0.66664562  0.83333333  0.32150054
   0.16647141 -0.00001068  0.32130921
   0.16657929  0.33333333  0.32158102
   0.16647141  0.66667735  0.32130921
   0.50019526 -0.00001068  0.32130921
   0.50008738  0.33333333  0.32158102
   0.50019526  0.66667735  0.32130921
   0.83333333  0.00002105  0.32150054
   0.83333333  0.33333333  0.32152328
   0.83333333  0.66664562  0.32150054
  -0.00002160 -0.00002160  0.38494911
   0.00124627  0.33333333  0.38532944
  -0.00002160  0.66668827  0.38494911
   0.33333333  0.00124627  0.38532944
   0.33333333  0.33333333  0.38301420
   0.33333333  0.66542039  0.38532944
   0.66668827 -0.00002160  0.38494911
   0.66542039  0.33333333  0.38532944
   0.66668827  0.66668827  0.38494911
   0.16676002  0.16676002  0.38467568
   0.16676002  0.49990665  0.38467568
   0.16669781  0.83333333  0.38487170
   0.49990665  0.16676002  0.38467568
   0.49990665  0.49990665  0.38467568
   0.49996886  0.83333333  0.38487170
   0.83333333  0.16669781  0.38487170
   0.83333333  0.49996886  0.38487170
   0.83333333  0.83333333  0.38485370
  -0.00047543  0.16637923  0.44708193
  -0.00047543  0.50028744  0.44708193
   0.00012428  0.83333333  0.44734227
   0.33333333  0.17253042  0.45149432
   0.33333333  0.49413625  0.45149432
   0.33333333  0.83333333  0.44732551
   0.66714209  0.16637923  0.44708193
   0.66714209  0.50028744  0.44708193
   0.66654239  0.83333333  0.44734227
   0.16637923 -0.00047543  0.44708193
   0.17253042  0.33333333  0.45149432
   0.16637923  0.66714209  0.44708193
   0.50028744 -0.00047543  0.44708193
   0.49413625  0.33333333  0.45149432
   0.50028744  0.66714209  0.44708193
   0.83333333  0.00012428  0.44734227
   0.83333333  0.33333333  0.44732551
   0.83333333  0.66654239  0.44734227
   0.33333333  0.33333333  0.48726427
Direct configuration=     6
   0.00000000  0.00000000  0.00000000
   0.00000000  0.33333333  0.00000000
   0.00000000  0.66666667  0.00000000
   0.33333333  0.00000000  0.00000000
   0.33333333  0.33333333  0.00000000
   0.33333333  0.66666667  0.00000000
   0.66666667  0.00000000  0.00000000
   0.66666667  0.33333333  0.00000000
   0.66666667  0.66666667  0.00000000
   0.16666667  0.16666667  0.00000000
   0.16666667  0.50000000  0.00000000
   0.16666667  0.83333333  0.00000000
   0.50000000  0.16666667  0.00000000
   0.50000000  0.50000000  0.00000000
   0.50000000  0.83333333  0.00000000
   0.83333333  0.16666667  0.00000000
   0.83333333  0.50000000  0.00000000
   0.83333333  0.83333333  0.00000000
   0.00000000  0.16666667  0.06551164
   0.00000000  0.50000000  0.06551164
   0.00000000  0.83333333  0.06551164
   0.33333333  0.16666667  0.06551164
   0.33333333  0.50000000  0.06551164
   0.33333333  0.83333333  0.06551164
   0.66666667  0.16666667  0.06551164
   0.66666667  0.50000000  0.06551164
   0.66666667  0.83333333  0.06551164
   0.16666667  0.00000000  0.06551164
   0.16666667  0.33333333  0.06551164
   0.16666667  0.66666667  0.06551164
   0.50000000  0.00000000  0.06551164
   0.50000000  0.33333333  0.06551164
   0.50000000  0.66666667  0.06551164
   0.83333333  0.00000000  0.06551164
   0.83333333  0.33333333  0.06551164
   0.83333333  0.66666667  0.06551164
   0.00000000  0.00000000  0.13119553
   0.00000000  0.33333333  0.13119553
   0.00000000  0.66666667  0.13119553
   0.33333333  0.00000000  0.13119553
   0.33333333  0.33333333  0.13119553
   0.33333333  0.66666667  0.13119553
   0.66666667  0.00000000  0.13119553
   0.66666667  0.33333333  0.13119553
   0.66666667  0.66666667  0.13119553
   0.16666667  0.16666667  0.13119553
   0.16666667  0.50000000  0.13119553
   0.16666667  0.83333333  0.13119553
   0.50000000  0.16666667  0.13119553
   0.50000000  0.50000000  0.13119553
   0.50000000  0.83333333  0.13119553
   0.83333333  0.16666667  0.13119553
   0.83333333  0.50000000  0.13119553
   0.83333333  0.83333333  0.13119553
   0.00002895  0.16670709  0.19482969