 vasp.6.3.2 27Jun22 (build Aug 17 2022 15:43:34) complex                        
  
 executed on           tv2STDVTST date 2025.01.21  16:01:05
 running   20 mpi-ranks, with    1 threads/rank
 distrk:  each k-point on   20 cores,    1 groups
 distr:  one band on NCORE=   5 cores,    4 groups


--------------------------------------------------------------------------------------------------------


 -----------------------------------------------------------------------------
|                                                                             |
|           W    W    AA    RRRRR   N    N  II  N    N   GGGG   !!!           |
|           W    W   A  A   R    R  NN   N  II  NN   N  G    G  !!!           |
|           W    W  A    A  R    R  N N  N  II  N N  N  G       !!!           |
|           W WW W  AAAAAA  RRRRR   N  N N  II  N  N N  G  GGG   !            |
|           WW  WW  A    A  R   R   N   NN  II  N   NN  G    G                |
|           W    W  A    A  R    R  N    N  II  N    N   GGGG   !!!           |
|                                                                             |
|     Found issues when parsing the INCAR file                                |
|     In line 64: Tagname --- R W I G S contains invalid characters.          |
|     Please check if the interpretation in the OUTCAR file is correct.       |
|                                                                             |
 -----------------------------------------------------------------------------

 INCAR:
    = \=\=\=\=\=\=\=\=\=\=\=\=\=\=\=\=\=\=\=\=\=\=\=\=\=\=\=\=\=\=\=\=\=\=\=\=\=\=\=\=\=\=\=\=\=\=\=\=\=\=\=\=\=\=\=\=\=\=\=\=\=\=\=\=\=\=\=\=\=\=\=\=
    = \=\=\=\=\=\=\=\=\=\=\=\=\=\=\=\=\=\=\=\=\=\=\=\=\=\=\=\=\=\=\=\=\=\=\=\=\=\=\=\=\=\=\=\=\=\=\=\=\=\=\=\=\=\=\=\=\=\=\=\=\=\=\=\=\=\=\=\=\=\=\=\=
   ISTART = 0
   ICHARG = 2
   IPIPOL = 3
   IVDW = 11
   IDIPOL = 3
   IVDW = 11
    = \=\=\=\=\=\=\=\=\=\=\=\=\=\=\=\=\=\=\=\=\=\=\=\=\=\=\=\=\=\=\=\=\=\=\=\=\=\=\=\=\=\=\=\=\=\=\=\=\=\=\=\=\=\=\=\=\=\=\=\=\=\=\=\=\=\=\=\=\=\=\=\=
    = \=\=\=\=\=\=\=\=\=\=\=\=\=\=\=\=\=\=\=\=\=\=\=\=\=\=\=\=\=\=\=\=\=\=\=\=\=\=\=\=\=\=\=\=\=\=\=\=\=\=\=\=\=\=\=\=\=\=\=\=\=\=\=\=\=\=\=\=\=\=\=\=
   ISPIN = 2
    = \=\=\=\=\=\=\=\=\=\=\=\=\=\=\=\=\=\=\=\=\=\=\=\=\=\=\=\=\=\=\=\=\=\=\=\=\=\=\=\=\=\=\=\=\=\=\=\=\=\=\=\=\=\=\=\=\=\=\=\=\=\=\=\=\=\=\=\=\=\=\=\=
    = \=\=\=\=\=\=\=\=\=\=\=\=\=\=\=\=\=\=\=\=\=\=\=\=\=\=\=\=\=\=\=\=\=\=\=\=\=\=\=\=\=\=\=\=\=\=\=\=\=\=\=\=\=\=\=\=\=\=\=\=\=\=\=\=\=\=\=\=\=\=\=\=
   ENCUT = 400
   PREC = Normal
   EDIFF = 2E-04
   GGA = PE
   ISMEAR = 1
   SIGMA = 0.2
   LREAL = .FALSE.
    = \=\=\=\=\=\=\=\=\=\=\=\=\=\=\=\=\=\=\=\=\=\=\=\=\=\=\=\=\=\=\=\=\=\=\=\=\=\=\=\=\=\=\=\=\=\=\=\=\=\=\=\=\=\=\=\=\=\=\=\=\=\=\=\=\=\=\=\=\=\=\=\=
    = \=\=\=\=\=\=\=\=\=\=\=\=\=\=\=\=\=\=\=\=\=\=\=\=\=\=\=\=\=\=\=\=\=\=\=\=\=\=\=\=\=\=\=\=\=\=\=\=\=\=\=\=\=\=\=\=\=\=\=\=\=\=\=\=\=\=\=\=\=\=\=\=
   ISYM = 1
   NSW = 800
   IBRION = 2
   POTIM = 0.5
   ISIF = 2
   EDIFFG = -.03
    = \=\=\=\=\=\=\=\=\=\=\=\=\=\=\=\=\=\=\=\=\=\=\=\=\=\=\=\=\=\=\=\=\=\=\=\=\=\=\=\=\=\=\=\=\=\=\=\=\=\=\=\=\=\=\=\=\=\=\=\=\=\=\=\=\=\=\=\=\=\=\=\=
    = \=\=\=\=\=\=\=\=\=\=\=\=\=\=\=\=\=\=\=\=\=\=\=\=\=\=\=\=\=\=\=\=\=\=\=\=\=\=\=\=\=\=\=\=\=\=\=\=\=\=\=\=\=\=\=\=\=\=\=\=\=\=\=\=\=\=\=\=\=\=\=\=
   NPAR = 4
   LWAVE = .FALSE.
   LCHARG = .FALSE.

 POTCAR:    PAW_PBE Cu 22Jun2005                  
 -----------------------------------------------------------------------------
|                                                                             |
|           W    W    AA    RRRRR   N    N  II  N    N   GGGG   !!!           |
|           W    W   A  A   R    R  NN   N  II  NN   N  G    G  !!!           |
|           W    W  A    A  R    R  N N  N  II  N N  N  G       !!!           |
|           W WW W  AAAAAA  RRRRR   N  N N  II  N  N N  G  GGG   !            |
|           WW  WW  A    A  R   R   N   NN  II  N   NN  G    G                |
|           W    W  A    A  R    R  N    N  II  N    N   GGGG   !!!           |
|                                                                             |
|     You use a magnetic or noncollinear calculation, but did not specify     |
|     the initial magnetic moment with the MAGMOM tag. Note that a            |
|     default of 1 will be used for all atoms. This ferromagnetic setup       |
|     may break the symmetry of the crystal, in particular it may rule        |
|     out finding an antiferromagnetic solution. Thence, we recommend         |
|     setting the initial magnetic moment manually or verifying carefully     |
|     that this magnetic setup is desired.                                    |
|                                                                             |
 -----------------------------------------------------------------------------

 POTCAR:    PAW_PBE Cu 22Jun2005                  
   SHA256 =  0e71e558f37a4e8407882b4609ceaae59938afaad9ced71dfe8490308a0ab630 Cu/POTCAR             
   COPYR  = (c) Copyright 22Jun2005 Georg Kresse                                                    
   COPYR  = This file is part of the software VASP. Any use, copying, and all other rights are regul
   COPYR  = If you do not have a valid VASP license, you may not use, copy or distribute this file. 
   VRHFIN =Cu: d10 p1                                                                               
   LEXCH  = PE                                                                                      
   EATOM  =  1390.9808 eV,  102.2342 Ry                                                             
                                                                                                    
   TITEL  = PAW_PBE Cu 22Jun2005                                                                    
   LULTRA =        F    use ultrasoft PP ?                                                          
   IUNSCR =        1    unscreen: 0-lin 1-nonlin 2-no                                               
   RPACOR =    2.000    partial core radius                                                         
   POMASS =   63.546; ZVAL   =   11.000    mass and valenz                                          
   RCORE  =    2.300    outmost cutoff radius                                                       
   RWIGS  =    2.200; RWIGS  =    1.164    wigner-seitz radius (au A)                               
   ENMAX  =  295.446; ENMIN  =  221.585 eV                                                          
   ICORE  =        3    local potential                                                             
   LCOR   =        T    correct aug charges                                                         
   LPAW   =        T    paw PP                                                                      
   EAUG   =  586.980                                                                                
   DEXC   =    0.000                                                                                
   RMAX   =    2.344    core radius for proj-oper                                                   
   RAUG   =    1.300    factor for augmentation sphere                                              
   RDEP   =    2.302    radius for radial grids                                                     
   RDEPT  =    1.771    core radius for aug-charge                                                  
                                                                                                    
   Atomic configuration                                                                             
    9 entries                                                                                       
     n  l   j            E        occ.                                                              
     1  0  0.50     -8850.2468   2.0000                                                             
     2  0  0.50     -1062.3498   2.0000                                                             
     2  1  1.50      -916.8226   6.0000                                                             
     3  0  0.50      -114.6929   2.0000                                                             
     3  1  1.50       -72.1325   6.0000                                                             
     3  2  2.50        -5.0394  10.0000                                                             
     4  0  0.50        -4.6097   1.0000                                                             
     4  1  0.50        -4.0817   0.0000                                                             
     4  3  2.50        -1.3606   0.0000                                                             
   Description                                                                                      
     l       E           TYP  RCUT    TYP  RCUT                                                     
     2     -5.0393973     23  2.200                                                                 
     2     10.8846608     23  2.200                                                                 
     0     -4.6097109     23  2.200                                                                 
     0      8.2520465     23  2.200                                                                 
     1     -2.7211652     23  2.200                                                                 
     1     21.7055443     23  2.200                                                                 
     3      2.7211652     23  2.300                                                                 
  local pseudopotential read in
  partial core-charges read in
  partial kinetic energy density read in
  atomic valenz-charges read in
  non local Contribution for L=           2  read in
    real space projection operators read in
  non local Contribution for L=           2  read in
    real space projection operators read in
  non local Contribution for L=           0  read in
    real space projection operators read in
  non local Contribution for L=           0  read in
    real space projection operators read in
  non local Contribution for L=           1  read in
    real space projection operators read in
  non local Contribution for L=           1  read in
    real space projection operators read in
    PAW grid and wavefunctions read in
 
   number of l-projection  operators is LMAX  =           6
   number of lm-projection operators is LMMAX =          18
 
  PAW_PBE Cu 22Jun2005                  :
 energy of atom  1       EATOM=-1390.9808
 kinetic energy error for atom=    0.0232 (will be added to EATOM!!)
 
 
 POSCAR: FCC Cu
  positions in cartesian coordinates
  velocities in cartesian coordinates
  No initial velocities read in
 exchange correlation table for  LEXCH =        8
   RHO(1)=    0.500       N(1)  =     2000
   RHO(2)=  100.500       N(2)  =     4000

 VTST: version 4.2, (08/11/21)

 CHAIN: initializing optimizer
 
 OPT: Using VASP Conjugate-Gradient optimizer
 CHAIN: Read ICHAIN            0
 
 POSCAR: FCC Cu
  positions in cartesian coordinates
  velocities in cartesian coordinates
  No initial velocities read in
 


--------------------------------------------------------------------------------------------------------


 ion  position               nearest neighbor table
   1  0.000  0.000  0.000-   2 2.57   2 2.57   2 2.57   2 2.57   3 2.57
   2  0.500  0.500  0.057-   3 2.57   3 2.57   3 2.57   1 2.57   3 2.57   1 2.57   1 2.57   1 2.57
                             4 2.57
   3  0.000  0.000  0.113-   2 2.57   2 2.57   2 2.57   4 2.57   2 2.57   4 2.57   4 2.57   4 2.57
                             1 2.57   5 2.57
   4  0.500  0.500  0.170-   3 2.57   5 2.57   3 2.57   5 2.57   3 2.57   5 2.57   3 2.57   5 2.57
                             2 2.57   6 2.57
   5  0.000  0.000  0.226-   6 2.57   6 2.57   6 2.57   4 2.57   6 2.57   4 2.57   4 2.57   4 2.57
                             7 2.57   3 2.57
   6  0.500  0.500  0.283-   5 2.57   5 2.57   5 2.57   7 2.57   5 2.57   7 2.57   7 2.57   7 2.57
                             4 2.57
   7  0.000  0.000  0.339-   6 2.57   6 2.57   6 2.57   6 2.57   5 2.57
 
  LATTYP: Found a simple orthorhombic cell.
 ALAT       =     2.5667977333
 B/A-ratio  =     1.4142135422
 C/A-ratio  =     8.8438573502
  
  Lattice vectors:
  
 A1 = (   0.0000000000,  -2.5667977333,   0.0000000000)
 A2 = (   3.6300001144,   0.0000000000,   0.0000000000)
 A3 = (   0.0000000000,   0.0000000000,  22.7003930000)


Analysis of symmetry for initial positions (statically):
=====================================================================
 Subroutine PRICEL returns:
 Original cell was already a primitive cell.
 

 Routine SETGRP: Setting up the symmetry group for a 
 simple orthorhombic supercell.


 Subroutine GETGRP returns: Found  8 space group operations
 (whereof  4 operations were pure point group operations)
 out of a pool of  8 trial point group operations.


The static configuration has the point symmetry C_2v.
 The point group associated with its full space group is D_2h.


Analysis of symmetry for dynamics (positions and initial velocities):
=====================================================================
 Subroutine PRICEL returns:
 Original cell was already a primitive cell.
 

 Routine SETGRP: Setting up the symmetry group for a 
 simple orthorhombic supercell.


 Subroutine GETGRP returns: Found  8 space group operations
 (whereof  4 operations were pure point group operations)
 out of a pool of  8 trial point group operations.


The dynamic configuration has the point symmetry C_2v.
 The point group associated with its full space group is D_2h.


Analysis of constrained symmetry for selective dynamics:
=====================================================================
 Subroutine PRICEL returns:
 Original cell was already a primitive cell.
 

 Routine SETGRP: Setting up the symmetry group for a 
 simple orthorhombic supercell.


 Subroutine GETGRP returns: Found  4 space group operations
 (whereof  4 operations were pure point group operations)
 out of a pool of  8 trial point group operations.


The constrained configuration has the point symmetry C_2v.


Analysis of structural, dynamic, and magnetic symmetry:
=====================================================================
 Subroutine PRICEL returns:
 Original cell was already a primitive cell.
 

 Routine SETGRP: Setting up the symmetry group for a 
 simple orthorhombic supercell.


 Subroutine GETGRP returns: Found  4 space group operations
 (whereof  4 operations were pure point group operations)
 out of a pool of  8 trial point group operations.


The overall configuration has the point symmetry C_2v.


 Subroutine INISYM returns: Found  4 space group operations
 (whereof  4 operations are pure point group operations),
 and found     1 'primitive' translations


----------------------------------------------------------------------------------------

                                     Primitive cell                                     

  volume of cell :     211.5104

  direct lattice vectors                    reciprocal lattice vectors
     3.630000114  0.000000000  0.000000000     0.275482085  0.000000000  0.000000000
     0.000000000  2.566797733  0.000000000     0.000000000  0.389590495  0.000000000
     0.000000000  0.000000000 22.700393000     0.000000000  0.000000000  0.044052101

  length of vectors
     3.630000114  2.566797733 22.700393000     0.275482085  0.389590495  0.044052101

  position of ions in fractional coordinates (direct lattice)
     0.000000000  0.000000000  0.000000000
     0.500000000  0.500000000  0.056536416
     0.000000000  0.000000000  0.113072832
     0.500000000  0.500000000  0.169609249
     0.000000000  0.000000000  0.226145665
     0.500000000  0.500000000  0.282682081
     0.000000000  0.000000000  0.339218497

  ion indices of the primitive-cell ions
   primitive index   ion index
                 1           1
                 2           2
                 3           3
                 4           4
                 5           5
                 6           6
                 7           7

----------------------------------------------------------------------------------------

 
 
 KPOINTS: Auto-mesh                               

Automatic generation of k-mesh.
 Grid dimensions read from file:
 generate k-points for:    3    3    1

 Generating k-lattice:

  Cartesian coordinates                     Fractional coordinates (reciprocal lattice)
     0.091827362  0.000000000  0.000000000     0.333333333  0.000000000  0.000000000
     0.000000000  0.129863498  0.000000000     0.000000000  0.333333333  0.000000000
     0.000000000  0.000000000  0.044052101     0.000000000  0.000000000  1.000000000

  Length of vectors
     0.091827362  0.129863498  0.044052101

  Shift w.r.t. Gamma in fractional coordinates (k-lattice)
     0.000000000  0.000000000  0.000000000

 
 Subroutine IBZKPT returns following result:
 ===========================================
 
 Found      4 irreducible k-points:
 
 Following reciprocal coordinates:
            Coordinates               Weight
  0.000000  0.000000  0.000000      1.000000
  0.333333  0.000000  0.000000      2.000000
  0.000000  0.333333  0.000000      2.000000
  0.333333  0.333333  0.000000      4.000000
 
 Following cartesian coordinates:
            Coordinates               Weight
  0.000000  0.000000  0.000000      1.000000
  0.091827  0.000000  0.000000      2.000000
  0.000000  0.129863  0.000000      2.000000
  0.091827  0.129863  0.000000      4.000000
 


--------------------------------------------------------------------------------------------------------




 Dimension of arrays:
   k-points           NKPTS =      4   k-points in BZ     NKDIM =      4   number of bands    NBANDS=     52
   number of dos      NEDOS =    301   number of ions     NIONS =      7
   non local maximal  LDIM  =      6   non local SUM 2l+1 LMDIM =     18
   total plane-waves  NPLWV =  28224
   max r-space proj   IRMAX =      1   max aug-charges    IRDMAX=   4064
   dimension x,y,z NGX =    18 NGY =   14 NGZ =  112
   dimension x,y,z NGXF=    36 NGYF=   28 NGZF=  224
   support grid    NGXF=    36 NGYF=   28 NGZF=  224
   ions per type =               7
   NGX,Y,Z   is equivalent  to a cutoff of   8.24,  9.07,  8.20 a.u.
   NGXF,Y,Z  is equivalent  to a cutoff of  16.49, 18.13, 16.40 a.u.

 SYSTEM =  unknown system                          
 POSCAR =  FCC Cu                                  

 Startparameter for this run:
   NWRITE =      2    write-flag & timer
   PREC   = normal    normal or accurate (medium, high low for compatibility)
   ISTART =      0    job   : 0-new  1-cont  2-samecut
   ICHARG =      2    charge: 1-file 2-atom 10-const
   ISPIN  =      2    spin polarized calculation?
   LNONCOLLINEAR =      F non collinear calculations
   LSORBIT =      F    spin-orbit coupling
   INIWAV =      1    electr: 0-lowe 1-rand  2-diag
   LASPH  =      F    aspherical Exc in radial PAW
 Electronic Relaxation 1
   ENCUT  =  400.0 eV  29.40 Ry    5.42 a.u.   5.92  4.19 37.02*2*pi/ulx,y,z
   ENINI  =  400.0     initial cutoff
   ENAUG  =  587.0 eV  augmentation charge cutoff
   NELM   =     60;   NELMIN=  2; NELMDL= -5     # of ELM steps 
   EDIFF  = 0.2E-03   stopping-criterion for ELM
   LREAL  =      F    real-space projection
   NLSPLINE    = F    spline interpolate recip. space projectors
   LCOMPAT=      F    compatible to vasp.4.4
   GGA_COMPAT  = T    GGA compatible to vasp.4.4-vasp.4.6
   LMAXPAW     = -100 max onsite density
   LMAXMIX     =    2 max onsite mixed and CHGCAR
   VOSKOWN=      0    Vosko Wilk Nusair interpolation
   ROPT   =    0.00000
 Ionic relaxation
   EDIFFG = -.3E-01   stopping-criterion for IOM
   NSW    =    800    number of steps for IOM
   NBLOCK =      1;   KBLOCK =    800    inner block; outer block 
   IBRION =      2    ionic relax: 0-MD 1-quasi-New 2-CG
   NFREE  =      1    steps in history (QN), initial steepest desc. (CG)
   ISIF   =      2    stress and relaxation
   IWAVPR =     11    prediction:  0-non 1-charg 2-wave 3-comb
   ISYM   =      1    0-nonsym 1-usesym 2-fastsym
   LCORR  =      T    Harris-Foulkes like correction to forces

   POTIM  = 0.5000    time-step for ionic-motion
   TEIN   =    0.0    initial temperature
   TEBEG  =    0.0;   TEEND  =   0.0 temperature during run
   SMASS  =  -3.00    Nose mass-parameter (am)
   estimated Nose-frequenzy (Omega)   =  0.10E-29 period in steps = 0.13E+47 mass=  -0.301E-27a.u.
   SCALEE = 1.0000    scale energy and forces
   NPACO  =    256;   APACO  = 10.0  distance and # of slots for P.C.
   PSTRESS=    0.0 pullay stress

  Mass of Ions in am
   POMASS =  63.55
  Ionic Valenz
   ZVAL   =  11.00
  Atomic Wigner-Seitz radii
   RWIGS  =  -1.00
  virtual crystal weights 
   VCA    =   1.00
   NELECT =      77.0000    total number of electrons
   NUPDOWN=      -1.0000    fix difference up-down

 DOS related values:
   EMIN   =  10.00;   EMAX   =-10.00  energy-range for DOS
   EFERMI =   0.00
   ISMEAR =     1;   SIGMA  =   0.20  broadening in eV -4-tet -1-fermi 0-gaus

 Electronic relaxation 2 (details)
   IALGO  =     38    algorithm
   LDIAG  =      T    sub-space diagonalisation (order eigenvalues)
   LSUBROT=      F    optimize rotation matrix (better conditioning)
   TURBO    =      0    0=normal 1=particle mesh
   IRESTART =      0    0=no restart 2=restart with 2 vectors
   NREBOOT  =      0    no. of reboots
   NMIN     =      0    reboot dimension
   EREF     =   0.00    reference energy to select bands
   IMIX   =      4    mixing-type and parameters
     AMIX     =   0.40;   BMIX     =  1.00
     AMIX_MAG =   1.60;   BMIX_MAG =  1.00
     AMIN     =   0.10
     WC   =   100.;   INIMIX=   1;  MIXPRE=   1;  MAXMIX= -45

 Intra band minimization:
   WEIMIN = 0.0010     energy-eigenvalue tresh-hold
   EBREAK =  0.96E-06  absolut break condition
   DEPER  =   0.30     relativ break condition  

   TIME   =   0.40     timestep for ELM

  volume/ion in A,a.u.               =      30.22       203.91
  Fermi-wavevector in a.u.,A,eV,Ry     =   1.168946  2.208988 18.591479  1.366435
  Thomas-Fermi vector in A             =   2.305426
 
 Write flags
   LWAVE        =      F    write WAVECAR
   LDOWNSAMPLE  =      F    k-point downsampling of WAVECAR
   LCHARG       =      F    write CHGCAR
   LVTOT        =      F    write LOCPOT, total local potential
   LVHAR        =      F    write LOCPOT, Hartree potential only
   LELF         =      F    write electronic localiz. function (ELF)
   LORBIT       =      0    0 simple, 1 ext, 2 COOP (PROOUT), +10 PAW based schemes


 Dipole corrections
   LMONO  =      F    monopole corrections only (constant potential shift)
   LDIPOL =      F    correct potential (dipole corrections)
   IDIPOL =      3    1-x, 2-y, 3-z, 4-all directions 
   EPSILON=  1.0000000 bulk dielectric constant

 Exchange correlation treatment:
   GGA     =    PE    GGA type
   LEXCH   =     8    internal setting for exchange type
   LIBXC   =     F    Libxc                    
   VOSKOWN =     0    Vosko Wilk Nusair interpolation
   LHFCALC =     F    Hartree Fock is set to
   LHFONE  =     F    Hartree Fock one center treatment
   AEXX    =    0.0000 exact exchange contribution

 Linear response parameters
   LEPSILON=     F    determine dielectric tensor
   LRPA    =     F    only Hartree local field effects (RPA)
   LNABLA  =     F    use nabla operator in PAW spheres
   LVEL    =     F    velocity operator in full k-point grid
   CSHIFT  =0.1000    complex shift for real part using Kramers Kronig
   OMEGAMAX=  -1.0    maximum frequency
   DEG_THRESHOLD= 0.2000000E-02 threshold for treating states as degnerate
   RTIME   =   -0.100 relaxation time in fs
  (WPLASMAI=    0.000 imaginary part of plasma frequency in eV, 0.658/RTIME)
   DFIELD  = 0.0000000 0.0000000 0.0000000 field for delta impulse in time
 
  Optional k-point grid parameters
   LKPOINTS_OPT  =     F    use optional k-point grid
   KPOINTS_OPT_MODE=     1    mode for optional k-point grid
 
 Orbital magnetization related:
   ORBITALMAG=     F  switch on orbital magnetization
   LCHIMAG   =     F  perturbation theory with respect to B field
   DQ        =  0.001000  dq finite difference perturbation B field
   LLRAUG    =     F  two centre corrections for induced B field



--------------------------------------------------------------------------------------------------------


 conjugate gradient relaxation of ions
   using selective dynamics as specified on POSCAR
   WARNING: If single coordinates had been selected the selection of coordinates
            is made according to the corresponding   d i r e c t   coordinates!
            Don't support selection of single cartesian coordinates -- sorry ...
  !
 charge density and potential will be updated during run
 spin polarized calculation
 Variant of blocked Davidson
 Davidson routine will perform the subspace rotation
 perform sub-space diagonalisation
    after iterative eigenvector-optimisation
 modified Broyden-mixing scheme, WC =      100.0
 initial mixing is a Kerker type mixing with AMIX =  0.4000 and BMIX =      1.0000
 Hartree-type preconditioning will be used
 using additional bands           13
 reciprocal scheme for non local part
 use partial core corrections
 calculate Harris-corrections to forces 
   (improved forces if not selfconsistent)
 use gradient corrections 
 use of overlap-Matrix (Vanderbilt PP)
 Methfessel and Paxton  Order N= 1 SIGMA  =   0.20


--------------------------------------------------------------------------------------------------------


  energy-cutoff  :      400.00
  volume of cell :      211.51
      direct lattice vectors                 reciprocal lattice vectors
     3.630000114  0.000000000  0.000000000     0.275482085  0.000000000  0.000000000
     0.000000000  2.566797733  0.000000000     0.000000000  0.389590495  0.000000000
     0.000000000  0.000000000 22.700393000     0.000000000  0.000000000  0.044052101

  length of vectors
     3.630000114  2.566797733 22.700393000     0.275482085  0.389590495  0.044052101


 
 k-points in units of 2pi/SCALE and weight: Auto-mesh                               
   0.00000000  0.00000000  0.00000000       0.111
   0.09182736  0.00000000  0.00000000       0.222
   0.00000000  0.12986350  0.00000000       0.222
   0.09182736  0.12986350  0.00000000       0.444
 
 k-points in reciprocal lattice and weights: Auto-mesh                               
   0.00000000  0.00000000  0.00000000       0.111
   0.33333333  0.00000000  0.00000000       0.222
   0.00000000  0.33333333  0.00000000       0.222
   0.33333333  0.33333333  0.00000000       0.444
 
 position of ions in fractional coordinates (direct lattice) 
   0.00000000  0.00000000  0.00000000
   0.50000000  0.50000000  0.05653642
   0.00000000  0.00000000  0.11307283
   0.50000000  0.50000000  0.16960925
   0.00000000  0.00000000  0.22614566
   0.50000000  0.50000000  0.28268208
   0.00000000  0.00000000  0.33921850
 
 position of ions in cartesian coordinates  (Angst):
   0.00000000  0.00000000  0.00000000
   1.81500006  1.28339887  1.28339887
   0.00000000  0.00000000  2.56679773
   1.81500006  1.28339887  3.85019660
   0.00000000  0.00000000  5.13359547
   1.81500006  1.28339887  6.41699433
   0.00000000  0.00000000  7.70039320
 


--------------------------------------------------------------------------------------------------------


 k-point   1 :   0.0000 0.0000 0.0000  plane waves:    3813
 k-point   2 :   0.3333 0.0000 0.0000  plane waves:    3848
 k-point   3 :   0.0000 0.3333 0.0000  plane waves:    3816
 k-point   4 :   0.3333 0.3333 0.0000  plane waves:    3850

 maximum and minimum number of plane-waves per node :       781      744

 maximum number of plane-waves:      3850
 maximum index in each direction: 
   IXMAX=    5   IYMAX=    4   IZMAX=   37
   IXMIN=   -6   IYMIN=   -4   IZMIN=  -37


 parallel 3D FFT for wavefunctions:
    minimum data exchange during FFTs selected (reduces bandwidth)
 parallel 3D FFT for charge:
    minimum data exchange during FFTs selected (reduces bandwidth)


 total amount of memory used by VASP MPI-rank0    33963. kBytes
=======================================================================

   base      :      30000. kBytes
   nonl-proj :        533. kBytes
   fftplans  :        605. kBytes
   grid      :       1412. kBytes
   one-center:         62. kBytes
   wavefun   :       1351. kBytes
 
     INWAV:  cpu time      0.0000: real time      0.0005
 Broyden mixing: mesh for mixing (old mesh)
   NGX = 11   NGY =  9   NGZ = 75
  (NGX  = 36   NGY  = 28   NGZ  =224)
  gives a total of   7425 points

 initial charge density was supplied:
 charge density of overlapping atoms calculated
 number of electron      77.0000000 magnetization       7.0000000
 keeping initial charge density in first step


--------------------------------------------------------------------------------------------------------


 Maximum index for augmentation-charges          303 (set IRDMAX)


--------------------------------------------------------------------------------------------------------


 First call to EWALD:  gamma=   0.297
 Maximum number of real-space cells 4x 6x 1
 Maximum number of reciprocal cells 2x 1x 9

    FEWALD:  cpu time      0.0018: real time      0.0018


--------------------------------------- Iteration      1(   1)  ---------------------------------------


    POTLOK:  cpu time      0.0180: real time      0.0420
    SETDIJ:  cpu time      0.0063: real time      0.0063
     EDDAV:  cpu time      0.2466: real time      0.2487
       DOS:  cpu time      0.0012: real time      0.0012
    --------------------------------------------
      LOOP:  cpu time      0.2721: real time      0.2983

 eigenvalue-minimisations  :   832
 total energy-change (2. order) : 0.6409944E+03  (-0.2870612E+04)
 number of electron      77.0000000 magnetization       7.0000000
 augmentation part       77.0000000 magnetization       7.0000000

 Free energy of the ion-electron system (eV)
  ---------------------------------------------------
  alpha Z        PSCENC =       169.42466733
  Ewald energy   TEWEN  =     32713.38710180
  -Hartree energ DENC   =    -42102.39872724
  -exchange      EXHF   =         0.00000000
  -V(xc)+E(xc)   XCENC  =       319.20117325
  PAW double counting   =      8596.68247234    -9337.44652067
  entropy T*S    EENTRO =        -0.00878035
  eigenvalues    EBANDS =       545.44954570
  atomic energy  EATOM  =      9736.70348140
  Solvation  Ediel_sol  =         0.00000000
  ---------------------------------------------------
  free energy    TOTEN  =       640.99441356 eV

  energy without entropy =      641.00319391  energy(sigma->0) =      640.99734034


--------------------------------------------------------------------------------------------------------




--------------------------------------- Iteration      1(   2)  ---------------------------------------


     EDDAV:  cpu time      0.2395: real time      0.2423
       DOS:  cpu time      0.0008: real time      0.0008
    --------------------------------------------
      LOOP:  cpu time      0.2404: real time      0.2431

 eigenvalue-minimisations  :   832
 total energy-change (2. order) :-0.6013504E+03  (-0.5770371E+03)
 number of electron      77.0000000 magnetization       7.0000000
 augmentation part       77.0000000 magnetization       7.0000000

 Free energy of the ion-electron system (eV)
  ---------------------------------------------------
  alpha Z        PSCENC =       169.42466733
  Ewald energy   TEWEN  =     32713.38710180
  -Hartree energ DENC   =    -42102.39872724
  -exchange      EXHF   =         0.00000000
  -V(xc)+E(xc)   XCENC  =       319.20117325
  PAW double counting   =      8596.68247234    -9337.44652067
  entropy T*S    EENTRO =         0.00457063
  eigenvalues    EBANDS =       -55.91419381
  atomic energy  EATOM  =      9736.70348140
  Solvation  Ediel_sol  =         0.00000000
  ---------------------------------------------------
  free energy    TOTEN  =        39.64402503 eV

  energy without entropy =       39.63945440  energy(sigma->0) =       39.64250148


--------------------------------------------------------------------------------------------------------




--------------------------------------- Iteration      1(   3)  ---------------------------------------


     EDDAV:  cpu time      0.2405: real time      0.2424
       DOS:  cpu time      0.0009: real time      0.0009
    --------------------------------------------
      LOOP:  cpu time      0.2414: real time      0.2433

 eigenvalue-minimisations  :   864
 total energy-change (2. order) :-0.6622572E+02  (-0.6168764E+02)
 number of electron      77.0000000 magnetization       7.0000000
 augmentation part       77.0000000 magnetization       7.0000000

 Free energy of the ion-electron system (eV)
  ---------------------------------------------------
  alpha Z        PSCENC =       169.42466733
  Ewald energy   TEWEN  =     32713.38710180
  -Hartree energ DENC   =    -42102.39872724
  -exchange      EXHF   =         0.00000000
  -V(xc)+E(xc)   XCENC  =       319.20117325
  PAW double counting   =      8596.68247234    -9337.44652067
  entropy T*S    EENTRO =         0.02165920
  eigenvalues    EBANDS =      -122.15699772
  atomic energy  EATOM  =      9736.70348140
  Solvation  Ediel_sol  =         0.00000000
  ---------------------------------------------------
  free energy    TOTEN  =       -26.58169032 eV

  energy without entropy =      -26.60334952  energy(sigma->0) =      -26.58891005


--------------------------------------------------------------------------------------------------------




--------------------------------------- Iteration      1(   4)  ---------------------------------------


     EDDAV:  cpu time      0.2578: real time      0.2600
       DOS:  cpu time      0.0009: real time      0.0009
    --------------------------------------------
      LOOP:  cpu time      0.2587: real time      0.2609

 eigenvalue-minimisations  :   952
 total energy-change (2. order) :-0.2454854E+01  (-0.2439920E+01)
 number of electron      77.0000000 magnetization       7.0000000
 augmentation part       77.0000000 magnetization       7.0000000

 Free energy of the ion-electron system (eV)
  ---------------------------------------------------
  alpha Z        PSCENC =       169.42466733
  Ewald energy   TEWEN  =     32713.38710180
  -Hartree energ DENC   =    -42102.39872724
  -exchange      EXHF   =         0.00000000
  -V(xc)+E(xc)   XCENC  =       319.20117325
  PAW double counting   =      8596.68247234    -9337.44652067
  entropy T*S    EENTRO =         0.01906061
  eigenvalues    EBANDS =      -124.60925358
  atomic energy  EATOM  =      9736.70348140
  Solvation  Ediel_sol  =         0.00000000
  ---------------------------------------------------
  free energy    TOTEN  =       -29.03654477 eV

  energy without entropy =      -29.05560537  energy(sigma->0) =      -29.04289830


--------------------------------------------------------------------------------------------------------




--------------------------------------- Iteration      1(   5)  ---------------------------------------


     EDDAV:  cpu time      0.2790: real time      0.2816
       DOS:  cpu time      0.0009: real time      0.0009
    CHARGE:  cpu time      0.0498: real time      0.0500
    MIXING:  cpu time      0.0006: real time      0.0006
    --------------------------------------------
      LOOP:  cpu time      0.3303: real time      0.3330

 eigenvalue-minimisations  :   992
 total energy-change (2. order) :-0.5163869E-01  (-0.5161730E-01)
 number of electron      77.0000706 magnetization       6.3097566
 augmentation part       45.7397166 magnetization       6.2919510

 Broyden mixing:
  rms(total) = 0.24394E+01    rms(broyden)= 0.24392E+01
  rms(prec ) = 0.25250E+01
  weight for this iteration     100.00

 Free energy of the ion-electron system (eV)
  ---------------------------------------------------
  alpha Z        PSCENC =       169.42466733
  Ewald energy   TEWEN  =     32713.38710180
  -Hartree energ DENC   =    -42102.39872724
  -exchange      EXHF   =         0.00000000
  -V(xc)+E(xc)   XCENC  =       319.20117325
  PAW double counting   =      8596.68247234    -9337.44652067
  entropy T*S    EENTRO =         0.01897423
  eigenvalues    EBANDS =      -124.66080589
  atomic energy  EATOM  =      9736.70348140
  Solvation  Ediel_sol  =         0.00000000
  ---------------------------------------------------
  free energy    TOTEN  =       -29.08818346 eV

  energy without entropy =      -29.10715769  energy(sigma->0) =      -29.09450820


--------------------------------------------------------------------------------------------------------




--------------------------------------- Iteration      1(   6)  ---------------------------------------


    POTLOK:  cpu time      0.0161: real time      0.0164
    SETDIJ:  cpu time      0.0057: real time      0.0057
     EDDAV:  cpu time      0.2464: real time      0.2483
       DOS:  cpu time      0.0008: real time      0.0008
    CHARGE:  cpu time      0.0454: real time      0.0455
    MIXING:  cpu time      0.0007: real time      0.0007
    --------------------------------------------
      LOOP:  cpu time      0.3152: real time      0.3175

 eigenvalue-minimisations  :   896
 total energy-change (2. order) : 0.5782009E+01  (-0.6415892E+01)
 number of electron      77.0000778 magnetization       5.8732461
 augmentation part       51.2927848 magnetization       4.4070906

 Broyden mixing:
  rms(total) = 0.12322E+01    rms(broyden)= 0.12320E+01
  rms(prec ) = 0.13004E+01
  weight for this iteration     100.00

 eigenvalues of (default mixing * dielectric matrix)
  average eigenvalue GAMMA=   0.7963
  0.7963

 Free energy of the ion-electron system (eV)
  ---------------------------------------------------
  alpha Z        PSCENC =       169.42466733
  Ewald energy   TEWEN  =     32713.38710180
  -Hartree energ DENC   =    -41915.39051580
  -exchange      EXHF   =         0.00000000
  -V(xc)+E(xc)   XCENC  =       311.78351544
  PAW double counting   =      8680.65502524    -9384.41011670
  entropy T*S    EENTRO =        -0.00477385
  eigenvalues    EBANDS =      -335.45455966
  atomic energy  EATOM  =      9736.70348140
  Solvation  Ediel_sol  =         0.00000000
  ---------------------------------------------------
  free energy    TOTEN  =       -23.30617479 eV

  energy without entropy =      -23.30140095  energy(sigma->0) =      -23.30458351


--------------------------------------------------------------------------------------------------------




--------------------------------------- Iteration      1(   7)  ---------------------------------------


    POTLOK:  cpu time      0.0153: real time      0.0155
    SETDIJ:  cpu time      0.0055: real time      0.0055
     EDDAV:  cpu time      0.2520: real time      0.2542
       DOS:  cpu time      0.0008: real time      0.0008
    CHARGE:  cpu time      0.0449: real time      0.0451
    MIXING:  cpu time      0.0007: real time      0.0007
    --------------------------------------------
      LOOP:  cpu time      0.3191: real time      0.3217

 eigenvalue-minimisations  :   928
 total energy-change (2. order) : 0.2983153E+01  (-0.1841067E+01)
 number of electron      77.0000759 magnetization       5.4462103
 augmentation part       49.3649266 magnetization       3.8337272

 Broyden mixing:
  rms(total) = 0.63600E+00    rms(broyden)= 0.63590E+00
  rms(prec ) = 0.65004E+00
  weight for this iteration     100.00

 eigenvalues of (default mixing * dielectric matrix)
  average eigenvalue GAMMA=   0.7725
  0.9523  0.5926

 Free energy of the ion-electron system (eV)
  ---------------------------------------------------
  alpha Z        PSCENC =       169.42466733
  Ewald energy   TEWEN  =     32713.38710180
  -Hartree energ DENC   =    -42018.34707704
  -exchange      EXHF   =         0.00000000
  -V(xc)+E(xc)   XCENC  =       315.46818486
  PAW double counting   =      8864.68951263    -9602.05392879
  entropy T*S    EENTRO =        -0.00406329
  eigenvalues    EBANDS =      -199.59090080
  atomic energy  EATOM  =      9736.70348140
  Solvation  Ediel_sol  =         0.00000000
  ---------------------------------------------------
  free energy    TOTEN  =       -20.32302190 eV

  energy without entropy =      -20.31895861  energy(sigma->0) =      -20.32166747


--------------------------------------------------------------------------------------------------------




--------------------------------------- Iteration      1(   8)  ---------------------------------------


    POTLOK:  cpu time      0.0152: real time      0.0155
    SETDIJ:  cpu time      0.0054: real time      0.0054
     EDDAV:  cpu time      0.2772: real time      0.2793
       DOS:  cpu time      0.0008: real time      0.0008
    CHARGE:  cpu time      0.0458: real time      0.0464
    MIXING:  cpu time      0.0007: real time      0.0007
    --------------------------------------------
      LOOP:  cpu time      0.3452: real time      0.3481

 eigenvalue-minimisations  :  1044
 total energy-change (2. order) : 0.5482490E+00  (-0.2977161E+00)
 number of electron      77.0000750 magnetization       4.8405589
 augmentation part       49.1898605 magnetization       3.0227771

 Broyden mixing:
  rms(total) = 0.49812E+00    rms(broyden)= 0.49808E+00
  rms(prec ) = 0.51307E+00
  weight for this iteration     100.00

 eigenvalues of (default mixing * dielectric matrix)
  average eigenvalue GAMMA=   0.7333
  1.0256  0.6561  0.5183

 Free energy of the ion-electron system (eV)
  ---------------------------------------------------
  alpha Z        PSCENC =       169.42466733
  Ewald energy   TEWEN  =     32713.38710180
  -Hartree energ DENC   =    -42026.62884745
  -exchange      EXHF   =         0.00000000
  -V(xc)+E(xc)   XCENC  =       315.80411837
  PAW double counting   =      8960.95783848    -9705.82876858
  entropy T*S    EENTRO =        -0.00519201
  eigenvalues    EBANDS =      -183.58917224
  atomic energy  EATOM  =      9736.70348140
  Solvation  Ediel_sol  =         0.00000000
  ---------------------------------------------------
  free energy    TOTEN  =       -19.77477290 eV

  energy without entropy =      -19.76958090  energy(sigma->0) =      -19.77304223


--------------------------------------------------------------------------------------------------------




--------------------------------------- Iteration      1(   9)  ---------------------------------------


    POTLOK:  cpu time      0.0151: real time      0.0154
    SETDIJ:  cpu time      0.0055: real time      0.0055
     EDDAV:  cpu time      0.3155: real time      0.3179
       DOS:  cpu time      0.0008: real time      0.0008
    CHARGE:  cpu time      0.0458: real time      0.0460
    MIXING:  cpu time      0.0009: real time      0.0009
    --------------------------------------------
      LOOP:  cpu time      0.3837: real time      0.3866

 eigenvalue-minimisations  :  1232
 total energy-change (2. order) : 0.3160220E+00  (-0.1301478E+00)
 number of electron      77.0000752 magnetization       3.3721873
 augmentation part       49.0929932 magnetization       1.5704997

 Broyden mixing:
  rms(total) = 0.41441E+00    rms(broyden)= 0.41440E+00
  rms(prec ) = 0.41700E+00
  weight for this iteration     100.00

 eigenvalues of (default mixing * dielectric matrix)
  average eigenvalue GAMMA=   1.1008
  2.1529  1.0472  0.7601  0.4430

 Free energy of the ion-electron system (eV)
  ---------------------------------------------------
  alpha Z        PSCENC =       169.42466733
  Ewald energy   TEWEN  =     32713.38710180
  -Hartree energ DENC   =    -42044.75928838
  -exchange      EXHF   =         0.00000000
  -V(xc)+E(xc)   XCENC  =       315.68019556
  PAW double counting   =      9064.79667360    -9815.81447434
  entropy T*S    EENTRO =        -0.00980105
  eigenvalues    EBANDS =      -158.86730686
  atomic energy  EATOM  =      9736.70348140
  Solvation  Ediel_sol  =         0.00000000
  ---------------------------------------------------
  free energy    TOTEN  =       -19.45875094 eV

  energy without entropy =      -19.44894989  energy(sigma->0) =      -19.45548393


--------------------------------------------------------------------------------------------------------




--------------------------------------- Iteration      1(  10)  ---------------------------------------


    POTLOK:  cpu time      0.0155: real time      0.0158
    SETDIJ:  cpu time      0.0054: real time      0.0054
     EDDAV:  cpu time      0.2620: real time      0.2641
       DOS:  cpu time      0.0008: real time      0.0008
    CHARGE:  cpu time      0.0440: real time      0.0442
    MIXING:  cpu time      0.0009: real time      0.0009
    --------------------------------------------
      LOOP:  cpu time      0.3286: real time      0.3313

 eigenvalue-minimisations  :   976
 total energy-change (2. order) : 0.7026935E+00  (-0.1885667E+00)
 number of electron      77.0000758 magnetization       2.3279200
 augmentation part       49.4029834 magnetization       0.6814481

 Broyden mixing:
  rms(total) = 0.29421E+00    rms(broyden)= 0.29420E+00
  rms(prec ) = 0.29948E+00
  weight for this iteration     100.00

 eigenvalues of (default mixing * dielectric matrix)
  average eigenvalue GAMMA=   1.4055
  4.1840  1.0626  0.6750  0.6750  0.4307

 Free energy of the ion-electron system (eV)
  ---------------------------------------------------
  alpha Z        PSCENC =       169.42466733
  Ewald energy   TEWEN  =     32713.38710180
  -Hartree energ DENC   =    -42048.84837110
  -exchange      EXHF   =         0.00000000
  -V(xc)+E(xc)   XCENC  =       315.31224539
  PAW double counting   =      9197.83073451    -9953.60494947
  entropy T*S    EENTRO =        -0.00175190
  eigenvalues    EBANDS =      -148.95921545
  atomic energy  EATOM  =      9736.70348140
  Solvation  Ediel_sol  =         0.00000000
  ---------------------------------------------------
  free energy    TOTEN  =       -18.75605749 eV

  energy without entropy =      -18.75430559  energy(sigma->0) =      -18.75547352


--------------------------------------------------------------------------------------------------------




--------------------------------------- Iteration      1(  11)  ---------------------------------------


    POTLOK:  cpu time      0.0149: real time      0.0152
    SETDIJ:  cpu time      0.0054: real time      0.0054
     EDDAV:  cpu time      0.2753: real time      0.2778
       DOS:  cpu time      0.0009: real time      0.0009
    CHARGE:  cpu time      0.0451: real time      0.0453
    MIXING:  cpu time      0.0009: real time      0.0009
    --------------------------------------------
      LOOP:  cpu time      0.3425: real time      0.3454

 eigenvalue-minimisations  :  1040
 total energy-change (2. order) :-0.5234471E+00  (-0.4993702E-01)
 number of electron      77.0000754 magnetization       1.5409243
 augmentation part       49.3820792 magnetization       0.1146764

 Broyden mixing:
  rms(total) = 0.22420E+00    rms(broyden)= 0.22419E+00
  rms(prec ) = 0.23228E+00
  weight for this iteration     100.00

 eigenvalues of (default mixing * dielectric matrix)
  average eigenvalue GAMMA=   1.4931
  5.1925  1.0437  0.8952  0.8952  0.4356  0.4965

 Free energy of the ion-electron system (eV)
  ---------------------------------------------------
  alpha Z        PSCENC =       169.42466733
  Ewald energy   TEWEN  =     32713.38710180
  -Hartree energ DENC   =    -42061.40202932
  -exchange      EXHF   =         0.00000000
  -V(xc)+E(xc)   XCENC  =       314.89015332
  PAW double counting   =      9247.39084710   -10006.50177579
  entropy T*S    EENTRO =        -0.00524090
  eigenvalues    EBANDS =      -133.16670951
  atomic energy  EATOM  =      9736.70348140
  Solvation  Ediel_sol  =         0.00000000
  ---------------------------------------------------
  free energy    TOTEN  =       -19.27950458 eV

  energy without entropy =      -19.27426368  energy(sigma->0) =      -19.27775761


--------------------------------------------------------------------------------------------------------




--------------------------------------- Iteration      1(  12)  ---------------------------------------


    POTLOK:  cpu time      0.0154: real time      0.0182
    SETDIJ:  cpu time      0.0054: real time      0.0054
     EDDAV:  cpu time      0.2762: real time      0.2783
       DOS:  cpu time      0.0009: real time      0.0009
    CHARGE:  cpu time      0.0484: real time      0.0486
    MIXING:  cpu time      0.0009: real time      0.0010
    --------------------------------------------
      LOOP:  cpu time      0.3473: real time      0.3524

 eigenvalue-minimisations  :   988
 total energy-change (2. order) :-0.1521205E+01  (-0.8839094E-01)
 number of electron      77.0000754 magnetization       1.0619061
 augmentation part       49.1444068 magnetization      -0.0974222

 Broyden mixing:
  rms(total) = 0.12413E+00    rms(broyden)= 0.12405E+00
  rms(prec ) = 0.13781E+00
  weight for this iteration     100.00

 eigenvalues of (default mixing * dielectric matrix)
  average eigenvalue GAMMA=   1.6558
  6.6949  1.6307  1.0103  0.7085  0.6674  0.4394  0.4394

 Free energy of the ion-electron system (eV)
  ---------------------------------------------------
  alpha Z        PSCENC =       169.42466733
  Ewald energy   TEWEN  =     32713.38710180
  -Hartree energ DENC   =    -42075.68235502
  -exchange      EXHF   =         0.00000000
  -V(xc)+E(xc)   XCENC  =       314.25525252
  PAW double counting   =      9224.50281430    -9984.57540262
  entropy T*S    EENTRO =        -0.00647435
  eigenvalues    EBANDS =      -118.80979451
  atomic energy  EATOM  =      9736.70348140
  Solvation  Ediel_sol  =         0.00000000
  ---------------------------------------------------
  free energy    TOTEN  =       -20.80070915 eV

  energy without entropy =      -20.79423480  energy(sigma->0) =      -20.79855103


--------------------------------------------------------------------------------------------------------




--------------------------------------- Iteration      1(  13)  ---------------------------------------


    POTLOK:  cpu time      0.0156: real time      0.0159
    SETDIJ:  cpu time      0.0057: real time      0.0057
     EDDAV:  cpu time      0.2882: real time      0.2904
       DOS:  cpu time      0.0009: real time      0.0009
    CHARGE:  cpu time      0.0453: real time      0.0455
    MIXING:  cpu time      0.0009: real time      0.0009
    --------------------------------------------
      LOOP:  cpu time      0.3565: real time      0.3593

 eigenvalue-minimisations  :  1092
 total energy-change (2. order) :-0.1276987E+01  (-0.8578671E-01)
 number of electron      77.0000753 magnetization       0.9637018
 augmentation part       49.0867384 magnetization      -0.0056976

 Broyden mixing:
  rms(total) = 0.10156E+00    rms(broyden)= 0.10153E+00
  rms(prec ) = 0.11347E+00
  weight for this iteration     100.00

 eigenvalues of (default mixing * dielectric matrix)
  average eigenvalue GAMMA=   1.7123
  7.3549  2.3380  0.8597  0.8597  0.8003  0.6176  0.4341  0.4341

 Free energy of the ion-electron system (eV)
  ---------------------------------------------------
  alpha Z        PSCENC =       169.42466733
  Ewald energy   TEWEN  =     32713.38710180
  -Hartree energ DENC   =    -42069.74277787
  -exchange      EXHF   =         0.00000000
  -V(xc)+E(xc)   XCENC  =       313.54562754
  PAW double counting   =      9159.36875974    -9916.10584288
  entropy T*S    EENTRO =        -0.00633366
  eigenvalues    EBANDS =      -128.65237926
  atomic energy  EATOM  =      9736.70348140
  Solvation  Ediel_sol  =         0.00000000
  ---------------------------------------------------
  free energy    TOTEN  =       -22.07769586 eV

  energy without entropy =      -22.07136219  energy(sigma->0) =      -22.07558464


--------------------------------------------------------------------------------------------------------




--------------------------------------- Iteration      1(  14)  ---------------------------------------


    POTLOK:  cpu time      0.0149: real time      0.0152
    SETDIJ:  cpu time      0.0054: real time      0.0055
     EDDAV:  cpu time      0.2895: real time      0.2920
       DOS:  cpu time      0.0009: real time      0.0009
    CHARGE:  cpu time      0.0458: real time      0.0460
    MIXING:  cpu time      0.0011: real time      0.0011
    --------------------------------------------
      LOOP:  cpu time      0.3576: real time      0.3606

 eigenvalue-minimisations  :  1108
 total energy-change (2. order) :-0.9779873E+00  (-0.7375119E-01)
 number of electron      77.0000754 magnetization       0.9944511
 augmentation part       49.1510416 magnetization       0.1612176

 Broyden mixing:
  rms(total) = 0.82174E-01    rms(broyden)= 0.82134E-01
  rms(prec ) = 0.93956E-01
  weight for this iteration     100.00

 eigenvalues of (default mixing * dielectric matrix)
  average eigenvalue GAMMA=   1.7031
  7.6537  3.0274  1.0148  1.0148  0.7111  0.6231  0.4347  0.4347  0.4139

 Free energy of the ion-electron system (eV)
  ---------------------------------------------------
  alpha Z        PSCENC =       169.42466733
  Ewald energy   TEWEN  =     32713.38710180
  -Hartree energ DENC   =    -42057.34234436
  -exchange      EXHF   =         0.00000000
  -V(xc)+E(xc)   XCENC  =       312.83557619
  PAW double counting   =      9107.80343843    -9860.73687764
  entropy T*S    EENTRO =        -0.00901105
  eigenvalues    EBANDS =      -145.12171529
  atomic energy  EATOM  =      9736.70348140
  Solvation  Ediel_sol  =         0.00000000
  ---------------------------------------------------
  free energy    TOTEN  =       -23.05568320 eV

  energy without entropy =      -23.04667215  energy(sigma->0) =      -23.05267951


--------------------------------------------------------------------------------------------------------




--------------------------------------- Iteration      1(  15)  ---------------------------------------


    POTLOK:  cpu time      0.0150: real time      0.0161
    SETDIJ:  cpu time      0.0053: real time      0.0054
     EDDAV:  cpu time      0.2697: real time      0.2717
       DOS:  cpu time      0.0009: real time      0.0009
    CHARGE:  cpu time      0.0456: real time      0.0458
    MIXING:  cpu time      0.0013: real time      0.0013
    --------------------------------------------
      LOOP:  cpu time      0.3378: real time      0.3411

 eigenvalue-minimisations  :  1016
 total energy-change (2. order) :-0.7444202E+00  (-0.6849470E-01)
 number of electron      77.0000757 magnetization       0.8532693
 augmentation part       49.2416639 magnetization       0.3047956

 Broyden mixing:
  rms(total) = 0.63685E-01    rms(broyden)= 0.63635E-01
  rms(prec ) = 0.66152E-01
  weight for this iteration     100.00

 eigenvalues of (default mixing * dielectric matrix)
  average eigenvalue GAMMA=   1.7113
  8.1924  3.4606  1.0694  1.0694  0.7070  0.7070  0.6959  0.4391  0.4391  0.3333

 Free energy of the ion-electron system (eV)
  ---------------------------------------------------
  alpha Z        PSCENC =       169.42466733
  Ewald energy   TEWEN  =     32713.38710180
  -Hartree energ DENC   =    -42044.09553543
  -exchange      EXHF   =         0.00000000
  -V(xc)+E(xc)   XCENC  =       312.26247685
  PAW double counting   =      9069.23268515    -9819.04575233
  entropy T*S    EENTRO =        -0.01798863
  eigenvalues    EBANDS =      -161.65123951
  atomic energy  EATOM  =      9736.70348140
  Solvation  Ediel_sol  =         0.00000000
  ---------------------------------------------------
  free energy    TOTEN  =       -23.80010337 eV

  energy without entropy =      -23.78211474  energy(sigma->0) =      -23.79410716


--------------------------------------------------------------------------------------------------------




--------------------------------------- Iteration      1(  16)  ---------------------------------------


    POTLOK:  cpu time      0.0151: real time      0.0153
    SETDIJ:  cpu time      0.0056: real time      0.0056
     EDDAV:  cpu time      0.2576: real time      0.2597
       DOS:  cpu time      0.0009: real time      0.0009
    CHARGE:  cpu time      0.0445: real time      0.0447
    MIXING:  cpu time      0.0012: real time      0.0012
    --------------------------------------------
      LOOP:  cpu time      0.3247: real time      0.3273

 eigenvalue-minimisations  :   952
 total energy-change (2. order) :-0.3265671E+00  (-0.2676227E-01)
 number of electron      77.0000757 magnetization       0.6370018
 augmentation part       49.2422693 magnetization       0.2907976

 Broyden mixing:
  rms(total) = 0.61016E-01    rms(broyden)= 0.60985E-01
  rms(prec ) = 0.62224E-01
  weight for this iteration     100.00

 eigenvalues of (default mixing * dielectric matrix)
  average eigenvalue GAMMA=   1.8116
  9.5710  3.7262  1.5924  0.9302  0.9302  0.7056  0.7056  0.5666  0.4371  0.4481
  0.3148

 Free energy of the ion-electron system (eV)
  ---------------------------------------------------
  alpha Z        PSCENC =       169.42466733
  Ewald energy   TEWEN  =     32713.38710180
  -Hartree energ DENC   =    -42039.43595387
  -exchange      EXHF   =         0.00000000
  -V(xc)+E(xc)   XCENC  =       312.07145744
  PAW double counting   =      9070.12086873    -9820.35124758
  entropy T*S    EENTRO =        -0.01527892
  eigenvalues    EBANDS =      -166.03176681
  atomic energy  EATOM  =      9736.70348140
  Solvation  Ediel_sol  =         0.00000000
  ---------------------------------------------------
  free energy    TOTEN  =       -24.12667049 eV

  energy without entropy =      -24.11139156  energy(sigma->0) =      -24.12157751


--------------------------------------------------------------------------------------------------------




--------------------------------------- Iteration      1(  17)  ---------------------------------------


    POTLOK:  cpu time      0.0148: real time      0.0151
    SETDIJ:  cpu time      0.0054: real time      0.0054
     EDDAV:  cpu time      0.2531: real time      0.2554
       DOS:  cpu time      0.0009: real time      0.0009
    CHARGE:  cpu time      0.0456: real time      0.0458
    MIXING:  cpu time      0.0012: real time      0.0012
    --------------------------------------------
      LOOP:  cpu time      0.3210: real time      0.3237

 eigenvalue-minimisations  :   936
 total energy-change (2. order) :-0.1390890E+00  (-0.8497676E-02)
 number of electron      77.0000757 magnetization       0.4502164
 augmentation part       49.2045499 magnetization       0.2141272

 Broyden mixing:
  rms(total) = 0.40799E-01    rms(broyden)= 0.40778E-01
  rms(prec ) = 0.41883E-01
  weight for this iteration     100.00

 eigenvalues of (default mixing * dielectric matrix)
  average eigenvalue GAMMA=   1.8000
 10.3800  3.5969  1.7344  0.9945  0.9945  0.7215  0.7215  0.6362  0.6362  0.4360
  0.4360  0.3125

 Free energy of the ion-electron system (eV)
  ---------------------------------------------------
  alpha Z        PSCENC =       169.42466733
  Ewald energy   TEWEN  =     32713.38710180
  -Hartree energ DENC   =    -42038.94003499
  -exchange      EXHF   =         0.00000000
  -V(xc)+E(xc)   XCENC  =       312.00935568
  PAW double counting   =      9079.72545935    -9831.12643865
  entropy T*S    EENTRO =        -0.01408936
  eigenvalues    EBANDS =      -165.43526203
  atomic energy  EATOM  =      9736.70348140
  Solvation  Ediel_sol  =         0.00000000
  ---------------------------------------------------
  free energy    TOTEN  =       -24.26575948 eV

  energy without entropy =      -24.25167012  energy(sigma->0) =      -24.26106303


--------------------------------------------------------------------------------------------------------




--------------------------------------- Iteration      1(  18)  ---------------------------------------


    POTLOK:  cpu time      0.0148: real time      0.0150
    SETDIJ:  cpu time      0.0054: real time      0.0054
     EDDAV:  cpu time      0.2713: real time      0.2733
       DOS:  cpu time      0.0009: real time      0.0009
    CHARGE:  cpu time      0.0456: real time      0.0458
    MIXING:  cpu time      0.0015: real time      0.0015
    --------------------------------------------
      LOOP:  cpu time      0.3395: real time      0.3420

 eigenvalue-minimisations  :  1020
 total energy-change (2. order) :-0.1140824E+00  (-0.4125586E-02)
 number of electron      77.0000756 magnetization       0.2728594
 augmentation part       49.1916347 magnetization       0.1182937

 Broyden mixing:
  rms(total) = 0.29671E-01    rms(broyden)= 0.29650E-01
  rms(prec ) = 0.30979E-01
  weight for this iteration     100.00

 eigenvalues of (default mixing * dielectric matrix)
  average eigenvalue GAMMA=   1.8462
 11.4428  3.1594  2.1872  1.5777  0.9400  0.9400  0.7709  0.6727  0.6727  0.4481
  0.4378  0.4378  0.3129

 Free energy of the ion-electron system (eV)
  ---------------------------------------------------
  alpha Z        PSCENC =       169.42466733
  Ewald energy   TEWEN  =     32713.38710180
  -Hartree energ DENC   =    -42037.41755980
  -exchange      EXHF   =         0.00000000
  -V(xc)+E(xc)   XCENC  =       311.90472759
  PAW double counting   =      9087.75771038    -9839.93540579
  entropy T*S    EENTRO =        -0.01403715
  eigenvalues    EBANDS =      -166.19052769
  atomic energy  EATOM  =      9736.70348140
  Solvation  Ediel_sol  =         0.00000000
  ---------------------------------------------------
  free energy    TOTEN  =       -24.37984193 eV

  energy without entropy =      -24.36580477  energy(sigma->0) =      -24.37516288


--------------------------------------------------------------------------------------------------------




--------------------------------------- Iteration      1(  19)  ---------------------------------------


    POTLOK:  cpu time      0.0155: real time      0.0157
    SETDIJ:  cpu time      0.0054: real time      0.0054
     EDDAV:  cpu time      0.2816: real time      0.2838
       DOS:  cpu time      0.0009: real time      0.0009
    CHARGE:  cpu time      0.0445: real time      0.0447
    MIXING:  cpu time      0.0014: real time      0.0014
    --------------------------------------------
      LOOP:  cpu time      0.3492: real time      0.3519

 eigenvalue-minimisations  :  1076
 total energy-change (2. order) :-0.1087374E+00  (-0.2828595E-02)
 number of electron      77.0000756 magnetization       0.2358634
 augmentation part       49.2030548 magnetization       0.1582125

 Broyden mixing:
  rms(total) = 0.19572E-01    rms(broyden)= 0.19542E-01
  rms(prec ) = 0.20906E-01
  weight for this iteration     100.00

 eigenvalues of (default mixing * dielectric matrix)
  average eigenvalue GAMMA=   1.8362
 11.8255  2.8958  2.8958  1.7448  0.9921  0.9921  0.7227  0.7227  0.6639  0.6639
  0.3122  0.4375  0.4375  0.4005

 Free energy of the ion-electron system (eV)
  ---------------------------------------------------
  alpha Z        PSCENC =       169.42466733
  Ewald energy   TEWEN  =     32713.38710180
  -Hartree energ DENC   =    -42033.97389491
  -exchange      EXHF   =         0.00000000
  -V(xc)+E(xc)   XCENC  =       311.76301593
  PAW double counting   =      9092.93611102    -9845.48810146
  entropy T*S    EENTRO =        -0.01390380
  eigenvalues    EBANDS =      -169.22705665
  atomic energy  EATOM  =      9736.70348140
  Solvation  Ediel_sol  =         0.00000000
  ---------------------------------------------------
  free energy    TOTEN  =       -24.48857934 eV

  energy without entropy =      -24.47467554  energy(sigma->0) =      -24.48394474


--------------------------------------------------------------------------------------------------------




--------------------------------------- Iteration      1(  20)  ---------------------------------------


    POTLOK:  cpu time      0.0149: real time      0.0151
    SETDIJ:  cpu time      0.0054: real time      0.0054
     EDDAV:  cpu time      0.2656: real time      0.2679
       DOS:  cpu time      0.0009: real time      0.0009
    CHARGE:  cpu time      0.0455: real time      0.0458
    MIXING:  cpu time      0.0024: real time      0.0024
    --------------------------------------------
      LOOP:  cpu time      0.3347: real time      0.3375

 eigenvalue-minimisations  :   996
 total energy-change (2. order) :-0.5243518E-01  (-0.6250749E-03)
 number of electron      77.0000756 magnetization       0.1667047
 augmentation part       49.2070624 magnetization       0.1057198

 Broyden mixing:
  rms(total) = 0.16177E-01    rms(broyden)= 0.16171E-01
  rms(prec ) = 0.17256E-01
  weight for this iteration     100.00

 eigenvalues of (default mixing * dielectric matrix)
  average eigenvalue GAMMA=   1.8424
 12.0122  3.1351  3.1351  1.9989  0.9674  0.9674  0.9000  0.9000  0.6939  0.6939
  0.6431  0.4392  0.4392  0.3119  0.3981

 Free energy of the ion-electron system (eV)
  ---------------------------------------------------
  alpha Z        PSCENC =       169.42466733
  Ewald energy   TEWEN  =     32713.38710180
  -Hartree energ DENC   =    -42031.61795891
  -exchange      EXHF   =         0.00000000
  -V(xc)+E(xc)   XCENC  =       311.70883052
  PAW double counting   =      9092.88771145    -9845.38215041
  entropy T*S    EENTRO =        -0.01365675
  eigenvalues    EBANDS =      -171.63904095
  atomic energy  EATOM  =      9736.70348140
  Solvation  Ediel_sol  =         0.00000000
  ---------------------------------------------------
  free energy    TOTEN  =       -24.54101452 eV

  energy without entropy =      -24.52735777  energy(sigma->0) =      -24.53646227


--------------------------------------------------------------------------------------------------------




--------------------------------------- Iteration      1(  21)  ---------------------------------------


    POTLOK:  cpu time      0.0155: real time      0.0157
    SETDIJ:  cpu time      0.0056: real time      0.0056
     EDDAV:  cpu time      0.2809: real time      0.2829
       DOS:  cpu time      0.0009: real time      0.0009
    CHARGE:  cpu time      0.0468: real time      0.0470
    MIXING:  cpu time      0.0017: real time      0.0018
    --------------------------------------------
      LOOP:  cpu time      0.3514: real time      0.3539

 eigenvalue-minimisations  :  1016
 total energy-change (2. order) :-0.5638598E-01  (-0.6327123E-03)
 number of electron      77.0000756 magnetization       0.1061530
 augmentation part       49.2005251 magnetization       0.0673102

 Broyden mixing:
  rms(total) = 0.12428E-01    rms(broyden)= 0.12423E-01
  rms(prec ) = 0.13298E-01
  weight for this iteration     100.00

 eigenvalues of (default mixing * dielectric matrix)
  average eigenvalue GAMMA=   1.8601
 12.0903  3.6260  3.6260  2.1555  1.3053  0.9687  0.9687  0.7731  0.7731  0.6761
  0.6761  0.5378  0.3118  0.4383  0.4383  0.3965

 Free energy of the ion-electron system (eV)
  ---------------------------------------------------
  alpha Z        PSCENC =       169.42466733
  Ewald energy   TEWEN  =     32713.38710180
  -Hartree energ DENC   =    -42028.97458273
  -exchange      EXHF   =         0.00000000
  -V(xc)+E(xc)   XCENC  =       311.66665489
  PAW double counting   =      9093.51422152    -9846.08791803
  entropy T*S    EENTRO =        -0.01336489
  eigenvalues    EBANDS =      -174.21766179
  atomic energy  EATOM  =      9736.70348140
  Solvation  Ediel_sol  =         0.00000000
  ---------------------------------------------------
  free energy    TOTEN  =       -24.59740049 eV

  energy without entropy =      -24.58403560  energy(sigma->0) =      -24.59294553


--------------------------------------------------------------------------------------------------------




--------------------------------------- Iteration      1(  22)  ---------------------------------------


    POTLOK:  cpu time      0.0155: real time      0.0157
    SETDIJ:  cpu time      0.0057: real time      0.0057
     EDDAV:  cpu time      0.2689: real time      0.2712
       DOS:  cpu time      0.0009: real time      0.0009
    CHARGE:  cpu time      0.0456: real time      0.0458
    MIXING:  cpu time      0.0017: real time      0.0018
    --------------------------------------------
      LOOP:  cpu time      0.3384: real time      0.3410

 eigenvalue-minimisations  :  1012
 total energy-change (2. order) :-0.4935829E-01  (-0.4232174E-03)
 number of electron      77.0000756 magnetization       0.0639774
 augmentation part       49.1952790 magnetization       0.0421324

 Broyden mixing:
  rms(total) = 0.95659E-02    rms(broyden)= 0.95620E-02
  rms(prec ) = 0.10199E-01
  weight for this iteration     100.00

 eigenvalues of (default mixing * dielectric matrix)
  average eigenvalue GAMMA=   1.8750
 12.1028  4.2959  3.9423  2.1596  1.6341  0.9433  0.9433  0.8930  0.8930  0.6932
  0.6932  0.6606  0.3118  0.3958  0.4392  0.4392  0.4341

 Free energy of the ion-electron system (eV)
  ---------------------------------------------------
  alpha Z        PSCENC =       169.42466733
  Ewald energy   TEWEN  =     32713.38710180
  -Hartree energ DENC   =    -42026.11018849
  -exchange      EXHF   =         0.00000000
  -V(xc)+E(xc)   XCENC  =       311.62379118
  PAW double counting   =      9094.64041486    -9847.29023500
  entropy T*S    EENTRO =        -0.01317836
  eigenvalues    EBANDS =      -177.01261349
  atomic energy  EATOM  =      9736.70348140
  Solvation  Ediel_sol  =         0.00000000
  ---------------------------------------------------
  free energy    TOTEN  =       -24.64675879 eV

  energy without entropy =      -24.63358042  energy(sigma->0) =      -24.64236600


--------------------------------------------------------------------------------------------------------




--------------------------------------- Iteration      1(  23)  ---------------------------------------


    POTLOK:  cpu time      0.0148: real time      0.0150
    SETDIJ:  cpu time      0.0055: real time      0.0055
     EDDAV:  cpu time      0.2502: real time      0.2524
       DOS:  cpu time      0.0009: real time      0.0009
    CHARGE:  cpu time      0.0449: real time      0.0451
    MIXING:  cpu time      0.0018: real time      0.0018
    --------------------------------------------
      LOOP:  cpu time      0.3180: real time      0.3206

 eigenvalue-minimisations  :   896
 total energy-change (2. order) :-0.3369550E-01  (-0.1846403E-03)
 number of electron      77.0000756 magnetization       0.0244329
 augmentation part       49.2000298 magnetization       0.0109493

 Broyden mixing:
  rms(total) = 0.51402E-02    rms(broyden)= 0.51376E-02
  rms(prec ) = 0.57518E-02
  weight for this iteration     100.00

 eigenvalues of (default mixing * dielectric matrix)
  average eigenvalue GAMMA=   1.9664
 12.3284  6.3938  3.6078  2.1969  2.1969  0.9651  0.9651  1.0067  0.8678  0.8678
  0.6718  0.6718  0.6383  0.3118  0.3972  0.4389  0.4389  0.4304

 Free energy of the ion-electron system (eV)
  ---------------------------------------------------
  alpha Z        PSCENC =       169.42466733
  Ewald energy   TEWEN  =     32713.38710180
  -Hartree energ DENC   =    -42024.29782075
  -exchange      EXHF   =         0.00000000
  -V(xc)+E(xc)   XCENC  =       311.57725497
  PAW double counting   =      9095.13176408    -9847.74158105
  entropy T*S    EENTRO =        -0.01302142
  eigenvalues    EBANDS =      -178.85230065
  atomic energy  EATOM  =      9736.70348140
  Solvation  Ediel_sol  =         0.00000000
  ---------------------------------------------------
  free energy    TOTEN  =       -24.68045428 eV

  energy without entropy =      -24.66743286  energy(sigma->0) =      -24.67611381


--------------------------------------------------------------------------------------------------------




--------------------------------------- Iteration      1(  24)  ---------------------------------------


    POTLOK:  cpu time      0.0148: real time      0.0151
    SETDIJ:  cpu time      0.0054: real time      0.0054
     EDDAV:  cpu time      0.2274: real time      0.2290
       DOS:  cpu time      0.0009: real time      0.0009
    CHARGE:  cpu time      0.0455: real time      0.0457
    MIXING:  cpu time      0.0019: real time      0.0019
    --------------------------------------------
      LOOP:  cpu time      0.2959: real time      0.2980

 eigenvalue-minimisations  :   800
 total energy-change (2. order) :-0.3091163E-01  (-0.1405517E-03)
 number of electron      77.0000756 magnetization       0.0161695
 augmentation part       49.2084990 magnetization       0.0113312

 Broyden mixing:
  rms(total) = 0.45195E-02    rms(broyden)= 0.45174E-02
  rms(prec ) = 0.49129E-02
  weight for this iteration     100.00

 eigenvalues of (default mixing * dielectric matrix)
  average eigenvalue GAMMA=   2.0123
 12.4349  7.6691  3.7728  2.3646  2.3646  1.2444  0.9813  0.9813  0.8891  0.8891
  0.6887  0.6887  0.6245  0.6245  0.3118  0.3969  0.4387  0.4387  0.4299

 Free energy of the ion-electron system (eV)
  ---------------------------------------------------
  alpha Z        PSCENC =       169.42466733
  Ewald energy   TEWEN  =     32713.38710180
  -Hartree energ DENC   =    -42022.79719238
  -exchange      EXHF   =         0.00000000
  -V(xc)+E(xc)   XCENC  =       311.53335087
  PAW double counting   =      9094.49092920    -9846.98464629
  entropy T*S    EENTRO =        -0.01288650
  eigenvalues    EBANDS =      -180.45617134
  atomic energy  EATOM  =      9736.70348140
  Solvation  Ediel_sol  =         0.00000000
  ---------------------------------------------------
  free energy    TOTEN  =       -24.71136591 eV

  energy without entropy =      -24.69847941  energy(sigma->0) =      -24.70707041


--------------------------------------------------------------------------------------------------------




--------------------------------------- Iteration      1(  25)  ---------------------------------------


    POTLOK:  cpu time      0.0149: real time      0.0152
    SETDIJ:  cpu time      0.0056: real time      0.0056
     EDDAV:  cpu time      0.1952: real time      0.1968
       DOS:  cpu time      0.0009: real time      0.0009
    CHARGE:  cpu time      0.0453: real time      0.0455
    MIXING:  cpu time      0.0020: real time      0.0020
    --------------------------------------------
      LOOP:  cpu time      0.2638: real time      0.2659

 eigenvalue-minimisations  :   620
 total energy-change (2. order) :-0.6382119E-02  (-0.1912528E-04)
 number of electron      77.0000756 magnetization       0.0014193
 augmentation part       49.2054797 magnetization      -0.0038138

 Broyden mixing:
  rms(total) = 0.27545E-02    rms(broyden)= 0.27542E-02
  rms(prec ) = 0.29647E-02
  weight for this iteration     100.00

 eigenvalues of (default mixing * dielectric matrix)
  average eigenvalue GAMMA=   1.9890
 12.7514  7.8549  3.8304  2.3949  2.3949  1.4360  0.9388  0.9388  0.9402  0.9402
  0.6886  0.6886  0.7111  0.6774  0.5828  0.3118  0.4388  0.4388  0.3968  0.4256

 Free energy of the ion-electron system (eV)
  ---------------------------------------------------
  alpha Z        PSCENC =       169.42466733
  Ewald energy   TEWEN  =     32713.38710180
  -Hartree energ DENC   =    -42022.93345302
  -exchange      EXHF   =         0.00000000
  -V(xc)+E(xc)   XCENC  =       311.53404954
  PAW double counting   =      9094.10832638    -9846.60603243
  entropy T*S    EENTRO =        -0.01293196
  eigenvalues    EBANDS =      -180.32295706
  atomic energy  EATOM  =      9736.70348140
  Solvation  Ediel_sol  =         0.00000000
  ---------------------------------------------------
  free energy    TOTEN  =       -24.71774803 eV

  energy without entropy =      -24.70481607  energy(sigma->0) =      -24.71343737


--------------------------------------------------------------------------------------------------------




--------------------------------------- Iteration      1(  26)  ---------------------------------------


    POTLOK:  cpu time      0.0148: real time      0.0150
    SETDIJ:  cpu time      0.0054: real time      0.0054
     EDDAV:  cpu time      0.1940: real time      0.1955
       DOS:  cpu time      0.0009: real time      0.0009
    CHARGE:  cpu time      0.0442: real time      0.0447
    MIXING:  cpu time      0.0021: real time      0.0021
    --------------------------------------------
      LOOP:  cpu time      0.2613: real time      0.2636

 eigenvalue-minimisations  :   608
 total energy-change (2. order) :-0.8742830E-03  (-0.1170916E-04)
 number of electron      77.0000756 magnetization      -0.0072439
 augmentation part       49.2018979 magnetization      -0.0076773

 Broyden mixing:
  rms(total) = 0.12845E-02    rms(broyden)= 0.12831E-02
  rms(prec ) = 0.14827E-02
  weight for this iteration     100.00

 eigenvalues of (default mixing * dielectric matrix)
  average eigenvalue GAMMA=   1.9621
 12.8886  7.9302  3.9565  2.4544  2.4544  1.7658  0.9761  0.9761  1.0159  0.8773
  0.8773  0.6804  0.6804  0.6310  0.6310  0.3118  0.4379  0.4379  0.4291  0.3987
  0.3928

 Free energy of the ion-electron system (eV)
  ---------------------------------------------------
  alpha Z        PSCENC =       169.42466733
  Ewald energy   TEWEN  =     32713.38710180
  -Hartree energ DENC   =    -42022.82187566
  -exchange      EXHF   =         0.00000000
  -V(xc)+E(xc)   XCENC  =       311.53964040
  PAW double counting   =      9093.88483129    -9846.42404130
  entropy T*S    EENTRO =        -0.01295868
  eigenvalues    EBANDS =      -180.39946888
  atomic energy  EATOM  =      9736.70348140
  Solvation  Ediel_sol  =         0.00000000
  ---------------------------------------------------
  free energy    TOTEN  =       -24.71862231 eV

  energy without entropy =      -24.70566363  energy(sigma->0) =      -24.71430275


--------------------------------------------------------------------------------------------------------




--------------------------------------- Iteration      1(  27)  ---------------------------------------


    POTLOK:  cpu time      0.0148: real time      0.0150
    SETDIJ:  cpu time      0.0055: real time      0.0055
     EDDAV:  cpu time      0.1912: real time      0.1926
       DOS:  cpu time      0.0009: real time      0.0009
    CHARGE:  cpu time      0.0443: real time      0.0444
    MIXING:  cpu time      0.0021: real time      0.0022
    --------------------------------------------
      LOOP:  cpu time      0.2587: real time      0.2606

 eigenvalue-minimisations  :   600
 total energy-change (2. order) :-0.5381568E-03  (-0.7923019E-05)
 number of electron      77.0000756 magnetization      -0.0019485
 augmentation part       49.1994597 magnetization       0.0002983

 Broyden mixing:
  rms(total) = 0.18281E-02    rms(broyden)= 0.18276E-02
  rms(prec ) = 0.19622E-02
  weight for this iteration     100.00

 eigenvalues of (default mixing * dielectric matrix)
  average eigenvalue GAMMA=   1.9436
 12.7569  8.1648  3.9970  2.6220  2.2728  2.2728  1.0642  1.0642  0.9247  0.9247
  0.9794  0.7306  0.7306  0.6507  0.6507  0.5968  0.3118  0.4388  0.4388  0.3968
  0.4259  0.3454

 Free energy of the ion-electron system (eV)
  ---------------------------------------------------
  alpha Z        PSCENC =       169.42466733
  Ewald energy   TEWEN  =     32713.38710180
  -Hartree energ DENC   =    -42022.75677890
  -exchange      EXHF   =         0.00000000
  -V(xc)+E(xc)   XCENC  =       311.54284289
[...]
     35      -1.0876      1.00000
     36      -1.0494      1.00000
     37      -1.0039      1.00000
     38      -0.9777      1.00000
     39      -0.8630      1.00000
     40      -0.3761      1.00000
     41       0.1553      1.02660
     42       1.0562     -0.00010
     43       1.9906     -0.00000
     44       2.7527     -0.00000
     45       5.1872     -0.00000
     46       5.5717     -0.00000
     47       6.5700      0.00000
     48       6.6080      0.00000
     49       6.6927      0.00000
     50       8.3011      0.00000
     51       8.7259      0.00000
     52       8.8494      0.00000

 k-point     3 :       0.0000    0.3333    0.0000
  band No.  band energies     occupation 
      1      -6.2143      1.00000
      2      -5.2513      1.00000
      3      -4.4941      1.00000
      4      -4.0726      1.00000
      5      -3.8218      1.00000
      6      -3.7945      1.00000
      7      -3.7560      1.00000
      8      -3.4911      1.00000
      9      -3.4341      1.00000
     10      -3.3947      1.00000
     11      -3.2397      1.00000
     12      -3.1252      1.00000
     13      -3.1009      1.00000
     14      -2.7563      1.00000
     15      -2.6770      1.00000
     16      -2.4945      1.00000
     17      -2.4717      1.00000
     18      -2.2568      1.00000
     19      -2.0838      1.00000
     20      -1.9685      1.00000
     21      -1.8980      1.00000
     22      -1.8455      1.00000
     23      -1.7284      1.00000
     24      -1.6760      1.00000
     25      -1.5911      1.00000
     26      -1.5873      1.00000
     27      -1.5590      1.00000
     28      -1.4941      1.00000
     29      -1.4030      1.00000
     30      -1.3361      1.00000
     31      -1.2600      1.00000
     32      -1.2148      1.00000
     33      -1.1856      1.00000
     34      -1.1411      1.00000
     35      -1.1101      1.00000
     36      -1.0852      1.00000
     37      -1.0481      1.00000
     38      -1.0005      1.00000
     39       0.7356     -0.03255
     40       2.8490     -0.00000
     41       3.8150     -0.00000
     42       4.3602     -0.00000
     43       5.7072     -0.00000
     44       6.2167      0.00000
     45       6.5586      0.00000
     46       7.1677      0.00000
     47       7.6546      0.00000
     48       7.8187      0.00000
     49       8.2015      0.00000
     50       8.9337      0.00000
     51       9.4071      0.00000
     52       9.6004      0.00000

 k-point     4 :       0.3333    0.3333    0.0000
  band No.  band energies     occupation 
      1      -5.3725      1.00000
      2      -4.4731      1.00000
      3      -4.1286      1.00000
      4      -3.8903      1.00000
      5      -3.7275      1.00000
      6      -3.6297      1.00000
      7      -3.5720      1.00000
      8      -3.4097      1.00000
      9      -3.3149      1.00000
     10      -3.1221      1.00000
     11      -2.9949      1.00000
     12      -2.9296      1.00000
     13      -2.8962      1.00000
     14      -2.8336      1.00000
     15      -2.6356      1.00000
     16      -2.5897      1.00000
     17      -2.5692      1.00000
     18      -2.5093      1.00000
     19      -2.4035      1.00000
     20      -2.3155      1.00000
     21      -2.2443      1.00000
     22      -2.0964      1.00000
     23      -2.0105      1.00000
     24      -1.8202      1.00000
     25      -1.7633      1.00000
     26      -1.7052      1.00000
     27      -1.6687      1.00000
     28      -1.5852      1.00000
     29      -1.4032      1.00000
     30      -1.3913      1.00000
     31      -1.3799      1.00000
     32      -1.3303      1.00000
     33      -1.2433      1.00000
     34      -1.1962      1.00000
     35      -1.1642      1.00000
     36      -1.1002      1.00000
     37      -0.6342      1.00000
     38       0.4885      0.38048
     39       1.2329     -0.00000
     40       2.0871     -0.00000
     41       2.6904     -0.00000
     42       3.9750     -0.00000
     43       4.4916     -0.00000
     44       5.5464     -0.00000
     45       5.5557     -0.00000
     46       6.6746      0.00000
     47       7.1210      0.00000
     48       7.6386      0.00000
     49       8.3106      0.00000
     50       8.7724      0.00000
     51       8.9382      0.00000
     52       9.1474      0.00000


--------------------------------------------------------------------------------------------------------


 soft charge-density along one line, spin component           1
         0         1         2         3         4         5         6         7         8         9
 total charge-density along one line
 
 soft charge-density along one line, spin component           2
         0         1         2         3         4         5         6         7         8         9
 total charge-density along one line
 
 pseudopotential strength for first ion, spin component:           1
 -7.645  -0.000   0.000   0.000   0.000  -1.149   0.000  -0.000
 -0.000  -7.636   0.000  -0.000  -0.000   0.000  -1.158  -0.000
  0.000   0.000  -7.639  -0.000  -0.010  -0.000  -0.000  -1.157
  0.000  -0.000  -0.000  -7.628  -0.000  -0.000   0.000   0.000
  0.000  -0.000  -0.010  -0.000  -7.642  -0.000   0.000   0.008
 -1.149   0.000  -0.000  -0.000  -0.000   7.802  -0.000   0.000
  0.000  -1.158  -0.000   0.000   0.000  -0.000   7.812   0.000
 -0.000  -0.000  -1.157   0.000   0.008   0.000   0.000   7.813
 -0.000   0.000   0.000  -1.165   0.000   0.000  -0.000  -0.000
 -0.000   0.000   0.008   0.000  -1.151   0.000  -0.000  -0.006
  0.000  -0.000  -0.004   0.000  -0.003   0.000  -0.000   0.005
  0.000  -0.000  -0.008   0.000  -0.005   0.000  -0.000   0.009
  0.000  -0.022   0.000   0.000   0.000  -0.000   0.016  -0.000
  0.000  -0.000  -0.023   0.000   0.001   0.000   0.000   0.016
 -0.000   0.000  -0.000  -0.019   0.000  -0.000   0.000   0.000
  0.000  -0.025   0.000  -0.000   0.000   0.000   0.018  -0.000
 -0.000  -0.000  -0.025   0.000   0.001   0.000  -0.000   0.016
 -0.000  -0.000  -0.000  -0.022   0.000  -0.000   0.000  -0.000
 pseudopotential strength for first ion, spin component:           2
 -7.645  -0.000   0.000   0.000   0.000  -1.149   0.000  -0.000
 -0.000  -7.636   0.000  -0.000  -0.000   0.000  -1.158  -0.000
  0.000   0.000  -7.639  -0.000  -0.010  -0.000  -0.000  -1.157
  0.000  -0.000  -0.000  -7.628  -0.000  -0.000   0.000   0.000
  0.000  -0.000  -0.010  -0.000  -7.642  -0.000   0.000   0.008
 -1.149   0.000  -0.000  -0.000  -0.000   7.802  -0.000   0.000
  0.000  -1.158  -0.000   0.000   0.000  -0.000   7.812   0.000
 -0.000  -0.000  -1.157   0.000   0.008   0.000   0.000   7.813
 -0.000   0.000   0.000  -1.165   0.000   0.000  -0.000  -0.000
 -0.000   0.000   0.008   0.000  -1.151   0.000  -0.000  -0.006
  0.000  -0.000  -0.004   0.000  -0.003   0.000  -0.000   0.005
  0.000  -0.000  -0.008   0.000  -0.005   0.000  -0.000   0.009
  0.000  -0.022   0.000   0.000   0.000  -0.000   0.016  -0.000
  0.000  -0.000  -0.023   0.000   0.001   0.000   0.000   0.016
 -0.000   0.000  -0.000  -0.019   0.000  -0.000   0.000   0.000
  0.000  -0.025   0.000  -0.000   0.000   0.000   0.018  -0.000
 -0.000  -0.000  -0.025   0.000   0.001   0.000  -0.000   0.016
 -0.000  -0.000  -0.000  -0.022   0.000  -0.000   0.000  -0.000
 total augmentation occupancy for first ion, spin component:           1
  1.919   0.000   0.000   0.000   0.000  -0.016   0.000   0.000   0.000   0.000   0.000   0.000   0.000   0.000   0.000   0.000
  0.000   1.944   0.000   0.000   0.000   0.000  -0.026   0.000   0.000   0.000   0.000   0.000   0.016   0.000   0.000  -0.024
  0.000   0.000   1.935   0.000  -0.001   0.000   0.000  -0.017   0.000   0.008  -0.024   0.012   0.000   0.061   0.000   0.000
  0.000   0.000   0.000   1.941   0.000   0.000   0.000   0.000  -0.025   0.000   0.000   0.000   0.000   0.000   0.064   0.000
  0.000   0.000  -0.001   0.000   1.929   0.000   0.000   0.008   0.000  -0.018  -0.051   0.009   0.000   0.026   0.000   0.000
 -0.016   0.000   0.000   0.000   0.000   0.009   0.000   0.000   0.000   0.000   0.000   0.000   0.000   0.000   0.000   0.000
  0.000  -0.026   0.000   0.000   0.000   0.000   0.009   0.000   0.000   0.000   0.000   0.000   0.020   0.000   0.000  -0.001
  0.000   0.000  -0.017   0.000   0.008   0.000   0.000   0.009   0.000   0.001  -0.009  -0.001   0.000   0.019   0.000   0.000
  0.000   0.000   0.000  -0.025   0.000   0.000   0.000   0.000   0.010   0.000   0.000   0.000   0.000   0.000   0.027   0.000
  0.000   0.000   0.008   0.000  -0.018   0.000   0.000   0.001   0.000   0.009  -0.013   0.001   0.000   0.001   0.000   0.000
  0.000   0.000  -0.024   0.000  -0.051   0.000   0.000  -0.009   0.000  -0.013   1.583  -0.119   0.000   0.211   0.000   0.000
  0.000   0.000   0.012   0.000   0.009   0.000   0.000  -0.001   0.000   0.001  -0.119   0.014   0.000  -0.025   0.000   0.000
  0.000   0.016   0.000   0.000   0.000   0.000   0.020   0.000   0.000   0.000   0.000   0.000   0.188   0.000   0.000  -0.011
  0.000   0.000   0.061   0.000   0.026   0.000   0.000   0.019   0.000   0.001   0.211  -0.025   0.000   0.103   0.000   0.000
  0.000   0.000   0.000   0.064   0.000   0.000   0.000   0.000   0.027   0.000   0.000   0.000   0.000   0.000   0.139   0.000
  0.000  -0.024   0.000   0.000   0.000   0.000  -0.001   0.000   0.000   0.000   0.000   0.000  -0.011   0.000   0.000   0.001
  0.000   0.000  -0.029   0.000  -0.001   0.000   0.000  -0.001   0.000  -0.000  -0.028   0.003   0.000  -0.009   0.000   0.000
  0.000   0.000   0.000  -0.027   0.000   0.000   0.000   0.000  -0.001   0.000   0.000   0.000   0.000   0.000  -0.009   0.000
 total augmentation occupancy for first ion, spin component:           2
  0.000   0.000   0.000   0.000   0.000   0.000   0.000   0.000   0.000   0.000   0.000   0.000   0.000   0.000   0.000   0.000
  0.000   0.000   0.000   0.000   0.000   0.000  -0.000   0.000   0.000   0.000   0.000   0.000  -0.000   0.000   0.000   0.000
  0.000   0.000  -0.000   0.000   0.000   0.000   0.000  -0.000   0.000   0.000  -0.000   0.000   0.000   0.000   0.000   0.000
  0.000   0.000   0.000  -0.000   0.000   0.000   0.000   0.000  -0.000   0.000   0.000   0.000   0.000   0.000   0.000   0.000
  0.000   0.000   0.000   0.000   0.000   0.000   0.000  -0.000   0.000   0.000   0.000  -0.000   0.000   0.000   0.000   0.000
  0.000   0.000   0.000   0.000   0.000   0.000   0.000   0.000   0.000   0.000   0.000   0.000   0.000   0.000   0.000   0.000
  0.000  -0.000   0.000   0.000   0.000   0.000  -0.000   0.000   0.000   0.000   0.000   0.000  -0.000   0.000   0.000   0.000
  0.000   0.000  -0.000   0.000  -0.000   0.000   0.000  -0.000   0.000   0.000   0.000   0.000   0.000  -0.000   0.000   0.000
  0.000   0.000   0.000  -0.000   0.000   0.000   0.000   0.000  -0.000   0.000   0.000   0.000   0.000   0.000  -0.000   0.000
  0.000   0.000   0.000   0.000   0.000   0.000   0.000   0.000   0.000   0.000  -0.000  -0.000   0.000   0.000   0.000   0.000
  0.000   0.000  -0.000   0.000   0.000   0.000   0.000   0.000   0.000  -0.000   0.000  -0.000   0.000  -0.000   0.000   0.000
  0.000   0.000   0.000   0.000  -0.000   0.000   0.000   0.000   0.000  -0.000  -0.000  -0.000   0.000   0.000   0.000   0.000
  0.000  -0.000   0.000   0.000   0.000   0.000  -0.000   0.000   0.000   0.000   0.000   0.000  -0.000   0.000   0.000  -0.000
  0.000   0.000   0.000   0.000   0.000   0.000   0.000  -0.000   0.000   0.000  -0.000   0.000   0.000   0.000   0.000   0.000
  0.000   0.000   0.000   0.000   0.000   0.000   0.000   0.000  -0.000   0.000   0.000   0.000   0.000   0.000   0.000   0.000
  0.000   0.000   0.000   0.000   0.000   0.000   0.000   0.000   0.000   0.000   0.000   0.000  -0.000   0.000   0.000   0.000
  0.000   0.000  -0.000   0.000  -0.000   0.000   0.000  -0.000   0.000  -0.000   0.000  -0.000   0.000  -0.000   0.000   0.000
  0.000   0.000   0.000  -0.000   0.000   0.000   0.000   0.000  -0.000   0.000   0.000   0.000   0.000   0.000  -0.000   0.000


------------------------ aborting loop because EDIFF is reached ----------------------------------------



 DIPCOR: dipole corrections for dipol
 direction  3 min pos   160,
 dipolmoment           0.000000      0.000000      0.009129 electrons x Angstroem
 Tr[quadrupol]      -162.480051

 energy correction for charged system         0.000000 eV
 dipol+quadrupol energy correction            0.000036 eV
 added-field ion interaction          0.000000 eV  (added to PSCEN)

 
  *************** adding dipol energy to TOTEN NOW **************** 
    CHARGE:  cpu time      0.0442: real time      0.0444
    FORLOC:  cpu time      0.0007: real time      0.0008
    FORNL :  cpu time      0.1014: real time      0.1018
    STRESS:  cpu time      0.1091: real time      0.1096
    FORCOR:  cpu time      0.0149: real time      0.0150
    FORHAR:  cpu time      0.0022: real time      0.0022
    MIXING:  cpu time      0.0005: real time      0.0005
    OFIELD:  cpu time      0.0000: real time      0.0000

 ---------------------------------------------------------------------------------------------

         DFTD3 V3.0 Rev 1        
 Edisp (eV)   -2.52450

 E6    (eV) :    -0.9987
 E8    (eV) :    -1.5258
 % E8        : 60.44
    FORVDW:  cpu time      0.0277: real time      0.0278

  FORCE on cell =-STRESS in cart. coord.  units (eV):
  Direction    XX          YY          ZZ          XY          YZ          ZX
  --------------------------------------------------------------------------------------
  Alpha Z   169.42467   169.42467   169.42467
  Ewald   38954.96791 39115.40208-44060.93165    -0.00000     0.00000    -0.00000
  Hartree 41582.68839 41697.02238-39971.03875    -0.00000    -0.00000    -0.00000
  E(xc)    -449.85885  -449.70739  -450.38898     0.00000    -0.00000     0.00000
  Local  -81394.59055-81673.40661 83175.77802    -0.00000    -0.00000     0.00000
  n-local  -153.61982  -150.47253  -155.19800     5.40683     0.00000    -0.00000
  augment   661.41209   662.57159   662.48060    -0.00000    -0.00000     0.00000
  Kinetic   629.19291   626.77876   630.52313     5.39768     0.00000     0.00002
  Fock        0.00000     0.00000     0.00000     0.00000     0.00000     0.00000
  vdW        -3.08579    -3.12231    -1.99509    -0.00000     0.00000    -0.00000
  -------------------------------------------------------------------------------------
  Total      -3.46905    -5.50936    -1.34605     0.00000     0.00000     0.00000
  in kB     -26.27781   -41.73305   -10.19621     0.00000     0.00000     0.00000
  external pressure =      -26.07 kB  Pullay stress =        0.00 kB


 VOLUME and BASIS-vectors are now :
 -----------------------------------------------------------------------------
  energy-cutoff  :      400.00
  volume of cell :      211.51
      direct lattice vectors                 reciprocal lattice vectors
     3.630000114  0.000000000  0.000000000     0.275482085  0.000000000  0.000000000
     0.000000000  2.566797733  0.000000000     0.000000000  0.389590495  0.000000000
     0.000000000  0.000000000 22.700393000     0.000000000  0.000000000  0.044052101

  length of vectors
     3.630000114  2.566797733 22.700393000     0.275482085  0.389590495  0.044052101


 FORCES acting on ions
    electron-ion (+dipol)            ewald-force                    non-local-force                 convergence-correction
 -----------------------------------------------------------------------------------------------
   -.204E-13 -.166E-11 0.411E+04   -.622E-07 0.258E-07 -.411E+04   0.000E+00 0.000E+00 -.614E+01   0.651E-11 -.809E-12 -.179E-01
   0.742E-06 -.131E-05 0.291E+04   0.129E-06 -.541E-07 -.291E+04   0.000E+00 0.000E+00 0.714E+00   -.304E-10 0.766E-11 -.310E-01
   -.560E-13 0.189E-11 0.145E+04   -.128E-06 0.541E-07 -.145E+04   0.000E+00 0.000E+00 -.118E+00   0.700E-10 -.225E-10 0.525E-02
   0.754E-06 -.132E-05 -.862E+01   0.127E-06 -.531E-07 0.866E+01   0.000E+00 0.000E+00 -.122E+00   -.559E-10 0.110E-09 0.836E-01
   -.492E-13 -.395E-12 -.140E+04   -.124E-06 0.518E-07 0.140E+04   0.000E+00 0.000E+00 -.478E-02   -.105E-09 0.347E-10 0.972E-02
   0.734E-06 -.131E-05 -.295E+04   0.135E-06 -.579E-07 0.295E+04   0.000E+00 0.000E+00 -.177E+01   0.916E-10 -.109E-09 -.887E-01
   -.808E-14 -.139E-11 -.411E+04   -.768E-07 0.333E-07 0.410E+04   0.000E+00 0.000E+00 0.600E+01   0.201E-10 -.883E-11 0.122E-01
 -----------------------------------------------------------------------------------------------
   0.223E-05 -.394E-05 0.142E+01   -.392E-13 0.780E-13 0.000E+00   0.000E+00 0.000E+00 -.143E+01   -.295E-11 0.105E-10 -.268E-01
 
 
 POSITION                                       TOTAL-FORCE (eV/Angst)
 -----------------------------------------------------------------------------------
      0.00000      0.00000      0.00000         0.000000      0.000000      0.606420
      1.81500      1.28340      1.28340         0.000000      0.000000     -0.576182
      0.00000      0.00000      2.50071         0.000000      0.000000     -0.028515
      1.81500      1.28340      3.78317         0.000000      0.000000      0.015754
      0.00000      0.00000      5.03122         0.000000      0.000000     -0.017570
      1.81500      1.28340      6.34161         0.000000      0.000000      0.003736
      0.00000      0.00000      7.44832         0.000000      0.000000     -0.003643
 -----------------------------------------------------------------------------------
    total drift:                                0.000002     -0.000004     -0.035210


--------------------------------------------------------------------------------------------------------



  FREE ENERGIE OF THE ION-ELECTRON SYSTEM (eV)
  ---------------------------------------------------
  free  energy   TOTEN  =       -27.28409509 eV

  energy  without entropy=      -27.27125792  energy(sigma->0) =      -27.27981603
 
 d Force = 0.2092039E-03[-0.558E-04, 0.474E-03]  d Energy =-0.2916380E-03 0.501E-03
 d Force = 0.2710561E+02[ 0.271E+02, 0.271E+02]  d Ewald  = 0.2710562E+02-0.481E-05


--------------------------------------------------------------------------------------------------------


    POTLOK:  cpu time      0.0206: real time      0.0207


--------------------------------------------------------------------------------------------------------


 stress matrix after NEB project (eV)
     -3.46905      0.00000      0.00000
      0.00000     -5.50936      0.00000
      0.00000      0.00000     -1.34605
  FORCES: max atom, RMS     0.028515    0.014128
  FORCE total and by dimension    0.037380    0.028515
  Stress total and by dimension    6.648247    5.509361


--------------------------------------------------------------------------------------------------------


  
 reached required accuracy - stopping structural energy minimisation
     LOOP+:  cpu time      1.5940: real time      1.6166
    4ORBIT:  cpu time      0.0000: real time      0.0000

 total amount of memory used by VASP MPI-rank0    33963. kBytes
=======================================================================

   base      :      30000. kBytes
   nonl-proj :        533. kBytes
   fftplans  :        605. kBytes
   grid      :       1412. kBytes
   one-center:         62. kBytes
   wavefun   :       1351. kBytes
 
  
  
 General timing and accounting informations for this job:
 ========================================================
  
                  Total CPU time used (sec):       39.972
                            User time (sec):       39.691
                          System time (sec):        0.281
                         Elapsed time (sec):       41.490
  
                   Maximum memory used (kb):      222084.
                   Average memory used (kb):          N/A
  
                          Minor page faults:        67778
                          Major page faults:         6602
                 Voluntary context switches:         2192
