<?xml version="1.0" encoding="ISO-8859-1"?>
<modeling>
 <generator>
  <i name="program" type="string">vasp </i>
  <i name="version" type="string">6.3.2  </i>
  <i name="subversion" type="string">27Jun22 (build Aug 17 2022 15:43:34) complex                          parallel </i>
  <i name="platform" type="string">tv2STDVTST </i>
  <i name="date" type="string">2025 01 21 </i>
  <i name="time" type="string">16:01:05 </i>
 </generator>
 <incar>
  <i type="int" name="ISTART">     0</i>
  <i type="string" name="PREC">Normal</i>
  <i type="int" name="ISPIN">     2</i>
  <i type="int" name="ICHARG">     2</i>
  <i type="int" name="IBRION">     2</i>
  <i name="EDIFF">      0.00020000</i>
  <i name="EDIFFG">     -0.03000000</i>
  <i type="int" name="NSW">   800</i>
  <i type="int" name="ISIF">     2</i>
  <i type="int" name="ISYM">     1</i>
  <i name="ENCUT">    400.00000000</i>
  <i name="POTIM">      0.50000000</i>
  <i type="logical" name="LREAL"> F  </i>
  <i type="int" name="ISMEAR">     1</i>
  <i name="SIGMA">      0.20000000</i>
  <i type="logical" name="LWAVE"> F  </i>
  <i type="logical" name="LCHARG"> F  </i>
  <i type="string" name="GGA">PE</i>
  <i type="int" name="IDIPOL">     3</i>
  <i type="int" name="IVDW">    11</i>
 </incar>
 <primitive_cell>
  <structure name="primitive_cell" >
   <crystal>
    <varray name="basis" >
     <v>       3.63000011       0.00000000       0.00000000 </v>
     <v>       0.00000000       2.56679773       0.00000000 </v>
     <v>       0.00000000       0.00000000      22.70039300 </v>
    </varray>
    <i name="volume">    211.51036846 </i>
    <varray name="rec_basis" >
     <v>       0.27548208       0.00000000       0.00000000 </v>
     <v>       0.00000000       0.38959050       0.00000000 </v>
     <v>       0.00000000       0.00000000       0.04405210 </v>
    </varray>
   </crystal>
   <varray name="positions" >
    <v>       0.00000000       0.00000000       0.00000000 </v>
    <v>       0.50000000       0.50000000       0.05653642 </v>
    <v>       0.00000000       0.00000000       0.11307283 </v>
    <v>       0.50000000       0.50000000       0.16960925 </v>
    <v>       0.00000000       0.00000000       0.22614566 </v>
    <v>       0.50000000       0.50000000       0.28268208 </v>
    <v>       0.00000000       0.00000000       0.33921850 </v>
   </varray>
  </structure>
  <varray name="primitive_index" >
   <v type="int" >        1 </v>
   <v type="int" >        2 </v>
   <v type="int" >        3 </v>
   <v type="int" >        4 </v>
   <v type="int" >        5 </v>
   <v type="int" >        6 </v>
   <v type="int" >        7 </v>
  </varray>
 </primitive_cell>
 <kpoints>
  <generation param="Monkhorst-Pack">
   <v type="int" name="divisions">       3        3        1 </v>
   <v name="usershift">      0.00000000       0.00000000       0.00000000 </v>
   <v name="genvec1">      0.33333333       0.00000000       0.00000000 </v>
   <v name="genvec2">      0.00000000       0.33333333       0.00000000 </v>
   <v name="genvec3">      0.00000000       0.00000000       1.00000000 </v>
   <v name="shift">      0.00000000       0.00000000       0.00000000 </v>
  </generation>
  <varray name="kpointlist" >
   <v>       0.00000000       0.00000000       0.00000000 </v>
   <v>       0.33333333       0.00000000       0.00000000 </v>
   <v>       0.00000000       0.33333333       0.00000000 </v>
   <v>       0.33333333       0.33333333       0.00000000 </v>
  </varray>
  <varray name="weights" >
   <v>       0.11111111 </v>
   <v>       0.22222222 </v>
   <v>       0.22222222 </v>
   <v>       0.44444444 </v>
  </varray>
 </kpoints>
 <parameters>
  <separator name="general" >
   <i type="string" name="SYSTEM">unknown system</i>
   <i type="logical" name="LCOMPAT"> F  </i>
  </separator>
  <separator name="electronic" >
   <i type="string" name="PREC">normal</i>
   <i name="ENMAX">    400.00000000</i>
   <i name="ENAUG">    586.98000000</i>
   <i name="EDIFF">      0.00020000</i>
   <i type="int" name="IALGO">    38</i>
   <i type="int" name="IWAVPR">    11</i>
   <i type="int" name="NBANDS">    52</i>
   <i type="int" name="NBANDSLOW">    -1</i>
   <i type="int" name="NBANDSHIGH">    -1</i>
   <i name="NELECT">     77.00000000</i>
   <i type="int" name="TURBO">     0</i>
   <i type="int" name="IRESTART">     0</i>
   <i type="int" name="NREBOOT">     0</i>
   <i type="int" name="NMIN">     0</i>
   <i name="EREF">      0.00000000</i>
   <separator name="electronic smearing" >
    <i type="int" name="ISMEAR">     1</i>
    <i name="SIGMA">      0.20000000</i>
    <i name="KSPACING">      0.50000000</i>
    <i type="logical" name="KGAMMA"> T  </i>
    <i type="logical" name="KBLOWUP"> T  </i>
   </separator>
   <separator name="electronic projectors" >
    <i type="logical" name="LREAL"> F  </i>
    <v name="ROPT">      0.00000000</v>
    <i type="int" name="LMAXPAW">  -100</i>
    <i type="int" name="LMAXMIX">     2</i>
    <i type="logical" name="NLSPLINE"> F  </i>
   </separator>
   <separator name="electronic startup" >
    <i type="int" name="ISTART">     0</i>
    <i type="int" name="ICHARG">     2</i>
    <i type="int" name="INIWAV">     1</i>
   </separator>
   <separator name="electronic spin" >
    <i type="int" name="ISPIN">     2</i>
    <i type="logical" name="LNONCOLLINEAR"> F  </i>
    <v name="MAGMOM">      1.00000000      1.00000000      1.00000000      1.00000000      1.00000000      1.00000000      1.00000000</v>
    <i name="NUPDOWN">     -1.00000000</i>
    <i type="logical" name="LSORBIT"> F  </i>
    <v name="SAXIS">      0.00000000      0.00000000      1.00000000</v>
    <i type="logical" name="LSPIRAL"> F  </i>
    <v name="QSPIRAL">      0.00000000      0.00000000      0.00000000</v>
    <i type="logical" name="LZEROZ"> F  </i>
   </separator>
   <separator name="electronic exchange-correlation" >
    <i type="logical" name="LASPH"> F  </i>
    <i type="logical" name="LMETAGGA"> F  </i>
   </separator>
   <separator name="electronic convergence" >
    <i type="int" name="NELM">    60</i>
    <i type="int" name="NELMDL">    -5</i>
    <i type="int" name="NELMIN">     2</i>
    <i name="ENINI">    400.00000000</i>
    <separator name="electronic convergence detail" >
     <i type="logical" name="LDIAG"> T  </i>
     <i type="logical" name="LSUBROT"> F  </i>
     <i name="WEIMIN">      0.00100000</i>
     <i name="EBREAK">      0.00000096</i>
     <i name="DEPER">      0.30000000</i>
     <i type="int" name="NRMM">     4</i>
     <i name="TIME">      0.40000000</i>
    </separator>
   </separator>
   <separator name="electronic mixer" >
    <i name="AMIX">      0.40000000</i>
    <i name="BMIX">      1.00000000</i>
    <i name="AMIN">      0.10000000</i>
    <i name="AMIX_MAG">      1.60000000</i>
    <i name="BMIX_MAG">      1.00000000</i>
    <separator name="electronic mixer details" >
     <i type="int" name="IMIX">     4</i>
     <i type="logical" name="MIXFIRST"> F  </i>
     <i type="int" name="MAXMIX">   -45</i>
     <i name="WC">    100.00000000</i>
     <i type="int" name="INIMIX">     1</i>
     <i type="int" name="MIXPRE">     1</i>
     <i type="int" name="MREMOVE">     5</i>
    </separator>
   </separator>
   <separator name="electronic dipolcorrection" >
    <i type="logical" name="LDIPOL"> F  </i>
    <i type="logical" name="LMONO"> F  </i>
    <i type="int" name="IDIPOL">     3</i>
    <i name="EPSILON">      1.00000000</i>
    <v name="DIPOL">   -100.00000000   -100.00000000   -100.00000000</v>
    <i name="EFIELD">      0.00000000</i>
   </separator>
  </separator>
  <separator name="grids" >
   <i type="int" name="NGX">    18</i>
   <i type="int" name="NGY">    14</i>
   <i type="int" name="NGZ">   112</i>
   <i type="int" name="NGXF">    36</i>
   <i type="int" name="NGYF">    28</i>
   <i type="int" name="NGZF">   224</i>
   <i type="logical" name="ADDGRID"> F  </i>
  </separator>
  <separator name="ionic" >
   <i type="int" name="NSW">   800</i>
   <i type="int" name="IBRION">     2</i>
   <i type="int" name="MDALGO">     0</i>
   <i type="int" name="ISIF">     2</i>
   <i name="PSTRESS">      0.00000000</i>
   <i name="EDIFFG">     -0.03000000</i>
   <i type="int" name="NFREE">     1</i>
   <i name="POTIM">      0.50000000</i>
   <i name="SMASS">     -3.00000000</i>
   <i name="SCALEE">      1.00000000</i>
  </separator>
  <separator name="ionic md" >
   <i name="TEBEG">      0.00010000</i>
   <i name="TEEND">      0.00010000</i>
   <i type="int" name="NBLOCK">     1</i>
   <i type="int" name="KBLOCK">   800</i>
   <i type="int" name="NPACO">   256</i>
   <i name="APACO">     10.00000000</i>
  </separator>
  <separator name="symmetry" >
   <i type="int" name="ISYM">     1</i>
   <i name="SYMPREC">      0.00001000</i>
  </separator>
  <separator name="dos" >
   <i type="int" name="LORBIT">     0</i>
   <v name="RWIGS">     -1.00000000</v>
   <i type="int" name="NEDOS">   301</i>
   <i name="EMIN">     10.00000000</i>
   <i name="EMAX">    -10.00000000</i>
   <i name="EFERMI">      0.00000000</i>
  </separator>
  <separator name="writing" >
   <i type="int" name="NWRITE">     2</i>
   <i type="logical" name="LWAVE"> F  </i>
   <i type="logical" name="LDOWNSAMPLE"> F  </i>
   <i type="logical" name="LCHARG"> F  </i>
   <i type="logical" name="LPARD"> F  </i>
   <i type="logical" name="LVTOT"> F  </i>
   <i type="logical" name="LVHAR"> F  </i>
   <i type="logical" name="LELF"> F  </i>
   <i type="logical" name="LOPTICS"> F  </i>
   <v name="STM">      0.00000000      0.00000000      0.00000000      0.00000000      0.00000000      0.00000000      0.00000000</v>
  </separator>
  <separator name="performance" >
   <i type="int" name="NPAR">     4</i>
   <i type="int" name="NSIM">     4</i>
   <i type="int" name="NBLK">    -1</i>
   <i type="logical" name="LPLANE"> T  </i>
   <i type="logical" name="LSCALAPACK"> T  </i>
   <i type="logical" name="LSCAAWARE"> F  </i>
   <i type="logical" name="LSCALU"> F  </i>
   <i type="logical" name="LASYNC"> F  </i>
   <i type="logical" name="LORBITALREAL"> F  </i>
  </separator>
  <separator name="miscellaneous" >
   <i type="int" name="IDIOT">     3</i>
   <i type="int" name="PHON_NSTRUCT">    -1</i>
   <i type="logical" name="LMUSIC"> F  </i>
   <v name="POMASS">     63.54600000</v>
   <v name="DARWINR">      0.00000000</v>
   <v name="DARWINV">      1.00000000</v>
   <i type="logical" name="LCORR"> T  </i>
  </separator>
  <i type="logical" name="GGA_COMPAT"> T  </i>
  <i type="logical" name="LBERRY"> F  </i>
  <i type="int" name="ICORELEVEL">     0</i>
  <i type="logical" name="LDAU"> F  </i>
  <i type="int" name="I_CONSTRAINED_M">     0</i>
  <separator name="electronic exchange-correlation" >
   <i type="string" name="GGA">PE</i>
   <i type="int" name="VOSKOWN">     0</i>
   <i type="logical" name="LHFCALC"> F  </i>
   <i type="string" name="PRECFOCK"></i>
   <i type="logical" name="LSYMGRAD"> F  </i>
   <i type="logical" name="LHFONE"> F  </i>
   <i type="logical" name="LRHFCALC"> F  </i>
   <i type="logical" name="LTHOMAS"> F  </i>
   <i type="logical" name="LMODELHF"> F  </i>
   <i type="logical" name="LFOCKACE"> F  </i>
   <i name="ENCUT4O">     -1.00000000</i>
   <i type="int" name="EXXOEP">     0</i>
   <i type="int" name="FOURORBIT">     0</i>
   <i name="AEXX">      0.00000000</i>
   <i name="HFALPHA">      0.00000000</i>
   <i name="MCALPHA">      0.00000000</i>
   <i name="ALDAX">      1.00000000</i>
   <i name="AGGAX">      1.00000000</i>
   <i name="ALDAC">      1.00000000</i>
   <i name="AGGAC">      1.00000000</i>
   <i type="int" name="NKREDX">     1</i>
   <i type="int" name="NKREDY">     1</i>
   <i type="int" name="NKREDZ">     1</i>
   <i type="logical" name="SHIFTRED"> F  </i>
   <i type="logical" name="ODDONLY"> F  </i>
   <i type="logical" name="EVENONLY"> F  </i>
   <i type="int" name="LMAXFOCK">     0</i>
   <i type="int" name="NMAXFOCKAE">     0</i>
   <i type="logical" name="LFOCKAEDFT"> F  </i>
   <i name="HFSCREEN">      0.00000000</i>
   <i name="HFSCREENC">      0.00000000</i>
   <i type="int" name="NBANDSGWLOW">     0</i>
  </separator>
  <separator name="vdW DFT" >
   <i type="logical" name="LUSE_VDW"> F  </i>
   <i name="Zab_VDW">     -0.84910000</i>
   <i name="PARAM1">      0.12340000</i>
   <i name="PARAM2">      1.00000000</i>
   <i name="PARAM3">      0.00000000</i>
  </separator>
  <separator name="model GW" >
   <i type="int" name="MODEL_GW">     0</i>
   <i name="MODEL_EPS0">     18.12946015</i>
   <i name="MODEL_ALPHA">      1.00000000</i>
  </separator>
  <separator name="linear response parameters" >
   <i type="logical" name="LEPSILON"> F  </i>
   <i type="logical" name="LRPA"> F  </i>
   <i type="logical" name="LNABLA"> F  </i>
   <i type="logical" name="LVEL"> F  </i>
   <i name="CSHIFT">      0.10000000</i>
   <i name="OMEGAMAX">     -1.00000000</i>
   <i name="DEG_THRESHOLD">      0.00200000</i>
   <i name="RTIME">     -0.10000000</i>
   <i name="WPLASMAI">      0.00000000</i>
   <v name="DFIELD">      0.00000000      0.00000000      0.00000000</v>
   <v name="WPLASMA">      0.00000000      0.00000000      0.00000000      0.00000000      0.00000000      0.00000000      0.00000000      0.00000000      0.00000000</v>
  </separator>
  <separator name="orbital magnetization" >
   <i type="logical" name="NUCIND"> F  </i>
   <v name="MAGPOS">      0.00000000      0.00000000      0.00000000</v>
   <i type="logical" name="LNICSALL"> T  </i>
   <i type="logical" name="ORBITALMAG"> F  </i>
   <i type="logical" name="LMAGBLOCH"> F  </i>
   <i type="logical" name="LCHIMAG"> F  </i>
   <i type="logical" name="LGAUGE"> T  </i>
   <i type="int" name="MAGATOM">     0</i>
   <v name="MAGDIPOL">      0.00000000      0.00000000      0.00000000</v>
   <v name="AVECCONST">      0.00000000      0.00000000      0.00000000</v>
  </separator>
  <separator name="response functions" >
   <i type="logical" name="LFINITE_TEMPERATURE"> F  </i>
   <i type="logical" name="LADDER"> F  </i>
   <i type="logical" name="LRPAFORCE"> F  </i>
   <i type="logical" name="LFXC"> F  </i>
   <i type="logical" name="LHARTREE"> T  </i>
   <i type="int" name="IBSE">     0</i>
   <v type="int" name="KPOINT">    -1     0     0     0</v>
   <i type="logical" name="LTCTC"> F  </i>
   <i type="logical" name="LTCTE"> F  </i>
   <i type="logical" name="LTETE"> F  </i>
   <i type="logical" name="LTRIPLET"> F  </i>
   <i type="logical" name="LFXCEPS"> F  </i>
   <i type="logical" name="LFXHEG"> F  </i>
   <i type="int" name="NATURALO">     2</i>
   <i type="logical" name="LHOLEGF"> F  </i>
   <i type="logical" name="L2ORDER"> F  </i>
   <i type="logical" name="LDMP1"> F  </i>
   <i type="logical" name="LMP2LT"> F  </i>
   <i type="logical" name="LSMP2LT"> F  </i>
   <i type="logical" name="LGWLF"> F  </i>
   <i name="ENCUTGW">     -2.00000000</i>
   <i name="ENCUTGWSOFT">     -2.00000000</i>
   <i name="ENCUTLF">     -1.00000000</i>
   <i type="logical" name="LESF_SPLINES"> F  </i>
   <i type="int" name="LMAXMP2">    -1</i>
   <i name="SCISSOR">      0.00000000</i>
   <i type="int" name="NOMEGA">     0</i>
   <i type="int" name="NOMEGAR">     0</i>
   <i type="int" name="NBANDSGW">    -1</i>
   <i type="int" name="NBANDSO">    -1</i>
   <i type="int" name="NBANDSV">    -1</i>
   <i type="int" name="NELMGW">     1</i>
   <i type="int" name="NELMHF">     1</i>
   <i type="int" name="DIM">     3</i>
   <i type="int" name="IESPILON">     4</i>
   <i type="int" name="ANTIRES">     0</i>
   <i name="OMEGAMAX">    -30.00000000</i>
   <i name="OMEGAMIN">    -30.00000000</i>
   <i name="OMEGATL">   -200.00000000</i>
   <i type="int" name="OMEGAGRID">     0</i>
   <i name="CSHIFT">     -0.10000000</i>
   <i type="logical" name="LSELFENERGY"> F  </i>
   <i type="logical" name="LSPECTRAL"> F  </i>
   <i type="logical" name="LSPECTRALGW"> F  </i>
   <i type="logical" name="LSINGLES"> F  </i>
   <i type="logical" name="LFERMIGW"> F  </i>
   <i type="logical" name="ODDONLYGW"> F  </i>
   <i type="logical" name="EVENONLYGW"> F  </i>
   <i type="int" name="NKREDLFX">     1</i>
   <i type="int" name="NKREDLFY">     1</i>
   <i type="int" name="NKREDLFZ">     1</i>
   <i type="int" name="MAXMEM">  2800</i>
   <i type="int" name="TELESCOPE">     0</i>
   <i type="int" name="NTAUPAR">    -1</i>
   <i type="int" name="NOMEGAPAR">    -1</i>
   <i name="DAMP_NEWTON">      0.80000001</i>
   <i name="LAMBDA">      1.00000000</i>
  </separator>
  <separator name="External order field" >
   <i name="OFIELD_KAPPA">      0.00000000</i>
   <v name="OFIELD_K">      0.00000000      0.00000000      0.00000000</v>
   <i name="OFIELD_Q6_NEAR">      0.00000000</i>
   <i name="OFIELD_Q6_FAR">      0.00000000</i>
   <i name="OFIELD_A">      0.00000000</i>
  </separator>
  <separator name="optional k-points parameters" >
   <i type="int" name="KPOINTS_OPT_MODE">     1</i>
   <i type="logical" name="LKPOINTS_OPT"> F  </i>
  </separator>
 </parameters>
 <atominfo>
  <atoms>       7 </atoms>
  <types>       1 </types>
  <array name="atoms" >
   <dimension dim="1">ion</dimension>
   <field type="string">element</field>
   <field type="int">atomtype</field>
   <set>
    <rc><c>Cu</c><c>   1</c></rc>
    <rc><c>Cu</c><c>   1</c></rc>
    <rc><c>Cu</c><c>   1</c></rc>
    <rc><c>Cu</c><c>   1</c></rc>
    <rc><c>Cu</c><c>   1</c></rc>
    <rc><c>Cu</c><c>   1</c></rc>
    <rc><c>Cu</c><c>   1</c></rc>
   </set>
  </array>
  <array name="atomtypes" >
   <dimension dim="1">type</dimension>
   <field type="int">atomspertype</field>
   <field type="string">element</field>
   <field>mass</field>
   <field>valence</field>
   <field type="string">pseudopotential</field>
   <set>
    <rc><c>   7</c><c>Cu</c><c>     63.54600000</c><c>     11.00000000</c><c>  PAW_PBE Cu 22Jun2005                  </c></rc>
   </set>
  </array>
 </atominfo>
 <structure name="initialpos" >
  <crystal>
   <varray name="basis" >
    <v>       3.63000011       0.00000000       0.00000000 </v>
    <v>       0.00000000       2.56679773       0.00000000 </v>
    <v>       0.00000000       0.00000000      22.70039300 </v>
   </varray>
   <i name="volume">    211.51036846 </i>
   <varray name="rec_basis" >
    <v>       0.27548208       0.00000000       0.00000000 </v>
    <v>       0.00000000       0.38959050       0.00000000 </v>
    <v>       0.00000000       0.00000000       0.04405210 </v>
   </varray>
  </crystal>
  <varray name="positions" >
   <v>       0.00000000       0.00000000       0.00000000 </v>
   <v>       0.50000000       0.50000000       0.05653642 </v>
   <v>       0.00000000       0.00000000       0.11307283 </v>
   <v>       0.50000000       0.50000000       0.16960925 </v>
   <v>       0.00000000       0.00000000       0.22614566 </v>
   <v>       0.50000000       0.50000000       0.28268208 </v>
   <v>       0.00000000       0.00000000       0.33921850 </v>
  </varray>
  <varray name="selective"  type="logical" >
   <v type="logical" >  F  F  F </v>
   <v type="logical" >  F  F  F </v>
   <v type="logical" >  T  T  T </v>
   <v type="logical" >  T  T  T </v>
   <v type="logical" >  T  T  T </v>
   <v type="logical" >  T  T  T </v>
   <v type="logical" >  T  T  T </v>
  </varray>
  <nose>
   <v>      -3.00000000       0.00000000       0.00010000       0.00010000 </v>
  </nose>
 </structure>
 <calculation>
  <scstep>
   <time name="dav">    0.25    0.25</time>
   <time name="total">    0.27    0.30</time>
   <energy>
    <i name="alphaZ">    169.42466733 </i>
    <i name="ewald">  32713.38710180 </i>
    <i name="hartreedc"> -42102.39872724 </i>
    <i name="XCdc">    319.20117325 </i>
    <i name="pawpsdc">   8596.68247234 </i>
    <i name="pawaedc">  -9337.44652067 </i>
    <i name="eentropy">     -0.00878035 </i>
    <i name="bandstr">    545.44954570 </i>
    <i name="atom">   9736.70348140 </i>
    <i name="e_fr_energy">    640.99441356 </i>
    <i name="e_wo_entrp">    641.00319391 </i>
    <i name="e_0_energy">    640.99734034 </i>
   </energy>
  </scstep>
  <scstep>
   <time name="dav">    0.24    0.24</time>
   <time name="total">    0.24    0.24</time>
   <energy>
    <i name="e_fr_energy">     39.64402503 </i>
    <i name="e_wo_entrp">     39.63945440 </i>
    <i name="e_0_energy">     39.64250148 </i>
   </energy>
  </scstep>
  <scstep>
   <time name="dav">    0.24    0.24</time>
   <time name="total">    0.24    0.24</time>
   <energy>
    <i name="e_fr_energy">    -26.58169032 </i>
    <i name="e_wo_entrp">    -26.60334952 </i>
    <i name="e_0_energy">    -26.58891005 </i>
   </energy>
  </scstep>
  <scstep>
   <time name="dav">    0.26    0.26</time>
   <time name="total">    0.26    0.26</time>
   <energy>
    <i name="e_fr_energy">    -29.03654477 </i>
    <i name="e_wo_entrp">    -29.05560537 </i>
    <i name="e_0_energy">    -29.04289830 </i>
   </energy>
  </scstep>
  <scstep>
   <time name="dav">    0.28    0.28</time>
   <time name="total">    0.33    0.33</time>
   <energy>
    <i name="e_fr_energy">    -29.08818346 </i>
    <i name="e_wo_entrp">    -29.10715769 </i>
    <i name="e_0_energy">    -29.09450820 </i>
   </energy>
  </scstep>
  <scstep>
   <time name="dav">    0.25    0.25</time>
   <time name="total">    0.32    0.32</time>
   <energy>
    <i name="e_fr_energy">    -23.30617479 </i>
    <i name="e_wo_entrp">    -23.30140095 </i>
    <i name="e_0_energy">    -23.30458351 </i>
   </energy>
  </scstep>
  <scstep>
   <time name="dav">    0.25    0.25</time>
   <time name="total">    0.32    0.32</time>
   <energy>
    <i name="e_fr_energy">    -20.32302190 </i>
    <i name="e_wo_entrp">    -20.31895861 </i>
    <i name="e_0_energy">    -20.32166747 </i>
   </energy>
  </scstep>
  <scstep>
   <time name="dav">    0.28    0.28</time>
   <time name="total">    0.35    0.35</time>
   <energy>
    <i name="e_fr_energy">    -19.77477290 </i>
    <i name="e_wo_entrp">    -19.76958090 </i>
    <i name="e_0_energy">    -19.77304223 </i>
   </energy>
  </scstep>
  <scstep>
   <time name="dav">    0.32    0.32</time>
   <time name="total">    0.38    0.39</time>
   <energy>
    <i name="e_fr_energy">    -19.45875094 </i>
    <i name="e_wo_entrp">    -19.44894989 </i>
    <i name="e_0_energy">    -19.45548393 </i>
   </energy>
  </scstep>
  <scstep>
   <time name="dav">    0.26    0.26</time>
   <time name="total">    0.33    0.33</time>
   <energy>
    <i name="e_fr_energy">    -18.75605749 </i>
    <i name="e_wo_entrp">    -18.75430559 </i>
    <i name="e_0_energy">    -18.75547352 </i>
   </energy>
  </scstep>
  <scstep>
   <time name="dav">    0.28    0.28</time>
   <time name="total">    0.34    0.35</time>
   <energy>
    <i name="e_fr_energy">    -19.27950458 </i>
    <i name="e_wo_entrp">    -19.27426368 </i>
    <i name="e_0_energy">    -19.27775761 </i>
   </energy>
  </scstep>
  <scstep>
   <time name="dav">    0.28    0.28</time>
   <time name="total">    0.35    0.35</time>
   <energy>
    <i name="e_fr_energy">    -20.80070915 </i>
    <i name="e_wo_entrp">    -20.79423480 </i>
    <i name="e_0_energy">    -20.79855103 </i>
   </energy>
  </scstep>
  <scstep>
   <time name="dav">    0.29    0.29</time>
   <time name="total">    0.36    0.36</time>
   <energy>
    <i name="e_fr_energy">    -22.07769586 </i>
    <i name="e_wo_entrp">    -22.07136219 </i>
    <i name="e_0_energy">    -22.07558464 </i>
   </energy>
  </scstep>
  <scstep>
   <time name="dav">    0.29    0.29</time>
   <time name="total">    0.36    0.36</time>
   <energy>
    <i name="e_fr_energy">    -23.05568320 </i>
    <i name="e_wo_entrp">    -23.04667215 </i>
    <i name="e_0_energy">    -23.05267951 </i>
   </energy>
  </scstep>
  <scstep>
   <time name="dav">    0.27    0.27</time>
   <time name="total">    0.34    0.34</time>
   <energy>
    <i name="e_fr_energy">    -23.80010337 </i>
    <i name="e_wo_entrp">    -23.78211474 </i>
    <i name="e_0_energy">    -23.79410716 </i>
   </energy>
  </scstep>
  <scstep>
   <time name="dav">    0.26    0.26</time>
   <time name="total">    0.32    0.33</time>
   <energy>
    <i name="e_fr_energy">    -24.12667049 </i>
    <i name="e_wo_entrp">    -24.11139156 </i>
    <i name="e_0_energy">    -24.12157751 </i>
   </energy>
  </scstep>
  <scstep>
   <time name="dav">    0.25    0.26</time>
   <time name="total">    0.32    0.32</time>
   <energy>
    <i name="e_fr_energy">    -24.26575948 </i>
    <i name="e_wo_entrp">    -24.25167012 </i>
    <i name="e_0_energy">    -24.26106303 </i>
   </energy>
  </scstep>
  <scstep>
   <time name="dav">    0.27    0.27</time>
   <time name="total">    0.34    0.34</time>
   <energy>
    <i name="e_fr_energy">    -24.37984193 </i>
    <i name="e_wo_entrp">    -24.36580477 </i>
    <i name="e_0_energy">    -24.37516288 </i>
   </energy>
  </scstep>
  <scstep>
   <time name="dav">    0.28    0.28</time>
   <time name="total">    0.35    0.35</time>
   <energy>
    <i name="e_fr_energy">    -24.48857934 </i>
    <i name="e_wo_entrp">    -24.47467554 </i>
    <i name="e_0_energy">    -24.48394474 </i>
   </energy>
  </scstep>
  <scstep>
   <time name="dav">    0.27    0.27</time>
   <time name="total">    0.33    0.34</time>
   <energy>
    <i name="e_fr_energy">    -24.54101452 </i>
    <i name="e_wo_entrp">    -24.52735777 </i>
    <i name="e_0_energy">    -24.53646227 </i>
   </energy>
  </scstep>
  <scstep>
   <time name="dav">    0.28    0.28</time>
   <time name="total">    0.35    0.35</time>
   <energy>
    <i name="e_fr_energy">    -24.59740049 </i>
    <i name="e_wo_entrp">    -24.58403560 </i>
    <i name="e_0_energy">    -24.59294553 </i>
   </energy>
  </scstep>
  <scstep>
   <time name="dav">    0.27    0.27</time>
   <time name="total">    0.34    0.34</time>
   <energy>
    <i name="e_fr_energy">    -24.64675879 </i>
    <i name="e_wo_entrp">    -24.63358042 </i>
    <i name="e_0_energy">    -24.64236600 </i>
   </energy>
  </scstep>
  <scstep>
   <time name="dav">    0.25    0.25</time>
   <time name="total">    0.32    0.32</time>
   <energy>
    <i name="e_fr_energy">    -24.68045428 </i>
    <i name="e_wo_entrp">    -24.66743286 </i>
    <i name="e_0_energy">    -24.67611381 </i>
   </energy>
  </scstep>
  <scstep>
   <time name="dav">    0.23    0.23</time>
   <time name="total">    0.30    0.30</time>
   <energy>
    <i name="e_fr_energy">    -24.71136591 </i>
    <i name="e_wo_entrp">    -24.69847941 </i>
    <i name="e_0_energy">    -24.70707041 </i>
   </energy>
  </scstep>
  <scstep>
   <time name="dav">    0.20    0.20</time>
   <time name="total">    0.26    0.27</time>
   <energy>
    <i name="e_fr_energy">    -24.71774803 </i>
    <i name="e_wo_entrp">    -24.70481607 </i>
    <i name="e_0_energy">    -24.71343737 </i>
   </energy>
  </scstep>
  <scstep>
   <time name="dav">    0.19    0.20</time>
   <time name="total">    0.26    0.26</time>
   <energy>
    <i name="e_fr_energy">    -24.71862231 </i>
    <i name="e_wo_entrp">    -24.70566363 </i>
    <i name="e_0_energy">    -24.71430275 </i>
   </energy>
  </scstep>
  <scstep>
   <time name="dav">    0.19    0.19</time>
   <time name="total">    0.26    0.26</time>
   <energy>
    <i name="e_fr_energy">    -24.71916047 </i>
    <i name="e_wo_entrp">    -24.70617942 </i>
    <i name="e_0_energy">    -24.71483345 </i>
   </energy>
  </scstep>
  <scstep>
   <time name="dav">    0.18    0.19</time>
   <time name="total">    0.21    0.21</time>
   <energy>
    <i name="alphaZ">    169.42466733 </i>
    <i name="ewald">  32713.38710180 </i>
    <i name="hartreedc"> -42022.75148301 </i>
    <i name="XCdc">    311.54143889 </i>
    <i name="pawpsdc">   9093.36416863 </i>
    <i name="pawaedc">  -9845.89416357 </i>
    <i name="eentropy">     -0.01298279 </i>
    <i name="bandstr">   -180.48156500 </i>
    <i name="atom">   9736.70348140 </i>
    <i name="e_fr_energy">    -24.71933632 </i>
    <i name="e_wo_entrp">    -24.70635353 </i>
    <i name="e_0_energy">    -24.71500872 </i>
   </energy>
  </scstep>
  <dipole>
   <v name="dipole">      0.00000000       0.00000000       0.00446607 </v>
   <i name="Tr[quadrupol]">   -162.57518335 </i>
   <i name="Echarged">      0.00000000 </i>
   <i name="Edipol_quadrupol">      0.00000000 </i>
   <i name="Eion">      0.00000000 </i>
  </dipole>
  <structure>
   <crystal>
    <varray name="basis" >
     <v>       3.63000011       0.00000000       0.00000000 </v>
     <v>       0.00000000       2.56679773       0.00000000 </v>
     <v>       0.00000000       0.00000000      22.70039300 </v>
    </varray>
    <i name="volume">    211.51036846 </i>
    <varray name="rec_basis" >
     <v>       0.27548208       0.00000000       0.00000000 </v>
     <v>       0.00000000       0.38959050       0.00000000 </v>
     <v>       0.00000000       0.00000000       0.04405210 </v>
    </varray>
   </crystal>
   <varray name="positions" >
    <v>       0.00000000       0.00000000       0.00000000 </v>
    <v>       0.50000000       0.50000000       0.05653642 </v>
    <v>       0.00000000       0.00000000       0.11307283 </v>
    <v>       0.50000000       0.50000000       0.16960925 </v>
    <v>       0.00000000       0.00000000       0.22614566 </v>
    <v>       0.50000000       0.50000000       0.28268208 </v>
    <v>       0.00000000       0.00000000       0.33921850 </v>
   </varray>
  </structure>
  <varray name="forces" >
   <v>       0.00000000       0.00000000       0.78289325 </v>
   <v>       0.00000000       0.00000000      -0.32798243 </v>
   <v>       0.00000000       0.00000000      -0.20363477 </v>
   <v>       0.00000000       0.00000000       0.00051876 </v>
   <v>       0.00000000       0.00000000       0.20316919 </v>
   <v>       0.00000000       0.00000000       0.32718565 </v>
   <v>       0.00000000       0.00000000      -0.78214965 </v>
  </varray>
  <varray name="stress" >
   <v>     -39.52321262       0.00000000       0.00000000 </v>
   <v>       0.00000000     -48.34005377       0.00000000 </v>
   <v>       0.00000000       0.00000000     -34.27593791 </v>
  </varray>
  <energy>
   <i name="e_fr_energy">    -27.19533616 </i>
   <i name="e_wo_entrp">    -27.18235337 </i>
   <i name="e_0_energy">    -27.19100856 </i>
  </energy>
  <time name="totalsc">    9.10    9.24</time>
 </calculation>
 <calculation>
  <scstep>
   <time name="dav">    0.25    0.25</time>
   <time name="total">    0.31    0.32</time>
   <energy>
    <i name="alphaZ">    169.42466733 </i>
    <i name="ewald">  32792.92310731 </i>
    <i name="hartreedc"> -42101.93258868 </i>
    <i name="XCdc">    311.60277827 </i>
    <i name="pawpsdc">   9093.23582939 </i>
    <i name="pawaedc">  -9845.74730162 </i>
    <i name="eentropy">     -0.01154210 </i>
    <i name="bandstr">   -180.93118279 </i>
    <i name="atom">   9736.70348140 </i>
    <i name="e_fr_energy">    -24.73275149 </i>
    <i name="e_wo_entrp">    -24.72120939 </i>
    <i name="e_0_energy">    -24.72890413 </i>
   </energy>
  </scstep>
  <scstep>
   <time name="dav">    0.32    0.32</time>
   <time name="total">    0.39    0.39</time>
   <energy>
    <i name="e_fr_energy">    -24.75350920 </i>
    <i name="e_wo_entrp">    -24.74159506 </i>
    <i name="e_0_energy">    -24.74953782 </i>
   </energy>
  </scstep>
  <scstep>
   <time name="dav">    0.25    0.26</time>
   <time name="total">    0.32    0.32</time>
   <energy>
    <i name="e_fr_energy">    -24.75142367 </i>
    <i name="e_wo_entrp">    -24.73986310 </i>
    <i name="e_0_energy">    -24.74757015 </i>
   </energy>
  </scstep>
  <scstep>
   <time name="dav">    0.27    0.27</time>
   <time name="total">    0.34    0.34</time>
   <energy>
    <i name="e_fr_energy">    -24.75139786 </i>
    <i name="e_wo_entrp">    -24.73975123 </i>
    <i name="e_0_energy">    -24.74751565 </i>
   </energy>
  </scstep>
  <scstep>
   <time name="dav">    0.23    0.24</time>
   <time name="total">    0.26    0.26</time>
   <energy>
    <i name="alphaZ">    169.42466733 </i>
    <i name="ewald">  32792.92310731 </i>
    <i name="hartreedc"> -42101.36112799 </i>
    <i name="XCdc">    311.57575251 </i>
    <i name="pawpsdc">   9098.20588938 </i>
    <i name="pawaedc">  -9850.70901482 </i>
    <i name="eentropy">     -0.01163049 </i>
    <i name="bandstr">   -181.50239760 </i>
    <i name="atom">   9736.70348140 </i>
    <i name="e_fr_energy">    -24.75127297 </i>
    <i name="e_wo_entrp">    -24.73964247 </i>
    <i name="e_0_energy">    -24.74739614 </i>
   </energy>
  </scstep>
  <dipole>
   <v name="dipole">      0.00000000       0.00000000       0.00271050 </v>
   <i name="Tr[quadrupol]">   -162.56787294 </i>
   <i name="Echarged">      0.00000000 </i>
   <i name="Edipol_quadrupol">      0.00000000 </i>
   <i name="Eion">      0.00000000 </i>
  </dipole>
  <structure>
   <crystal>
    <varray name="basis" >
     <v>       3.63000011       0.00000000       0.00000000 </v>
     <v>       0.00000000       2.56679773       0.00000000 </v>
     <v>       0.00000000       0.00000000      22.70039300 </v>
    </varray>
    <i name="volume">    211.51036846 </i>
    <varray name="rec_basis" >
     <v>       0.27548208       0.00000000       0.00000000 </v>
     <v>       0.00000000       0.38959050       0.00000000 </v>
     <v>       0.00000000       0.00000000       0.04405210 </v>
    </varray>
   </crystal>
   <varray name="positions" >
    <v>       0.00000000       0.00000000       0.00000000 </v>
    <v>       0.50000000       0.50000000       0.05653642 </v>
    <v>       0.00000000       0.00000000       0.11264007 </v>
    <v>       0.50000000       0.50000000       0.16961035 </v>
    <v>       0.00000000       0.00000000       0.22657744 </v>
    <v>       0.50000000       0.50000000       0.28337741 </v>
    <v>       0.00000000       0.00000000       0.33755628 </v>
   </varray>
  </structure>
  <varray name="forces" >
   <v>       0.00000000       0.00000000       0.75444395 </v>
   <v>       0.00000000       0.00000000      -0.34441949 </v>
   <v>       0.00000000       0.00000000      -0.11228538 </v>
   <v>       0.00000000       0.00000000       0.01728775 </v>
   <v>       0.00000000       0.00000000       0.06911970 </v>
   <v>       0.00000000       0.00000000       0.19526400 </v>
   <v>       0.00000000       0.00000000      -0.57941052 </v>
  </varray>
  <varray name="stress" >
   <v>     -28.47491787       0.00000000       0.00000000 </v>
   <v>       0.00000000     -38.53636592       0.00000000 </v>
   <v>       0.00000000       0.00000000     -23.36409667 </v>
  </varray>
  <energy>
   <i name="e_fr_energy">    -27.22845120 </i>
   <i name="e_wo_entrp">    -27.21682071 </i>
   <i name="e_0_energy">    -27.22457437 </i>
  </energy>
  <time name="totalsc">    1.96    2.03</time>
 </calculation>
 <calculation>
  <scstep>
   <time name="dav">    0.25    0.25</time>
   <time name="total">    0.31    0.32</time>
   <energy>
    <i name="alphaZ">    169.42466733 </i>
    <i name="ewald">  32971.60444846 </i>
    <i name="hartreedc"> -42279.25802208 </i>
    <i name="XCdc">    311.74065604 </i>
    <i name="pawpsdc">   9099.43768457 </i>
    <i name="pawaedc">  -9851.99129693 </i>
    <i name="eentropy">     -0.01134803 </i>
    <i name="bandstr">   -182.32957107 </i>
    <i name="atom">   9736.70348140 </i>
    <i name="e_fr_energy">    -24.67930031 </i>
    <i name="e_wo_entrp">    -24.66795228 </i>
    <i name="e_0_energy">    -24.67551763 </i>
   </energy>
  </scstep>
  <scstep>
   <time name="dav">    0.33    0.33</time>
   <time name="total">    0.40    0.40</time>
   <energy>
    <i name="e_fr_energy">    -24.78769022 </i>
    <i name="e_wo_entrp">    -24.77524034 </i>
    <i name="e_0_energy">    -24.78354026 </i>
   </energy>
  </scstep>
  <scstep>
   <time name="dav">    0.26    0.27</time>
   <time name="total">    0.33    0.33</time>
   <energy>
    <i name="e_fr_energy">    -24.77714545 </i>
    <i name="e_wo_entrp">    -24.76570965 </i>
    <i name="e_0_energy">    -24.77333352 </i>
   </energy>
  </scstep>
  <scstep>
   <time name="dav">    0.25    0.25</time>
   <time name="total">    0.32    0.32</time>
   <energy>
    <i name="e_fr_energy">    -24.77730947 </i>
    <i name="e_wo_entrp">    -24.76568995 </i>
    <i name="e_0_energy">    -24.77343630 </i>
   </energy>
  </scstep>
  <scstep>
   <time name="dav">    0.26    0.26</time>
   <time name="total">    0.32    0.33</time>
   <energy>
    <i name="e_fr_energy">    -24.77636035 </i>
    <i name="e_wo_entrp">    -24.76480137 </i>
    <i name="e_0_energy">    -24.77250736 </i>
   </energy>
  </scstep>
  <scstep>
   <time name="dav">    0.35    0.36</time>
   <time name="total">    0.42    0.42</time>
   <energy>
    <i name="e_fr_energy">    -24.77558996 </i>
    <i name="e_wo_entrp">    -24.76394665 </i>
    <i name="e_0_energy">    -24.77170885 </i>
   </energy>
  </scstep>
  <scstep>
   <time name="dav">    0.27    0.28</time>
   <time name="total">    0.34    0.34</time>
   <energy>
    <i name="e_fr_energy">    -24.77549469 </i>
    <i name="e_wo_entrp">    -24.76387609 </i>
    <i name="e_0_energy">    -24.77162182 </i>
   </energy>
  </scstep>
  <scstep>
   <time name="dav">    0.20    0.20</time>
   <time name="total">    0.22    0.22</time>
   <energy>
    <i name="alphaZ">    169.42466733 </i>
    <i name="ewald">  32971.60444846 </i>
    <i name="hartreedc"> -42277.22655986 </i>
    <i name="XCdc">    311.67788583 </i>
    <i name="pawpsdc">   9120.78692046 </i>
    <i name="pawaedc">  -9873.79066560 </i>
    <i name="eentropy">     -0.01164129 </i>
    <i name="bandstr">   -183.94393504 </i>
    <i name="atom">   9736.70348140 </i>
    <i name="e_fr_energy">    -24.77539830 </i>
    <i name="e_wo_entrp">    -24.76375702 </i>
    <i name="e_0_energy">    -24.77151787 </i>
   </energy>
  </scstep>
  <dipole>
   <v name="dipole">      0.00000000       0.00000000       0.00462417 </v>
   <i name="Tr[quadrupol]">   -162.53739677 </i>
   <i name="Echarged">      0.00000000 </i>
   <i name="Edipol_quadrupol">      0.00000000 </i>
   <i name="Eion">      0.00000000 </i>
  </dipole>
  <structure>
   <crystal>
    <varray name="basis" >
     <v>       3.63000011       0.00000000       0.00000000 </v>
     <v>       0.00000000       2.56679773       0.00000000 </v>
     <v>       0.00000000       0.00000000      22.70039300 </v>
    </varray>
    <i name="volume">    211.51036846 </i>
    <varray name="rec_basis" >
     <v>       0.27548208       0.00000000       0.00000000 </v>
     <v>       0.00000000       0.38959050       0.00000000 </v>
     <v>       0.00000000       0.00000000       0.04405210 </v>
    </varray>
   </crystal>
   <varray name="positions" >
    <v>       0.00000000       0.00000000       0.00000000 </v>
    <v>       0.50000000       0.50000000       0.05653642 </v>
    <v>       0.00000000       0.00000000       0.11167164 </v>
    <v>       0.50000000       0.50000000       0.16961282 </v>
    <v>       0.00000000       0.00000000       0.22754365 </v>
    <v>       0.50000000       0.50000000       0.28493341 </v>
    <v>       0.00000000       0.00000000       0.33383661 </v>
   </varray>
  </structure>
  <varray name="forces" >
   <v>       0.00000000       0.00000000       0.69632492 </v>
   <v>       0.00000000       0.00000000      -0.36265066 </v>
   <v>       0.00000000       0.00000000       0.09828008 </v>
   <v>       0.00000000       0.00000000       0.02063824 </v>
   <v>       0.00000000       0.00000000      -0.34643074 </v>
   <v>       0.00000000       0.00000000      -0.10401746 </v>
   <v>       0.00000000       0.00000000      -0.00214439 </v>
  </varray>
  <varray name="stress" >
   <v>     -30.29737744       0.00000000       0.00000000 </v>
   <v>       0.00000000     -42.94506217       0.00000000 </v>
   <v>       0.00000000       0.00000000     -22.98489939 </v>
  </varray>
  <energy>
   <i name="e_fr_energy">    -27.25516771 </i>
   <i name="e_wo_entrp">    -27.24352642 </i>
   <i name="e_0_energy">    -27.25128728 </i>
  </energy>
  <time name="totalsc">    3.01    3.08</time>
 </calculation>
 <calculation>
  <scstep>
   <time name="dav">    0.25    0.25</time>
   <time name="total">    0.31    0.31</time>
   <energy>
    <i name="alphaZ">    169.42466733 </i>
    <i name="ewald">  32939.14731507 </i>
    <i name="hartreedc"> -42244.92102713 </i>
    <i name="XCdc">    311.64910766 </i>
    <i name="pawpsdc">   9120.65085671 </i>
    <i name="pawaedc">  -9873.65785912 </i>
    <i name="eentropy">     -0.01142714 </i>
    <i name="bandstr">   -183.75915974 </i>
    <i name="atom">   9736.70348140 </i>
    <i name="e_fr_energy">    -24.77404497 </i>
    <i name="e_wo_entrp">    -24.76261783 </i>
    <i name="e_0_energy">    -24.77023592 </i>
   </energy>
  </scstep>
  <scstep>
   <time name="dav">    0.31    0.31</time>
   <time name="total">    0.38    0.38</time>
   <energy>
    <i name="e_fr_energy">    -24.77678055 </i>
    <i name="e_wo_entrp">    -24.76534830 </i>
    <i name="e_0_energy">    -24.77296980 </i>
   </energy>
  </scstep>
  <scstep>
   <time name="dav">    0.22    0.22</time>
   <time name="total">    0.24    0.24</time>
   <energy>
    <i name="alphaZ">    169.42466733 </i>
    <i name="ewald">  32939.14731507 </i>
    <i name="hartreedc"> -42244.84427703 </i>
    <i name="XCdc">    311.64864346 </i>
    <i name="pawpsdc">   9118.74486553 </i>
    <i name="pawaedc">  -9871.66895948 </i>
    <i name="eentropy">     -0.01140406 </i>
    <i name="bandstr">   -183.92103020 </i>
    <i name="atom">   9736.70348140 </i>
    <i name="e_fr_energy">    -24.77669799 </i>
    <i name="e_wo_entrp">    -24.76529393 </i>
    <i name="e_0_energy">    -24.77289664 </i>
   </energy>
  </scstep>
  <dipole>
   <v name="dipole">      0.00000000       0.00000000       0.00459007 </v>
   <i name="Tr[quadrupol]">   -162.53561060 </i>
   <i name="Echarged">      0.00000000 </i>
   <i name="Edipol_quadrupol">      0.00000000 </i>
   <i name="Eion">      0.00000000 </i>
  </dipole>
  <structure>
   <crystal>
    <varray name="basis" >
     <v>       3.63000011       0.00000000       0.00000000 </v>
     <v>       0.00000000       2.56679773       0.00000000 </v>
     <v>       0.00000000       0.00000000      22.70039300 </v>
    </varray>
    <i name="volume">    211.51036846 </i>
    <varray name="rec_basis" >
     <v>       0.27548208       0.00000000       0.00000000 </v>
     <v>       0.00000000       0.38959050       0.00000000 </v>
     <v>       0.00000000       0.00000000       0.04405210 </v>
    </varray>
   </crystal>
   <varray name="positions" >
    <v>       0.00000000       0.00000000       0.00000000 </v>
    <v>       0.50000000       0.50000000       0.05653642 </v>
    <v>       0.00000000       0.00000000       0.11184729 </v>
    <v>       0.50000000       0.50000000       0.16961237 </v>
    <v>       0.00000000       0.00000000       0.22736840 </v>
    <v>       0.50000000       0.50000000       0.28465119 </v>
    <v>       0.00000000       0.00000000       0.33451127 </v>
   </varray>
  </structure>
  <varray name="forces" >
   <v>       0.00000000       0.00000000       0.71064223 </v>
   <v>       0.00000000       0.00000000      -0.35532079 </v>
   <v>       0.00000000       0.00000000       0.04612040 </v>
   <v>       0.00000000       0.00000000       0.02707122 </v>
   <v>       0.00000000       0.00000000      -0.23500073 </v>
   <v>       0.00000000       0.00000000      -0.02068874 </v>
   <v>       0.00000000       0.00000000      -0.17282359 </v>
  </varray>
  <varray name="stress" >
   <v>     -26.26205331       0.00000000       0.00000000 </v>
   <v>       0.00000000     -38.36902829       0.00000000 </v>
   <v>       0.00000000       0.00000000     -19.12882148 </v>
  </varray>
  <energy>
   <i name="e_fr_energy">    -27.25599607 </i>
   <i name="e_wo_entrp">    -27.24459201 </i>
   <i name="e_0_energy">    -27.25219472 </i>
  </energy>
  <time name="totalsc">    1.29    1.33</time>
 </calculation>
 <calculation>
  <scstep>
   <time name="dav">    0.24    0.25</time>
   <time name="total">    0.31    0.31</time>
   <energy>
    <i name="alphaZ">    169.42466733 </i>
    <i name="ewald">  32951.06998405 </i>
    <i name="hartreedc"> -42256.79701741 </i>
    <i name="XCdc">    311.66191579 </i>
    <i name="pawpsdc">   9118.41474686 </i>
    <i name="pawaedc">  -9871.35190354 </i>
    <i name="eentropy">     -0.01148900 </i>
    <i name="bandstr">   -183.89046895 </i>
    <i name="atom">   9736.70348140 </i>
    <i name="e_fr_energy">    -24.77608347 </i>
    <i name="e_wo_entrp">    -24.76459447 </i>
    <i name="e_0_energy">    -24.77225380 </i>
   </energy>
  </scstep>
  <scstep>
   <time name="dav">    0.32    0.32</time>
   <time name="total">    0.38    0.39</time>
   <energy>
    <i name="e_fr_energy">    -24.77645853 </i>
    <i name="e_wo_entrp">    -24.76499103 </i>
    <i name="e_0_energy">    -24.77263603 </i>
   </energy>
  </scstep>
  <scstep>
   <time name="dav">    0.21    0.21</time>
   <time name="total">    0.23    0.23</time>
   <energy>
    <i name="alphaZ">    169.42466733 </i>
    <i name="ewald">  32951.06998405 </i>
    <i name="hartreedc"> -42256.83955924 </i>
    <i name="XCdc">    311.66304611 </i>
    <i name="pawpsdc">   9118.13474093 </i>
    <i name="pawaedc">  -9871.07866733 </i>
    <i name="eentropy">     -0.01148523 </i>
    <i name="bandstr">   -183.84268016 </i>
    <i name="atom">   9736.70348140 </i>
    <i name="e_fr_energy">    -24.77647215 </i>
    <i name="e_wo_entrp">    -24.76498692 </i>
    <i name="e_0_energy">    -24.77264374 </i>
   </energy>
  </scstep>
  <dipole>
   <v name="dipole">      0.00000000       0.00000000       0.00335710 </v>
   <i name="Tr[quadrupol]">   -162.53413658 </i>
   <i name="Echarged">      0.00000000 </i>
   <i name="Edipol_quadrupol">      0.00000000 </i>
   <i name="Eion">      0.00000000 </i>
  </dipole>
  <structure>
   <crystal>
    <varray name="basis" >
     <v>       3.63000011       0.00000000       0.00000000 </v>
     <v>       0.00000000       2.56679773       0.00000000 </v>
     <v>       0.00000000       0.00000000      22.70039300 </v>
    </varray>
    <i name="volume">    211.51036846 </i>
    <varray name="rec_basis" >
     <v>       0.27548208       0.00000000       0.00000000 </v>
     <v>       0.00000000       0.38959050       0.00000000 </v>
     <v>       0.00000000       0.00000000       0.04405210 </v>
    </varray>
   </crystal>
   <varray name="positions" >
    <v>       0.00000000       0.00000000       0.00000000 </v>
    <v>       0.50000000       0.50000000       0.05653642 </v>
    <v>       0.00000000       0.00000000       0.11178276 </v>
    <v>       0.50000000       0.50000000       0.16961254 </v>
    <v>       0.00000000       0.00000000       0.22743279 </v>
    <v>       0.50000000       0.50000000       0.28475487 </v>
    <v>       0.00000000       0.00000000       0.33426341 </v>
   </varray>
  </structure>
  <varray name="forces" >
   <v>       0.00000000       0.00000000       0.71164713 </v>
   <v>       0.00000000       0.00000000      -0.35686499 </v>
   <v>       0.00000000       0.00000000       0.07348120 </v>
   <v>       0.00000000       0.00000000       0.01684276 </v>
   <v>       0.00000000       0.00000000      -0.30646627 </v>
   <v>       0.00000000       0.00000000      -0.07245283 </v>
   <v>       0.00000000       0.00000000      -0.06618700 </v>
  </varray>
  <varray name="stress" >
   <v>     -30.63174948       0.00000000       0.00000000 </v>
   <v>       0.00000000     -42.92827574       0.00000000 </v>
   <v>       0.00000000       0.00000000     -23.59293855 </v>
  </varray>
  <energy>
   <i name="e_fr_energy">    -27.25594744 </i>
   <i name="e_wo_entrp">    -27.24446221 </i>
   <i name="e_0_energy">    -27.25211903 </i>
  </energy>
  <time name="totalsc">    1.27    1.32</time>
 </calculation>
 <calculation>
  <scstep>
   <time name="dav">    0.28    0.28</time>
   <time name="total">    0.34    0.35</time>
   <energy>
    <i name="alphaZ">    169.42466733 </i>
    <i name="ewald">  32946.20355080 </i>
    <i name="hartreedc"> -42251.99405716 </i>
    <i name="XCdc">    311.65914127 </i>
    <i name="pawpsdc">   9118.01840806 </i>
    <i name="pawaedc">  -9870.96767327 </i>
    <i name="eentropy">     -0.01143338 </i>
    <i name="bandstr">   -183.81257095 </i>
    <i name="atom">   9736.70348140 </i>
    <i name="e_fr_energy">    -24.77648591 </i>
    <i name="e_wo_entrp">    -24.76505253 </i>
    <i name="e_0_energy">    -24.77267479 </i>
   </energy>
  </scstep>
  <scstep>
   <time name="dav">    0.22    0.22</time>
   <time name="total">    0.24    0.24</time>
   <energy>
    <i name="alphaZ">    169.42466733 </i>
    <i name="ewald">  32946.20355080 </i>
    <i name="hartreedc"> -42252.01728350 </i>
    <i name="XCdc">    311.66096703 </i>
    <i name="pawpsdc">   9117.69763113 </i>
    <i name="pawaedc">  -9870.65608082 </i>
    <i name="eentropy">     -0.01144224 </i>
    <i name="bandstr">   -183.78203001 </i>
    <i name="atom">   9736.70348140 </i>
    <i name="e_fr_energy">    -24.77653888 </i>
    <i name="e_wo_entrp">    -24.76509664 </i>
    <i name="e_0_energy">    -24.77272480 </i>
   </energy>
  </scstep>
  <dipole>
   <v name="dipole">      0.00000000       0.00000000       0.00464909 </v>
   <i name="Tr[quadrupol]">   -162.53574822 </i>
   <i name="Echarged">      0.00000000 </i>
   <i name="Edipol_quadrupol">      0.00000000 </i>
   <i name="Eion">      0.00000000 </i>
  </dipole>
  <structure>
   <crystal>
    <varray name="basis" >
     <v>       3.63000011       0.00000000       0.00000000 </v>
     <v>       0.00000000       2.56679773       0.00000000 </v>
     <v>       0.00000000       0.00000000      22.70039300 </v>
    </varray>
    <i name="volume">    211.51036846 </i>
    <varray name="rec_basis" >
     <v>       0.27548208       0.00000000       0.00000000 </v>
     <v>       0.00000000       0.38959050       0.00000000 </v>
     <v>       0.00000000       0.00000000       0.04405210 </v>
    </varray>
   </crystal>
   <varray name="positions" >
    <v>       0.00000000       0.00000000       0.00000000 </v>
    <v>       0.50000000       0.50000000       0.05653642 </v>
    <v>       0.00000000       0.00000000       0.11180910 </v>
    <v>       0.50000000       0.50000000       0.16961247 </v>
    <v>       0.00000000       0.00000000       0.22740651 </v>
    <v>       0.50000000       0.50000000       0.28471256 </v>
    <v>       0.00000000       0.00000000       0.33436457 </v>
   </varray>
  </structure>
  <varray name="forces" >
   <v>       0.00000000       0.00000000       0.70855438 </v>
   <v>       0.00000000       0.00000000      -0.35728911 </v>
   <v>       0.00000000       0.00000000       0.05380624 </v>
   <v>       0.00000000       0.00000000       0.02767726 </v>
   <v>       0.00000000       0.00000000      -0.26536979 </v>
   <v>       0.00000000       0.00000000      -0.03740830 </v>
   <v>       0.00000000       0.00000000      -0.12997069 </v>
  </varray>
  <varray name="stress" >
   <v>     -33.45384913       0.00000000       0.00000000 </v>
   <v>       0.00000000     -45.73468334       0.00000000 </v>
   <v>       0.00000000       0.00000000     -26.55497096 </v>
  </varray>
  <energy>
   <i name="e_fr_energy">    -27.25593911 </i>
   <i name="e_wo_entrp">    -27.24449687 </i>
   <i name="e_0_energy">    -27.25212503 </i>
  </energy>
  <time name="totalsc">    0.93    0.97</time>
 </calculation>
 <calculation>
  <scstep>
   <time name="dav">    0.29    0.29</time>
   <time name="total">    0.35    0.35</time>
   <energy>
    <i name="alphaZ">    169.42466733 </i>
    <i name="ewald">  32947.82483848 </i>
    <i name="hartreedc"> -42253.60654747 </i>
    <i name="XCdc">    311.66164760 </i>
    <i name="pawpsdc">   9117.61277584 </i>
    <i name="pawaedc">  -9870.56337581 </i>
    <i name="eentropy">     -0.01145355 </i>
    <i name="bandstr">   -183.82255112 </i>
    <i name="atom">   9736.70348140 </i>
    <i name="e_fr_energy">    -24.77651729 </i>
    <i name="e_wo_entrp">    -24.76506374 </i>
    <i name="e_0_energy">    -24.77269944 </i>
   </energy>
  </scstep>
  <scstep>
   <time name="dav">    0.18    0.18</time>
   <time name="total">    0.20    0.21</time>
   <energy>
    <i name="alphaZ">    169.42466733 </i>
    <i name="ewald">  32947.82483848 </i>
    <i name="hartreedc"> -42253.57927978 </i>
    <i name="XCdc">    311.66077532 </i>
    <i name="pawpsdc">   9117.52403287 </i>
    <i name="pawaedc">  -9870.46733431 </i>
    <i name="eentropy">     -0.01145152 </i>
    <i name="bandstr">   -183.85625124 </i>
    <i name="atom">   9736.70348140 </i>
    <i name="e_fr_energy">    -24.77652145 </i>
    <i name="e_wo_entrp">    -24.76506993 </i>
    <i name="e_0_energy">    -24.77270428 </i>
   </energy>
  </scstep>
  <dipole>
   <v name="dipole">      0.00000000       0.00000000       0.00507811 </v>
   <i name="Tr[quadrupol]">   -162.53521061 </i>
   <i name="Echarged">      0.00000000 </i>
   <i name="Edipol_quadrupol">      0.00000000 </i>
   <i name="Eion">      0.00000000 </i>
  </dipole>
  <structure>
   <crystal>
    <varray name="basis" >
     <v>       3.63000011       0.00000000       0.00000000 </v>
     <v>       0.00000000       2.56679773       0.00000000 </v>
     <v>       0.00000000       0.00000000      22.70039300 </v>
    </varray>
    <i name="volume">    211.51036846 </i>
    <varray name="rec_basis" >
     <v>       0.27548208       0.00000000       0.00000000 </v>
     <v>       0.00000000       0.38959050       0.00000000 </v>
     <v>       0.00000000       0.00000000       0.04405210 </v>
    </varray>
   </crystal>
   <varray name="positions" >
    <v>       0.00000000       0.00000000       0.00000000 </v>
    <v>       0.50000000       0.50000000       0.05653642 </v>
    <v>       0.00000000       0.00000000       0.11180032 </v>
    <v>       0.50000000       0.50000000       0.16961249 </v>
    <v>       0.00000000       0.00000000       0.22741526 </v>
    <v>       0.50000000       0.50000000       0.28472665 </v>
    <v>       0.00000000       0.00000000       0.33433087 </v>
   </varray>
  </structure>
  <varray name="forces" >
   <v>       0.00000000       0.00000000       0.70512476 </v>
   <v>       0.00000000       0.00000000      -0.36050409 </v>
   <v>       0.00000000       0.00000000       0.06935986 </v>
   <v>       0.00000000       0.00000000       0.02628407 </v>
   <v>       0.00000000       0.00000000      -0.28070150 </v>
   <v>       0.00000000       0.00000000      -0.06223132 </v>
   <v>       0.00000000       0.00000000      -0.09733178 </v>
  </varray>
  <varray name="stress" >
   <v>     -31.89176140       0.00000000       0.00000000 </v>
   <v>       0.00000000     -44.17306700       0.00000000 </v>
   <v>       0.00000000       0.00000000     -24.95510021 </v>
  </varray>
  <energy>
   <i name="e_fr_energy">    -27.25594343 </i>
   <i name="e_wo_entrp">    -27.24449191 </i>
   <i name="e_0_energy">    -27.25212625 </i>
  </energy>
  <time name="totalsc">    0.90    0.93</time>
 </calculation>
 <calculation>
  <scstep>
   <time name="dav">    0.25    0.25</time>
   <time name="total">    0.31    0.31</time>
   <energy>
    <i name="alphaZ">    169.42466733 </i>
    <i name="ewald">  33034.55888588 </i>
    <i name="hartreedc"> -42340.17633146 </i>
    <i name="XCdc">    311.68708690 </i>
    <i name="pawpsdc">   9117.50501871 </i>
    <i name="pawaedc">  -9870.44896961 </i>
    <i name="eentropy">     -0.01108184 </i>
    <i name="bandstr">   -184.01598444 </i>
    <i name="atom">   9736.70348140 </i>
    <i name="e_fr_energy">    -24.77322712 </i>
    <i name="e_wo_entrp">    -24.76214529 </i>
    <i name="e_0_energy">    -24.76953318 </i>
   </energy>
  </scstep>
  <scstep>
   <time name="dav">    0.32    0.32</time>
   <time name="total">    0.38    0.39</time>
   <energy>
    <i name="e_fr_energy">    -24.77792150 </i>
    <i name="e_wo_entrp">    -24.76672508 </i>
    <i name="e_0_energy">    -24.77418936 </i>
   </energy>
  </scstep>
  <scstep>
   <time name="dav">    0.25    0.25</time>
   <time name="total">    0.27    0.27</time>
   <energy>
    <i name="alphaZ">    169.42466733 </i>
    <i name="ewald">  33034.55888588 </i>
    <i name="hartreedc"> -42339.86231354 </i>
    <i name="XCdc">    311.67403851 </i>
    <i name="pawpsdc">   9118.69159722 </i>
    <i name="pawaedc">  -9871.58183876 </i>
    <i name="eentropy">     -0.01111501 </i>
    <i name="bandstr">   -184.37513711 </i>
    <i name="atom">   9736.70348140 </i>
    <i name="e_fr_energy">    -24.77773407 </i>
    <i name="e_wo_entrp">    -24.76661906 </i>
    <i name="e_0_energy">    -24.77402906 </i>
   </energy>
  </scstep>
  <dipole>
   <v name="dipole">      0.00000000       0.00000000       0.00630837 </v>
   <i name="Tr[quadrupol]">   -162.53483503 </i>
   <i name="Echarged">      0.00000000 </i>
   <i name="Edipol_quadrupol">      0.00000000 </i>
   <i name="Eion">      0.00000000 </i>
  </dipole>
  <structure>
   <crystal>
    <varray name="basis" >
     <v>       3.63000011       0.00000000       0.00000000 </v>
     <v>       0.00000000       2.56679773       0.00000000 </v>
     <v>       0.00000000       0.00000000      22.70039300 </v>
    </varray>
    <i name="volume">    211.51036846 </i>
    <varray name="rec_basis" >
     <v>       0.27548208       0.00000000       0.00000000 </v>
     <v>       0.00000000       0.38959050       0.00000000 </v>
     <v>       0.00000000       0.00000000       0.04405210 </v>
    </varray>
   </crystal>
   <varray name="positions" >
    <v>       0.00000000       0.00000000       0.00000000 </v>
    <v>       0.50000000       0.50000000       0.05653642 </v>
    <v>       0.00000000       0.00000000       0.11192024 </v>
    <v>       0.50000000       0.50000000       0.16969024 </v>
    <v>       0.00000000       0.00000000       0.22667171 </v>
    <v>       0.50000000       0.50000000       0.28467916 </v>
    <v>       0.00000000       0.00000000       0.33371843 </v>
   </varray>
  </structure>
  <varray name="forces" >
   <v>       0.00000000       0.00000000       0.70502354 </v>
   <v>       0.00000000       0.00000000      -0.36319701 </v>
   <v>       0.00000000       0.00000000       0.00223836 </v>
   <v>       0.00000000       0.00000000      -0.02680428 </v>
   <v>       0.00000000       0.00000000      -0.16004996 </v>
   <v>       0.00000000       0.00000000      -0.10037156 </v>
   <v>       0.00000000       0.00000000      -0.05683909 </v>
  </varray>
  <varray name="stress" >
   <v>     -23.85968770       0.00000000       0.00000000 </v>
   <v>       0.00000000     -36.65204521       0.00000000 </v>
   <v>       0.00000000       0.00000000     -17.12822612 </v>
  </varray>
  <energy>
   <i name="e_fr_energy">    -27.26135662 </i>
   <i name="e_wo_entrp">    -27.25024161 </i>
   <i name="e_0_energy">    -27.25765162 </i>
  </energy>
  <time name="totalsc">    1.31    1.34</time>
 </calculation>
 <calculation>
  <scstep>
   <time name="dav">    0.25    0.25</time>
   <time name="total">    0.31    0.31</time>
   <energy>
    <i name="alphaZ">    169.42466733 </i>
    <i name="ewald">  33143.44363685 </i>
    <i name="hartreedc"> -42448.62677167 </i>
    <i name="XCdc">    311.71198897 </i>
    <i name="pawpsdc">   9118.91889272 </i>
    <i name="pawaedc">  -9871.83891588 </i>
    <i name="eentropy">     -0.01089859 </i>
    <i name="bandstr">   -184.49588836 </i>
    <i name="atom">   9736.70348140 </i>
    <i name="e_fr_energy">    -24.76980723 </i>
    <i name="e_wo_entrp">    -24.75890864 </i>
    <i name="e_0_energy">    -24.76617436 </i>
   </energy>
  </scstep>
  <scstep>
   <time name="dav">    0.32    0.32</time>
   <time name="total">    0.38    0.39</time>
   <energy>
    <i name="e_fr_energy">    -24.77701134 </i>
    <i name="e_wo_entrp">    -24.76600911 </i>
    <i name="e_0_energy">    -24.77334393 </i>
   </energy>
  </scstep>
  <scstep>
   <time name="dav">    0.25    0.26</time>
   <time name="total">    0.32    0.32</time>
   <energy>
    <i name="e_fr_energy">    -24.77665622 </i>
    <i name="e_wo_entrp">    -24.76570641 </i>
    <i name="e_0_energy">    -24.77300628 </i>
   </energy>
  </scstep>
  <scstep>
   <time name="dav">    0.20    0.20</time>
   <time name="total">    0.22    0.22</time>
   <energy>
    <i name="alphaZ">    169.42466733 </i>
    <i name="ewald">  33143.44363685 </i>
    <i name="hartreedc"> -42448.15262787 </i>
    <i name="XCdc">    311.69995489 </i>
    <i name="pawpsdc">   9121.83716067 </i>
    <i name="pawaedc">  -9874.81191854 </i>
    <i name="eentropy">     -0.01097424 </i>
    <i name="bandstr">   -184.90984549 </i>
    <i name="atom">   9736.70348140 </i>
    <i name="e_fr_energy">    -24.77646500 </i>
    <i name="e_wo_entrp">    -24.76549076 </i>
    <i name="e_0_energy">    -24.77280692 </i>
   </energy>
  </scstep>
  <dipole>
   <v name="dipole">      0.00000000       0.00000000       0.00651424 </v>
   <i name="Tr[quadrupol]">   -162.52953675 </i>
   <i name="Echarged">      0.00000000 </i>
   <i name="Edipol_quadrupol">      0.00000000 </i>
   <i name="Eion">      0.00000000 </i>
  </dipole>
  <structure>
   <crystal>
    <varray name="basis" >
     <v>       3.63000011       0.00000000       0.00000000 </v>
     <v>       0.00000000       2.56679773       0.00000000 </v>
     <v>       0.00000000       0.00000000      22.70039300 </v>
    </varray>
    <i name="volume">    211.51036846 </i>
    <varray name="rec_basis" >
     <v>       0.27548208       0.00000000       0.00000000 </v>
     <v>       0.00000000       0.38959050       0.00000000 </v>
     <v>       0.00000000       0.00000000       0.04405210 </v>
    </varray>
   </crystal>
   <varray name="positions" >
    <v>       0.00000000       0.00000000       0.00000000 </v>
    <v>       0.50000000       0.50000000       0.05653642 </v>
    <v>       0.00000000       0.00000000       0.11207077 </v>
    <v>       0.50000000       0.50000000       0.16978785 </v>
    <v>       0.00000000       0.00000000       0.22573826 </v>
    <v>       0.50000000       0.50000000       0.28461954 </v>
    <v>       0.00000000       0.00000000       0.33294957 </v>
   </varray>
  </structure>
  <varray name="forces" >
   <v>       0.00000000       0.00000000       0.72338153 </v>
   <v>       0.00000000       0.00000000      -0.34527577 </v>
   <v>       0.00000000       0.00000000      -0.05015363 </v>
   <v>       0.00000000       0.00000000      -0.07111395 </v>
   <v>       0.00000000       0.00000000      -0.07036179 </v>
   <v>       0.00000000       0.00000000      -0.14515629 </v>
   <v>       0.00000000       0.00000000      -0.04132011 </v>
  </varray>
  <varray name="stress" >
   <v>     -25.56379531       0.00000000       0.00000000 </v>
   <v>       0.00000000     -38.98709856       0.00000000 </v>
   <v>       0.00000000       0.00000000     -18.98391925 </v>
  </varray>
  <energy>
   <i name="e_fr_energy">    -27.26540648 </i>
   <i name="e_wo_entrp">    -27.25443223 </i>
   <i name="e_0_energy">    -27.26174839 </i>
  </energy>
  <time name="totalsc">    1.58    1.61</time>
 </calculation>
 <calculation>
  <scstep>
   <time name="dav">    0.24    0.25</time>
   <time name="total">    0.31    0.31</time>
   <energy>
    <i name="alphaZ">    169.42466733 </i>
    <i name="ewald">  33361.19845803 </i>
    <i name="hartreedc"> -42665.23199807 </i>
    <i name="XCdc">    311.77228718 </i>
    <i name="pawpsdc">   9123.74992555 </i>
    <i name="pawaedc">  -9876.82836709 </i>
    <i name="eentropy">     -0.01130093 </i>
    <i name="bandstr">   -185.51060714 </i>
    <i name="atom">   9736.70348140 </i>
    <i name="e_fr_energy">    -24.73345373 </i>
    <i name="e_wo_entrp">    -24.72215280 </i>
    <i name="e_0_energy">    -24.72968675 </i>
   </energy>
  </scstep>
  <scstep>
   <time name="dav">    0.32    0.32</time>
   <time name="total">    0.39    0.40</time>
   <energy>
    <i name="e_fr_energy">    -24.76749906 </i>
    <i name="e_wo_entrp">    -24.75591037 </i>
    <i name="e_0_energy">    -24.76363616 </i>
   </energy>
  </scstep>
  <scstep>
   <time name="dav">    0.27    0.27</time>
   <time name="total">    0.34    0.34</time>
   <energy>
    <i name="e_fr_energy">    -24.76498040 </i>
    <i name="e_wo_entrp">    -24.75353608 </i>
    <i name="e_0_energy">    -24.76116563 </i>
   </energy>
  </scstep>
  <scstep>
   <time name="dav">    0.25    0.25</time>
   <time name="total">    0.32    0.32</time>
   <energy>
    <i name="e_fr_energy">    -24.76481183 </i>
    <i name="e_wo_entrp">    -24.75335319 </i>
    <i name="e_0_energy">    -24.76099228 </i>
   </energy>
  </scstep>
  <scstep>
   <time name="dav">    0.24    0.25</time>
   <time name="total">    0.31    0.31</time>
   <energy>
    <i name="e_fr_energy">    -24.76454911 </i>
    <i name="e_wo_entrp">    -24.75309870 </i>
    <i name="e_0_energy">    -24.76073230 </i>
   </energy>
  </scstep>
  <scstep>
   <time name="dav">    0.30    0.30</time>
   <time name="total">    0.36    0.37</time>
   <energy>
    <i name="e_fr_energy">    -24.76412726 </i>
    <i name="e_wo_entrp">    -24.75262949 </i>
    <i name="e_0_energy">    -24.76029467 </i>
   </energy>
  </scstep>
  <scstep>
   <time name="dav">    0.19    0.19</time>
   <time name="total">    0.21    0.21</time>
   <energy>
    <i name="alphaZ">    169.42466733 </i>
    <i name="ewald">  33361.19845803 </i>
    <i name="hartreedc"> -42663.78672319 </i>
    <i name="XCdc">    311.74174053 </i>
    <i name="pawpsdc">   9132.48883441 </i>
    <i name="pawaedc">  -9885.75951373 </i>
    <i name="eentropy">     -0.01149857 </i>
    <i name="bandstr">   -186.76358284 </i>
    <i name="atom">   9736.70348140 </i>
    <i name="e_fr_energy">    -24.76413663 </i>
    <i name="e_wo_entrp">    -24.75263806 </i>
    <i name="e_0_energy">    -24.76030377 </i>
   </energy>
  </scstep>
  <dipole>
   <v name="dipole">      0.00000000       0.00000000       0.01115294 </v>
   <i name="Tr[quadrupol]">   -162.49548458 </i>
   <i name="Echarged">      0.00000000 </i>
   <i name="Edipol_quadrupol">      0.00000000 </i>
   <i name="Eion">      0.00000000 </i>
  </dipole>
  <structure>
   <crystal>
    <varray name="basis" >
     <v>       3.63000011       0.00000000       0.00000000 </v>
     <v>       0.00000000       2.56679773       0.00000000 </v>
     <v>       0.00000000       0.00000000      22.70039300 </v>
    </varray>
    <i name="volume">    211.51036846 </i>
    <varray name="rec_basis" >
     <v>       0.27548208       0.00000000       0.00000000 </v>
     <v>       0.00000000       0.38959050       0.00000000 </v>
     <v>       0.00000000       0.00000000       0.04405210 </v>
    </varray>
   </crystal>
   <varray name="positions" >
    <v>       0.00000000       0.00000000       0.00000000 </v>
    <v>       0.50000000       0.50000000       0.05653642 </v>
    <v>       0.00000000       0.00000000       0.11237184 </v>
    <v>       0.50000000       0.50000000       0.16998307 </v>
    <v>       0.00000000       0.00000000       0.22387136 </v>
    <v>       0.50000000       0.50000000       0.28450029 </v>
    <v>       0.00000000       0.00000000       0.33141186 </v>
   </varray>
  </structure>
  <varray name="forces" >
   <v>       0.00000000       0.00000000       0.73631781 </v>
   <v>       0.00000000       0.00000000      -0.32821182 </v>
   <v>       0.00000000       0.00000000      -0.17295422 </v>
   <v>       0.00000000       0.00000000      -0.15439385 </v>
   <v>       0.00000000       0.00000000       0.17166908 </v>
   <v>       0.00000000       0.00000000      -0.24076003 </v>
   <v>       0.00000000       0.00000000      -0.01166697 </v>
  </varray>
  <varray name="stress" >
   <v>     -29.73380059       0.00000000       0.00000000 </v>
   <v>       0.00000000     -44.16215218       0.00000000 </v>
   <v>       0.00000000       0.00000000     -22.07978689 </v>
  </varray>
  <energy>
   <i name="e_fr_energy">    -27.26381687 </i>
   <i name="e_wo_entrp">    -27.25231829 </i>
   <i name="e_0_energy">    -27.25998401 </i>
  </energy>
  <time name="totalsc">    2.59    2.63</time>
 </calculation>
 <calculation>
  <scstep>
   <time name="dav">    0.24    0.24</time>
   <time name="total">    0.31    0.31</time>
   <energy>
    <i name="alphaZ">    169.42466733 </i>
    <i name="ewald">  33217.43091316 </i>
    <i name="hartreedc"> -42520.35066462 </i>
    <i name="XCdc">    311.69750835 </i>
    <i name="pawpsdc">   9132.46063928 </i>
    <i name="pawaedc">  -9885.72110653 </i>
    <i name="eentropy">     -0.01110592 </i>
    <i name="bandstr">   -186.39544471 </i>
    <i name="atom">   9736.70348140 </i>
    <i name="e_fr_energy">    -24.76111225 </i>
    <i name="e_wo_entrp">    -24.75000634 </i>
    <i name="e_0_energy">    -24.75741028 </i>
   </energy>
  </scstep>
  <scstep>
   <time name="dav">    0.31    0.32</time>
   <time name="total">    0.38    0.38</time>
   <energy>
    <i name="e_fr_energy">    -24.77465025 </i>
    <i name="e_wo_entrp">    -24.76346870 </i>
    <i name="e_0_energy">    -24.77092307 </i>
   </energy>
  </scstep>
  <scstep>
   <time name="dav">    0.24    0.24</time>
   <time name="total">    0.31    0.31</time>
   <energy>
    <i name="e_fr_energy">    -24.77414014 </i>
    <i name="e_wo_entrp">    -24.76304302 </i>
    <i name="e_0_energy">    -24.77044110 </i>
   </energy>
  </scstep>
  <scstep>
   <time name="dav">    0.23    0.23</time>
   <time name="total">    0.25    0.25</time>
   <energy>
    <i name="alphaZ">    169.42466733 </i>
    <i name="ewald">  33217.43091316 </i>
    <i name="hartreedc"> -42520.47701852 </i>
    <i name="XCdc">    311.70003731 </i>
    <i name="pawpsdc">   9129.71867490 </i>
    <i name="pawaedc">  -9882.85584490 </i>
    <i name="eentropy">     -0.01109383 </i>
    <i name="bandstr">   -186.40785510 </i>
    <i name="atom">   9736.70348140 </i>
    <i name="e_fr_energy">    -24.77403825 </i>
    <i name="e_wo_entrp">    -24.76294442 </i>
    <i name="e_0_energy">    -24.77034030 </i>
   </energy>
  </scstep>
  <dipole>
   <v name="dipole">      0.00000000       0.00000000       0.00984537 </v>
   <i name="Tr[quadrupol]">   -162.49153682 </i>
   <i name="Echarged">      0.00000000 </i>
   <i name="Edipol_quadrupol">      0.00000000 </i>
   <i name="Eion">      0.00000000 </i>
  </dipole>
  <structure>
   <crystal>
    <varray name="basis" >
     <v>       3.63000011       0.00000000       0.00000000 </v>
     <v>       0.00000000       2.56679773       0.00000000 </v>
     <v>       0.00000000       0.00000000      22.70039300 </v>
    </varray>
    <i name="volume">    211.51036846 </i>
    <varray name="rec_basis" >
     <v>       0.27548208       0.00000000       0.00000000 </v>
     <v>       0.00000000       0.38959050       0.00000000 </v>
     <v>       0.00000000       0.00000000       0.04405210 </v>
    </varray>
   </crystal>
   <varray name="positions" >
    <v>       0.00000000       0.00000000       0.00000000 </v>
    <v>       0.50000000       0.50000000       0.05653642 </v>
    <v>       0.00000000       0.00000000       0.11217306 </v>
    <v>       0.50000000       0.50000000       0.16985418 </v>
    <v>       0.00000000       0.00000000       0.22510397 </v>
    <v>       0.50000000       0.50000000       0.28457902 </v>
    <v>       0.00000000       0.00000000       0.33242712 </v>
   </varray>
  </structure>
  <varray name="forces" >
   <v>       0.00000000       0.00000000       0.72342454 </v>
   <v>       0.00000000       0.00000000      -0.34088803 </v>
   <v>       0.00000000       0.00000000      -0.07775769 </v>
   <v>       0.00000000       0.00000000      -0.08982097 </v>
   <v>       0.00000000       0.00000000       0.00604283 </v>
   <v>       0.00000000       0.00000000      -0.17685401 </v>
   <v>       0.00000000       0.00000000      -0.04414668 </v>
  </varray>
  <varray name="stress" >
   <v>     -22.18752263       0.00000000       0.00000000 </v>
   <v>       0.00000000     -35.74172192       0.00000000 </v>
   <v>       0.00000000       0.00000000     -14.07606342 </v>
  </varray>
  <energy>
   <i name="e_fr_energy">    -27.26659651 </i>
   <i name="e_wo_entrp">    -27.25550267 </i>
   <i name="e_0_energy">    -27.26289856 </i>
  </energy>
  <time name="totalsc">    1.60    1.64</time>
 </calculation>
 <calculation>
  <scstep>
   <time name="dav">    0.25    0.25</time>
   <time name="total">    0.31    0.32</time>
   <energy>
    <i name="alphaZ">    169.42466733 </i>
    <i name="ewald">  33325.00767100 </i>
    <i name="hartreedc"> -42628.01285855 </i>
    <i name="XCdc">    311.73425027 </i>
    <i name="pawpsdc">   9128.52575106 </i>
    <i name="pawaedc">  -9881.65375923 </i>
    <i name="eentropy">     -0.01126536 </i>
    <i name="bandstr">   -186.48587247 </i>
    <i name="atom">   9736.70348140 </i>
    <i name="e_fr_energy">    -24.76793455 </i>
    <i name="e_wo_entrp">    -24.75666919 </i>
    <i name="e_0_energy">    -24.76417943 </i>
   </energy>
  </scstep>
  <scstep>
   <time name="dav">    0.32    0.33</time>
   <time name="total">    0.39    0.39</time>
   <energy>
    <i name="e_fr_energy">    -24.77432317 </i>
    <i name="e_wo_entrp">    -24.76301008 </i>
    <i name="e_0_energy">    -24.77055214 </i>
   </energy>
  </scstep>
  <scstep>
   <time name="dav">    0.29    0.29</time>
   <time name="total">    0.35    0.36</time>
   <energy>
    <i name="e_fr_energy">    -24.77381770 </i>
    <i name="e_wo_entrp">    -24.76258060 </i>
    <i name="e_0_energy">    -24.77007200 </i>
   </energy>
  </scstep>
  <scstep>
   <time name="dav">    0.24    0.24</time>
   <time name="total">    0.26    0.26</time>
   <energy>
    <i name="alphaZ">    169.42466733 </i>
    <i name="ewald">  33325.00767100 </i>
    <i name="hartreedc"> -42628.25377992 </i>
    <i name="XCdc">    311.73110365 </i>
    <i name="pawpsdc">   9129.41958025 </i>
    <i name="pawaedc">  -9882.54381580 </i>
    <i name="eentropy">     -0.01124825 </i>
    <i name="bandstr">   -186.25149291 </i>
    <i name="atom">   9736.70348140 </i>
    <i name="e_fr_energy">    -24.77383325 </i>
    <i name="e_wo_entrp">    -24.76258500 </i>
    <i name="e_0_energy">    -24.77008383 </i>
   </energy>
  </scstep>
  <dipole>
   <v name="dipole">      0.00000000       0.00000000       0.00884748 </v>
   <i name="Tr[quadrupol]">   -162.50239906 </i>
   <i name="Echarged">      0.00000000 </i>
   <i name="Edipol_quadrupol">      0.00000000 </i>
   <i name="Eion">      0.00000000 </i>
  </dipole>
  <structure>
   <crystal>
    <varray name="basis" >
     <v>       3.63000011       0.00000000       0.00000000 </v>
     <v>       0.00000000       2.56679773       0.00000000 </v>
     <v>       0.00000000       0.00000000      22.70039300 </v>
    </varray>
    <i name="volume">    211.51036846 </i>
    <varray name="rec_basis" >
     <v>       0.27548208       0.00000000       0.00000000 </v>
     <v>       0.00000000       0.38959050       0.00000000 </v>
     <v>       0.00000000       0.00000000       0.04405210 </v>
    </varray>
   </crystal>
   <varray name="positions" >
    <v>       0.00000000       0.00000000       0.00000000 </v>
    <v>       0.50000000       0.50000000       0.05653642 </v>
    <v>       0.00000000       0.00000000       0.11191945 </v>
    <v>       0.50000000       0.50000000       0.16952449 </v>
    <v>       0.00000000       0.00000000       0.22467975 </v>
    <v>       0.50000000       0.50000000       0.28380860 </v>
    <v>       0.00000000       0.00000000       0.33187169 </v>
   </varray>
  </structure>
  <varray name="forces" >
   <v>       0.00000000       0.00000000       0.71119341 </v>
   <v>       0.00000000       0.00000000      -0.36453048 </v>
   <v>       0.00000000       0.00000000      -0.06943544 </v>
   <v>       0.00000000       0.00000000      -0.08864132 </v>
   <v>       0.00000000       0.00000000       0.00630041 </v>
   <v>       0.00000000       0.00000000      -0.14970652 </v>
   <v>       0.00000000       0.00000000      -0.04518005 </v>
  </varray>
  <varray name="stress" >
   <v>     -25.02257318       0.00000000       0.00000000 </v>
   <v>       0.00000000     -38.79545304       0.00000000 </v>
   <v>       0.00000000       0.00000000     -16.48427579 </v>
  </varray>
  <energy>
   <i name="e_fr_energy">    -27.27070316 </i>
   <i name="e_wo_entrp">    -27.25945492 </i>
   <i name="e_0_energy">    -27.26695375 </i>
  </energy>
  <time name="totalsc">    1.66    1.72</time>
 </calculation>
 <calculation>
  <scstep>
   <time name="dav">    0.24    0.25</time>
   <time name="total">    0.31    0.31</time>
   <energy>
    <i name="alphaZ">    169.42466733 </i>
    <i name="ewald">  33648.58915264 </i>
    <i name="hartreedc"> -42951.38761765 </i>
    <i name="XCdc">    311.84389550 </i>
    <i name="pawpsdc">   9129.63819189 </i>
    <i name="pawaedc">  -9882.79863772 </i>
    <i name="eentropy">     -0.01186243 </i>
    <i name="bandstr">   -186.71700518 </i>
    <i name="atom">   9736.70348140 </i>
    <i name="e_fr_energy">    -24.71573421 </i>
    <i name="e_wo_entrp">    -24.70387178 </i>
    <i name="e_0_energy">    -24.71178007 </i>
   </energy>
  </scstep>
  <scstep>
   <time name="dav">    0.32    0.32</time>
   <time name="total">    0.38    0.39</time>
   <energy>
    <i name="e_fr_energy">    -24.77797230 </i>
    <i name="e_wo_entrp">    -24.76585612 </i>
    <i name="e_0_energy">    -24.77393358 </i>
   </energy>
  </scstep>
  <scstep>
   <time name="dav">    0.31    0.31</time>
   <time name="total">    0.38    0.38</time>
   <energy>
    <i name="e_fr_energy">    -24.77394579 </i>
    <i name="e_wo_entrp">    -24.76204316 </i>
    <i name="e_0_energy">    -24.76997824 </i>
   </energy>
  </scstep>
  <scstep>
   <time name="dav">    0.29    0.30</time>
   <time name="total">    0.36    0.36</time>
   <energy>
    <i name="e_fr_energy">    -24.77329285 </i>
    <i name="e_wo_entrp">    -24.76137165 </i>
    <i name="e_0_energy">    -24.76931912 </i>
   </energy>
  </scstep>
  <scstep>
   <time name="dav">    0.31    0.31</time>
   <time name="total">    0.38    0.38</time>
   <energy>
    <i name="e_fr_energy">    -24.77154778 </i>
    <i name="e_wo_entrp">    -24.75963812 </i>
    <i name="e_0_energy">    -24.76757790 </i>
   </energy>
  </scstep>
  <scstep>
   <time name="dav">    0.35    0.36</time>
   <time name="total">    0.42    0.42</time>
   <energy>
    <i name="e_fr_energy">    -24.77082837 </i>
    <i name="e_wo_entrp">    -24.75893212 </i>
    <i name="e_0_energy">    -24.76686296 </i>
   </energy>
  </scstep>
  <scstep>
   <time name="dav">    0.20    0.20</time>
   <time name="total">    0.22    0.22</time>
   <energy>
    <i name="alphaZ">    169.42466733 </i>
    <i name="ewald">  33648.58915264 </i>
    <i name="hartreedc"> -42950.52393537 </i>
    <i name="XCdc">    311.80247829 </i>
    <i name="pawpsdc">   9141.04391986 </i>
    <i name="pawaedc">  -9894.46519656 </i>
    <i name="eentropy">     -0.01188761 </i>
    <i name="bandstr">   -187.33347576 </i>
    <i name="atom">   9736.70348140 </i>
    <i name="e_fr_energy">    -24.77079578 </i>
    <i name="e_wo_entrp">    -24.75890817 </i>
    <i name="e_0_energy">    -24.76683325 </i>
   </energy>
  </scstep>
  <dipole>
   <v name="dipole">      0.00000000       0.00000000       0.00781154 </v>
   <i name="Tr[quadrupol]">   -162.49678645 </i>
   <i name="Echarged">      0.00000000 </i>
   <i name="Edipol_quadrupol">      0.00000000 </i>
   <i name="Eion">      0.00000000 </i>
  </dipole>
  <structure>
   <crystal>
    <varray name="basis" >
     <v>       3.63000011       0.00000000       0.00000000 </v>
     <v>       0.00000000       2.56679773       0.00000000 </v>
     <v>       0.00000000       0.00000000      22.70039300 </v>
    </varray>
[...]
       <r>     6.1895     0.6845    44.9676 </r>
       <r>     6.2636     0.7412    45.0225 </r>
       <r>     6.3378     0.4882    45.0587 </r>
       <r>     6.4119     0.5008    45.0958 </r>
       <r>     6.4860     1.4636    45.2043 </r>
       <r>     6.5601     3.2910    45.4483 </r>
       <r>     6.6342     4.8714    45.8093 </r>
       <r>     6.7084     4.9742    46.1780 </r>
       <r>     6.7825     3.4728    46.4355 </r>
       <r>     6.8566     1.4835    46.5454 </r>
       <r>     6.9307     0.3413    46.5707 </r>
       <r>     7.0049     0.6280    46.6173 </r>
       <r>     7.0790     1.8878    46.7572 </r>
       <r>     7.1531     2.9282    46.9742 </r>
       <r>     7.2272     2.7842    47.1806 </r>
       <r>     7.3013     1.6748    47.3047 </r>
       <r>     7.3755     0.6903    47.3559 </r>
       <r>     7.4496     0.6399    47.4033 </r>
       <r>     7.5237     1.5241    47.5163 </r>
       <r>     7.5978     2.7166    47.7177 </r>
       <r>     7.6720     3.3624    47.9669 </r>
       <r>     7.7461     3.0238    48.1910 </r>
       <r>     7.8202     2.0296    48.3415 </r>
       <r>     7.8943     0.9841    48.4144 </r>
       <r>     7.9684     0.2426    48.4324 </r>
       <r>     8.0426     0.0185    48.4338 </r>
       <r>     8.1167     0.5638    48.4756 </r>
       <r>     8.1908     1.8888    48.6156 </r>
       <r>     8.2649     3.3253    48.8620 </r>
       <r>     8.3390     3.7685    49.1414 </r>
       <r>     8.4132     2.7710    49.3467 </r>
       <r>     8.4873     1.1551    49.4324 </r>
       <r>     8.5614     0.2126    49.4481 </r>
       <r>     8.6355     0.5927    49.4921 </r>
       <r>     8.7097     2.0223    49.6420 </r>
       <r>     8.7838     3.6594    49.9132 </r>
       <r>     8.8579     4.6527    50.2581 </r>
       <r>     8.9320     4.6251    50.6009 </r>
       <r>     9.0061     3.8261    50.8845 </r>
       <r>     9.0803     2.8703    51.0972 </r>
       <r>     9.1544     2.1510    51.2567 </r>
       <r>     9.2285     1.6190    51.3767 </r>
       <r>     9.3026     1.2559    51.4698 </r>
       <r>     9.3768     1.2288    51.5608 </r>
       <r>     9.4509     1.4536    51.6686 </r>
       <r>     9.5250     1.5815    51.7858 </r>
       <r>     9.5991     1.4118    51.8905 </r>
       <r>     9.6732     0.9933    51.9641 </r>
       <r>     9.7474     0.4980    52.0010 </r>
       <r>     9.8215     0.1232    52.0101 </r>
       <r>     9.8956    -0.0405    52.0071 </r>
       <r>     9.9697    -0.0561    52.0030 </r>
       <r>    10.0439    -0.0286    52.0008 </r>
       <r>    10.1180    -0.0091    52.0002 </r>
       <r>    10.1921    -0.0020    52.0000 </r>
       <r>    10.2662    -0.0003    52.0000 </r>
       <r>    10.3403    -0.0000    52.0000 </r>
       <r>    10.4145    -0.0000    52.0000 </r>
       <r>    10.4886    -0.0000    52.0000 </r>
       <r>    10.5627    -0.0000    52.0000 </r>
       <r>    10.6368    -0.0000    52.0000 </r>
       <r>    10.7110    -0.0000    52.0000 </r>
       <r>    10.7851    -0.0000    52.0000 </r>
       <r>    10.8592    -0.0000    52.0000 </r>
       <r>    10.9333     0.0000    52.0000 </r>
       <r>    11.0074     0.0000    52.0000 </r>
       <r>    11.0816     0.0000    52.0000 </r>
       <r>    11.1557     0.0000    52.0000 </r>
       <r>    11.2298     0.0000    52.0000 </r>
       <r>    11.3039     0.0000    52.0000 </r>
       <r>    11.3780     0.0000    52.0000 </r>
       <r>    11.4522     0.0000    52.0000 </r>
       <r>    11.5263     0.0000    52.0000 </r>
       <r>    11.6004     0.0000    52.0000 </r>
      </set>
      <set comment="spin 2">
       <r>   -10.6362     0.0000     0.0000 </r>
       <r>   -10.5620     0.0000     0.0000 </r>
       <r>   -10.4879     0.0000     0.0000 </r>
       <r>   -10.4138     0.0000     0.0000 </r>
       <r>   -10.3397     0.0000     0.0000 </r>
       <r>   -10.2655    -0.0000    -0.0000 </r>
       <r>   -10.1914    -0.0000    -0.0000 </r>
       <r>   -10.1173    -0.0000    -0.0000 </r>
       <r>   -10.0432    -0.0000    -0.0000 </r>
       <r>    -9.9691    -0.0000    -0.0000 </r>
       <r>    -9.8949    -0.0000    -0.0000 </r>
       <r>    -9.8208    -0.0000    -0.0000 </r>
       <r>    -9.7467    -0.0000    -0.0000 </r>
       <r>    -9.6726    -0.0000    -0.0000 </r>
       <r>    -9.5985    -0.0000    -0.0000 </r>
       <r>    -9.5243    -0.0000    -0.0000 </r>
       <r>    -9.4502    -0.0000    -0.0000 </r>
       <r>    -9.3761    -0.0000    -0.0000 </r>
       <r>    -9.3020    -0.0000    -0.0000 </r>
       <r>    -9.2278    -0.0002    -0.0000 </r>
       <r>    -9.1537    -0.0010    -0.0001 </r>
       <r>    -9.0796    -0.0044    -0.0004 </r>
       <r>    -9.0055    -0.0135    -0.0014 </r>
       <r>    -8.9314    -0.0240    -0.0032 </r>
       <r>    -8.8572    -0.0063    -0.0037 </r>
       <r>    -8.7831     0.0921     0.0032 </r>
       <r>    -8.7090     0.2769     0.0237 </r>
       <r>    -8.6349     0.4379     0.0562 </r>
       <r>    -8.5607     0.4345     0.0884 </r>
       <r>    -8.4866     0.2700     0.1084 </r>
       <r>    -8.4125     0.0870     0.1148 </r>
       <r>    -8.3384    -0.0080     0.1142 </r>
       <r>    -8.2643    -0.0238     0.1125 </r>
       <r>    -8.1901    -0.0130     0.1115 </r>
       <r>    -8.1160    -0.0042     0.1112 </r>
       <r>    -8.0419    -0.0010     0.1111 </r>
       <r>    -7.9678    -0.0004     0.1111 </r>
       <r>    -7.8936    -0.0020     0.1109 </r>
       <r>    -7.8195    -0.0097     0.1102 </r>
       <r>    -7.7454    -0.0324     0.1078 </r>
       <r>    -7.6713    -0.0670     0.1029 </r>
       <r>    -7.5972    -0.0468     0.0994 </r>
       <r>    -7.5230     0.1800     0.1127 </r>
       <r>    -7.4489     0.6894     0.1638 </r>
       <r>    -7.3748     1.2318     0.2551 </r>
       <r>    -7.3007     1.3581     0.3558 </r>
       <r>    -7.2265     0.9486     0.4261 </r>
       <r>    -7.1524     0.3727     0.4537 </r>
       <r>    -7.0783     0.0171     0.4550 </r>
       <r>    -7.0042    -0.0725     0.4496 </r>
       <r>    -6.9301    -0.0477     0.4461 </r>
       <r>    -6.8559    -0.0173     0.4448 </r>
       <r>    -6.7818    -0.0053     0.4444 </r>
       <r>    -6.7077    -0.0072     0.4439 </r>
       <r>    -6.6336    -0.0261     0.4419 </r>
       <r>    -6.5595    -0.0688     0.4368 </r>
       <r>    -6.4853    -0.0955     0.4298 </r>
       <r>    -6.4112     0.0523     0.4336 </r>
       <r>    -6.3371     0.5681     0.4758 </r>
       <r>    -6.2630     1.3443     0.5754 </r>
       <r>    -6.1888     1.8319     0.7112 </r>
       <r>    -6.1147     1.5834     0.8285 </r>
       <r>    -6.0406     0.8301     0.8901 </r>
       <r>    -5.9665     0.1720     0.9028 </r>
       <r>    -5.8924    -0.1027     0.8952 </r>
       <r>    -5.8182    -0.0954     0.8881 </r>
       <r>    -5.7441     0.0349     0.8907 </r>
       <r>    -5.6700     0.2026     0.9057 </r>
       <r>    -5.5959     0.3864     0.9344 </r>
       <r>    -5.5217     0.7080     0.9869 </r>
       <r>    -5.4476     1.3306     1.0855 </r>
       <r>    -5.3735     2.0680     1.2388 </r>
       <r>    -5.2994     2.3708     1.4145 </r>
       <r>    -5.2253     1.9682     1.5604 </r>
       <r>    -5.1511     1.2551     1.6534 </r>
       <r>    -5.0770     0.8170     1.7140 </r>
       <r>    -5.0029     0.7668     1.7708 </r>
       <r>    -4.9288     0.7910     1.8294 </r>
       <r>    -4.8546     0.7146     1.8824 </r>
       <r>    -4.7805     0.6655     1.9317 </r>
       <r>    -4.7064     0.7849     1.9899 </r>
       <r>    -4.6323     1.2188     2.0802 </r>
       <r>    -4.5582     2.1449     2.2392 </r>
       <r>    -4.4840     3.2479     2.4800 </r>
       <r>    -4.4099     3.6183     2.7482 </r>
       <r>    -4.3358     2.8767     2.9614 </r>
       <r>    -4.2617     1.9395     3.1052 </r>
       <r>    -4.1876     2.0019     3.2535 </r>
       <r>    -4.1134     3.1399     3.4863 </r>
       <r>    -4.0393     4.4927     3.8193 </r>
       <r>    -3.9652     5.4652     4.2244 </r>
       <r>    -3.8911     6.1066     4.6770 </r>
       <r>    -3.8169     6.5524     5.1627 </r>
       <r>    -3.7428     6.7558     5.6634 </r>
       <r>    -3.6687     6.7503     6.1638 </r>
       <r>    -3.5946     6.7381     6.6632 </r>
       <r>    -3.5205     6.8620     7.1719 </r>
       <r>    -3.4463     7.0222     7.6924 </r>
       <r>    -3.3722     6.9050     8.2042 </r>
       <r>    -3.2981     6.4191     8.6800 </r>
       <r>    -3.2240     6.1344     9.1347 </r>
       <r>    -3.1498     6.7145     9.6323 </r>
       <r>    -3.0757     7.9787    10.2237 </r>
       <r>    -3.0016     9.1414    10.9013 </r>
       <r>    -2.9275     9.6397    11.6158 </r>
       <r>    -2.8534     9.4376    12.3154 </r>
       <r>    -2.7792     9.2523    13.0012 </r>
       <r>    -2.7051    10.2812    13.7632 </r>
       <r>    -2.6310    12.6029    14.6974 </r>
       <r>    -2.5569    14.4249    15.7666 </r>
       <r>    -2.4827    14.1955    16.8188 </r>
       <r>    -2.4086    12.6669    17.7577 </r>
       <r>    -2.3345    11.5882    18.6166 </r>
       <r>    -2.2604    11.2691    19.4519 </r>
       <r>    -2.1863    10.7888    20.2516 </r>
       <r>    -2.1121     9.7954    20.9776 </r>
       <r>    -2.0380     8.8045    21.6302 </r>
       <r>    -1.9639     8.4597    22.2573 </r>
       <r>    -1.8898     9.3714    22.9519 </r>
       <r>    -1.8157    11.7612    23.8237 </r>
       <r>    -1.7415    14.6755    24.9115 </r>
       <r>    -1.6674    16.3804    26.1256 </r>
       <r>    -1.5933    16.0398    27.3145 </r>
       <r>    -1.5192    14.7263    28.4060 </r>
       <r>    -1.4450    14.2990    29.4659 </r>
       <r>    -1.3709    15.2350    30.5952 </r>
       <r>    -1.2968    16.4425    31.8139 </r>
       <r>    -1.2227    17.0626    33.0786 </r>
       <r>    -1.1486    16.8821    34.3300 </r>
       <r>    -1.0744    15.3795    35.4699 </r>
       <r>    -1.0003    12.1164    36.3680 </r>
       <r>    -0.9262     7.8090    36.9468 </r>
       <r>    -0.8521     3.9995    37.2433 </r>
       <r>    -0.7779     1.8532    37.3806 </r>
       <r>    -0.7038     1.4504    37.4881 </r>
       <r>    -0.6297     1.8702    37.6268 </r>
       <r>    -0.5556     2.0298    37.7772 </r>
       <r>    -0.4815     1.6611    37.9003 </r>
       <r>    -0.4073     1.2008    37.9894 </r>
       <r>    -0.3332     0.8877    38.0551 </r>
       <r>    -0.2591     0.5743    38.0977 </r>
       <r>    -0.1850     0.2144    38.1136 </r>
       <r>    -0.1108    -0.0276    38.1116 </r>
       <r>    -0.0367    -0.0144    38.1105 </r>
       <r>     0.0374     0.2623    38.1299 </r>
       <r>     0.1115     0.6402    38.1774 </r>
       <r>     0.1856     0.8226    38.2384 </r>
       <r>     0.2598     0.7159    38.2914 </r>
       <r>     0.3339     0.6738    38.3414 </r>
       <r>     0.4080     1.0541    38.4195 </r>
       <r>     0.4821     1.6111    38.5389 </r>
       <r>     0.5563     1.7814    38.6710 </r>
       <r>     0.6304     1.5097    38.7829 </r>
       <r>     0.7045     1.2341    38.8743 </r>
       <r>     0.7786     1.1362    38.9585 </r>
       <r>     0.8527     1.0230    39.0344 </r>
       <r>     0.9269     0.8581    39.0980 </r>
       <r>     1.0010     0.8766    39.1630 </r>
       <r>     1.0751     1.2230    39.2536 </r>
       <r>     1.1492     1.7535    39.3836 </r>
       <r>     1.2233     2.0952    39.5389 </r>
       <r>     1.2975     1.8837    39.6785 </r>
       <r>     1.3716     1.1579    39.7643 </r>
       <r>     1.4457     0.3916    39.7934 </r>
       <r>     1.5198    -0.0281    39.7913 </r>
       <r>     1.5940    -0.1288    39.7817 </r>
       <r>     1.6681    -0.1294    39.7721 </r>
       <r>     1.7422    -0.1294    39.7626 </r>
       <r>     1.8163    -0.0118    39.7617 </r>
       <r>     1.8904     0.4657    39.7962 </r>
       <r>     1.9646     1.3686    39.8976 </r>
       <r>     2.0387     2.2777    40.0665 </r>
       <r>     2.1128     2.5080    40.2524 </r>
       <r>     2.1869     1.8374    40.3886 </r>
       <r>     2.2611     0.8020    40.4480 </r>
       <r>     2.3352     0.0963    40.4551 </r>
       <r>     2.4093    -0.0500    40.4514 </r>
       <r>     2.4834     0.2354    40.4689 </r>
       <r>     2.5575     0.8795    40.5341 </r>
       <r>     2.6317     1.8551    40.6716 </r>
       <r>     2.7058     2.8295    40.8813 </r>
       <r>     2.7799     3.2290    41.1206 </r>
       <r>     2.8540     2.8166    41.3294 </r>
       <r>     2.9282     1.9090    41.4709 </r>
       <r>     3.0023     0.9827    41.5437 </r>
       <r>     3.0764     0.3262    41.5679 </r>
       <r>     3.1505     0.0022    41.5681 </r>
       <r>     3.2246    -0.0796    41.5622 </r>
       <r>     3.2988    -0.0592    41.5578 </r>
       <r>     3.3729    -0.0336    41.5553 </r>
       <r>     3.4470    -0.0374    41.5525 </r>
       <r>     3.5211    -0.0642    41.5478 </r>
       <r>     3.5952    -0.0583    41.5435 </r>
       <r>     3.6694     0.0969    41.5506 </r>
       <r>     3.7435     0.5107    41.5885 </r>
       <r>     3.8176     1.1642    41.6748 </r>
       <r>     3.8917     1.8446    41.8115 </r>
       <r>     3.9659     2.1746    41.9727 </r>
       <r>     4.0400     1.8557    42.1102 </r>
       <r>     4.1141     1.0905    42.1911 </r>
       <r>     4.1882     0.5865    42.2345 </r>
       <r>     4.2623     0.8894    42.3005 </r>
       <r>     4.3365     1.8299    42.4361 </r>
       <r>     4.4106     2.7118    42.6371 </r>
       <r>     4.4847     2.9000    42.8521 </r>
       <r>     4.5588     2.2549    43.0192 </r>
       <r>     4.6330     1.1919    43.1075 </r>
       <r>     4.7071     0.3113    43.1306 </r>
       <r>     4.7812    -0.1071    43.1227 </r>
       <r>     4.8553    -0.1819    43.1092 </r>
       <r>     4.9294    -0.0810    43.1032 </r>
       <r>     5.0036     0.2017    43.1181 </r>
       <r>     5.0777     0.6781    43.1684 </r>
       <r>     5.1518     1.1182    43.2513 </r>
       <r>     5.2259     1.1935    43.3398 </r>
       <r>     5.3001     0.9762    43.4121 </r>
       <r>     5.3742     1.1267    43.4956 </r>
       <r>     5.4483     2.2664    43.6636 </r>
       <r>     5.5224     4.0041    43.9604 </r>
       <r>     5.5965     4.9681    44.3286 </r>
       <r>     5.6707     4.2764    44.6456 </r>
       <r>     5.7448     2.5324    44.8333 </r>
       <r>     5.8189     0.9414    44.9031 </r>
       <r>     5.8930     0.0764    44.9088 </r>
       <r>     5.9671    -0.1717    44.8960 </r>
       <r>     6.0413    -0.0398    44.8931 </r>
       <r>     6.1154     0.3206    44.9169 </r>
       <r>     6.1895     0.6845    44.9676 </r>
       <r>     6.2636     0.7413    45.0225 </r>
       <r>     6.3378     0.4882    45.0587 </r>
       <r>     6.4119     0.4999    45.0958 </r>
       <r>     6.4860     1.4615    45.2041 </r>
       <r>     6.5601     3.2883    45.4478 </r>
       <r>     6.6342     4.8698    45.8088 </r>
       <r>     6.7084     4.9750    46.1776 </r>
       <r>     6.7825     3.4756    46.4352 </r>
       <r>     6.8566     1.4863    46.5453 </r>
       <r>     6.9307     0.3422    46.5707 </r>
       <r>     7.0049     0.6266    46.6172 </r>
       <r>     7.0790     1.8851    46.7569 </r>
       <r>     7.1531     2.9264    46.9738 </r>
       <r>     7.2272     2.7847    47.1802 </r>
       <r>     7.3013     1.6766    47.3045 </r>
       <r>     7.3755     0.6914    47.3557 </r>
       <r>     7.4496     0.6398    47.4031 </r>
       <r>     7.5237     1.5236    47.5161 </r>
       <r>     7.5978     2.7164    47.7174 </r>
       <r>     7.6720     3.3629    47.9667 </r>
       <r>     7.7461     3.0250    48.1909 </r>
       <r>     7.8202     2.0310    48.3414 </r>
       <r>     7.8943     0.9849    48.4144 </r>
       <r>     7.9684     0.2426    48.4324 </r>
       <r>     8.0426     0.0170    48.4337 </r>
       <r>     8.1167     0.5604    48.4752 </r>
       <r>     8.1908     1.8845    48.6149 </r>
       <r>     8.2649     3.3229    48.8612 </r>
       <r>     8.3390     3.7701    49.1407 </r>
       <r>     8.4132     2.7754    49.3464 </r>
       <r>     8.4873     1.1590    49.4323 </r>
       <r>     8.5614     0.2137    49.4481 </r>
       <r>     8.6355     0.5907    49.4919 </r>
       <r>     8.7097     2.0189    49.6415 </r>
       <r>     8.7838     3.6565    49.9126 </r>
       <r>     8.8579     4.6520    50.2574 </r>
       <r>     8.9320     4.6275    50.6004 </r>
       <r>     9.0061     3.8318    50.8844 </r>
       <r>     9.0803     2.8793    51.0978 </r>
       <r>     9.1544     2.1584    51.2578 </r>
       <r>     9.2285     1.6036    51.3767 </r>
       <r>     9.3026     1.1857    51.4646 </r>
       <r>     9.3768     1.1097    51.5468 </r>
       <r>     9.4509     1.3644    51.6479 </r>
       <r>     9.5250     1.6033    51.7668 </r>
       <r>     9.5991     1.5236    51.8797 </r>
       <r>     9.6732     1.1003    51.9613 </r>
       <r>     9.7474     0.5459    52.0017 </r>
       <r>     9.8215     0.1274    52.0112 </r>
       <r>     9.8956    -0.0478    52.0076 </r>
       <r>     9.9697    -0.0609    52.0031 </r>
       <r>    10.0439    -0.0302    52.0009 </r>
       <r>    10.1180    -0.0094    52.0002 </r>
       <r>    10.1921    -0.0021    52.0000 </r>
       <r>    10.2662    -0.0003    52.0000 </r>
       <r>    10.3403    -0.0000    52.0000 </r>
       <r>    10.4145    -0.0000    52.0000 </r>
       <r>    10.4886    -0.0000    52.0000 </r>
       <r>    10.5627    -0.0000    52.0000 </r>
       <r>    10.6368    -0.0000    52.0000 </r>
       <r>    10.7110    -0.0000    52.0000 </r>
       <r>    10.7851    -0.0000    52.0000 </r>
       <r>    10.8592    -0.0000    52.0000 </r>
       <r>    10.9333     0.0000    52.0000 </r>
       <r>    11.0074     0.0000    52.0000 </r>
       <r>    11.0816     0.0000    52.0000 </r>
       <r>    11.1557     0.0000    52.0000 </r>
       <r>    11.2298     0.0000    52.0000 </r>
       <r>    11.3039     0.0000    52.0000 </r>
       <r>    11.3780     0.0000    52.0000 </r>
       <r>    11.4522     0.0000    52.0000 </r>
       <r>    11.5263     0.0000    52.0000 </r>
       <r>    11.6004     0.0000    52.0000 </r>
      </set>
     </set>
    </array>
   </total>
  </dos>
 </calculation>
 <structure name="finalpos" >
  <crystal>
   <varray name="basis" >
    <v>       3.63000011       0.00000000       0.00000000 </v>
    <v>       0.00000000       2.56679773       0.00000000 </v>
    <v>       0.00000000       0.00000000      22.70039300 </v>
   </varray>
   <i name="volume">    211.51036846 </i>
   <varray name="rec_basis" >
    <v>       0.27548208       0.00000000       0.00000000 </v>
    <v>       0.00000000       0.38959050       0.00000000 </v>
    <v>       0.00000000       0.00000000       0.04405210 </v>
   </varray>
  </crystal>
  <varray name="positions" >
   <v>       0.00000000       0.00000000       0.00000000 </v>
   <v>       0.50000000       0.50000000       0.05653642 </v>
   <v>       0.00000000       0.00000000       0.11016162 </v>
   <v>       0.50000000       0.50000000       0.16665671 </v>
   <v>       0.00000000       0.00000000       0.22163594 </v>
   <v>       0.50000000       0.50000000       0.27936139 </v>
   <v>       0.00000000       0.00000000       0.32811434 </v>
  </varray>
  <varray name="selective"  type="logical" >
   <v type="logical" >  F  F  F </v>
   <v type="logical" >  F  F  F </v>
   <v type="logical" >  T  T  T </v>
   <v type="logical" >  T  T  T </v>
   <v type="logical" >  T  T  T </v>
   <v type="logical" >  T  T  T </v>
   <v type="logical" >  T  T  T </v>
  </varray>
  <nose>
   <v>      -3.00000000       0.00000000       0.00010000       0.00010000 </v>
  </nose>
 </structure>
</modeling>
