unknown system                          
           1
     3.630000    0.000000    0.000000
     0.000000    2.566798    0.000000
     0.000000    0.000000   22.700393
   Cu
     7
Direct configuration=     1
   0.00000000  0.00000000  0.00000000
   0.50000000  0.50000000  0.05653642
   0.00000000  0.00000000  0.11307283
   0.50000000  0.50000000  0.16960925
   0.00000000  0.00000000  0.22614566
   0.50000000  0.50000000  0.28268208
   0.00000000  0.00000000  0.33921850
Direct configuration=     2
   0.00000000  0.00000000  0.00000000
   0.50000000  0.50000000  0.05653642
   0.00000000  0.00000000  0.11264007
   0.50000000  0.50000000  0.16961035
   0.00000000  0.00000000  0.22657744
   0.50000000  0.50000000  0.28337741
   0.00000000  0.00000000  0.33755628
Direct configuration=     3
   0.00000000  0.00000000  0.00000000
   0.50000000  0.50000000  0.05653642
   0.00000000  0.00000000  0.11167164
   0.50000000  0.50000000  0.16961282
   0.00000000  0.00000000  0.22754365
   0.50000000  0.50000000  0.28493341
   0.00000000  0.00000000  0.33383661
Direct configuration=     4
   0.00000000  0.00000000  0.00000000
   0.50000000  0.50000000  0.05653642
   0.00000000  0.00000000  0.11184729
   0.50000000  0.50000000  0.16961237
   0.00000000  0.00000000  0.22736840
   0.50000000  0.50000000  0.28465119
   0.00000000  0.00000000  0.33451127
Direct configuration=     5
   0.00000000  0.00000000  0.00000000
   0.50000000  0.50000000  0.05653642
   0.00000000  0.00000000  0.11178276
   0.50000000  0.50000000  0.16961254
   0.00000000  0.00000000  0.22743279
   0.50000000  0.50000000  0.28475487
   0.00000000  0.00000000  0.33426341
Direct configuration=     6
   0.00000000  0.00000000  0.00000000
   0.50000000  0.50000000  0.05653642
   0.00000000  0.00000000  0.11180910
   0.50000000  0.50000000  0.16961247
   0.00000000  0.00000000  0.22740651
   0.50000000  0.50000000  0.28471256
   0.00000000  0.00000000  0.33436457
Direct configuration=     7
   0.00000000  0.00000000  0.00000000
   0.50000000  0.50000000  0.05653642
   0.00000000  0.00000000  0.11180032
   0.50000000  0.50000000  0.16961249
   0.00000000  0.00000000  0.22741526
   0.50000000  0.50000000  0.28472665
   0.00000000  0.00000000  0.33433087
Direct configuration=     8
   0.00000000  0.00000000  0.00000000
   0.50000000  0.50000000  0.05653642
   0.00000000  0.00000000  0.11192024
   0.50000000  0.50000000  0.16969024
   0.00000000  0.00000000  0.22667171
   0.50000000  0.50000000  0.28467916
   0.00000000  0.00000000  0.33371843
Direct configuration=     9
   0.00000000  0.00000000  0.00000000
   0.50000000  0.50000000  0.05653642
   0.00000000  0.00000000  0.11207077
   0.50000000  0.50000000  0.16978785
   0.00000000  0.00000000  0.22573826
   0.50000000  0.50000000  0.28461954
   0.00000000  0.00000000  0.33294957
Direct configuration=    10
   0.00000000  0.00000000  0.00000000
   0.50000000  0.50000000  0.05653642
   0.00000000  0.00000000  0.11237184
   0.50000000  0.50000000  0.16998307
   0.00000000  0.00000000  0.22387136
   0.50000000  0.50000000  0.28450029
   0.00000000  0.00000000  0.33141186
Direct configuration=    11
   0.00000000  0.00000000  0.00000000
   0.50000000  0.50000000  0.05653642
   0.00000000  0.00000000  0.11217306
   0.50000000  0.50000000  0.16985418
   0.00000000  0.00000000  0.22510397
   0.50000000  0.50000000  0.28457902
   0.00000000  0.00000000  0.33242712
Direct configuration=    12
   0.00000000  0.00000000  0.00000000
   0.50000000  0.50000000  0.05653642
   0.00000000  0.00000000  0.11191945
   0.50000000  0.50000000  0.16952449
   0.00000000  0.00000000  0.22467975
   0.50000000  0.50000000  0.28380860
   0.00000000  0.00000000  0.33187169
Direct configuration=    13
   0.00000000  0.00000000  0.00000000
   0.50000000  0.50000000  0.05653642
   0.00000000  0.00000000  0.11115862
   0.50000000  0.50000000  0.16853541
   0.00000000  0.00000000  0.22340710
   0.50000000  0.50000000  0.28149732
   0.00000000  0.00000000  0.33020538
Direct configuration=    14
   0.00000000  0.00000000  0.00000000
   0.50000000  0.50000000  0.05653642
   0.00000000  0.00000000  0.10963697
   0.50000000  0.50000000  0.16655727
   0.00000000  0.00000000  0.22086180
   0.50000000  0.50000000  0.27687476
   0.00000000  0.00000000  0.32687276
Direct configuration=    15
   0.00000000  0.00000000  0.00000000
   0.50000000  0.50000000  0.05653642
   0.00000000  0.00000000  0.11048443
   0.50000000  0.50000000  0.16765896
   0.00000000  0.00000000  0.22227936
   0.50000000  0.50000000  0.27944921
   0.00000000  0.00000000  0.32872880
Direct configuration=    16
   0.00000000  0.00000000  0.00000000
   0.50000000  0.50000000  0.05653642
   0.00000000  0.00000000  0.11004200
   0.50000000  0.50000000  0.16628531
   0.00000000  0.00000000  0.22139751
   0.50000000  0.50000000  0.27932884
   0.00000000  0.00000000  0.32788664
Direct configuration=    17
   0.00000000  0.00000000  0.00000000
   0.50000000  0.50000000  0.05653642
   0.00000000  0.00000000  0.11016162
   0.50000000  0.50000000  0.16665671
   0.00000000  0.00000000  0.22163594
   0.50000000  0.50000000  0.27936139
   0.00000000  0.00000000  0.32811434
