 146 146   0   0
  0.2250407E+02  0.1089000E-08  0.1089000E-08  0.2770500E-08  0.5000000E-15
  1.000000000000000E-004
  CAR 
 unknown system                          
     13.01001626     -9.51193237  301      1.74223263      1.00000000
     -9.512  0.0000E+00  0.0000E+00  0.0000E+00  0.0000E+00
     -9.437  0.0000E+00  0.0000E+00  0.0000E+00  0.0000E+00
     -9.362  0.0000E+00  0.0000E+00  0.0000E+00  0.0000E+00
     -9.287  0.0000E+00  0.0000E+00  0.0000E+00  0.0000E+00
     -9.212  0.0000E+00  0.0000E+00  0.0000E+00  0.0000E+00
     -9.137 -0.9332E-31 -0.9332E-31 -0.7006E-32 -0.7006E-32
     -9.061 -0.3432E-28 -0.3432E-28 -0.2583E-29 -0.2583E-29
     -8.986 -0.9517E-26 -0.9517E-26 -0.7170E-27 -0.7170E-27
     -8.911 -0.1985E-23 -0.1985E-23 -0.1498E-24 -0.1498E-24
     -8.836 -0.3114E-21 -0.3114E-21 -0.2353E-22 -0.2353E-22
     -8.761 -0.3672E-19 -0.3672E-19 -0.2780E-20 -0.2780E-20
     -8.686 -0.3149E-17 -0.3149E-17 -0.2392E-18 -0.2392E-18
     -8.611 -0.2092E-15 -0.2092E-15 -0.1594E-16 -0.1594E-16
     -8.536 -0.1038E-13 -0.1038E-13 -0.7953E-15 -0.7953E-15
     -8.461 -0.3856E-12 -0.3856E-12 -0.2974E-13 -0.2974E-13
     -8.386 -0.1070E-10 -0.1070E-10 -0.8332E-12 -0.8332E-12
     -8.311 -0.2215E-09 -0.2215E-09 -0.1746E-10 -0.1746E-10
     -8.236 -0.3410E-08 -0.3410E-08 -0.2735E-09 -0.2735E-09
     -8.161 -0.3891E-07 -0.3891E-07 -0.3195E-08 -0.3195E-08
     -8.086 -0.3276E-06 -0.3276E-06 -0.2779E-07 -0.2779E-07
     -8.010 -0.2023E-05 -0.2023E-05 -0.1797E-06 -0.1797E-06
     -7.935 -0.9077E-05 -0.9077E-05 -0.8611E-06 -0.8611E-06
     -7.860 -0.2907E-04 -0.2907E-04 -0.3044E-05 -0.3044E-05
     -7.785 -0.6351E-04 -0.6351E-04 -0.7812E-05 -0.7812E-05
     -7.710 -0.7857E-04 -0.7857E-04 -0.1371E-04 -0.1371E-04
     -7.635  0.2704E-04  0.2704E-04 -0.1168E-04 -0.1168E-04
     -7.560  0.4131E-03  0.4131E-03  0.1933E-04  0.1933E-04
     -7.485  0.1203E-02  0.1203E-02  0.1096E-03  0.1096E-03
     -7.410  0.2302E-02  0.2302E-02  0.2824E-03  0.2824E-03
     -7.335  0.3286E-02  0.3286E-02  0.5291E-03  0.5291E-03
     -7.260  0.3592E-02  0.3592E-02  0.7988E-03  0.7988E-03
     -7.185  0.2970E-02  0.2970E-02  0.1022E-02  0.1022E-02
     -7.110  0.1900E-02  0.1900E-02  0.1164E-02  0.1164E-02
     -7.035  0.1522E-02  0.1522E-02  0.1279E-02  0.1279E-02
     -6.959  0.2764E-02  0.2764E-02  0.1486E-02  0.1486E-02
     -6.884  0.5389E-02  0.5389E-02  0.1891E-02  0.1891E-02
     -6.809  0.7915E-02  0.7915E-02  0.2485E-02  0.2485E-02
     -6.734  0.8606E-02  0.8606E-02  0.3131E-02  0.3131E-02
     -6.659  0.6939E-02  0.6939E-02  0.3652E-02  0.3652E-02
     -6.584  0.4166E-02  0.4166E-02  0.3965E-02  0.3965E-02
     -6.509  0.2287E-02  0.2287E-02  0.4136E-02  0.4136E-02
     -6.434  0.2611E-02  0.2611E-02  0.4332E-02  0.4332E-02
     -6.359  0.5036E-02  0.5036E-02  0.4711E-02  0.4711E-02
     -6.284  0.8283E-02  0.8283E-02  0.5332E-02  0.5332E-02
     -6.209  0.1076E-01  0.1076E-01  0.6140E-02  0.6140E-02
     -6.134  0.1131E-01  0.1131E-01  0.6989E-02  0.6989E-02
     -6.059  0.9791E-02  0.9791E-02  0.7724E-02  0.7724E-02
     -5.983  0.7376E-02  0.7376E-02  0.8278E-02  0.8278E-02
     -5.908  0.5910E-02  0.5910E-02  0.8722E-02  0.8722E-02
     -5.833  0.6421E-02  0.6421E-02  0.9204E-02  0.9204E-02
     -5.758  0.8390E-02  0.8390E-02  0.9834E-02  0.9834E-02
     -5.683  0.1053E-01  0.1053E-01  0.1062E-01  0.1062E-01
     -5.608  0.1192E-01  0.1192E-01  0.1152E-01  0.1152E-01
     -5.533  0.1220E-01  0.1220E-01  0.1243E-01  0.1243E-01
     -5.458  0.1115E-01  0.1115E-01  0.1327E-01  0.1327E-01
     -5.383  0.9312E-02  0.9312E-02  0.1397E-01  0.1397E-01
     -5.308  0.8414E-02  0.8414E-02  0.1460E-01  0.1460E-01
     -5.233  0.9714E-02  0.9714E-02  0.1533E-01  0.1533E-01
     -5.158  0.1192E-01  0.1192E-01  0.1623E-01  0.1623E-01
     -5.083  0.1257E-01  0.1257E-01  0.1717E-01  0.1717E-01
     -5.008  0.1177E-01  0.1177E-01  0.1805E-01  0.1805E-01
     -4.932  0.1224E-01  0.1224E-01  0.1897E-01  0.1897E-01
     -4.857  0.1499E-01  0.1499E-01  0.2010E-01  0.2010E-01
     -4.782  0.1742E-01  0.1742E-01  0.2141E-01  0.2141E-01
     -4.707  0.1723E-01  0.1723E-01  0.2270E-01  0.2270E-01
     -4.632  0.1573E-01  0.1573E-01  0.2388E-01  0.2388E-01
     -4.557  0.1561E-01  0.1561E-01  0.2505E-01  0.2505E-01
     -4.482  0.1740E-01  0.1740E-01  0.2636E-01  0.2636E-01
     -4.407  0.1945E-01  0.1945E-01  0.2782E-01  0.2782E-01
     -4.332  0.1995E-01  0.1995E-01  0.2932E-01  0.2932E-01
     -4.257  0.1838E-01  0.1838E-01  0.3070E-01  0.3070E-01
     -4.182  0.1616E-01  0.1616E-01  0.3191E-01  0.3191E-01
     -4.107  0.1578E-01  0.1578E-01  0.3309E-01  0.3309E-01
     -4.032  0.1871E-01  0.1871E-01  0.3450E-01  0.3450E-01
     -3.957  0.2380E-01  0.2380E-01  0.3629E-01  0.3629E-01
     -3.881  0.2790E-01  0.2790E-01  0.3838E-01  0.3838E-01
     -3.806  0.2853E-01  0.2853E-01  0.4052E-01  0.4052E-01
     -3.731  0.2616E-01  0.2616E-01  0.4248E-01  0.4248E-01
     -3.656  0.2391E-01  0.2391E-01  0.4428E-01  0.4428E-01
     -3.581  0.2466E-01  0.2466E-01  0.4613E-01  0.4613E-01
     -3.506  0.2859E-01  0.2859E-01  0.4828E-01  0.4828E-01
     -3.431  0.3457E-01  0.3457E-01  0.5087E-01  0.5087E-01
     -3.356  0.4286E-01  0.4286E-01  0.5409E-01  0.5409E-01
     -3.281  0.5319E-01  0.5319E-01  0.5808E-01  0.5808E-01
     -3.206  0.6273E-01  0.6273E-01  0.6279E-01  0.6279E-01
     -3.131  0.6975E-01  0.6975E-01  0.6803E-01  0.6803E-01
     -3.056  0.7548E-01  0.7548E-01  0.7369E-01  0.7369E-01
     -2.981  0.8062E-01  0.8062E-01  0.7975E-01  0.7975E-01
     -2.905  0.8464E-01  0.8464E-01  0.8610E-01  0.8610E-01
     -2.830  0.8939E-01  0.8939E-01  0.9281E-01  0.9281E-01
     -2.755  0.9880E-01  0.9880E-01  0.1002E+00  0.1002E+00
     -2.680  0.1131E+00  0.1131E+00  0.1087E+00  0.1087E+00
     -2.605  0.1281E+00  0.1281E+00  0.1183E+00  0.1183E+00
     -2.530  0.1434E+00  0.1434E+00  0.1291E+00  0.1291E+00
     -2.455  0.1633E+00  0.1633E+00  0.1414E+00  0.1414E+00
     -2.380  0.1856E+00  0.1856E+00  0.1553E+00  0.1553E+00
     -2.305  0.2009E+00  0.2009E+00  0.1704E+00  0.1704E+00
     -2.230  0.2036E+00  0.2036E+00  0.1857E+00  0.1857E+00
     -2.155  0.1940E+00  0.1940E+00  0.2002E+00  0.2002E+00
     -2.080  0.1774E+00  0.1774E+00  0.2135E+00  0.2135E+00
     -2.005  0.1638E+00  0.1638E+00  0.2258E+00  0.2258E+00
     -1.930  0.1624E+00  0.1624E+00  0.2380E+00  0.2380E+00
     -1.854  0.1740E+00  0.1740E+00  0.2511E+00  0.2511E+00
     -1.779  0.1928E+00  0.1928E+00  0.2656E+00  0.2656E+00
     -1.704  0.2107E+00  0.2107E+00  0.2814E+00  0.2814E+00
     -1.629  0.2217E+00  0.2217E+00  0.2980E+00  0.2980E+00
     -1.554  0.2293E+00  0.2293E+00  0.3152E+00  0.3152E+00
     -1.479  0.2441E+00  0.2441E+00  0.3336E+00  0.3336E+00
     -1.404  0.2688E+00  0.2688E+00  0.3538E+00  0.3538E+00
     -1.329  0.2938E+00  0.2938E+00  0.3758E+00  0.3758E+00
     -1.254  0.3102E+00  0.3102E+00  0.3991E+00  0.3991E+00
     -1.179  0.3177E+00  0.3177E+00  0.4229E+00  0.4229E+00
     -1.104  0.3175E+00  0.3175E+00  0.4468E+00  0.4468E+00
     -1.029  0.3086E+00  0.3086E+00  0.4700E+00  0.4700E+00
     -0.954  0.2924E+00  0.2924E+00  0.4919E+00  0.4919E+00
     -0.879  0.2754E+00  0.2754E+00  0.5126E+00  0.5126E+00
     -0.803  0.2662E+00  0.2662E+00  0.5326E+00  0.5326E+00
     -0.728  0.2718E+00  0.2718E+00  0.5530E+00  0.5530E+00
     -0.653  0.2932E+00  0.2932E+00  0.5750E+00  0.5750E+00
     -0.578  0.3206E+00  0.3206E+00  0.5991E+00  0.5991E+00
     -0.503  0.3385E+00  0.3385E+00  0.6245E+00  0.6245E+00
     -0.428  0.3391E+00  0.3391E+00  0.6499E+00  0.6499E+00
     -0.353  0.3294E+00  0.3294E+00  0.6747E+00  0.6747E+00
     -0.278  0.3220E+00  0.3220E+00  0.6988E+00  0.6988E+00
     -0.203  0.3241E+00  0.3241E+00  0.7232E+00  0.7232E+00
     -0.128  0.3388E+00  0.3388E+00  0.7486E+00  0.7486E+00
     -0.053  0.3692E+00  0.3692E+00  0.7763E+00  0.7763E+00
      0.022  0.4121E+00  0.4121E+00  0.8073E+00  0.8073E+00
      0.097  0.4491E+00  0.4491E+00  0.8410E+00  0.8410E+00
      0.173  0.4513E+00  0.4513E+00  0.8749E+00  0.8749E+00
      0.248  0.4000E+00  0.4000E+00  0.9049E+00  0.9049E+00
      0.323  0.3019E+00  0.3019E+00  0.9276E+00  0.9276E+00
      0.398  0.1878E+00  0.1878E+00  0.9416E+00  0.9416E+00
      0.473  0.9509E-01  0.9509E-01  0.9488E+00  0.9488E+00
      0.548  0.4419E-01  0.4419E-01  0.9521E+00  0.9521E+00
      0.623  0.2930E-01  0.2930E-01  0.9543E+00  0.9543E+00
      0.698  0.3261E-01  0.3261E-01  0.9568E+00  0.9568E+00
      0.773  0.3958E-01  0.3958E-01  0.9597E+00  0.9597E+00
      0.848  0.4209E-01  0.4209E-01  0.9629E+00  0.9629E+00
      0.923  0.3833E-01  0.3833E-01  0.9658E+00  0.9658E+00
      0.998  0.3159E-01  0.3159E-01  0.9681E+00  0.9681E+00
      1.073  0.2467E-01  0.2467E-01  0.9700E+00  0.9700E+00
      1.148  0.1788E-01  0.1788E-01  0.9713E+00  0.9713E+00
      1.224  0.1389E-01  0.1389E-01  0.9724E+00  0.9724E+00
      1.299  0.1874E-01  0.1874E-01  0.9738E+00  0.9738E+00
      1.374  0.3367E-01  0.3367E-01  0.9763E+00  0.9763E+00
      1.449  0.4919E-01  0.4919E-01  0.9800E+00  0.9800E+00
      1.524  0.5300E-01  0.5300E-01  0.9840E+00  0.9840E+00
      1.599  0.4394E-01  0.4394E-01  0.9873E+00  0.9873E+00
      1.674  0.3157E-01  0.3157E-01  0.9896E+00  0.9896E+00
      1.749  0.2328E-01  0.2328E-01  0.9914E+00  0.9914E+00
      1.824  0.1937E-01  0.1937E-01  0.9928E+00  0.9928E+00
      1.899  0.1807E-01  0.1807E-01  0.9942E+00  0.9942E+00
      1.974  0.1773E-01  0.1773E-01  0.9955E+00  0.9955E+00
      2.049  0.1701E-01  0.1701E-01  0.9968E+00  0.9968E+00
      2.124  0.1732E-01  0.1732E-01  0.9981E+00  0.9981E+00
      2.199  0.2138E-01  0.2138E-01  0.9997E+00  0.9997E+00
      2.275  0.2829E-01  0.2829E-01  0.1002E+01  0.1002E+01
      2.350  0.3372E-01  0.3372E-01  0.1004E+01  0.1004E+01
      2.425  0.3486E-01  0.3486E-01  0.1007E+01  0.1007E+01
      2.500  0.3290E-01  0.3290E-01  0.1009E+01  0.1009E+01
      2.575  0.3113E-01  0.3113E-01  0.1012E+01  0.1012E+01
      2.650  0.3199E-01  0.3199E-01  0.1014E+01  0.1014E+01
      2.725  0.3469E-01  0.3469E-01  0.1017E+01  0.1017E+01
      2.800  0.3547E-01  0.3547E-01  0.1019E+01  0.1019E+01
      2.875  0.3185E-01  0.3185E-01  0.1022E+01  0.1022E+01
      2.950  0.2635E-01  0.2635E-01  0.1024E+01  0.1024E+01
      3.025  0.2272E-01  0.2272E-01  0.1026E+01  0.1026E+01
      3.100  0.2007E-01  0.2007E-01  0.1027E+01  0.1027E+01
      3.175  0.1489E-01  0.1489E-01  0.1028E+01  0.1028E+01
      3.251  0.7851E-02  0.7851E-02  0.1029E+01  0.1029E+01
      3.326  0.4605E-02  0.4605E-02  0.1029E+01  0.1029E+01
      3.401  0.9628E-02  0.9628E-02  0.1030E+01  0.1030E+01
      3.476  0.2152E-01  0.2152E-01  0.1031E+01  0.1031E+01
      3.551  0.3479E-01  0.3479E-01  0.1034E+01  0.1034E+01
      3.626  0.4406E-01  0.4406E-01  0.1037E+01  0.1037E+01
      3.701  0.4575E-01  0.4575E-01  0.1041E+01  0.1041E+01
      3.776  0.3890E-01  0.3890E-01  0.1044E+01  0.1044E+01
      3.851  0.2742E-01  0.2742E-01  0.1046E+01  0.1046E+01
      3.926  0.1899E-01  0.1899E-01  0.1047E+01  0.1047E+01
      4.001  0.1818E-01  0.1818E-01  0.1049E+01  0.1049E+01
      4.076  0.2213E-01  0.2213E-01  0.1050E+01  0.1050E+01
      4.151  0.2468E-01  0.2468E-01  0.1052E+01  0.1052E+01
      4.226  0.2318E-01  0.2318E-01  0.1054E+01  0.1054E+01
      4.302  0.1968E-01  0.1968E-01  0.1055E+01  0.1055E+01
      4.377  0.1711E-01  0.1711E-01  0.1057E+01  0.1057E+01
      4.452  0.1612E-01  0.1612E-01  0.1058E+01  0.1058E+01
      4.527  0.1564E-01  0.1564E-01  0.1059E+01  0.1059E+01
      4.602  0.1550E-01  0.1550E-01  0.1060E+01  0.1060E+01
      4.677  0.1695E-01  0.1695E-01  0.1061E+01  0.1061E+01
      4.752  0.1955E-01  0.1955E-01  0.1063E+01  0.1063E+01
      4.827  0.2053E-01  0.2053E-01  0.1064E+01  0.1064E+01
      4.902  0.1916E-01  0.1916E-01  0.1066E+01  0.1066E+01
      4.977  0.1837E-01  0.1837E-01  0.1067E+01  0.1067E+01
      5.052  0.2025E-01  0.2025E-01  0.1069E+01  0.1069E+01
      5.127  0.2366E-01  0.2366E-01  0.1071E+01  0.1071E+01
      5.202  0.2772E-01  0.2772E-01  0.1073E+01  0.1073E+01
      5.277  0.3300E-01  0.3300E-01  0.1075E+01  0.1075E+01
      5.353  0.3792E-01  0.3792E-01  0.1078E+01  0.1078E+01
      5.428  0.3825E-01  0.3825E-01  0.1081E+01  0.1081E+01
      5.503  0.3219E-01  0.3219E-01  0.1083E+01  0.1083E+01
      5.578  0.2292E-01  0.2292E-01  0.1085E+01  0.1085E+01
      5.653  0.1637E-01  0.1637E-01  0.1086E+01  0.1086E+01
      5.728  0.1756E-01  0.1756E-01  0.1087E+01  0.1087E+01
      5.803  0.2608E-01  0.2608E-01  0.1089E+01  0.1089E+01
      5.878  0.3453E-01  0.3453E-01  0.1092E+01  0.1092E+01
      5.953  0.3552E-01  0.3552E-01  0.1095E+01  0.1095E+01
      6.028  0.2990E-01  0.2990E-01  0.1097E+01  0.1097E+01
      6.103  0.2380E-01  0.2380E-01  0.1099E+01  0.1099E+01
      6.178  0.2011E-01  0.2011E-01  0.1100E+01  0.1100E+01
      6.253  0.1777E-01  0.1777E-01  0.1102E+01  0.1102E+01
      6.329  0.1666E-01  0.1666E-01  0.1103E+01  0.1103E+01
      6.404  0.1822E-01  0.1822E-01  0.1104E+01  0.1104E+01
      6.479  0.2285E-01  0.2285E-01  0.1106E+01  0.1106E+01
      6.554  0.2953E-01  0.2953E-01  0.1108E+01  0.1108E+01
      6.629  0.3714E-01  0.3714E-01  0.1111E+01  0.1111E+01
      6.704  0.4449E-01  0.4449E-01  0.1114E+01  0.1114E+01
      6.779  0.4959E-01  0.4959E-01  0.1118E+01  0.1118E+01
      6.854  0.5039E-01  0.5039E-01  0.1122E+01  0.1122E+01
      6.929  0.4619E-01  0.4619E-01  0.1125E+01  0.1125E+01
      7.004  0.3795E-01  0.3795E-01  0.1128E+01  0.1128E+01
      7.079  0.2838E-01  0.2838E-01  0.1130E+01  0.1130E+01
      7.154  0.2154E-01  0.2154E-01  0.1132E+01  0.1132E+01
      7.229  0.2061E-01  0.2061E-01  0.1133E+01  0.1133E+01
      7.304  0.2519E-01  0.2519E-01  0.1135E+01  0.1135E+01
      7.380  0.3190E-01  0.3190E-01  0.1138E+01  0.1138E+01
      7.455  0.3765E-01  0.3765E-01  0.1140E+01  0.1140E+01
      7.530  0.4072E-01  0.4072E-01  0.1144E+01  0.1144E+01
      7.605  0.3955E-01  0.3955E-01  0.1147E+01  0.1147E+01
      7.680  0.3425E-01  0.3425E-01  0.1149E+01  0.1149E+01
      7.755  0.2851E-01  0.2851E-01  0.1151E+01  0.1151E+01
      7.830  0.2662E-01  0.2662E-01  0.1153E+01  0.1153E+01
      7.905  0.2910E-01  0.2909E-01  0.1155E+01  0.1155E+01
      7.980  0.3306E-01  0.3306E-01  0.1158E+01  0.1158E+01
      8.055  0.3582E-01  0.3582E-01  0.1161E+01  0.1161E+01
      8.130  0.3699E-01  0.3699E-01  0.1163E+01  0.1163E+01
      8.205  0.3771E-01  0.3771E-01  0.1166E+01  0.1166E+01
      8.280  0.3817E-01  0.3817E-01  0.1169E+01  0.1169E+01
      8.355  0.3700E-01  0.3700E-01  0.1172E+01  0.1172E+01
      8.431  0.3365E-01  0.3365E-01  0.1174E+01  0.1174E+01
      8.506  0.2976E-01  0.2976E-01  0.1177E+01  0.1177E+01
      8.581  0.2808E-01  0.2808E-01  0.1179E+01  0.1179E+01
      8.656  0.3066E-01  0.3066E-01  0.1181E+01  0.1181E+01
      8.731  0.3658E-01  0.3658E-01  0.1184E+01  0.1184E+01
      8.806  0.4241E-01  0.4241E-01  0.1187E+01  0.1187E+01
      8.881  0.4611E-01  0.4611E-01  0.1190E+01  0.1190E+01
      8.956  0.4760E-01  0.4760E-01  0.1194E+01  0.1194E+01
      9.031  0.4588E-01  0.4588E-01  0.1197E+01  0.1197E+01
      9.106  0.4018E-01  0.4018E-01  0.1200E+01  0.1200E+01
      9.181  0.3308E-01  0.3308E-01  0.1203E+01  0.1203E+01
      9.256  0.2901E-01  0.2901E-01  0.1205E+01  0.1205E+01
      9.331  0.3063E-01  0.3063E-01  0.1207E+01  0.1207E+01
      9.407  0.3652E-01  0.3652E-01  0.1210E+01  0.1210E+01
      9.482  0.4166E-01  0.4166E-01  0.1213E+01  0.1213E+01
      9.557  0.4252E-01  0.4252E-01  0.1216E+01  0.1216E+01
      9.632  0.4101E-01  0.4101E-01  0.1220E+01  0.1220E+01
      9.707  0.4074E-01  0.4074E-01  0.1223E+01  0.1223E+01
      9.782  0.4188E-01  0.4188E-01  0.1226E+01  0.1226E+01
      9.857  0.4212E-01  0.4212E-01  0.1229E+01  0.1229E+01
      9.932  0.4054E-01  0.4054E-01  0.1232E+01  0.1232E+01
     10.007  0.3869E-01  0.3869E-01  0.1235E+01  0.1235E+01
     10.082  0.3866E-01  0.3866E-01  0.1238E+01  0.1238E+01
     10.157  0.4062E-01  0.4062E-01  0.1241E+01  0.1241E+01
     10.232  0.4356E-01  0.4356E-01  0.1244E+01  0.1244E+01
     10.307  0.4752E-01  0.4752E-01  0.1248E+01  0.1248E+01
     10.382  0.5159E-01  0.5159E-01  0.1251E+01  0.1251E+01
     10.458  0.5228E-01  0.5228E-01  0.1255E+01  0.1255E+01
     10.533  0.4881E-01  0.4881E-01  0.1259E+01  0.1259E+01
     10.608  0.4630E-01  0.4630E-01  0.1263E+01  0.1263E+01
     10.683  0.4871E-01  0.4871E-01  0.1266E+01  0.1266E+01
     10.758  0.5229E-01  0.5229E-01  0.1270E+01  0.1270E+01
     10.833  0.5007E-01  0.5007E-01  0.1274E+01  0.1274E+01
     10.908  0.3995E-01  0.3996E-01  0.1277E+01  0.1277E+01
     10.983  0.2589E-01  0.2589E-01  0.1279E+01  0.1279E+01
     11.058  0.1308E-01  0.1308E-01  0.1280E+01  0.1280E+01
     11.133  0.4390E-02  0.4389E-02  0.1280E+01  0.1280E+01
     11.208  0.1181E-03  0.1170E-03  0.1280E+01  0.1280E+01
     11.283 -0.1019E-02 -0.1019E-02  0.1280E+01  0.1280E+01
     11.358 -0.7685E-03 -0.7686E-03  0.1280E+01  0.1280E+01
     11.433 -0.3338E-03 -0.3337E-03  0.1280E+01  0.1280E+01
     11.509 -0.9882E-04 -0.9878E-04  0.1280E+01  0.1280E+01
     11.584 -0.2092E-04 -0.2090E-04  0.1280E+01  0.1280E+01
     11.659 -0.3228E-05 -0.3225E-05  0.1280E+01  0.1280E+01
     11.734 -0.3671E-06 -0.3667E-06  0.1280E+01  0.1280E+01
     11.809 -0.3095E-07 -0.3091E-07  0.1280E+01  0.1280E+01
     11.884 -0.1943E-08 -0.1940E-08  0.1280E+01  0.1280E+01
     11.959 -0.9107E-10 -0.9091E-10  0.1280E+01  0.1280E+01
     12.034 -0.3194E-11 -0.3187E-11  0.1280E+01  0.1280E+01
     12.109 -0.8393E-13 -0.8375E-13  0.1280E+01  0.1280E+01
     12.184 -0.1651E-14 -0.1650E-14  0.1280E+01  0.1280E+01
     12.259 -0.2465E-16 -0.2465E-16  0.1280E+01  0.1280E+01
     12.334  0.0000E+00  0.0000E+00  0.1280E+01  0.1280E+01
     12.409  0.0000E+00  0.0000E+00  0.1280E+01  0.1280E+01
     12.485  0.0000E+00  0.0000E+00  0.1280E+01  0.1280E+01
     12.560  0.0000E+00  0.0000E+00  0.1280E+01  0.1280E+01
     12.635  0.0000E+00  0.0000E+00  0.1280E+01  0.1280E+01
     12.710  0.0000E+00  0.0000E+00  0.1280E+01  0.1280E+01
     12.785  0.0000E+00  0.0000E+00  0.1280E+01  0.1280E+01
     12.860  0.0000E+00  0.0000E+00  0.1280E+01  0.1280E+01
     12.935  0.0000E+00  0.0000E+00  0.1280E+01  0.1280E+01
     13.010  0.0000E+00  0.0000E+00  0.1280E+01  0.1280E+01
