  146  146  800    2
  0.2250407E+02  0.1089000E-08  0.1089000E-08  0.2770500E-08  0.5000000E-15
  1.000000000000000E-004
  CAR 
 unknown system                          
   1586      3   1024
 
  0.0000000E+00  0.0000000E+00  0.0000000E+00  0.1111111E+00
      1         -7.511932       -7.511932   1.000000   1.000000
      2         -6.908519       -6.908519   1.000000   1.000000
      3         -6.222691       -6.222691   1.000000   1.000000
      4         -6.222279       -6.222279   1.000000   1.000000
      5         -6.221995       -6.221995   1.000000   1.000000
      6         -6.221995       -6.221995   1.000000   1.000000
      7         -6.094689       -6.094689   1.000000   1.000000
      8         -5.657230       -5.657230   1.000000   1.000000
      9         -5.654219       -5.654219   1.000000   1.000000
     10         -5.653960       -5.653960   1.000000   1.000000
     11         -5.653960       -5.653960   1.000000   1.000000
     12         -5.066641       -5.066641   1.000000   1.000000
     13         -5.064929       -5.064929   1.000000   1.000000
     14         -5.064709       -5.064709   1.000000   1.000000
     15         -5.064709       -5.064709   1.000000   1.000000
     16         -5.048860       -5.048860   1.000000   1.000000
     17         -4.917776       -4.917776   1.000000   1.000000
     18         -4.905289       -4.905289   1.000000   1.000000
     19         -4.905249       -4.905249   1.000000   1.000000
     20         -4.905249       -4.905249   1.000000   1.000000
     21         -4.613442       -4.613442   1.000000   1.000000
     22         -4.603133       -4.603133   1.000000   1.000000
     23         -4.603006       -4.603006   1.000000   1.000000
     24         -4.603006       -4.603006   1.000000   1.000000
     25         -4.443225       -4.443225   1.000000   1.000000
     26         -4.061678       -4.061678   1.000000   1.000000
     27         -4.061666       -4.061666   1.000000   1.000000
     28         -4.061666       -4.061666   1.000000   1.000000
     29         -4.056820       -4.056820   1.000000   1.000000
     30         -3.975541       -3.975541   1.000000   1.000000
     31         -3.975541       -3.975541   1.000000   1.000000
     32         -3.975284       -3.975284   1.000000   1.000000
     33         -3.961023       -3.961023   1.000000   1.000000
     34         -3.919836       -3.919836   1.000000   1.000000
     35         -3.512357       -3.512357   1.000000   1.000000
     36         -3.512051       -3.512051   1.000000   1.000000
     37         -3.512051       -3.512051   1.000000   1.000000
     38         -3.511946       -3.511946   1.000000   1.000000
     39         -3.495895       -3.495895   1.000000   1.000000
     40         -3.495435       -3.495435   1.000000   1.000000
     41         -3.495435       -3.495435   1.000000   1.000000
     42         -3.492651       -3.492651   1.000000   1.000000
     43         -3.271138       -3.271138   1.000000   1.000000
     44         -3.121414       -3.121414   1.000000   1.000000
     45         -3.108981       -3.108981   1.000000   1.000000
     46         -3.099382       -3.099382   1.000000   1.000000
     47         -3.098836       -3.098836   1.000000   1.000000
     48         -3.098584       -3.098584   1.000000   1.000000
     49         -3.098584       -3.098584   1.000000   1.000000
     50         -3.058130       -3.058130   1.000000   1.000000
     51         -3.058130       -3.058130   1.000000   1.000000
     52         -3.057579       -3.057579   1.000000   1.000000
     53         -3.052844       -3.052844   1.000000   1.000000
     54         -3.037977       -3.037977   1.000000   1.000000
     55         -3.001839       -3.001839   1.000000   1.000000
     56         -3.001288       -3.001288   1.000000   1.000000
     57         -3.001288       -3.001288   1.000000   1.000000
     58         -2.998767       -2.998767   1.000000   1.000000
     59         -2.986893       -2.986893   1.000000   1.000000
     60         -2.986808       -2.986808   1.000000   1.000000
     61         -2.986808       -2.986808   1.000000   1.000000
     62         -2.986660       -2.986660   1.000000   1.000000
     63         -2.984460       -2.984460   1.000000   1.000000
     64         -2.984460       -2.984460   1.000000   1.000000
     65         -2.984440       -2.984440   1.000000   1.000000
     66         -2.983996       -2.983996   1.000000   1.000000
     67         -2.927871       -2.927871   1.000000   1.000000
     68         -2.921136       -2.921136   1.000000   1.000000
     69         -2.921078       -2.921078   1.000000   1.000000
     70         -2.921078       -2.921078   1.000000   1.000000
     71         -2.920830       -2.920830   1.000000   1.000000
     72         -2.848332       -2.848332   1.000000   1.000000
     73         -2.848332       -2.848332   1.000000   1.000000
     74         -2.848265       -2.848265   1.000000   1.000000
     75         -2.848178       -2.848178   1.000000   1.000000
     76         -2.835028       -2.835028   1.000000   1.000000
     77         -2.835028       -2.835028   1.000000   1.000000
     78         -2.834176       -2.834176   1.000000   1.000000
     79         -2.834117       -2.834117   1.000000   1.000000
     80         -2.828600       -2.828600   1.000000   1.000000
     81         -2.798153       -2.798153   1.000000   1.000000
     82         -2.684381       -2.684381   1.000000   1.000000
     83         -2.665746       -2.665746   1.000000   1.000000
     84         -2.665694       -2.665694   1.000000   1.000000
     85         -2.665694       -2.665694   1.000000   1.000000
     86         -2.665465       -2.665465   1.000000   1.000000
     87         -2.661966       -2.661966   1.000000   1.000000
     88         -2.661391       -2.661391   1.000000   1.000000
     89         -2.661391       -2.661391   1.000000   1.000000
     90         -2.661215       -2.661215   1.000000   1.000000
     91         -2.658881       -2.658881   1.000000   1.000000
     92         -2.658881       -2.658881   1.000000   1.000000
     93         -2.652175       -2.652175   1.000000   1.000000
     94         -2.652130       -2.652130   1.000000   1.000000
     95         -2.652130       -2.652130   1.000000   1.000000
     96         -2.651826       -2.651826   1.000000   1.000000
     97         -2.629466       -2.629466   1.000000   1.000000
     98         -2.628736       -2.628736   1.000000   1.000000
     99         -2.628736       -2.628736   1.000000   1.000000
    100         -2.627582       -2.627582   1.000000   1.000000
    101         -2.607931       -2.607931   1.000000   1.000000
    102         -2.607492       -2.607492   1.000000   1.000000
    103         -2.607492       -2.607492   1.000000   1.000000
    104         -2.607431       -2.607431   1.000000   1.000000
    105         -2.551157       -2.551157   1.000000   1.000000
    106         -2.507094       -2.507094   1.000000   1.000000
    107         -2.474082       -2.474082   1.000000   1.000000
    108         -2.443398       -2.443398   1.000000   1.000000
    109         -2.443398       -2.443398   1.000000   1.000000
    110         -2.413701       -2.413701   1.000000   1.000000
    111         -2.413472       -2.413472   1.000000   1.000000
    112         -2.412522       -2.412522   1.000000   1.000000
    113         -2.412522       -2.412522   1.000000   1.000000
    114         -2.407877       -2.407877   1.000000   1.000000
    115         -2.407877       -2.407877   1.000000   1.000000
    116         -2.407831       -2.407831   1.000000   1.000000
    117         -2.403815       -2.403815   1.000000   1.000000
    118         -2.380230       -2.380230   1.000000   1.000000
    119         -2.379893       -2.379893   1.000000   1.000000
    120         -2.379893       -2.379893   1.000000   1.000000
    121         -2.379887       -2.379887   1.000000   1.000000
    122         -2.346819       -2.346819   1.000000   1.000000
    123         -2.346819       -2.346819   1.000000   1.000000
    124         -2.346794       -2.346794   1.000000   1.000000
    125         -2.346422       -2.346422   1.000000   1.000000
    126         -2.331768       -2.331768   1.000000   1.000000
    127         -2.329941       -2.329941   1.000000   1.000000
    128         -2.329941       -2.329941   1.000000   1.000000
    129         -2.326746       -2.326746   1.000000   1.000000
    130         -2.315172       -2.315172   1.000000   1.000000
    131         -2.314999       -2.314999   1.000000   1.000000
    132         -2.314964       -2.314964   1.000000   1.000000
    133         -2.314964       -2.314964   1.000000   1.000000
    134         -2.314516       -2.314516   1.000000   1.000000
    135         -2.314258       -2.314258   1.000000   1.000000
    136         -2.314258       -2.314258   1.000000   1.000000
    137         -2.314114       -2.314114   1.000000   1.000000
    138         -2.288985       -2.288985   1.000000   1.000000
    139         -2.288620       -2.288620   1.000000   1.000000
    140         -2.288620       -2.288620   1.000000   1.000000
    141         -2.288557       -2.288557   1.000000   1.000000
    142         -2.278896       -2.278896   1.000000   1.000000
    143         -2.278537       -2.278537   1.000000   1.000000
    144         -2.278537       -2.278537   1.000000   1.000000
    145         -2.278138       -2.278138   1.000000   1.000000
    146         -2.251683       -2.251683   1.000000   1.000000
    147         -2.251466       -2.251466   1.000000   1.000000
    148         -2.251466       -2.251466   1.000000   1.000000
    149         -2.251220       -2.251220   1.000000   1.000000
    150         -2.246791       -2.246791   1.000000   1.000000
    151         -2.246713       -2.246713   1.000000   1.000000
    152         -2.246606       -2.246606   1.000000   1.000000
    153         -2.246606       -2.246606   1.000000   1.000000
    154         -2.234019       -2.234019   1.000000   1.000000
    155         -2.187196       -2.187196   1.000000   1.000000
    156         -2.187042       -2.187042   1.000000   1.000000
    157         -2.187042       -2.187042   1.000000   1.000000
    158         -2.186943       -2.186943   1.000000   1.000000
    159         -2.179017       -2.179017   1.000000   1.000000
    160         -2.179017       -2.179017   1.000000   1.000000
    161         -2.178977       -2.178977   1.000000   1.000000
    162         -2.178305       -2.178305   1.000000   1.000000
    163         -2.160371       -2.160371   1.000000   1.000000
    164         -2.159870       -2.159870   1.000000   1.000000
    165         -2.159664       -2.159664   1.000000   1.000000
    166         -2.159663       -2.159663   1.000000   1.000000
    167         -2.158610       -2.158610   1.000000   1.000000
    168         -2.158610       -2.158610   1.000000   1.000000
    169         -2.158479       -2.158479   1.000000   1.000000
    170         -2.158334       -2.158334   1.000000   1.000000
    171         -2.157787       -2.157787   1.000000   1.000000
    172         -2.157787       -2.157787   1.000000   1.000000
    173         -2.122997       -2.122997   1.000000   1.000000
    174         -2.122514       -2.122514   1.000000   1.000000
    175         -2.122414       -2.122414   1.000000   1.000000
    176         -2.122414       -2.122414   1.000000   1.000000
    177         -2.046449       -2.046449   1.000000   1.000000
    178         -2.021193       -2.021193   1.000000   1.000000
    179         -2.020798       -2.020798   1.000000   1.000000
    180         -2.020782       -2.020782   1.000000   1.000000
    181         -2.020782       -2.020782   1.000000   1.000000
    182         -1.991076       -1.991076   1.000000   1.000000
    183         -1.990501       -1.990501   1.000000   1.000000
    184         -1.990501       -1.990501   1.000000   1.000000
    185         -1.990461       -1.990461   1.000000   1.000000
    186         -1.967963       -1.967963   1.000000   1.000000
    187         -1.967963       -1.967963   1.000000   1.000000
    188         -1.967354       -1.967354   1.000000   1.000000
    189         -1.966963       -1.966963   1.000000   1.000000
    190         -1.959665       -1.959665   1.000000   1.000000
    191         -1.932962       -1.932962   1.000000   1.000000
    192         -1.929510       -1.929510   1.000000   1.000000
    193         -1.929510       -1.929510   1.000000   1.000000
    194         -1.929093       -1.929093   1.000000   1.000000
    195         -1.928898       -1.928898   1.000000   1.000000
    196         -1.928676       -1.928676   1.000000   1.000000
    197         -1.928676       -1.928676   1.000000   1.000000
    198         -1.928515       -1.928515   1.000000   1.000000
    199         -1.928448       -1.928448   1.000000   1.000000
    200         -1.845518       -1.845518   1.000000   1.000000
    201         -1.844529       -1.844529   1.000000   1.000000
    202         -1.844529       -1.844529   1.000000   1.000000
    203         -1.844261       -1.844261   1.000000   1.000000
    204         -1.833049       -1.833049   1.000000   1.000000
    205         -1.832360       -1.832360   1.000000   1.000000
    206         -1.832360       -1.832360   1.000000   1.000000
    207         -1.832259       -1.832259   1.000000   1.000000
    208         -1.784497       -1.784497   1.000000   1.000000
    209         -1.784497       -1.784497   1.000000   1.000000
    210         -1.769126       -1.769126   1.000000   1.000000
    211         -1.768888       -1.768888   1.000000   1.000000
    212         -1.768654       -1.768654   1.000000   1.000000
    213         -1.768654       -1.768654   1.000000   1.000000
    214         -1.762824       -1.762824   1.000000   1.000000
    215         -1.762824       -1.762824   1.000000   1.000000
    216         -1.761403       -1.761403   1.000000   1.000000
    217         -1.761203       -1.761203   1.000000   1.000000
    218         -1.742733       -1.742733   1.000000   1.000000
    219         -1.742139       -1.742139   1.000000   1.000000
    220         -1.742139       -1.742139   1.000000   1.000000
    221         -1.741637       -1.741637   1.000000   1.000000
    222         -1.729069       -1.729069   1.000000   1.000000
    223         -1.729069       -1.729069   1.000000   1.000000
    224         -1.728828       -1.728828   1.000000   1.000000
    225         -1.728070       -1.728070   1.000000   1.000000
    226         -1.721400       -1.721400   1.000000   1.000000
    227         -1.721123       -1.721123   1.000000   1.000000
    228         -1.721023       -1.721023   1.000000   1.000000
    229         -1.721023       -1.721023   1.000000   1.000000
    230         -1.663271       -1.663271   1.000000   1.000000
    231         -1.662340       -1.662340   1.000000   1.000000
    232         -1.662340       -1.662340   1.000000   1.000000
    233         -1.661421       -1.661421   1.000000   1.000000
    234         -1.650017       -1.650017   1.000000   1.000000
    235         -1.649939       -1.649939   1.000000   1.000000
    236         -1.649736       -1.649736   1.000000   1.000000
    237         -1.649736       -1.649736   1.000000   1.000000
    238         -1.640928       -1.640928   1.000000   1.000000
    239         -1.633286       -1.633286   1.000000   1.000000
    240         -1.633281       -1.633281   1.000000   1.000000
    241         -1.633137       -1.633137   1.000000   1.000000
    242         -1.633137       -1.633137   1.000000   1.000000
    243         -1.623872       -1.623872   1.000000   1.000000
    244         -1.623754       -1.623754   1.000000   1.000000
    245         -1.623754       -1.623754   1.000000   1.000000
    246         -1.623382       -1.623382   1.000000   1.000000
    247         -1.597273       -1.597273   1.000000   1.000000
    248         -1.595279       -1.595279   1.000000   1.000000
    249         -1.595279       -1.595279   1.000000   1.000000
    250         -1.594834       -1.594834   1.000000   1.000000
    251         -1.544102       -1.544102   1.000000   1.000000
    252         -1.543427       -1.543427   1.000000   1.000000
    253         -1.543427       -1.543427   1.000000   1.000000
    254         -1.543066       -1.543066   1.000000   1.000000
    255         -1.527091       -1.527091   1.000000   1.000000
    256         -1.527091       -1.527091   1.000000   1.000000
    257         -1.527040       -1.527040   1.000000   1.000000
    258         -1.526977       -1.526977   1.000000   1.000000
    259         -1.469338       -1.469338   1.000000   1.000000
    260         -1.469338       -1.469338   1.000000   1.000000
    261         -1.468417       -1.468417   1.000000   1.000000
    262         -1.468155       -1.468155   1.000000   1.000000
    263         -1.468027       -1.468027   1.000000   1.000000
    264         -1.467763       -1.467763   1.000000   1.000000
    265         -1.467763       -1.467763   1.000000   1.000000
    266         -1.467505       -1.467505   1.000000   1.000000
    267         -1.462804       -1.462804   1.000000   1.000000
    268         -1.462731       -1.462731   1.000000   1.000000
    269         -1.462595       -1.462595   1.000000   1.000000
    270         -1.462595       -1.462595   1.000000   1.000000
    271         -1.433592       -1.433592   1.000000   1.000000
    272         -1.433592       -1.433592   1.000000   1.000000
    273         -1.432749       -1.432749   1.000000   1.000000
    274         -1.432144       -1.432144   1.000000   1.000000
    275         -1.426058       -1.426058   1.000000   1.000000
    276         -1.425306       -1.425306   1.000000   1.000000
    277         -1.425306       -1.425306   1.000000   1.000000
    278         -1.424467       -1.424467   1.000000   1.000000
    279         -1.393014       -1.393014   1.000000   1.000000
    280         -1.392887       -1.392887   1.000000   1.000000
    281         -1.392877       -1.392877   1.000000   1.000000
    282         -1.392877       -1.392877   1.000000   1.000000
    283         -1.379793       -1.379793   1.000000   1.000000
    284         -1.377251       -1.377251   1.000000   1.000000
    285         -1.375244       -1.375244   1.000000   1.000000
    286         -1.375244       -1.375244   1.000000   1.000000
    287         -1.375121       -1.375121   1.000000   1.000000
    288         -1.375082       -1.375082   1.000000   1.000000
    289         -1.374721       -1.374721   1.000000   1.000000
    290         -1.374086       -1.374086   1.000000   1.000000
    291         -1.374086       -1.374086   1.000000   1.000000
    292         -1.313186       -1.313186   1.000000   1.000000
    293         -1.312596       -1.312596   1.000000   1.000000
    294         -1.312596       -1.312596   1.000000   1.000000
    295         -1.312109       -1.312109   1.000000   1.000000
    296         -1.288705       -1.288705   1.000000   1.000000
    297         -1.288705       -1.288705   1.000000   1.000000
    298         -1.287224       -1.287224   1.000000   1.000000
    299         -1.286830       -1.286830   1.000000   1.000000
    300         -1.286682       -1.286682   1.000000   1.000000
    301         -1.286682       -1.286682   1.000000   1.000000
    302         -1.281730       -1.281730   1.000000   1.000000
    303         -1.281730       -1.281730   1.000000   1.000000
    304         -1.257989       -1.257989   1.000000   1.000000
    305         -1.256957       -1.256957   1.000000   1.000000
    306         -1.256957       -1.256957   1.000000   1.000000
    307         -1.256627       -1.256627   1.000000   1.000000
    308         -1.255041       -1.255041   1.000000   1.000000
    309         -1.254988       -1.254988   1.000000   1.000000
    310         -1.254988       -1.254988   1.000000   1.000000
    311         -1.254498       -1.254499   1.000000   1.000000
    312         -1.247516       -1.247516   1.000000   1.000000
    313         -1.247516       -1.247516   1.000000   1.000000
    314         -1.247167       -1.247167   1.000000   1.000000
    315         -1.247100       -1.247100   1.000000   1.000000
    316         -1.247091       -1.247091   1.000000   1.000000
    317         -1.246756       -1.246756   1.000000   1.000000
    318         -1.246756       -1.246756   1.000000   1.000000
    319         -1.246333       -1.246333   1.000000   1.000000
    320         -1.241227       -1.241227   1.000000   1.000000
    321         -1.241191       -1.241191   1.000000   1.000000
    322         -1.241191       -1.241191   1.000000   1.000000
    323         -1.241109       -1.241109   1.000000   1.000000
    324         -1.224589       -1.224589   1.000000   1.000000
    325         -1.224451       -1.224451   1.000000   1.000000
    326         -1.224451       -1.224451   1.000000   1.000000
    327         -1.224223       -1.224223   1.000000   1.000000
    328         -1.217568       -1.217568   1.000000   1.000000
    329         -1.190334       -1.190334   1.000000   1.000000
    330         -1.190334       -1.190334   1.000000   1.000000
    331         -1.189818       -1.189818   1.000000   1.000000
    332         -1.189107       -1.189107   1.000000   1.000000
    333         -1.184774       -1.184774   1.000000   1.000000
    334         -1.184774       -1.184774   1.000000   1.000000
    335         -1.184480       -1.184480   1.000000   1.000000
    336         -1.184237       -1.184237   1.000000   1.000000
    337         -1.180737       -1.180737   1.000000   1.000000
    338         -1.180737       -1.180737   1.000000   1.000000
    339         -1.179257       -1.179257   1.000000   1.000000
    340         -1.179180       -1.179180   1.000000   1.000000
    341         -1.176786       -1.176786   1.000000   1.000000
    342         -1.176713       -1.176713   1.000000   1.000000
    343         -1.176613       -1.176613   1.000000   1.000000
    344         -1.176613       -1.176613   1.000000   1.000000
    345         -1.163545       -1.163545   1.000000   1.000000
    346         -1.138322       -1.138322   1.000000   1.000000
    347         -1.137991       -1.137991   1.000000   1.000000
    348         -1.137991       -1.137991   1.000000   1.000000
    349         -1.137189       -1.137189   1.000000   1.000000
    350         -1.122949       -1.122949   1.000000   1.000000
    351         -1.122912       -1.122912   1.000000   1.000000
    352         -1.122912       -1.122912   1.000000   1.000000
    353         -1.122674       -1.122674   1.000000   1.000000
    354         -1.120808       -1.120808   1.000000   1.000000
    355         -1.120590       -1.120590   1.000000   1.000000
    356         -1.120590       -1.120590   1.000000   1.000000
    357         -1.120576       -1.120576   1.000000   1.000000
    358         -1.101771       -1.101771   1.000000   1.000000
    359         -1.101771       -1.101771   1.000000   1.000000
    360         -1.100321       -1.100321   1.000000   1.000000
    361         -1.100321       -1.100321   1.000000   1.000000
    362         -1.100247       -1.100247   1.000000   1.000000
    363         -1.100113       -1.100113   1.000000   1.000000
    364         -1.092172       -1.092172   1.000000   1.000000
    365         -1.091941       -1.091941   1.000000   1.000000
    366         -1.091475       -1.091475   1.000000   1.000000
    367         -1.091475       -1.091475   1.000000   1.000000
    368         -1.082192       -1.082192   1.000000   1.000000
    369         -1.082192       -1.082192   1.000000   1.000000
    370         -1.082003       -1.082003   1.000000   1.000000
    371         -1.081516       -1.081516   1.000000   1.000000
    372         -1.081202       -1.081202   1.000000   1.000000
    373         -1.081017       -1.081017   1.000000   1.000000
    374         -1.080982       -1.080982   1.000000   1.000000
    375         -1.080982       -1.080982   1.000000   1.000000
    376         -1.073966       -1.073966   1.000000   1.000000
    377         -1.073966       -1.073966   1.000000   1.000000
    378         -1.073761       -1.073761   1.000000   1.000000
    379         -1.073681       -1.073681   1.000000   1.000000
    380         -1.053871       -1.053871   1.000000   1.000000
    381         -1.053824       -1.053824   1.000000   1.000000
    382         -1.053824       -1.053824   1.000000   1.000000
    383         -1.052998       -1.052998   1.000000   1.000000
    384         -1.034101       -1.034101   1.000000   1.000000
    385         -1.033744       -1.033744   1.000000   1.000000
    386         -1.033744       -1.033744   1.000000   1.000000
    387         -1.032983       -1.032983   1.000000   1.000000
    388         -1.005940       -1.005940   1.000000   1.000000
    389         -1.005807       -1.005807   1.000000   1.000000
    390         -1.005807       -1.005807   1.000000   1.000000
    391         -1.005677       -1.005677   1.000000   1.000000
    392         -0.914031       -0.914031   1.000000   1.000000
    393         -0.913960       -0.913960   1.000000   1.000000
    394         -0.913789       -0.913789   1.000000   1.000000
    395         -0.913789       -0.913789   1.000000   1.000000
    396         -0.910721       -0.910721   1.000000   1.000000
    397         -0.910024       -0.910024   1.000000   1.000000
    398         -0.909763       -0.909763   1.000000   1.000000
    399         -0.909763       -0.909763   1.000000   1.000000
    400         -0.900565       -0.900565   1.000000   1.000000
    401         -0.896176       -0.896176   1.000000   1.000000
    402         -0.896176       -0.896176   1.000000   1.000000
    403         -0.893294       -0.893294   1.000000   1.000000
    404         -0.886619       -0.886619   1.000000   1.000000
    405         -0.885990       -0.885990   1.000000   1.000000
    406         -0.885173       -0.885173   1.000000   1.000000
    407         -0.885173       -0.885173   1.000000   1.000000
    408         -0.882526       -0.882526   1.000000   1.000000
    409         -0.882354       -0.882354   1.000000   1.000000
    410         -0.881883       -0.881883   1.000000   1.000000
    411         -0.881883       -0.881883   1.000000   1.000000
    412         -0.871130       -0.871130   1.000000   1.000000
    413         -0.871101       -0.871101   1.000000   1.000000
    414         -0.871101       -0.871101   1.000000   1.000000
    415         -0.871059       -0.871059   1.000000   1.000000
    416         -0.870427       -0.870427   1.000000   1.000000
    417         -0.870427       -0.870427   1.000000   1.000000
    418         -0.864261       -0.864261   1.000000   1.000000
    419         -0.864131       -0.864131   1.000000   1.000000
    420         -0.864131       -0.864131   1.000000   1.000000
    421         -0.864007       -0.864007   1.000000   1.000000
    422         -0.831436       -0.831436   1.000000   1.000000
    423         -0.831436       -0.831436   1.000000   1.000000
    424         -0.830723       -0.830723   1.000000   1.000000
    425         -0.830561       -0.830561   1.000000   1.000000
    426         -0.825174       -0.825174   1.000000   1.000000
    427         -0.825174       -0.825174   1.000000   1.000000
    428         -0.823888       -0.823888   1.000000   1.000000
    429         -0.823624       -0.823624   1.000000   1.000000
    430         -0.805423       -0.805423   1.000000   1.000000
    431         -0.805423       -0.805423   1.000000   1.000000
    432         -0.804414       -0.804414   1.000000   1.000000
    433         -0.803479       -0.803479   1.000000   1.000000
    434         -0.803073       -0.803073   1.000000   1.000000
    435         -0.803073       -0.803073   1.000000   1.000000
    436         -0.802116       -0.802116   1.000000   1.000000
    437         -0.801739       -0.801739   1.000000   1.000000
    438         -0.783470       -0.783470   1.000000   1.000000
    439         -0.783470       -0.783470   1.000000   1.000000
    440         -0.782816       -0.782816   1.000000   1.000000
    441         -0.782803       -0.782803   1.000000   1.000000
    442         -0.770129       -0.770129   1.000000   1.000000
    443         -0.768301       -0.768301   1.000000   1.000000
    444         -0.766621       -0.766621   1.000000   1.000000
    445         -0.766621       -0.766621   1.000000   1.000000
    446         -0.763946       -0.763946   1.000000   1.000000
    447         -0.763252       -0.763252   1.000000   1.000000
    448         -0.763236       -0.763236   1.000000   1.000000
    449         -0.763236       -0.763236   1.000000   1.000000
    450         -0.717397       -0.717397   1.000000   1.000000
    451         -0.717397       -0.717397   1.000000   1.000000
    452         -0.716898       -0.716898   1.000000   1.000000
    453         -0.716379       -0.716379   1.000000   1.000000
    454         -0.712579       -0.712579   1.000000   1.000000
    455         -0.712579       -0.712579   1.000000   1.000000
    456         -0.704469       -0.704469   1.000000   1.000000
    457         -0.678844       -0.678844   1.000000   1.000000
    458         -0.677145       -0.677145   1.000000   1.000000
    459         -0.676862       -0.676862   1.000000   1.000000
    460         -0.676862       -0.676862   1.000000   1.000000
    461         -0.676105       -0.676105   1.000000   1.000000
    462         -0.653141       -0.653141   1.000000   1.000000
    463         -0.653141       -0.653141   1.000000   1.000000
    464         -0.652618       -0.652618   1.000000   1.000000