       N       E                     dE             d eps       ncg     rms          rms(c)
DAV:   1     0.155183557390E+05    0.15518E+05   -0.56108E+05 12296   0.190E+03
DAV:   2     0.225499121065E+04   -0.13263E+05   -0.12692E+05 12288   0.452E+02
DAV:   3    -0.388439732856E+03   -0.26434E+04   -0.23919E+04 12312   0.232E+02
DAV:   4    -0.608592461647E+03   -0.22015E+03   -0.20913E+03 13392   0.944E+01
DAV:   5    -0.614524680843E+03   -0.59322E+01   -0.58997E+01 13632   0.157E+01    0.112E+02
DAV:   6    -0.499738619693E+03    0.11479E+03   -0.13800E+03 13424   0.123E+02    0.556E+01
DAV:   7    -0.440747045912E+03    0.58992E+02   -0.31447E+02 13472   0.800E+01    0.296E+01
DAV:   8    -0.443479350126E+03   -0.27323E+01   -0.96693E+01 14312   0.999E+01    0.335E+01
DAV:   9    -0.436481155700E+03    0.69982E+01   -0.36148E+01 16008   0.766E+01    0.296E+01
DAV:  10    -0.428687992503E+03    0.77932E+01   -0.30959E+01 17744   0.492E+01    0.232E+01
DAV:  11    -0.431543383772E+03   -0.28554E+01   -0.12812E+01 19512   0.387E+01    0.211E+01
DAV:  12    -0.441233243602E+03   -0.96899E+01   -0.42733E+01 13760   0.350E+01    0.194E+01
DAV:  13    -0.444690842033E+03   -0.34576E+01   -0.11571E+01 14480   0.249E+01    0.156E+01
DAV:  14    -0.454197756061E+03   -0.95069E+01   -0.17868E+01 13920   0.239E+01    0.879E+00
DAV:  15    -0.465431118421E+03   -0.11233E+02   -0.12928E+01 14768   0.256E+01    0.685E+00
DAV:  16    -0.488238791095E+03   -0.22808E+02   -0.20427E+01 15288   0.111E+01    0.500E+00
DAV:  17    -0.495181361301E+03   -0.69426E+01   -0.55380E+00 13760   0.711E+00    0.356E+00
DAV:  18    -0.498769551250E+03   -0.35882E+01   -0.20541E+00 13864   0.496E+00    0.289E+00
DAV:  19    -0.505998839826E+03   -0.72293E+01   -0.43122E+00 14776   0.410E+00    0.260E+00
DAV:  20    -0.510429748794E+03   -0.44309E+01   -0.22419E+00 14096   0.380E+00    0.228E+00
DAV:  21    -0.512447782006E+03   -0.20180E+01   -0.69452E-01 15104   0.365E+00    0.188E+00
DAV:  22    -0.515562833528E+03   -0.31151E+01   -0.23114E+00 16552   0.343E+00    0.145E+00
DAV:  23    -0.516544724265E+03   -0.98189E+00   -0.18324E-01 15712   0.165E+00    0.126E+00
DAV:  24    -0.518233536476E+03   -0.16888E+01   -0.46945E-01 15520   0.303E+00    0.109E+00
DAV:  25    -0.519240937544E+03   -0.10074E+01   -0.13474E-01 14680   0.212E+00    0.934E-01
DAV:  26    -0.519548208589E+03   -0.30727E+00   -0.38435E-02 14296   0.110E+00    0.533E-01
DAV:  27    -0.520482075429E+03   -0.93387E+00   -0.39731E-02 13840   0.143E+00    0.357E-01
DAV:  28    -0.521103256206E+03   -0.62118E+00   -0.12168E-02 16456   0.681E-01    0.290E-01
DAV:  29    -0.521294116211E+03   -0.19086E+00   -0.64678E-03 13752   0.594E-01    0.172E-01
DAV:  30    -0.521329279780E+03   -0.35164E-01   -0.31707E-03 14400   0.347E-01    0.674E-02
DAV:  31    -0.521347203454E+03   -0.17924E-01   -0.10414E-03 11600   0.144E-01    0.635E-02
DAV:  32    -0.521349407383E+03   -0.22039E-02   -0.46274E-04  9072   0.128E-01    0.344E-02
DAV:  33    -0.521350034142E+03   -0.62676E-03   -0.22624E-04  8544   0.679E-02    0.157E-02
DAV:  34    -0.521350068424E+03   -0.34282E-04   -0.86359E-05  8168   0.401E-02
   1 F= -.58166434E+03 E0= -.58170122E+03  d E =-.581664E+03  mag=     0.0013
       N       E                     dE             d eps       ncg     rms          rms(c)
DAV:   1    -0.521427011625E+03   -0.76977E-01   -0.65905E+01 13280   0.779E+00    0.759E-01
DAV:   2    -0.521589002725E+03   -0.16199E+00   -0.17043E+00 17936   0.326E+00    0.100E+00
DAV:   3    -0.521581459370E+03    0.75434E-02   -0.60856E-02 13696   0.193E+00    0.619E-01
DAV:   4    -0.521582905743E+03   -0.14464E-02   -0.12547E-02 14592   0.168E+00    0.600E-01
DAV:   5    -0.521579473784E+03    0.34320E-02   -0.54539E-03 15320   0.176E+00    0.475E-01
DAV:   6    -0.521577095322E+03    0.23785E-02   -0.81902E-03 21544   0.148E+00    0.272E-01
DAV:   7    -0.521575074454E+03    0.20209E-02   -0.53437E-03 15080   0.121E+00    0.103E-01
DAV:   8    -0.521575233171E+03   -0.15872E-03   -0.45889E-03 15184   0.372E-01    0.598E-02
DAV:   9    -0.521575408924E+03   -0.17575E-03   -0.19864E-03 12672   0.155E-01
   2 F= -.58189682E+03 E0= -.58193350E+03  d E =-.232478E+00  mag=     0.0010
       N       E                     dE             d eps       ncg     rms          rms(c)
DAV:   1    -0.521389891736E+03    0.18534E+00   -0.10705E+02 13656   0.102E+01    0.910E-01
DAV:   2    -0.521641926766E+03   -0.25204E+00   -0.26322E+00 17792   0.409E+00    0.121E+00
DAV:   3    -0.521632880725E+03    0.90460E-02   -0.11771E-01 13640   0.248E+00    0.751E-01
DAV:   4    -0.521633463230E+03   -0.58251E-03   -0.22089E-02 14472   0.177E+00    0.707E-01
DAV:   5    -0.521630539840E+03    0.29234E-02   -0.92317E-03 14872   0.187E+00    0.599E-01
DAV:   6    -0.521626953537E+03    0.35863E-02   -0.12540E-02 22576   0.188E+00    0.350E-01
DAV:   7    -0.521623124440E+03    0.38291E-02   -0.78595E-03 15680   0.154E+00    0.126E-01
DAV:   8    -0.521623345180E+03   -0.22074E-03   -0.68016E-03 15088   0.447E-01    0.778E-02
DAV:   9    -0.521623618383E+03   -0.27320E-03   -0.32043E-03 12872   0.191E-01    0.525E-02
DAV:  10    -0.521623618253E+03    0.13015E-06   -0.26543E-04  7792   0.144E-01
   3 F= -.58195636E+03 E0= -.58199267E+03  d E =-.292013E+00  mag=     0.0006
       N       E                     dE             d eps       ncg     rms          rms(c)
DAV:   1    -0.521623177606E+03    0.44078E-03   -0.41331E+00 13088   0.196E+00    0.151E-01
DAV:   2    -0.521632080878E+03   -0.89033E-02   -0.92330E-02 17456   0.579E-01    0.210E-01
DAV:   3    -0.521631956983E+03    0.12389E-03   -0.33154E-03 13800   0.336E-01    0.155E-01
DAV:   4    -0.521631930803E+03    0.26181E-04   -0.31893E-04  9144   0.262E-01
   4 F= -.58196219E+03 E0= -.58199864E+03  d E =-.297843E+00  mag=     0.0005
       N       E                     dE             d eps       ncg     rms          rms(c)
DAV:   1    -0.521646431011E+03   -0.14474E-01   -0.19825E+01 12920   0.456E+00    0.416E-01
DAV:   2    -0.521693399569E+03   -0.46969E-01   -0.47037E-01 18240   0.170E+00    0.536E-01
DAV:   3    -0.521694152828E+03   -0.75326E-03   -0.41503E-02 13984   0.200E+00    0.474E-01
DAV:   4    -0.521692241721E+03    0.19111E-02   -0.64356E-03 13864   0.995E-01    0.347E-01
DAV:   5    -0.521691840234E+03    0.40149E-03   -0.45363E-03 16696   0.693E-01    0.310E-01
DAV:   6    -0.521690960126E+03    0.88011E-03   -0.54503E-03 16664   0.100E+00    0.183E-01
DAV:   7    -0.521690438288E+03    0.52184E-03   -0.36507E-03 16672   0.631E-01    0.740E-02
DAV:   8    -0.521690459842E+03   -0.21554E-04   -0.15223E-03 13128   0.205E-01
   5 F= -.58201483E+03 E0= -.58205118E+03  d E =-.526440E-01  mag=     0.0003
       N       E                     dE             d eps       ncg     rms          rms(c)
DAV:   1    -0.521691555563E+03   -0.11173E-02   -0.83790E-01 12952   0.946E-01    0.898E-02
DAV:   2    -0.521693557826E+03   -0.20023E-02   -0.20986E-02 17256   0.293E-01    0.103E-01
DAV:   3    -0.521693566437E+03   -0.86114E-05   -0.99497E-04 13656   0.233E-01
   6 F= -.58201689E+03 E0= -.58205323E+03  d E =-.547009E-01  mag=     0.0003
       N       E                     dE             d eps       ncg     rms          rms(c)
DAV:   1    -0.521715736938E+03   -0.22179E-01   -0.55507E+00 13032   0.240E+00    0.214E-01
DAV:   2    -0.521726968898E+03   -0.11232E-01   -0.11214E-01 18376   0.844E-01    0.272E-01
DAV:   3    -0.521726990224E+03   -0.21326E-04   -0.10626E-02 13480   0.903E-01    0.244E-01
DAV:   4    -0.521726772553E+03    0.21767E-03   -0.20535E-03 13264   0.306E-01    0.199E-01
DAV:   5    -0.521726415716E+03    0.35684E-03   -0.10981E-03 13480   0.329E-01    0.159E-01
DAV:   6    -0.521726058880E+03    0.35684E-03   -0.19206E-03 14392   0.362E-01    0.308E-02
DAV:   7    -0.521726044918E+03    0.13962E-04   -0.29342E-04  8320   0.144E-01
   7 F= -.58204745E+03 E0= -.58208369E+03  d E =-.305618E-01  mag=     0.0002
       N       E                     dE             d eps       ncg     rms          rms(c)
DAV:   1    -0.521714051930E+03    0.12007E-01   -0.17959E+01 12968   0.432E+00    0.352E-01
DAV:   2    -0.521753017743E+03   -0.38966E-01   -0.40308E-01 17688   0.135E+00    0.460E-01
DAV:   3    -0.521752771765E+03    0.24598E-03   -0.16166E-02 13928   0.100E+00    0.357E-01
DAV:   4    -0.521752705747E+03    0.66018E-04   -0.26036E-03 13752   0.930E-01    0.334E-01
DAV:   5    -0.521751672553E+03    0.10332E-02   -0.10571E-03 13792   0.795E-01    0.272E-01
DAV:   6    -0.521750436621E+03    0.12359E-02   -0.39626E-03 20656   0.546E-01    0.119E-01
DAV:   7    -0.521750372267E+03    0.64354E-04   -0.18071E-03 13472   0.279E-01
   8 F= -.58206887E+03 E0= -.58210507E+03  d E =-.519853E-01  mag=     0.0001
       N       E                     dE             d eps       ncg     rms          rms(c)
DAV:   1    -0.521762546548E+03   -0.12110E-01   -0.21631E+00 12856   0.151E+00    0.120E-01
DAV:   2    -0.521767464964E+03   -0.49184E-02   -0.50957E-02 17136   0.403E-01    0.144E-01
DAV:   3    -0.521767423265E+03    0.41699E-04   -0.14457E-03 13744   0.297E-01
   9 F= -.58208459E+03 E0= -.58212102E+03  d E =-.157132E-01  mag=     0.0001
       N       E                     dE             d eps       ncg     rms          rms(c)
DAV:   1    -0.521770334712E+03   -0.28697E-02   -0.19514E+01 12760   0.451E+00    0.441E-01
DAV:   2    -0.521810027482E+03   -0.39693E-01   -0.43060E-01 17144   0.125E+00    0.515E-01
DAV:   3    -0.521809896410E+03    0.13107E-03   -0.21159E-02 13816   0.113E+00    0.468E-01
DAV:   4    -0.521808915328E+03    0.98108E-03   -0.25913E-03 13904   0.818E-01    0.394E-01
DAV:   5    -0.521808202669E+03    0.71266E-03   -0.21803E-03 18152   0.102E+00    0.317E-01
DAV:   6    -0.521805787185E+03    0.24155E-02   -0.60769E-03 22760   0.981E-01    0.161E-01
DAV:   7    -0.521805744765E+03    0.42419E-04   -0.25224E-03 16520   0.382E-01    0.117E-01
DAV:   8    -0.521805572477E+03    0.17229E-03   -0.10125E-03 12984   0.286E-01
  10 F= -.58211892E+03 E0= -.58215556E+03  d E =-.500515E-01  mag=     0.0001
       N       E                     dE             d eps       ncg     rms          rms(c)
DAV:   1    -0.521671623540E+03    0.13412E+00   -0.78094E+01 12768   0.905E+00    0.797E-01
DAV:   2    -0.521849638168E+03   -0.17801E+00   -0.18302E+00 17768   0.339E+00    0.111E+00
DAV:   3    -0.521845136605E+03    0.45016E-02   -0.84956E-02 14512   0.305E+00    0.836E-01
DAV:   4    -0.521841302622E+03    0.38340E-02   -0.17117E-02 14392   0.183E+00    0.757E-01
DAV:   5    -0.521835305911E+03    0.59967E-02   -0.17544E-02 16376   0.149E+00    0.574E-01
DAV:   6    -0.521830241344E+03    0.50646E-02   -0.27670E-02 16664   0.130E+00    0.137E-01
DAV:   7    -0.521830803052E+03   -0.56171E-03   -0.88319E-03 16672   0.566E-01    0.104E-01
DAV:   8    -0.521830925230E+03   -0.12218E-03   -0.33355E-03 13336   0.418E-01    0.741E-02
DAV:   9    -0.521830940396E+03   -0.15166E-04   -0.13516E-03 12712   0.245E-01
  11 F= -.58213751E+03 E0= -.58217465E+03  d E =-.686399E-01  mag=     0.0000
       N       E                     dE             d eps       ncg     rms          rms(c)
DAV:   1    -0.521827114176E+03    0.38111E-02   -0.54066E+00 12600   0.236E+00    0.273E-01
DAV:   2    -0.521840130381E+03   -0.13016E-01   -0.13211E-01 18808   0.962E-01    0.331E-01
DAV:   3    -0.521839589578E+03    0.54080E-03   -0.87278E-03 14688   0.980E-01    0.264E-01
DAV:   4    -0.521839198027E+03    0.39155E-03   -0.20054E-03 13576   0.525E-01    0.219E-01
DAV:   5    -0.521839222045E+03   -0.24018E-04   -0.28121E-03 15200   0.645E-01    0.189E-01
DAV:   6    -0.521838633219E+03    0.58883E-03   -0.23366E-03 14224   0.633E-01    0.592E-02
DAV:   7    -0.521838636263E+03   -0.30441E-05   -0.86906E-04 11736   0.200E-01
  12 F= -.58214821E+03 E0= -.58218548E+03  d E =-.106984E-01  mag=     0.0000
       N       E                     dE             d eps       ncg     rms          rms(c)
DAV:   1    -0.521838610343E+03    0.22876E-04   -0.40395E-03 17168   0.946E-02    0.206E-02
DAV:   2    -0.521838658674E+03   -0.48332E-04   -0.14096E-04  8008   0.157E-01
  13 F= -.58214831E+03 E0= -.58218556E+03  d E =-.108027E-01  mag=     0.0000
       N       E                     dE             d eps       ncg     rms          rms(c)
DAV:   1    -0.521842376918E+03   -0.37666E-02   -0.18243E+00 12768   0.138E+00    0.113E-01
DAV:   2    -0.521846509605E+03   -0.41327E-02   -0.42654E-02 17120   0.417E-01    0.146E-01
DAV:   3    -0.521846526084E+03   -0.16479E-04   -0.22939E-03 13808   0.385E-01    0.131E-01
DAV:   4    -0.521846457429E+03    0.68655E-04   -0.30839E-04  8096   0.248E-01
  14 F= -.58216034E+03 E0= -.58219760E+03  d E =-.120272E-01  mag=     0.0000
       N       E                     dE             d eps       ncg     rms          rms(c)
DAV:   1    -0.521818774655E+03    0.27751E-01   -0.16457E+01 12792   0.411E+00    0.385E-01
DAV:   2    -0.521855068376E+03   -0.36294E-01   -0.37919E-01 17312   0.140E+00    0.498E-01
DAV:   3    -0.521854720598E+03    0.34778E-03   -0.22024E-02 13856   0.133E+00    0.410E-01
DAV:   4    -0.521853878821E+03    0.84178E-03   -0.37807E-03 14480   0.706E-01    0.358E-01
DAV:   5    -0.521853453717E+03    0.42510E-03   -0.29756E-03 16344   0.929E-01    0.288E-01
DAV:   6    -0.521851673341E+03    0.17804E-02   -0.48066E-03 19544   0.102E+00    0.106E-01
DAV:   7    -0.521851505495E+03    0.16785E-03   -0.20658E-03 17704   0.403E-01    0.665E-02
DAV:   8    -0.521851584242E+03   -0.78746E-04   -0.15004E-03 12584   0.147E-01
  15 F= -.58217833E+03 E0= -.58221580E+03  d E =-.300170E-01  mag=     0.0000
       N       E                     dE             d eps       ncg     rms          rms(c)
DAV:   1    -0.521840290364E+03    0.11215E-01   -0.42659E+00 12768   0.209E+00    0.198E-01
DAV:   2    -0.521849746925E+03   -0.94566E-02   -0.99374E-02 17712   0.590E-01    0.230E-01
DAV:   3    -0.521849635933E+03    0.11099E-03   -0.36512E-03 13744   0.313E-01    0.187E-01
DAV:   4    -0.521849678876E+03   -0.42943E-04   -0.52958E-04 10928   0.425E-01
  16 F= -.58218760E+03 E0= -.58222483E+03  d E =-.927064E-02  mag=     0.0000
       N       E                     dE             d eps       ncg     rms          rms(c)
DAV:   1    -0.521849451316E+03    0.18462E-03   -0.10075E-02 22512   0.787E-01    0.180E-01
DAV:   2    -0.521870359556E+03   -0.20908E-01   -0.80824E-04 16040   0.320E+00    0.624E-01
DAV:   3    -0.521848548166E+03    0.21811E-01   -0.55194E-04 14336   0.267E+00    0.928E-02
DAV:   4    -0.521848467058E+03    0.81108E-04   -0.37186E-04  9280   0.402E-01
  17 F= -.58218696E+03 E0= -.58222428E+03  d E =-.863067E-02  mag=     0.0000
       N       E                     dE             d eps       ncg     rms          rms(c)
DAV:   1    -0.521848943978E+03   -0.39581E-03   -0.63082E-03 21424   0.330E-01    0.512E-02
DAV:   2    -0.521849276064E+03   -0.33209E-03   -0.69114E-04 12088   0.525E-01    0.105E-01
DAV:   3    -0.521849001011E+03    0.27505E-03   -0.26842E-04  8296   0.455E-01    0.408E-02
DAV:   4    -0.521848931447E+03    0.69565E-04   -0.67058E-05  7752   0.184E-01
  18 F= -.58218697E+03 E0= -.58222451E+03  d E =-.864173E-02  mag=     0.0000
       N       E                     dE             d eps       ncg     rms          rms(c)
DAV:   1    -0.521842207351E+03    0.67937E-02   -0.30704E+00 12976   0.177E+00    0.130E-01
DAV:   2    -0.521848333969E+03   -0.61266E-02   -0.63546E-02 17184   0.518E-01    0.176E-01
DAV:   3    -0.521848313509E+03    0.20461E-04   -0.29481E-03 13360   0.304E-01    0.136E-01
DAV:   4    -0.521848283318E+03    0.30190E-04   -0.40153E-04  8880   0.240E-01
  19 F= -.58219535E+03 E0= -.58223300E+03  d E =-.837426E-02  mag=     0.0000
       N       E                     dE             d eps       ncg     rms          rms(c)
DAV:   1    -0.521823435726E+03    0.24878E-01   -0.10150E+01 13056   0.325E+00    0.287E-01
DAV:   2    -0.521843965230E+03   -0.20530E-01   -0.18721E-01 20040   0.143E+00    0.412E-01
DAV:   3    -0.521841982994E+03    0.19822E-02   -0.22950E-02 14264   0.144E+00    0.324E-01
DAV:   4    -0.521842072228E+03   -0.89234E-04   -0.90212E-03 13088   0.429E-01    0.273E-01
DAV:   5    -0.521841530835E+03    0.54139E-03   -0.10405E-03 13528   0.214E-01    0.172E-01
DAV:   6    -0.521840765540E+03    0.76530E-03   -0.44393E-03 15104   0.575E-01    0.832E-02
DAV:   7    -0.521840733365E+03    0.32175E-04   -0.99214E-04 12552   0.216E-01
  20 F= -.58220419E+03 E0= -.58224198E+03  d E =-.172192E-01  mag=     0.0000
       N       E                     dE             d eps       ncg     rms          rms(c)
DAV:   1    -0.521726635414E+03    0.11413E+00   -0.40519E+01 13008   0.644E+00    0.507E-01
DAV:   2    -0.521810948919E+03   -0.84314E-01   -0.87967E-01 17232   0.209E+00    0.697E-01
DAV:   3    -0.521809383844E+03    0.15651E-02   -0.41849E-02 13520   0.116E+00    0.494E-01
DAV:   4    -0.521808605784E+03    0.77806E-03   -0.68330E-03 14096   0.651E-01    0.453E-01
DAV:   5    -0.521811176958E+03   -0.25712E-02   -0.23793E-03 14920   0.157E+00    0.459E-01
DAV:   6    -0.521805928456E+03    0.52485E-02   -0.31673E-03 20208   0.180E+00    0.217E-01
DAV:   7    -0.521804628440E+03    0.13000E-02   -0.43131E-03 20760   0.880E-01    0.127E-01
DAV:   8    -0.521804449545E+03    0.17889E-03   -0.21870E-03 15664   0.397E-01    0.707E-02
DAV:   9    -0.521804527510E+03   -0.77965E-04   -0.16252E-03 12432   0.172E-01
  21 F= -.58220095E+03 E0= -.58223904E+03  d E =-.139770E-01  mag=     0.0000
       N       E                     dE             d eps       ncg     rms          rms(c)
DAV:   1    -0.521799200350E+03    0.52492E-02   -0.17754E+01 12960   0.426E+00    0.317E-01
DAV:   2    -0.521834732804E+03   -0.35532E-01   -0.36988E-01 17144   0.125E+00    0.440E-01
DAV:   3    -0.521834402693E+03    0.33011E-03   -0.13961E-02 13928   0.900E-01    0.344E-01
DAV:   4    -0.521834126269E+03    0.27642E-03   -0.19806E-03 13984   0.680E-01    0.332E-01
DAV:   5    -0.521833562562E+03    0.56371E-03   -0.72880E-04 11216   0.797E-01    0.265E-01
DAV:   6    -0.521832076372E+03    0.14862E-02   -0.43166E-03 22088   0.696E-01    0.129E-01
DAV:   7    -0.521831820451E+03    0.25592E-03   -0.16453E-03 14896   0.480E-01    0.978E-02
DAV:   8    -0.521831767052E+03    0.53400E-04   -0.11034E-03 12432   0.179E-01
  22 F= -.58220633E+03 E0= -.58224418E+03  d E =-.193595E-01  mag=     0.0000
       N       E                     dE             d eps       ncg     rms          rms(c)
DAV:   1    -0.521826633894E+03    0.51866E-02   -0.60484E-01 13000   0.785E-01    0.622E-02
DAV:   2    -0.521827832665E+03   -0.11988E-02   -0.12363E-02 18280   0.307E-01    0.994E-02
DAV:   3    -0.521827788320E+03    0.44344E-04   -0.62126E-04 10952   0.241E-01
  23 F= -.58220638E+03 E0= -.58224423E+03  d E =-.194083E-01  mag=     0.0000
       N       E                     dE             d eps       ncg     rms          rms(c)
DAV:   1    -0.521829705198E+03   -0.18725E-02   -0.20603E-01 13104   0.478E-01    0.614E-02
DAV:   2    -0.521830178660E+03   -0.47346E-03   -0.35652E-03 18136   0.312E-01    0.596E-02
DAV:   3    -0.521830252041E+03   -0.73381E-04   -0.10420E-03 13232   0.475E-01
  24 F= -.58220648E+03 E0= -.58224448E+03  d E =-.195059E-01  mag=     0.0000
       N       E                     dE             d eps       ncg     rms          rms(c)
DAV:   1    -0.521827681882E+03    0.24968E-02   -0.15440E+00 13112   0.126E+00    0.105E-01
DAV:   2    -0.521830844128E+03   -0.31622E-02   -0.33099E-02 17616   0.433E-01    0.143E-01
DAV:   3    -0.521830784982E+03    0.59146E-04   -0.16076E-03 13152   0.371E-01
  25 F= -.58221167E+03 E0= -.58224970E+03  d E =-.519546E-02  mag=     0.0000
       N       E                     dE             d eps       ncg     rms          rms(c)
DAV:   1    -0.521825917158E+03    0.49270E-02   -0.18302E+00 13144   0.136E+00    0.152E-01
DAV:   2    -0.521829353763E+03   -0.34366E-02   -0.36680E-02 17800   0.512E-01    0.183E-01
DAV:   3    -0.521829281018E+03    0.72745E-04   -0.30072E-03 13528   0.501E-01    0.153E-01
DAV:   4    -0.521829167306E+03    0.11371E-03   -0.76751E-04 11496   0.312E-01
  26 F= -.58221516E+03 E0= -.58225321E+03  d E =-.867798E-02  mag=     0.0000
       N       E                     dE             d eps       ncg     rms          rms(c)
DAV:   1    -0.521805026020E+03    0.24255E-01   -0.72824E+00 13088   0.268E+00    0.233E-01
DAV:   2    -0.521819197588E+03   -0.14172E-01   -0.14543E-01 17472   0.834E-01    0.289E-01
DAV:   3    -0.521819330094E+03   -0.13251E-03   -0.10425E-02 13632   0.949E-01    0.260E-01
DAV:   4    -0.521818957195E+03    0.37290E-03   -0.18053E-03 13344   0.677E-01    0.200E-01
DAV:   5    -0.521818738574E+03    0.21862E-03   -0.60770E-04 10592   0.493E-01    0.178E-01
DAV:   6    -0.521818422899E+03    0.31568E-03   -0.21308E-03 17864   0.540E-01    0.104E-01
DAV:   7    -0.521818365632E+03    0.57266E-04   -0.12756E-03 13328   0.329E-01
  27 F= -.58221468E+03 E0= -.58225288E+03  d E =-.820439E-02  mag=     0.0000
       N       E                     dE             d eps       ncg     rms          rms(c)
DAV:   1    -0.521821233685E+03   -0.28108E-02   -0.29934E+00 13104   0.170E+00    0.149E-01
DAV:   2    -0.521826910254E+03   -0.56766E-02   -0.58811E-02 18520   0.713E-01    0.221E-01
DAV:   3    -0.521826709437E+03    0.20082E-03   -0.33957E-03 14224   0.635E-01    0.142E-01
DAV:   4    -0.521826548792E+03    0.16065E-03   -0.70511E-04 11680   0.340E-01
  28 F= -.58221622E+03 E0= -.58225421E+03  d E =-.973816E-02  mag=     0.0000
       N       E                     dE             d eps       ncg     rms          rms(c)
DAV:   1    -0.521824419853E+03    0.22896E-02   -0.75470E-01 13104   0.895E-01    0.125E-01
DAV:   2    -0.521826155083E+03   -0.17352E-02   -0.15160E-02 22296   0.623E-01    0.125E-01
DAV:   3    -0.521826117432E+03    0.37650E-04   -0.24061E-03 13456   0.721E-01    0.118E-01
DAV:   4    -0.521825904004E+03    0.21343E-03   -0.38016E-04  9672   0.468E-01    0.646E-02
DAV:   5    -0.521825850432E+03    0.53572E-04   -0.44458E-04  9016   0.283E-01
  29 F= -.58221865E+03 E0= -.58225677E+03  d E =-.243748E-02  mag=     0.0000
       N       E                     dE             d eps       ncg     rms          rms(c)
DAV:   1    -0.521824101491E+03    0.18025E-02   -0.20529E-01 13200   0.483E-01    0.555E-02
DAV:   2    -0.521824527080E+03   -0.42559E-03   -0.46592E-03 17952   0.159E-01    0.571E-02
DAV:   3    -0.521824525121E+03    0.19593E-05   -0.37182E-04  8848   0.127E-01
  30 F= -.58221900E+03 E0= -.58225708E+03  d E =-.278098E-02  mag=     0.0000
       N       E                     dE             d eps       ncg     rms          rms(c)
DAV:   1    -0.521824820490E+03   -0.29341E-03   -0.69505E-03 18080   0.138E-01    0.282E-02
DAV:   2    -0.521825157950E+03   -0.33746E-03   -0.87071E-05  8032   0.401E-01    0.803E-02
DAV:   3    -0.521824814909E+03    0.34304E-03   -0.13890E-05  7920   0.351E-01    0.127E-02
DAV:   4    -0.521824821140E+03   -0.62317E-05   -0.20720E-05  7680   0.765E-02
  31 F= -.58221898E+03 E0= -.58225696E+03  d E =-.276359E-02  mag=     0.0000
       N       E                     dE             d eps       ncg     rms          rms(c)
DAV:   1    -0.521824665932E+03    0.14898E-03   -0.13561E-03 14000   0.712E-02    0.697E-03
DAV:   2    -0.521824677047E+03   -0.11116E-04   -0.97794E-05  7088   0.382E-02
  32 F= -.58221898E+03 E0= -.58225700E+03  d E =-.276181E-02  mag=     0.0000
       N       E                     dE             d eps       ncg     rms          rms(c)
DAV:   1    -0.521824752009E+03   -0.86077E-04   -0.33207E-04  8272   0.531E-02    0.118E-02
DAV:   2    -0.521824789026E+03   -0.37017E-04   -0.13884E-04  7488   0.137E-01
  33 F= -.58221900E+03 E0= -.58225697E+03  d E =-.277969E-02  mag=     0.0000
       N       E                     dE             d eps       ncg     rms          rms(c)
DAV:   1    -0.521824694789E+03    0.57220E-04   -0.34412E-05  7616   0.123E-01    0.642E-03
DAV:   2    -0.521824739055E+03   -0.44266E-04   -0.15449E-05  7472   0.135E-01
  34 F= -.58221902E+03 E0= -.58225698E+03  d E =-.280062E-02  mag=     0.0000
       N       E                     dE             d eps       ncg     rms          rms(c)
DAV:   1    -0.521824736462E+03   -0.41673E-04   -0.90216E-06  7472   0.116E-01    0.179E-03
DAV:   2    -0.521824739624E+03   -0.31627E-05   -0.28604E-06  7056   0.346E-02
  35 F= -.58221898E+03 E0= -.58225704E+03  d E =-.276573E-02  mag=     0.0000
       N       E                     dE             d eps       ncg     rms          rms(c)
DAV:   1    -0.521824731871E+03    0.45911E-05   -0.10967E-05  6272   0.339E-02    0.185E-03
DAV:   2    -0.521824733620E+03   -0.17495E-05   -0.17063E-05  6240   0.982E-03
  36 F= -.58221898E+03 E0= -.58225702E+03  d E =-.276584E-02  mag=     0.0000
       N       E                     dE             d eps       ncg     rms          rms(c)
DAV:   1    -0.521824969376E+03   -0.23750E-03   -0.10517E-01 12952   0.326E-01    0.239E-02
DAV:   2    -0.521825175914E+03   -0.20654E-03   -0.21239E-03 16608   0.955E-02    0.324E-02
DAV:   3    -0.521825175903E+03    0.10419E-07   -0.94525E-05  7168   0.705E-02
  37 F= -.58221984E+03 E0= -.58225790E+03  d E =-.855486E-03  mag=     0.0000
       N       E                     dE             d eps       ncg     rms          rms(c)
DAV:   1    -0.521824271563E+03    0.90435E-03   -0.95007E-01 12968   0.980E-01    0.844E-02
DAV:   2    -0.521826082910E+03   -0.18113E-02   -0.19340E-02 17152   0.261E-01    0.102E-01
DAV:   3    -0.521826062418E+03    0.20492E-04   -0.65145E-04 10992   0.140E-01
  38 F= -.58222197E+03 E0= -.58226000E+03  d E =-.298669E-02  mag=     0.0000
       N       E                     dE             d eps       ncg     rms          rms(c)
DAV:   1    -0.521818830132E+03    0.72528E-02   -0.38026E+00 12960   0.197E+00    0.191E-01
DAV:   2    -0.521826024665E+03   -0.71945E-02   -0.68257E-02 19312   0.852E-01    0.259E-01
DAV:   3    -0.521825474961E+03    0.54970E-03   -0.84734E-03 13768   0.826E-01    0.206E-01
DAV:   4    -0.521825455556E+03    0.19406E-04   -0.30751E-03 13024   0.252E-01    0.173E-01
DAV:   5    -0.521825273037E+03    0.18252E-03   -0.53104E-04 10456   0.216E-01
  39 F= -.58222369E+03 E0= -.58226151E+03  d E =-.470952E-02  mag=     0.0000
       N       E                     dE             d eps       ncg     rms          rms(c)
DAV:   1    -0.521825919612E+03   -0.46406E-03   -0.54316E-01 14072   0.844E-01    0.792E-02
DAV:   2    -0.521827114730E+03   -0.11951E-02   -0.11196E-02 19136   0.348E-01    0.108E-01
DAV:   3    -0.521827040942E+03    0.73788E-04   -0.17254E-03 13688   0.408E-01
  40 F= -.58222509E+03 E0= -.58226309E+03  d E =-.140182E-02  mag=     0.0000
       N       E                     dE             d eps       ncg     rms          rms(c)
DAV:   1    -0.521827244361E+03   -0.12963E-03   -0.22202E-01 12888   0.525E-01    0.974E-02
DAV:   2    -0.521828133097E+03   -0.88874E-03   -0.51450E-03 20016   0.566E-01    0.135E-01
DAV:   3    -0.521827577162E+03    0.55594E-03   -0.61330E-04 10392   0.529E-01    0.783E-02
DAV:   4    -0.521827539370E+03    0.37792E-04   -0.53645E-04  9952   0.198E-01
  41 F= -.58222538E+03 E0= -.58226362E+03  d E =-.168882E-02  mag=     0.0000
       N       E                     dE             d eps       ncg     rms          rms(c)
DAV:   1    -0.521828616849E+03   -0.10397E-02   -0.13734E-01 15480   0.459E-01    0.551E-02
DAV:   2    -0.521829002704E+03   -0.38585E-03   -0.27156E-03 16352   0.432E-01    0.890E-02
DAV:   3    -0.521828816599E+03    0.18611E-03   -0.46309E-04  8616   0.322E-01
  42 F= -.58222654E+03 E0= -.58226464E+03  d E =-.116264E-02  mag=     0.0000
       N       E                     dE             d eps       ncg     rms          rms(c)
DAV:   1    -0.521828697266E+03    0.30544E-03   -0.12197E+00 12576   0.112E+00    0.125E-01
DAV:   2    -0.521831486247E+03   -0.27890E-02   -0.30254E-02 17280   0.332E-01    0.146E-01
DAV:   3    -0.521831457062E+03    0.29185E-04   -0.14572E-03 13392   0.282E-01
  43 F= -.58222887E+03 E0= -.58226698E+03  d E =-.349096E-02  mag=     0.0000
       N       E                     dE             d eps       ncg     rms          rms(c)
DAV:   1    -0.521831461830E+03    0.24417E-04   -0.25679E-01 13064   0.569E-01    0.146E-01
DAV:   2    -0.521832770059E+03   -0.13082E-02   -0.42100E-03 18168   0.779E-01    0.181E-01
DAV:   3    -0.521831541108E+03    0.12290E-02   -0.85938E-04 12768   0.791E-01    0.108E-01
DAV:   4    -0.521831510074E+03    0.31034E-04   -0.20096E-03 15360   0.161E-01    0.385E-02
DAV:   5    -0.521831468283E+03    0.41791E-04   -0.31065E-04  7952   0.146E-01
  44 F= -.58222876E+03 E0= -.58226687E+03  d E =-.337826E-02  mag=     0.0000
       N       E                     dE             d eps       ncg     rms          rms(c)
DAV:   1    -0.521831738822E+03   -0.22875E-03   -0.34286E-01 12560   0.609E-01    0.538E-02
DAV:   2    -0.521832712741E+03   -0.97392E-03   -0.97489E-03 17360   0.260E-01    0.836E-02
DAV:   3    -0.521832670061E+03    0.42680E-04   -0.42626E-04  8464   0.194E-01
  45 F= -.58222967E+03 E0= -.58226782E+03  d E =-.906527E-03  mag=     0.0000
       N       E                     dE             d eps       ncg     rms          rms(c)
DAV:   1    -0.521830450821E+03    0.22619E-02   -0.18533E+00 12544   0.138E+00    0.185E-01
DAV:   2    -0.521834669108E+03   -0.42183E-02   -0.48573E-02 17024   0.434E-01    0.210E-01
DAV:   3    -0.521834564221E+03    0.10489E-03   -0.24318E-03 13968   0.389E-01    0.182E-01
DAV:   4    -0.521834419859E+03    0.14436E-03   -0.34644E-04  8112   0.328E-01
  46 F= -.58223076E+03 E0= -.58226892E+03  d E =-.200514E-02  mag=     0.0000
       N       E                     dE             d eps       ncg     rms          rms(c)
DAV:   1    -0.521833814628E+03    0.74959E-03   -0.35378E-01 16352   0.749E-01    0.115E-01
DAV:   2    -0.521838037775E+03   -0.42231E-02   -0.54457E-03 19592   0.137E+00    0.268E-01
DAV:   3    -0.521834013418E+03    0.40244E-02   -0.98712E-04 14584   0.122E+00    0.964E-02
DAV:   4    -0.521833940953E+03    0.72465E-04   -0.77233E-04 11656   0.365E-01
  47 F= -.58223002E+03 E0= -.58226846E+03  d E =-.125783E-02  mag=     0.0000
       N       E                     dE             d eps       ncg     rms          rms(c)
DAV:   1    -0.521833527278E+03    0.48614E-03   -0.19482E-01 14024   0.525E-01    0.434E-02
DAV:   2    -0.521834191179E+03   -0.66390E-03   -0.47674E-03 16664   0.398E-01    0.784E-02
DAV:   3    -0.521834034033E+03    0.15715E-03   -0.42549E-04  9424   0.368E-01
  48 F= -.58223031E+03 E0= -.58226877E+03  d E =-.155068E-02  mag=     0.0000
       N       E                     dE             d eps       ncg     rms          rms(c)
DAV:   1    -0.521833421845E+03    0.76933E-03   -0.32194E-01 12544   0.589E-01    0.547E-02
DAV:   2    -0.521834343443E+03   -0.92160E-03   -0.94273E-03 17216   0.174E-01    0.690E-02
DAV:   3    -0.521834346013E+03   -0.25704E-05   -0.43733E-04  8720   0.157E-01
  49 F= -.58223117E+03 E0= -.58226956E+03  d E =-.855388E-03  mag=     0.0000
       N       E                     dE             d eps       ncg     rms          rms(c)
DAV:   1    -0.521833775949E+03    0.56749E-03   -0.25463E-01 12544   0.524E-01    0.972E-02
DAV:   2    -0.521834370009E+03   -0.59406E-03   -0.60293E-03 19184   0.318E-01    0.103E-01
DAV:   3    -0.521834244865E+03    0.12514E-03   -0.56399E-04 10128   0.385E-01
  50 F= -.58223155E+03 E0= -.58226986E+03  d E =-.124232E-02  mag=     0.0000
       N       E                     dE             d eps       ncg     rms          rms(c)
DAV:   1    -0.521830834685E+03    0.35353E-02   -0.10068E+00 12512   0.104E+00    0.138E-01
DAV:   2    -0.521833247540E+03   -0.24129E-02   -0.27105E-02 17424   0.383E-01    0.156E-01
DAV:   3    -0.521833182867E+03    0.64673E-04   -0.14344E-03 13488   0.324E-01
  51 F= -.58223149E+03 E0= -.58227004E+03  d E =-.118377E-02  mag=     0.0000
       N       E                     dE             d eps       ncg     rms          rms(c)
DAV:   1    -0.521833248811E+03   -0.12708E-05   -0.25154E-01 16032   0.622E-01    0.726E-02
DAV:   2    -0.521837159093E+03   -0.39103E-02   -0.36435E-03 12128   0.127E+00    0.249E-01
DAV:   3    -0.521833559630E+03    0.35995E-02   -0.60143E-04 11872   0.113E+00    0.272E-02
DAV:   4    -0.521833705880E+03   -0.14625E-03   -0.15705E-03 13984   0.856E-02
  52 F= -.58223151E+03 E0= -.58226992E+03  d E =-.119969E-02  mag=     0.0000
       N       E                     dE             d eps       ncg     rms          rms(c)
DAV:   1    -0.521833230149E+03    0.32948E-03   -0.20626E-01 12480   0.463E-01    0.551E-02
DAV:   2    -0.521833759376E+03   -0.52923E-03   -0.57756E-03 16992   0.145E-01    0.613E-02
DAV:   3    -0.521833750597E+03    0.87792E-05   -0.30098E-04  8112   0.117E-01
  53 F= -.58223220E+03 E0= -.58227069E+03  d E =-.692943E-03  mag=     0.0000
       N       E                     dE             d eps       ncg     rms          rms(c)
DAV:   1    -0.521833015501E+03    0.74387E-03   -0.21845E-01 12512   0.490E-01    0.949E-02
DAV:   2    -0.521833622143E+03   -0.60664E-03   -0.35658E-03 13488   0.461E-01    0.119E-01
DAV:   3    -0.521833344260E+03    0.27788E-03   -0.17621E-03 16560   0.505E-01    0.792E-02
DAV:   4    -0.521833300001E+03    0.44258E-04   -0.71847E-04  9984   0.138E-01
  54 F= -.58223243E+03 E0= -.58227084E+03  d E =-.919999E-03  mag=     0.0000
       N       E                     dE             d eps       ncg     rms          rms(c)
DAV:   1    -0.521829439039E+03    0.39052E-02   -0.86463E-01 12528   0.961E-01    0.120E-01
DAV:   2    -0.521831684501E+03   -0.22455E-02   -0.23693E-02 18816   0.449E-01    0.146E-01
DAV:   3    -0.521831543285E+03    0.14122E-03   -0.16898E-03 13680   0.367E-01
  55 F= -.58223207E+03 E0= -.58227067E+03  d E =-.560345E-03  mag=     0.0000
       N       E                     dE             d eps       ncg     rms          rms(c)
DAV:   1    -0.521831824810E+03   -0.14031E-03   -0.34573E-01 13056   0.657E-01    0.674E-02
DAV:   2    -0.521834271073E+03   -0.24463E-02   -0.50122E-03 11520   0.926E-01    0.187E-01
DAV:   3    -0.521832619473E+03    0.16516E-02   -0.35772E-03 20344   0.867E-01    0.425E-02
DAV:   4    -0.521832814500E+03   -0.19503E-03   -0.22382E-03 16384   0.112E-01    0.316E-02
DAV:   5    -0.521832819315E+03   -0.48152E-05   -0.13478E-04  7608   0.872E-02
  56 F= -.58223246E+03 E0= -.58227100E+03  d E =-.946218E-03  mag=     0.0000
       N       E                     dE             d eps       ncg     rms          rms(c)
DAV:   1    -0.521833026707E+03   -0.21221E-03   -0.19572E-02 13728   0.161E-01    0.281E-02
DAV:   2    -0.521833044627E+03   -0.17920E-04   -0.30981E-04  8048   0.796E-02
  57 F= -.58223247E+03 E0= -.58227102E+03  d E =-.964299E-03  mag=     0.0000
       N       E                     dE             d eps       ncg     rms          rms(c)
DAV:   1    -0.521832443284E+03    0.58342E-03   -0.93403E-02 12592   0.325E-01    0.305E-02
DAV:   2    -0.521832710623E+03   -0.26734E-03   -0.13723E-03 10792   0.267E-01    0.603E-02
DAV:   3    -0.521832621696E+03    0.88927E-04   -0.60427E-04 10296   0.262E-01
  58 F= -.58223295E+03 E0= -.58227149E+03  d E =-.473245E-03  mag=     0.0000
       N       E                     dE             d eps       ncg     rms          rms(c)
DAV:   1    -0.521832194997E+03    0.51563E-03   -0.65282E-02 12584   0.269E-01    0.487E-02
DAV:   2    -0.521832301705E+03   -0.10671E-03   -0.14229E-03 12768   0.123E-01
  59 F= -.58223336E+03 E0= -.58227186E+03  d E =-.887528E-03  mag=     0.0000
       N       E                     dE             d eps       ncg     rms          rms(c)
DAV:   1    -0.521830841866E+03    0.13531E-02   -0.25222E-01 12560   0.536E-01    0.882E-02
DAV:   2    -0.521831711501E+03   -0.86963E-03   -0.51242E-03 18304   0.505E-01    0.119E-01
DAV:   3    -0.521831288681E+03    0.42282E-03   -0.11298E-03 13280   0.500E-01    0.775E-02
DAV:   4    -0.521831287295E+03    0.13864E-05   -0.92457E-04 12128   0.120E-01
  60 F= -.58223382E+03 E0= -.58227231E+03  d E =-.134730E-02  mag=     0.0000
       N       E                     dE             d eps       ncg     rms          rms(c)
DAV:   1    -0.521826225813E+03    0.50629E-02   -0.10022E+00 12544   0.101E+00    0.122E-01
DAV:   2    -0.521828632591E+03   -0.24068E-02   -0.24354E-02 19024   0.464E-01    0.149E-01
DAV:   3    -0.521828506614E+03    0.12598E-03   -0.18236E-03 14176   0.477E-01
  61 F= -.58223401E+03 E0= -.58227235E+03  d E =-.153828E-02  mag=     0.0000
       N       E                     dE             d eps       ncg     rms          rms(c)
DAV:   1    -0.521829316314E+03   -0.68372E-03   -0.13436E-01 16760   0.479E-01    0.655E-02
DAV:   2    -0.521830394381E+03   -0.10781E-02   -0.17705E-03 10192   0.669E-01    0.135E-01
DAV:   3    -0.521829504755E+03    0.88963E-03   -0.32143E-04  9680   0.630E-01    0.306E-02
DAV:   4    -0.521829520783E+03   -0.16028E-04   -0.29228E-04  8544   0.161E-01
  62 F= -.58223394E+03 E0= -.58227252E+03  d E =-.146252E-02  mag=     0.0000
       N       E                     dE             d eps       ncg     rms          rms(c)
DAV:   1    -0.521828278740E+03    0.12260E-02   -0.21566E-01 12528   0.484E-01    0.627E-02
DAV:   2    -0.521828828191E+03   -0.54945E-03   -0.62034E-03 16720   0.134E-01    0.636E-02
DAV:   3    -0.521828808275E+03    0.19916E-04   -0.26383E-04  8576   0.821E-02
  63 F= -.58223455E+03 E0= -.58227305E+03  d E =-.617104E-03  mag=     0.0000
       N       E                     dE             d eps       ncg     rms          rms(c)
DAV:   1    -0.521828549427E+03    0.27876E-03   -0.11400E-02 17584   0.140E-01    0.465E-02
DAV:   2    -0.521828559338E+03   -0.99104E-05   -0.19326E-04  8096   0.172E-01
  64 F= -.58223461E+03 E0= -.58227314E+03  d E =-.669607E-03  mag=     0.0000
       N       E                     dE             d eps       ncg     rms          rms(c)
DAV:   1    -0.521828385367E+03    0.16406E-03   -0.11302E-01 15824   0.416E-01    0.564E-02
DAV:   2    -0.521829998934E+03   -0.16136E-02   -0.11135E-03 11536   0.856E-01    0.174E-01
DAV:   3    -0.521828404957E+03    0.15940E-02   -0.24472E-04  8960   0.729E-01    0.382E-02
DAV:   4    -0.521828457908E+03   -0.52951E-04   -0.69757E-04 10528   0.843E-02
  65 F= -.58223517E+03 E0= -.58227364E+03  d E =-.566871E-03  mag=     0.0000
       N       E                     dE             d eps       ncg     rms          rms(c)
DAV:   1    -0.521826994032E+03    0.14109E-02   -0.44455E-01 12552   0.680E-01    0.630E-02
DAV:   2    -0.521828015262E+03   -0.10212E-02   -0.10509E-02 17408   0.227E-01    0.829E-02
DAV:   3    -0.521827998127E+03    0.17135E-04   -0.59283E-04 10800   0.206E-01
  66 F= -.58223605E+03 E0= -.58227449E+03  d E =-.144215E-02  mag=     0.0000
       N       E                     dE             d eps       ncg     rms          rms(c)
DAV:   1    -0.521827661293E+03    0.35397E-03   -0.44249E-02 14288   0.245E-01    0.751E-02
DAV:   2    -0.521827911466E+03   -0.25017E-03   -0.38995E-04  8496   0.395E-01    0.935E-02
DAV:   3    -0.521827630916E+03    0.28055E-03   -0.16757E-04  7984   0.437E-01    0.511E-02
DAV:   4    -0.521827584346E+03    0.46570E-04   -0.20861E-04  8040   0.137E-01
  67 F= -.58223605E+03 E0= -.58227449E+03  d E =-.144455E-02  mag=     0.0000
       N       E                     dE             d eps       ncg     rms          rms(c)
DAV:   1    -0.521828265858E+03   -0.63494E-03   -0.11377E-01 12624   0.350E-01    0.348E-02
DAV:   2    -0.521828560790E+03   -0.29493E-03   -0.30265E-03 16928   0.143E-01    0.464E-02
DAV:   3    -0.521828548932E+03    0.11858E-04   -0.14365E-04  7824   0.118E-01
  68 F= -.58223658E+03 E0= -.58227506E+03  d E =-.531517E-03  mag=     0.0000
       N       E                     dE             d eps       ncg     rms          rms(c)
DAV:   1    -0.521829030036E+03   -0.46925E-03   -0.12142E-01 12624   0.361E-01    0.657E-02
DAV:   2    -0.521829252448E+03   -0.22241E-03   -0.19622E-03 12944   0.257E-01    0.736E-02
DAV:   3    -0.521829217685E+03    0.34763E-04   -0.81684E-04 11792   0.319E-01
  69 F= -.58223682E+03 E0= -.58227540E+03  d E =-.764242E-03  mag=     0.0000
       N       E                     dE             d eps       ncg     rms          rms(c)
DAV:   1    -0.521829791762E+03   -0.53931E-03   -0.35524E-02 15568   0.230E-01    0.323E-02
DAV:   2    -0.521829847909E+03   -0.56147E-04   -0.68158E-04  9264   0.144E-01
  70 F= -.58223709E+03 E0= -.58227565E+03  d E =-.278191E-03  mag=     0.0000
       N       E                     dE             d eps       ncg     rms          rms(c)
DAV:   1    -0.521830742073E+03   -0.95031E-03   -0.31028E-01 12560   0.576E-01    0.841E-02
DAV:   2    -0.521831440548E+03   -0.69847E-03   -0.78465E-03 17888   0.215E-01    0.864E-02
DAV:   3    -0.521831446077E+03   -0.55291E-05   -0.60803E-04 10656   0.296E-01
  71 F= -.58223765E+03 E0= -.58227629E+03  d E =-.834760E-03  mag=     0.0000
       N       E                     dE             d eps       ncg     rms          rms(c)
DAV:   1    -0.521831698715E+03   -0.25817E-03   -0.26278E-02 17680   0.256E-01    0.623E-02
DAV:   2    -0.521831877769E+03   -0.17905E-03   -0.30883E-04  8592   0.334E-01
  72 F= -.58223779E+03 E0= -.58227655E+03  d E =-.971319E-03  mag=     0.0000
       N       E                     dE             d eps       ncg     rms          rms(c)
DAV:   1    -0.521832688895E+03   -0.99018E-03   -0.73298E-02 17568   0.456E-01    0.708E-02
DAV:   2    -0.521833292435E+03   -0.60354E-03   -0.10828E-03 10280   0.542E-01    0.120E-01
DAV:   3    -0.521832699300E+03    0.59313E-03   -0.27877E-04  8288   0.504E-01    0.478E-02
DAV:   4    -0.521832738957E+03   -0.39657E-04   -0.70327E-04  9904   0.118E-01
  73 F= -.58223779E+03 E0= -.58227641E+03  d E =-.603198E-05  mag=     0.0000
       N       E                     dE             d eps       ncg     rms          rms(c)
DAV:   1    -0.521834090575E+03   -0.13913E-02   -0.22905E-01 12512   0.503E-01    0.571E-02
DAV:   2    -0.521834676831E+03   -0.58626E-03   -0.60008E-03 18160   0.227E-01    0.698E-02
DAV:   3    -0.521834651606E+03    0.25225E-04   -0.41561E-04  8544   0.229E-01
  74 F= -.58223819E+03 E0= -.58227672E+03  d E =-.407797E-03  mag=     0.0000
       N       E                     dE             d eps       ncg     rms          rms(c)
DAV:   1    -0.521836243142E+03   -0.15663E-02   -0.91893E-01 12480   0.965E-01    0.161E-01
DAV:   2    -0.521838116355E+03   -0.18732E-02   -0.23144E-02 17536   0.348E-01    0.155E-01
DAV:   3    -0.521838231340E+03   -0.11499E-03   -0.14458E-03 13616   0.562E-01
  75 F= -.58223878E+03 E0= -.58227751E+03  d E =-.992487E-03  mag=     0.0000
       N       E                     dE             d eps       ncg     rms          rms(c)
DAV:   1    -0.521839743692E+03   -0.16273E-02   -0.14738E-01 17424   0.641E-01    0.124E-01
DAV:   2    -0.521842232446E+03   -0.24888E-02   -0.31966E-03 19424   0.109E+00    0.219E-01
DAV:   3    -0.521839748422E+03    0.24840E-02   -0.38994E-04  9936   0.100E+00    0.870E-02
DAV:   4    -0.521839781254E+03   -0.32832E-04   -0.48362E-04  9744   0.321E-01
  76 F= -.58223872E+03 E0= -.58227701E+03  d E =0.588706E-04  mag=     0.0000
       N       E                     dE             d eps       ncg     rms          rms(c)
DAV:   1    -0.521841152667E+03   -0.14042E-02   -0.10454E-01 17200   0.460E-01    0.620E-02
DAV:   2    -0.521841675440E+03   -0.52277E-03   -0.21751E-03 13760   0.509E-01    0.109E-01
DAV:   3    -0.521841351526E+03    0.32391E-03   -0.53446E-04 10272   0.486E-01    0.580E-02
DAV:   4    -0.521841297616E+03    0.53910E-04   -0.13916E-04  7776   0.211E-01
  77 F= -.58223889E+03 E0= -.58227751E+03  d E =-.114388E-03  mag=     0.0000
       N       E                     dE             d eps       ncg     rms          rms(c)
DAV:   1    -0.521843468363E+03   -0.21168E-02   -0.41209E-01 12432   0.650E-01    0.116E-01
DAV:   2    -0.521844530420E+03   -0.10621E-02   -0.12115E-02 18560   0.351E-01    0.118E-01
DAV:   3    -0.521844496634E+03    0.33785E-04   -0.80789E-04 12496   0.436E-01
  78 F= -.58223942E+03 E0= -.58227776E+03  d E =-.640548E-03  mag=     0.0000
