unknown system                          
           1
    10.890000    0.000000    0.000000
     0.000000   10.890000    0.000000
     0.000000    0.000000   27.705000
   Cu   H 
   144     2
Direct configuration=     1
   0.00000000  0.00000000  0.00000000
   0.00000000  0.33333333  0.00000000
   0.00000000  0.66666667  0.00000000
   0.33333333  0.00000000  0.00000000
   0.33333333  0.33333333  0.00000000
   0.33333333  0.66666667  0.00000000
   0.66666667  0.00000000  0.00000000
   0.66666667  0.33333333  0.00000000
   0.66666667  0.66666667  0.00000000
   0.16666667  0.16666667  0.00000000
   0.16666667  0.50000000  0.00000000
   0.16666667  0.83333333  0.00000000
   0.50000000  0.16666667  0.00000000
   0.50000000  0.50000000  0.00000000
   0.50000000  0.83333333  0.00000000
   0.83333333  0.16666667  0.00000000
   0.83333333  0.50000000  0.00000000
   0.83333333  0.83333333  0.00000000
   0.00000000  0.16666667  0.06551164
   0.00000000  0.50000000  0.06551164
   0.00000000  0.83333333  0.06551164
   0.33333333  0.16666667  0.06551164
   0.33333333  0.50000000  0.06551164
   0.33333333  0.83333333  0.06551164
   0.66666667  0.16666667  0.06551164
   0.66666667  0.50000000  0.06551164
   0.66666667  0.83333333  0.06551164
   0.16666667  0.00000000  0.06551164
   0.16666667  0.33333333  0.06551164
   0.16666667  0.66666667  0.06551164
   0.50000000  0.00000000  0.06551164
   0.50000000  0.33333333  0.06551164
   0.50000000  0.66666667  0.06551164
   0.83333333  0.00000000  0.06551164
   0.83333333  0.33333333  0.06551164
   0.83333333  0.66666667  0.06551164
   0.00000000  0.00000000  0.13119553
   0.00000000  0.33333333  0.13119553
   0.00000000  0.66666667  0.13119553
   0.33333333  0.00000000  0.13119553
   0.33333333  0.33333333  0.13119553
   0.33333333  0.66666667  0.13119553
   0.66666667  0.00000000  0.13119553
   0.66666667  0.33333333  0.13119553
   0.66666667  0.66666667  0.13119553
   0.16666667  0.16666667  0.13119553
   0.16666667  0.50000000  0.13119553
   0.16666667  0.83333333  0.13119553
   0.50000000  0.16666667  0.13119553
   0.50000000  0.50000000  0.13119553
   0.50000000  0.83333333  0.13119553
   0.83333333  0.16666667  0.13119553
   0.83333333  0.50000000  0.13119553
   0.83333333  0.83333333  0.13119553
   0.00000000  0.16666667  0.19620680
   0.00000000  0.50000000  0.19620680
   0.00000000  0.83333333  0.19620680
   0.33333333  0.16666667  0.19620680
   0.33333333  0.50000000  0.19620680
   0.33333333  0.83333333  0.19620680
   0.66666667  0.16666667  0.19620680
   0.66666667  0.50000000  0.19620680
   0.66666667  0.83333333  0.19620680
   0.16666667  0.00000000  0.19620680
   0.16666667  0.33333333  0.19620680
   0.16666667  0.66666667  0.19620680
   0.50000000  0.00000000  0.19620680
   0.50000000  0.33333333  0.19620680
   0.50000000  0.66666667  0.19620680
   0.83333333  0.00000000  0.19620680
   0.83333333  0.33333333  0.19620680
   0.83333333  0.66666667  0.19620680
   0.00000000  0.00000000  0.25873860
   0.00000000  0.33333333  0.25873860
   0.00000000  0.66666667  0.25873860
   0.33333333  0.00000000  0.25873860
   0.33333333  0.33333333  0.25873860
   0.33333333  0.66666667  0.25873860
   0.66666667  0.00000000  0.25873860
   0.66666667  0.33333333  0.25873860
   0.66666667  0.66666667  0.25873860
   0.16666667  0.16666667  0.25873860
   0.16666667  0.50000000  0.25873860
   0.16666667  0.83333333  0.25873860
   0.50000000  0.16666667  0.25873860
   0.50000000  0.50000000  0.25873860
   0.50000000  0.83333333  0.25873860
   0.83333333  0.16666667  0.25873860
   0.83333333  0.50000000  0.25873860
   0.83333333  0.83333333  0.25873860
   0.00000000  0.16666667  0.32119954
   0.00000000  0.50000000  0.32119954
   0.00000000  0.83333333  0.32119954
   0.33333333  0.16666667  0.32119954
   0.33333333  0.50000000  0.32119954
   0.33333333  0.83333333  0.32119954
   0.66666667  0.16666667  0.32119954
   0.66666667  0.50000000  0.32119954
   0.66666667  0.83333333  0.32119954
   0.16666667  0.00000000  0.32119954
   0.16666667  0.33333333  0.32119954
   0.16666667  0.66666667  0.32119954
   0.50000000  0.00000000  0.32119954
   0.50000000  0.33333333  0.32119954
   0.50000000  0.66666667  0.32119954
   0.83333333  0.00000000  0.32119954
   0.83333333  0.33333333  0.32119954
   0.83333333  0.66666667  0.32119954
   0.00000000  0.00000000  0.38476372
   0.00000000  0.33333333  0.38476372
   0.00000000  0.66666667  0.38476372
   0.33333333  0.00000000  0.38476372
   0.33333333  0.33333333  0.38476372
   0.33333333  0.66666667  0.38476372
   0.66666667  0.00000000  0.38476372
   0.66666667  0.33333333  0.38476372
   0.66666667  0.66666667  0.38476372
   0.16666667  0.16666667  0.38476372
   0.16666667  0.50000000  0.38476372
   0.16666667  0.83333333  0.38476372
   0.50000000  0.16666667  0.38476372
   0.50000000  0.50000000  0.38476372
   0.50000000  0.83333333  0.38476372
   0.83333333  0.16666667  0.38476372
   0.83333333  0.50000000  0.38476372
   0.83333333  0.83333333  0.38476372
   0.00000000  0.16666667  0.44736473
   0.00000000  0.50000000  0.44736473
   0.00000000  0.83333333  0.44736473
   0.33333333  0.16666667  0.44736473
   0.33333333  0.50000000  0.44736473
   0.33333333  0.83333333  0.44736473
   0.66666667  0.16666667  0.44736473
   0.66666667  0.50000000  0.44736473
   0.66666667  0.83333333  0.44736473
   0.16666667  0.00000000  0.44736473
   0.16666667  0.33333333  0.44736473
   0.16666667  0.66666667  0.44736473
   0.50000000  0.00000000  0.44736473
   0.50000000  0.33333333  0.44736473
   0.50000000  0.66666667  0.44736473
   0.83333333  0.00000000  0.44736473
   0.83333333  0.33333333  0.44736473
   0.83333333  0.66666667  0.44736473
   0.33333333  0.50000000  0.50150658
   0.33333333  0.50000000  0.52843313
Direct configuration=     2
   0.00000000  0.00000000  0.00000000
   0.00000000  0.33333333  0.00000000
   0.00000000  0.66666667  0.00000000
   0.33333333  0.00000000  0.00000000
   0.33333333  0.33333333  0.00000000
   0.33333333  0.66666667  0.00000000
   0.66666667  0.00000000  0.00000000
   0.66666667  0.33333333  0.00000000
   0.66666667  0.66666667  0.00000000
   0.16666667  0.16666667  0.00000000
   0.16666667  0.50000000  0.00000000
   0.16666667  0.83333333  0.00000000
   0.50000000  0.16666667  0.00000000
   0.50000000  0.50000000  0.00000000
   0.50000000  0.83333333  0.00000000
   0.83333333  0.16666667  0.00000000
   0.83333333  0.50000000  0.00000000
   0.83333333  0.83333333  0.00000000
   0.00000000  0.16666667  0.06551164
   0.00000000  0.50000000  0.06551164
   0.00000000  0.83333333  0.06551164
   0.33333333  0.16666667  0.06551164
   0.33333333  0.50000000  0.06551164
   0.33333333  0.83333333  0.06551164
   0.66666667  0.16666667  0.06551164
   0.66666667  0.50000000  0.06551164
   0.66666667  0.83333333  0.06551164
   0.16666667  0.00000000  0.06551164
   0.16666667  0.33333333  0.06551164
   0.16666667  0.66666667  0.06551164
   0.50000000  0.00000000  0.06551164
   0.50000000  0.33333333  0.06551164
   0.50000000  0.66666667  0.06551164
   0.83333333  0.00000000  0.06551164
   0.83333333  0.33333333  0.06551164
   0.83333333  0.66666667  0.06551164
   0.00000000  0.00000000  0.13119553
   0.00000000  0.33333333  0.13119553
   0.00000000  0.66666667  0.13119553
   0.33333333  0.00000000  0.13119553
   0.33333333  0.33333333  0.13119553
   0.33333333  0.66666667  0.13119553
   0.66666667  0.00000000  0.13119553
   0.66666667  0.33333333  0.13119553
   0.66666667  0.66666667  0.13119553
   0.16666667  0.16666667  0.13119553
   0.16666667  0.50000000  0.13119553
   0.16666667  0.83333333  0.13119553
   0.50000000  0.16666667  0.13119553
   0.50000000  0.50000000  0.13119553
   0.50000000  0.83333333  0.13119553
   0.83333333  0.16666667  0.13119553
   0.83333333  0.50000000  0.13119553
   0.83333333  0.83333333  0.13119553
   0.00000410  0.16667077  0.19574195
   0.00000171  0.50000000  0.19575296
   0.00000410  0.83332923  0.19574195
   0.33333333  0.16666838  0.19575296
   0.33333333  0.50000000  0.19573580
   0.33333333  0.83333162  0.19575296
   0.66666257  0.16667077  0.19574195
   0.66666496  0.50000000  0.19575296
   0.66666257  0.83332923  0.19574195
   0.16667035  0.00000000  0.19572551
   0.16666280  0.33332947  0.19575684
   0.16666280  0.66667053  0.19575684
   0.49999632  0.00000000  0.19572551
   0.50000386  0.33332947  0.19575684
   0.50000386  0.66667053  0.19575684
   0.83333333  0.00000000  0.19574263
   0.83333333  0.33333702  0.19572551
   0.83333333  0.66666298  0.19572551
   0.00000566  0.00000000  0.25869305
  -0.00001895  0.33332140  0.25867330
  -0.00001895  0.66667860  0.25867330
   0.33333333  0.00000000  0.25867558
   0.33333333  0.33333893  0.25871270
   0.33333333  0.66666107  0.25871270
   0.66666101  0.00000000  0.25869305
   0.66668561  0.33332140  0.25867330
   0.66668561  0.66667860  0.25867330
   0.16665474  0.16664772  0.25867330
   0.16667226  0.50000000  0.25871270
   0.16665474  0.83335228  0.25867330
   0.50001193  0.16664772  0.25867330
   0.49999441  0.50000000  0.25871270
   0.50001193  0.83335228  0.25867330
   0.83333333  0.16667232  0.25869305
   0.83333333  0.50000000  0.25867558
   0.83333333  0.83332768  0.25869305
   0.00001243  0.16667909  0.32129461
   0.00002676  0.50000000  0.32129141
   0.00001243  0.83332091  0.32129461
   0.33333333  0.16669343  0.32129141
   0.33333333  0.50000000  0.32126111
   0.33333333  0.83330657  0.32129141
   0.66665424  0.16667909  0.32129461
   0.66663991  0.50000000  0.32129141
   0.66665424  0.83332091  0.32129461
   0.16667303  0.00000000  0.32129410
   0.16664371  0.33331038  0.32125572
   0.16664371  0.66668962  0.32125572
   0.49999364  0.00000000  0.32129410
   0.50002296  0.33331038  0.32125572
   0.50002296  0.66668962  0.32125572
   0.83333333  0.00000000  0.32128804
   0.83333333  0.33333970  0.32129410
   0.83333333  0.66666030  0.32129410
   0.00000434  0.00000000  0.38480294
  -0.00001877  0.33334110  0.38481417
  -0.00001877  0.66665890  0.38481417
   0.33333333  0.00000000  0.38479910
   0.33333333  0.33335860  0.38479438
   0.33333333  0.66664140  0.38479438
   0.66666233  0.00000000  0.38480294
   0.66668544  0.33334110  0.38481417
   0.66668544  0.66665890  0.38481417
   0.16667443  0.16664790  0.38481417
   0.16669194  0.50000000  0.38479438
   0.16667443  0.83335210  0.38481417
   0.49999223  0.16664790  0.38481417
   0.49997473  0.50000000  0.38479438
   0.49999223  0.83335210  0.38481417
   0.83333333  0.16667101  0.38480294
   0.83333333  0.50000000  0.38479910
   0.83333333  0.83332899  0.38480294
   0.00001364  0.16668031  0.44736221
  -0.00000737  0.50000000  0.44732896
   0.00001364  0.83331969  0.44736221
   0.33333333  0.16665929  0.44732896
   0.33333333  0.50000000  0.44422318
   0.33333333  0.83334071  0.44732896
   0.66665303  0.16668031  0.44736221
   0.66667404  0.50000000  0.44732896
   0.66665303  0.83331969  0.44736221
   0.16667974  0.00000000  0.44735889
   0.16637831  0.33304498  0.44723064
   0.16637831  0.66695502  0.44723064
   0.49998693  0.00000000  0.44735889
   0.50028836  0.33304498  0.44723064
   0.50028836  0.66695502  0.44723064
   0.83333333  0.00000000  0.44735362
   0.83333333  0.33334640  0.44735889
   0.83333333  0.66665360  0.44735889
   0.33333333  0.50000000  0.50306745
   0.33333333  0.50000000  0.53061210
Direct configuration=     3
   0.00000000  0.00000000  0.00000000
   0.00000000  0.33333333  0.00000000
   0.00000000  0.66666667  0.00000000
   0.33333333  0.00000000  0.00000000
   0.33333333  0.33333333  0.00000000
   0.33333333  0.66666667  0.00000000
   0.66666667  0.00000000  0.00000000
   0.66666667  0.33333333  0.00000000
   0.66666667  0.66666667  0.00000000
   0.16666667  0.16666667  0.00000000
   0.16666667  0.50000000  0.00000000
   0.16666667  0.83333333  0.00000000
   0.50000000  0.16666667  0.00000000
   0.50000000  0.50000000  0.00000000
   0.50000000  0.83333333  0.00000000
   0.83333333  0.16666667  0.00000000
   0.83333333  0.50000000  0.00000000
   0.83333333  0.83333333  0.00000000
   0.00000000  0.16666667  0.06551164
   0.00000000  0.50000000  0.06551164
   0.00000000  0.83333333  0.06551164
   0.33333333  0.16666667  0.06551164
   0.33333333  0.50000000  0.06551164
   0.33333333  0.83333333  0.06551164
   0.66666667  0.16666667  0.06551164
   0.66666667  0.50000000  0.06551164
   0.66666667  0.83333333  0.06551164
   0.16666667  0.00000000  0.06551164
   0.16666667  0.33333333  0.06551164
   0.16666667  0.66666667  0.06551164
   0.50000000  0.00000000  0.06551164
   0.50000000  0.33333333  0.06551164
   0.50000000  0.66666667  0.06551164
   0.83333333  0.00000000  0.06551164
   0.83333333  0.33333333  0.06551164
   0.83333333  0.66666667  0.06551164
   0.00000000  0.00000000  0.13119553
   0.00000000  0.33333333  0.13119553
   0.00000000  0.66666667  0.13119553
   0.33333333  0.00000000  0.13119553
   0.33333333  0.33333333  0.13119553
   0.33333333  0.66666667  0.13119553
   0.66666667  0.00000000  0.13119553
   0.66666667  0.33333333  0.13119553
   0.66666667  0.66666667  0.13119553
   0.16666667  0.16666667  0.13119553
   0.16666667  0.50000000  0.13119553
   0.16666667  0.83333333  0.13119553
   0.50000000  0.16666667  0.13119553
   0.50000000  0.50000000  0.13119553
   0.50000000  0.83333333  0.13119553
   0.83333333  0.16666667  0.13119553
   0.83333333  0.50000000  0.13119553
   0.83333333  0.83333333  0.13119553
   0.00000925  0.16667592  0.19515822
   0.00000386  0.50000000  0.19518305
   0.00000925  0.83332408  0.19515822
   0.33333333  0.16667052  0.19518305
   0.33333333  0.50000000  0.19514435
   0.33333333  0.83332948  0.19518305
   0.66665741  0.16667592  0.19515822
   0.66666281  0.50000000  0.19518305
   0.66665741  0.83332408  0.19515822
   0.16667498  0.00000000  0.19512114
   0.16665795  0.33332462  0.19519181
   0.16665795  0.66667538  0.19519181
   0.49999169  0.00000000  0.19512114
   0.50000871  0.33332462  0.19519181
   0.50000871  0.66667538  0.19519181
   0.83333333  0.00000000  0.19515975
   0.83333333  0.33334164  0.19512114
   0.83333333  0.66665836  0.19512114
   0.00001276  0.00000000  0.25863586
  -0.00004274  0.33330642  0.25859130
  -0.00004274  0.66669358  0.25859130
   0.33333333  0.00000000  0.25859645
   0.33333333  0.33334595  0.25868018
   0.33333333  0.66665405  0.25868018
   0.66665391  0.00000000  0.25863586
   0.66670940  0.33330642  0.25859130
   0.66670940  0.66669358  0.25859130
   0.16663976  0.16662393  0.25859130
   0.16667928  0.50000000  0.25868018
   0.16663976  0.83337607  0.25859130
   0.50002691  0.16662393  0.25859130
   0.49998738  0.50000000  0.25868018
   0.50002691  0.83337607  0.25859130
   0.83333333  0.16667942  0.25863586
   0.83333333  0.50000000  0.25859645
   0.83333333  0.83332058  0.25863586
   0.00002803  0.16669469  0.32141398
   0.00006036  0.50000000  0.32140676
   0.00002803  0.83330531  0.32141398
   0.33333333  0.16672703  0.32140676
   0.33333333  0.50000000  0.32133843
   0.33333333  0.83327297  0.32140676
   0.66663864  0.16669469  0.32141398
   0.66660630  0.50000000  0.32140676
   0.66663864  0.83330531  0.32141398
   0.16668102  0.00000000  0.32141284
   0.16661488  0.33328155  0.32132626
   0.16661488  0.66671845  0.32132626
   0.49998565  0.00000000  0.32141284
   0.50005178  0.33328155  0.32132626
   0.50005178  0.66671845  0.32132626
   0.83333333  0.00000000  0.32139917
   0.83333333  0.33334769  0.32141284
   0.83333333  0.66665231  0.32141284
   0.00000979  0.00000000  0.38485219
  -0.00004234  0.33335085  0.38487754
  -0.00004234  0.66664915  0.38487754
   0.33333333  0.00000000  0.38484353
   0.33333333  0.33339034  0.38483289
   0.33333333  0.66660966  0.38483289
   0.66665688  0.00000000  0.38485219
   0.66670901  0.33335085  0.38487754
   0.66670901  0.66664915  0.38487754
   0.16668418  0.16662432  0.38487754
   0.16672367  0.50000000  0.38483289
   0.16668418  0.83337568  0.38487754
   0.49998248  0.16662432  0.38487754
   0.49994300  0.50000000  0.38483289
   0.49998248  0.83337568  0.38487754
   0.83333333  0.16667646  0.38485219
   0.83333333  0.50000000  0.38484353
   0.83333333  0.83332354  0.38485219
   0.00003077  0.16669744  0.44735906
  -0.00001663  0.50000000  0.44728404
   0.00003077  0.83330256  0.44735906
   0.33333333  0.16665004  0.44728404
   0.33333333  0.50000000  0.44027816
   0.33333333  0.83334996  0.44728404
   0.66663590  0.16669744  0.44735906
   0.66668330  0.50000000  0.44728404
   0.66663590  0.83330256  0.44735906
   0.16669615  0.00000000  0.44735157
   0.16601620  0.33268287  0.44706226
   0.16601620  0.66731713  0.44706226
   0.49997051  0.00000000  0.44735157
   0.50065046  0.33268287  0.44706226
   0.50065046  0.66731713  0.44706226
   0.83333333  0.00000000  0.44733967
   0.83333333  0.33336282  0.44735157
   0.83333333  0.66663718  0.44735157
   0.33333333  0.50000000  0.50502752
   0.33333333  0.50000000  0.53334835
Direct configuration=     4
   0.00000000  0.00000000  0.00000000
   0.00000000  0.33333333  0.00000000
   0.00000000  0.66666667  0.00000000
   0.33333333  0.00000000  0.00000000
   0.33333333  0.33333333  0.00000000
   0.33333333  0.66666667  0.00000000
   0.66666667  0.00000000  0.00000000
   0.66666667  0.33333333  0.00000000
   0.66666667  0.66666667  0.00000000
   0.16666667  0.16666667  0.00000000
   0.16666667  0.50000000  0.00000000
   0.16666667  0.83333333  0.00000000
   0.50000000  0.16666667  0.00000000
   0.50000000  0.50000000  0.00000000
   0.50000000  0.83333333  0.00000000
   0.83333333  0.16666667  0.00000000
   0.83333333  0.50000000  0.00000000
   0.83333333  0.83333333  0.00000000
   0.00000000  0.16666667  0.06551164
   0.00000000  0.50000000  0.06551164
   0.00000000  0.83333333  0.06551164
   0.33333333  0.16666667  0.06551164
   0.33333333  0.50000000  0.06551164
   0.33333333  0.83333333  0.06551164
   0.66666667  0.16666667  0.06551164
   0.66666667  0.50000000  0.06551164
   0.66666667  0.83333333  0.06551164
   0.16666667  0.00000000  0.06551164
   0.16666667  0.33333333  0.06551164
   0.16666667  0.66666667  0.06551164
   0.50000000  0.00000000  0.06551164
   0.50000000  0.33333333  0.06551164
   0.50000000  0.66666667  0.06551164
   0.83333333  0.00000000  0.06551164
   0.83333333  0.33333333  0.06551164
   0.83333333  0.66666667  0.06551164
   0.00000000  0.00000000  0.13119553
   0.00000000  0.33333333  0.13119553
   0.00000000  0.66666667  0.13119553
   0.33333333  0.00000000  0.13119553
   0.33333333  0.33333333  0.13119553
   0.33333333  0.66666667  0.13119553
   0.66666667  0.00000000  0.13119553
   0.66666667  0.33333333  0.13119553
   0.66666667  0.66666667  0.13119553
   0.16666667  0.16666667  0.13119553
   0.16666667  0.50000000  0.13119553
   0.16666667  0.83333333  0.13119553
   0.50000000  0.16666667  0.13119553
   0.50000000  0.50000000  0.13119553
   0.50000000  0.83333333  0.13119553
   0.83333333  0.16666667  0.13119553
   0.83333333  0.50000000  0.13119553
   0.83333333  0.83333333  0.13119553
   0.00000820  0.16667486  0.19527763
   0.00000342  0.50000000  0.19529963
   0.00000820  0.83332514  0.19527763
   0.33333333  0.16667008  0.19529963
   0.33333333  0.50000000  0.19526534
   0.33333333  0.83332992  0.19529963
   0.66665847  0.16667486  0.19527763
   0.66666325  0.50000000  0.19529963
   0.66665847  0.83332514  0.19527763
   0.16667403  0.00000000  0.19524477
   0.16665895  0.33332561  0.19530739
   0.16665895  0.66667439  0.19530739
   0.49999264  0.00000000  0.19524477
   0.50000772  0.33332561  0.19530739
   0.50000772  0.66667439  0.19530739
   0.83333333  0.00000000  0.19527898
   0.83333333  0.33334070  0.19524477
   0.83333333  0.66665930  0.19524477
   0.00001130  0.00000000  0.25864756
  -0.00003787  0.33330949  0.25860808
  -0.00003787  0.66669051  0.25860808
   0.33333333  0.00000000  0.25861264
   0.33333333  0.33334451  0.25868683
   0.33333333  0.66665549  0.25868683
   0.66665536  0.00000000  0.25864756
   0.66670454  0.33330949  0.25860808
   0.66670454  0.66669051  0.25860808
   0.16664282  0.16662880  0.25860808
   0.16667785  0.50000000  0.25868683
   0.16664282  0.83337120  0.25860808
   0.50002385  0.16662880  0.25860808
   0.49998882  0.50000000  0.25868683
   0.50002385  0.83337120  0.25860808
   0.83333333  0.16667797  0.25864756
   0.83333333  0.50000000  0.25861264
   0.83333333  0.83332203  0.25864756
   0.00002484  0.16669150  0.32138956
   0.00005349  0.50000000  0.32138316
   0.00002484  0.83330850  0.32138956
   0.33333333  0.16672016  0.32138316
   0.33333333  0.50000000  0.32132261
   0.33333333  0.83327984  0.32138316
   0.66664183  0.16669150  0.32138956
   0.66661318  0.50000000  0.32138316
   0.66664183  0.83330850  0.32138956
   0.16667939  0.00000000  0.32138855
   0.16662078  0.33328745  0.32131183
   0.16662078  0.66671255  0.32131183
   0.49998728  0.00000000  0.32138855
   0.50004589  0.33328745  0.32131183
   0.50004589  0.66671255  0.32131183
   0.83333333  0.00000000  0.32137643
   0.83333333  0.33334605  0.32138855
   0.83333333  0.66665395  0.32138855
   0.00000867  0.00000000  0.38484211
  -0.00003752  0.33334886  0.38486457
  -0.00003752  0.66665114  0.38486457
   0.33333333  0.00000000  0.38483445
   0.33333333  0.33338385  0.38482502
   0.33333333  0.66661615  0.38482502
   0.66665799  0.00000000  0.38484211
   0.66670419  0.33334886  0.38486457
   0.66670419  0.66665114  0.38486457
   0.16668219  0.16662915  0.38486457
   0.16671718  0.50000000  0.38482502
   0.16668219  0.83337085  0.38486457
   0.49998448  0.16662915  0.38486457
   0.49994949  0.50000000  0.38482502
   0.49998448  0.83337085  0.38486457
   0.83333333  0.16667534  0.38484211
   0.83333333  0.50000000  0.38483445
   0.83333333  0.83332466  0.38484211
   0.00002726  0.16669393  0.44735970
  -0.00001474  0.50000000  0.44729322
   0.00002726  0.83330607  0.44735970
   0.33333333  0.16665193  0.44729322
   0.33333333  0.50000000  0.44108515
   0.33333333  0.83334807  0.44729322
   0.66663940  0.16669393  0.44735970
   0.66668140  0.50000000  0.44729322
   0.66663940  0.83330607  0.44735970
   0.16669280  0.00000000  0.44735307
   0.16609028  0.33275694  0.44709670
   0.16609028  0.66724306  0.44709670
   0.49997387  0.00000000  0.44735307
   0.50057639  0.33275694  0.44709670
   0.50057639  0.66724306  0.44709670
   0.83333333  0.00000000  0.44734252
   0.83333333  0.33335946  0.44735307
   0.83333333  0.66664054  0.44735307
   0.33333333  0.50000000  0.50462657
   0.33333333  0.50000000  0.53278862
Direct configuration=     5
   0.00000000  0.00000000  0.00000000
   0.00000000  0.33333333  0.00000000
   0.00000000  0.66666667  0.00000000
   0.33333333  0.00000000  0.00000000
   0.33333333  0.33333333  0.00000000
   0.33333333  0.66666667  0.00000000
   0.66666667  0.00000000  0.00000000
   0.66666667  0.33333333  0.00000000
   0.66666667  0.66666667  0.00000000
   0.16666667  0.16666667  0.00000000
   0.16666667  0.50000000  0.00000000
   0.16666667  0.83333333  0.00000000
   0.50000000  0.16666667  0.00000000
   0.50000000  0.50000000  0.00000000
   0.50000000  0.83333333  0.00000000
   0.83333333  0.16666667  0.00000000
   0.83333333  0.50000000  0.00000000
   0.83333333  0.83333333  0.00000000
   0.00000000  0.16666667  0.06551164
   0.00000000  0.50000000  0.06551164
   0.00000000  0.83333333  0.06551164
   0.33333333  0.16666667  0.06551164
   0.33333333  0.50000000  0.06551164
   0.33333333  0.83333333  0.06551164
   0.66666667  0.16666667  0.06551164
   0.66666667  0.50000000  0.06551164
   0.66666667  0.83333333  0.06551164
   0.16666667  0.00000000  0.06551164
   0.16666667  0.33333333  0.06551164
   0.16666667  0.66666667  0.06551164
   0.50000000  0.00000000  0.06551164
   0.50000000  0.33333333  0.06551164
   0.50000000  0.66666667  0.06551164
   0.83333333  0.00000000  0.06551164
   0.83333333  0.33333333  0.06551164
   0.83333333  0.66666667  0.06551164
   0.00000000  0.00000000  0.13119553
   0.00000000  0.33333333  0.13119553
   0.00000000  0.66666667  0.13119553
   0.33333333  0.00000000  0.13119553
   0.33333333  0.33333333  0.13119553
   0.33333333  0.66666667  0.13119553
   0.66666667  0.00000000  0.13119553
   0.66666667  0.33333333  0.13119553
   0.66666667  0.66666667  0.13119553
   0.16666667  0.16666667  0.13119553
   0.16666667  0.50000000  0.13119553
   0.16666667  0.83333333  0.13119553
   0.50000000  0.16666667  0.13119553
   0.50000000  0.50000000  0.13119553
   0.50000000  0.83333333  0.13119553
   0.83333333  0.16666667  0.13119553
   0.83333333  0.50000000  0.13119553
   0.83333333  0.83333333  0.13119553
   0.00000052  0.16666719  0.19499639
   0.00001888  0.50000000  0.19502329
   0.00000052  0.83333281  0.19499639
   0.33333333  0.16668555  0.19502329
   0.33333333  0.50000000  0.19499810
   0.33333333  0.83331445  0.19502329
   0.66666614  0.16666719  0.19499639
   0.66664778  0.50000000  0.19502329
   0.66666614  0.83333281  0.19499639
   0.16667134  0.00000000  0.19495310
   0.16666854  0.33333520  0.19504217
   0.16666854  0.66666480  0.19504217
   0.49999533  0.00000000  0.19495310
   0.49999813  0.33333520  0.19504217
   0.49999813  0.66666480  0.19504217
   0.83333333  0.00000000  0.19500502
   0.83333333  0.33333800  0.19495310
   0.83333333  0.66666200  0.19495310
   0.00001488  0.00000000  0.25845178
  -0.00007186  0.33330601  0.25840158
  -0.00007186  0.66669399  0.25840158
   0.33333333  0.00000000  0.25840659
   0.33333333  0.33333627  0.25849383
   0.33333333  0.66666373  0.25849383
   0.66665179  0.00000000  0.25845178
   0.66673853  0.33330601  0.25840158
   0.66673853  0.66669399  0.25840158
   0.16663934  0.16659480  0.25840158
   0.16666960  0.50000000  0.25849383
   0.16663934  0.83340520  0.25840158
   0.50002732  0.16659480  0.25840158
   0.49999706  0.50000000  0.25849383
   0.50002732  0.83340520  0.25840158
   0.83333333  0.16668154  0.25845178
   0.83333333  0.50000000  0.25840659
   0.83333333  0.83331846  0.25845178
   0.00003352  0.16670019  0.32141744
   0.00004160  0.50000000  0.32139864
   0.00003352  0.83329981  0.32141744
   0.33333333  0.16670827  0.32139864
   0.33333333  0.50000000  0.32131021
   0.33333333  0.83329173  0.32139864
   0.66663315  0.16670019  0.32141744
   0.66662507  0.50000000  0.32139864
   0.66663315  0.83329981  0.32141744
   0.16669417  0.00000000  0.32141228
   0.16657871  0.33324538  0.32131673
   0.16657871  0.66675462  0.32131673
   0.49997250  0.00000000  0.32141228
   0.50008796  0.33324538  0.32131673
   0.50008796  0.66675462  0.32131673
   0.83333333  0.00000000  0.32139844
   0.83333333  0.33336084  0.32141228
   0.83333333  0.66663916  0.32141228
   0.00000319  0.00000000  0.38490916
  -0.00012172  0.33335398  0.38490533
  -0.00012172  0.66664602  0.38490533
   0.33333333  0.00000000  0.38488115
   0.33333333  0.33188308  0.38440593
   0.33333333  0.66811692  0.38440593
   0.66666348  0.00000000  0.38490916
   0.66678839  0.33335398  0.38490533
   0.66678839  0.66664602  0.38490533
   0.16668731  0.16654494  0.38490533
   0.16521642  0.50000000  0.38440593
   0.16668731  0.83345506  0.38490533
   0.49997935  0.16654494  0.38490533
   0.50145025  0.50000000  0.38440593
   0.49997935  0.83345506  0.38490533
   0.83333333  0.16666985  0.38490916
   0.83333333  0.50000000  0.38488115
   0.83333333  0.83333015  0.38490916
  -0.00000764  0.16665902  0.44739200
  -0.00007853  0.50000000  0.44728275
  -0.00000764  0.83334098  0.44739200
   0.33333333  0.16658813  0.44728275
   0.33333333  0.50000000  0.44140959
   0.33333333  0.83341187  0.44728275
   0.66667431  0.16665902  0.44739200
   0.66674520  0.50000000  0.44728275
   0.66667431  0.83334098  0.44739200
   0.16669913  0.00000000  0.44738449
   0.16590358  0.33257024  0.44700649
   0.16590358  0.66742976  0.44700649
   0.49996754  0.00000000  0.44738449
   0.50076309  0.33257024  0.44700649
   0.50076309  0.66742976  0.44700649
   0.83333333  0.00000000  0.44736047
   0.83333333  0.33336579  0.44738449
   0.83333333  0.66663421  0.44738449
   0.33333333  0.50000000  0.50644389
   0.33333333  0.50000000  0.53327845
Direct configuration=     6
   0.00000000  0.00000000  0.00000000
   0.00000000  0.33333333  0.00000000
   0.00000000  0.66666667  0.00000000
   0.33333333  0.00000000  0.00000000
   0.33333333  0.33333333  0.00000000
   0.33333333  0.66666667  0.00000000
   0.66666667  0.00000000  0.00000000
   0.66666667  0.33333333  0.00000000
   0.66666667  0.66666667  0.00000000
   0.16666667  0.16666667  0.00000000
   0.16666667  0.50000000  0.00000000
   0.16666667  0.83333333  0.00000000
   0.50000000  0.16666667  0.00000000
   0.50000000  0.50000000  0.00000000
   0.50000000  0.83333333  0.00000000
   0.83333333  0.16666667  0.00000000
   0.83333333  0.50000000  0.00000000
   0.83333333  0.83333333  0.00000000
   0.00000000  0.16666667  0.06551164
   0.00000000  0.50000000  0.06551164
   0.00000000  0.83333333  0.06551164
   0.33333333  0.16666667  0.06551164
   0.33333333  0.50000000  0.06551164
   0.33333333  0.83333333  0.06551164
   0.66666667  0.16666667  0.06551164
   0.66666667  0.50000000  0.06551164
   0.66666667  0.83333333  0.06551164
   0.16666667  0.00000000  0.06551164
   0.16666667  0.33333333  0.06551164
   0.16666667  0.66666667  0.06551164
   0.50000000  0.00000000  0.06551164
   0.50000000  0.33333333  0.06551164
   0.50000000  0.66666667  0.06551164
   0.83333333  0.00000000  0.06551164
   0.83333333  0.33333333  0.06551164
   0.83333333  0.66666667  0.06551164
   0.00000000  0.00000000  0.13119553
   0.00000000  0.33333333  0.13119553
   0.00000000  0.66666667  0.13119553
   0.33333333  0.00000000  0.13119553
   0.33333333  0.33333333  0.13119553
   0.33333333  0.66666667  0.13119553
   0.66666667  0.00000000  0.13119553
   0.66666667  0.33333333  0.13119553
   0.66666667  0.66666667  0.13119553
   0.16666667  0.16666667  0.13119553
   0.16666667  0.50000000  0.13119553
   0.16666667  0.83333333  0.13119553
   0.50000000  0.16666667  0.13119553
   0.50000000  0.50000000  0.13119553