 vasp.6.3.2 27Jun22 (build Aug 17 2022 15:43:34) complex                        
  
 executed on           tv2STDVTST date 2025.01.21  09:58:03
 running   20 mpi-ranks, with    1 threads/rank
 distrk:  each k-point on   20 cores,    1 groups
 distr:  one band on NCORE=   5 cores,    4 groups


--------------------------------------------------------------------------------------------------------


 -----------------------------------------------------------------------------
|                                                                             |
|           W    W    AA    RRRRR   N    N  II  N    N   GGGG   !!!           |
|           W    W   A  A   R    R  NN   N  II  NN   N  G    G  !!!           |
|           W    W  A    A  R    R  N N  N  II  N N  N  G       !!!           |
|           W WW W  AAAAAA  RRRRR   N  N N  II  N  N N  G  GGG   !            |
|           WW  WW  A    A  R   R   N   NN  II  N   NN  G    G                |
|           W    W  A    A  R    R  N    N  II  N    N   GGGG   !!!           |
|                                                                             |
|     Found issues when parsing the INCAR file                                |
|     In line 64: Tagname --- R W I G S contains invalid characters.          |
|     Please check if the interpretation in the OUTCAR file is correct.       |
|                                                                             |
 -----------------------------------------------------------------------------

 INCAR:
    = \=\=\=\=\=\=\=\=\=\=\=\=\=\=\=\=\=\=\=\=\=\=\=\=\=\=\=\=\=\=\=\=\=\=\=\=\=\=\=\=\=\=\=\=\=\=\=\=\=\=\=\=\=\=\=\=\=\=\=\=\=\=\=\=\=\=\=\=\=\=\=\=
    = \=\=\=\=\=\=\=\=\=\=\=\=\=\=\=\=\=\=\=\=\=\=\=\=\=\=\=\=\=\=\=\=\=\=\=\=\=\=\=\=\=\=\=\=\=\=\=\=\=\=\=\=\=\=\=\=\=\=\=\=\=\=\=\=\=\=\=\=\=\=\=\=
   ISTART = 0
   ICHARG = 2
   IPIPOL = 3
   IVDW = 11
   IDIPOL = 3
   IVDW = 11
    = \=\=\=\=\=\=\=\=\=\=\=\=\=\=\=\=\=\=\=\=\=\=\=\=\=\=\=\=\=\=\=\=\=\=\=\=\=\=\=\=\=\=\=\=\=\=\=\=\=\=\=\=\=\=\=\=\=\=\=\=\=\=\=\=\=\=\=\=\=\=\=\=
    = \=\=\=\=\=\=\=\=\=\=\=\=\=\=\=\=\=\=\=\=\=\=\=\=\=\=\=\=\=\=\=\=\=\=\=\=\=\=\=\=\=\=\=\=\=\=\=\=\=\=\=\=\=\=\=\=\=\=\=\=\=\=\=\=\=\=\=\=\=\=\=\=
   ISPIN = 2
    = \=\=\=\=\=\=\=\=\=\=\=\=\=\=\=\=\=\=\=\=\=\=\=\=\=\=\=\=\=\=\=\=\=\=\=\=\=\=\=\=\=\=\=\=\=\=\=\=\=\=\=\=\=\=\=\=\=\=\=\=\=\=\=\=\=\=\=\=\=\=\=\=
    = \=\=\=\=\=\=\=\=\=\=\=\=\=\=\=\=\=\=\=\=\=\=\=\=\=\=\=\=\=\=\=\=\=\=\=\=\=\=\=\=\=\=\=\=\=\=\=\=\=\=\=\=\=\=\=\=\=\=\=\=\=\=\=\=\=\=\=\=\=\=\=\=
   ENCUT = 400
   PREC = Normal
   EDIFF = 2E-04
   GGA = PE
   ISMEAR = 1
   SIGMA = 0.2
   LREAL = .FALSE.
    = \=\=\=\=\=\=\=\=\=\=\=\=\=\=\=\=\=\=\=\=\=\=\=\=\=\=\=\=\=\=\=\=\=\=\=\=\=\=\=\=\=\=\=\=\=\=\=\=\=\=\=\=\=\=\=\=\=\=\=\=\=\=\=\=\=\=\=\=\=\=\=\=
    = \=\=\=\=\=\=\=\=\=\=\=\=\=\=\=\=\=\=\=\=\=\=\=\=\=\=\=\=\=\=\=\=\=\=\=\=\=\=\=\=\=\=\=\=\=\=\=\=\=\=\=\=\=\=\=\=\=\=\=\=\=\=\=\=\=\=\=\=\=\=\=\=
   ISYM = 1
   NSW = 800
   IBRION = 2
   POTIM = 0.5
   ISIF = 2
   EDIFFG = -.03
    = \=\=\=\=\=\=\=\=\=\=\=\=\=\=\=\=\=\=\=\=\=\=\=\=\=\=\=\=\=\=\=\=\=\=\=\=\=\=\=\=\=\=\=\=\=\=\=\=\=\=\=\=\=\=\=\=\=\=\=\=\=\=\=\=\=\=\=\=\=\=\=\=
    = \=\=\=\=\=\=\=\=\=\=\=\=\=\=\=\=\=\=\=\=\=\=\=\=\=\=\=\=\=\=\=\=\=\=\=\=\=\=\=\=\=\=\=\=\=\=\=\=\=\=\=\=\=\=\=\=\=\=\=\=\=\=\=\=\=\=\=\=\=\=\=\=
   NPAR = 4
   LWAVE = .FALSE.
   LCHARG = .FALSE.

 POTCAR:    PAW_PBE Cu 22Jun2005                  
 -----------------------------------------------------------------------------
|                                                                             |
|           W    W    AA    RRRRR   N    N  II  N    N   GGGG   !!!           |
|           W    W   A  A   R    R  NN   N  II  NN   N  G    G  !!!           |
|           W    W  A    A  R    R  N N  N  II  N N  N  G       !!!           |
|           W WW W  AAAAAA  RRRRR   N  N N  II  N  N N  G  GGG   !            |
|           WW  WW  A    A  R   R   N   NN  II  N   NN  G    G                |
|           W    W  A    A  R    R  N    N  II  N    N   GGGG   !!!           |
|                                                                             |
|     You use a magnetic or noncollinear calculation, but did not specify     |
|     the initial magnetic moment with the MAGMOM tag. Note that a            |
|     default of 1 will be used for all atoms. This ferromagnetic setup       |
|     may break the symmetry of the crystal, in particular it may rule        |
|     out finding an antiferromagnetic solution. Thence, we recommend         |
|     setting the initial magnetic moment manually or verifying carefully     |
|     that this magnetic setup is desired.                                    |
|                                                                             |
 -----------------------------------------------------------------------------

 POTCAR:    PAW_PBE Cu 22Jun2005                  
   SHA256 =  0e71e558f37a4e8407882b4609ceaae59938afaad9ced71dfe8490308a0ab630 Cu/POTCAR             
   COPYR  = (c) Copyright 22Jun2005 Georg Kresse                                                    
   COPYR  = This file is part of the software VASP. Any use, copying, and all other rights are regul
   COPYR  = If you do not have a valid VASP license, you may not use, copy or distribute this file. 
   VRHFIN =Cu: d10 p1                                                                               
   LEXCH  = PE                                                                                      
   EATOM  =  1390.9808 eV,  102.2342 Ry                                                             
                                                                                                    
   TITEL  = PAW_PBE Cu 22Jun2005                                                                    
   LULTRA =        F    use ultrasoft PP ?                                                          
   IUNSCR =        1    unscreen: 0-lin 1-nonlin 2-no                                               
   RPACOR =    2.000    partial core radius                                                         
   POMASS =   63.546; ZVAL   =   11.000    mass and valenz                                          
   RCORE  =    2.300    outmost cutoff radius                                                       
   RWIGS  =    2.200; RWIGS  =    1.164    wigner-seitz radius (au A)                               
   ENMAX  =  295.446; ENMIN  =  221.585 eV                                                          
   ICORE  =        3    local potential                                                             
   LCOR   =        T    correct aug charges                                                         
   LPAW   =        T    paw PP                                                                      
   EAUG   =  586.980                                                                                
   DEXC   =    0.000                                                                                
   RMAX   =    2.344    core radius for proj-oper                                                   
   RAUG   =    1.300    factor for augmentation sphere                                              
   RDEP   =    2.302    radius for radial grids                                                     
   RDEPT  =    1.771    core radius for aug-charge                                                  
                                                                                                    
   Atomic configuration                                                                             
    9 entries                                                                                       
     n  l   j            E        occ.                                                              
     1  0  0.50     -8850.2468   2.0000                                                             
     2  0  0.50     -1062.3498   2.0000                                                             
     2  1  1.50      -916.8226   6.0000                                                             
     3  0  0.50      -114.6929   2.0000                                                             
     3  1  1.50       -72.1325   6.0000                                                             
     3  2  2.50        -5.0394  10.0000                                                             
     4  0  0.50        -4.6097   1.0000                                                             
     4  1  0.50        -4.0817   0.0000                                                             
     4  3  2.50        -1.3606   0.0000                                                             
   Description                                                                                      
     l       E           TYP  RCUT    TYP  RCUT                                                     
     2     -5.0393973     23  2.200                                                                 
     2     10.8846608     23  2.200                                                                 
     0     -4.6097109     23  2.200                                                                 
     0      8.2520465     23  2.200                                                                 
     1     -2.7211652     23  2.200                                                                 
     1     21.7055443     23  2.200                                                                 
     3      2.7211652     23  2.300                                                                 
  local pseudopotential read in
  partial core-charges read in
  partial kinetic energy density read in
  atomic valenz-charges read in
  non local Contribution for L=           2  read in
    real space projection operators read in
  non local Contribution for L=           2  read in
    real space projection operators read in
  non local Contribution for L=           0  read in
    real space projection operators read in
  non local Contribution for L=           0  read in
    real space projection operators read in
  non local Contribution for L=           1  read in
    real space projection operators read in
  non local Contribution for L=           1  read in
    real space projection operators read in
    PAW grid and wavefunctions read in
 
   number of l-projection  operators is LMAX  =           6
   number of lm-projection operators is LMMAX =          18
 
 -----------------------------------------------------------------------------
|                                                                             |
|               ----> ADVICE to this user running VASP <----                  |
|                                                                             |
|     You have a (more or less) 'large supercell' and for larger cells it     |
|     might be more efficient to use real-space projection operators.         |
|     Therefore, try LREAL= Auto in the INCAR file.                           |
|     Mind: For very accurate calculation, you might also keep the            |
|     reciprocal projection scheme (i.e. LREAL=.FALSE.).                      |
|                                                                             |
 -----------------------------------------------------------------------------

  PAW_PBE Cu 22Jun2005                  :
 energy of atom  1       EATOM=-1390.9808
 kinetic energy error for atom=    0.0232 (will be added to EATOM!!)
 
 
 POSCAR: FCC Cu
  positions in cartesian coordinates
  velocities in cartesian coordinates
  No initial velocities read in
 exchange correlation table for  LEXCH =        8
   RHO(1)=    0.500       N(1)  =     2000
   RHO(2)=  100.500       N(2)  =     4000

 VTST: version 4.2, (08/11/21)

 CHAIN: initializing optimizer
 
 OPT: Using VASP Conjugate-Gradient optimizer
 CHAIN: Read ICHAIN            0
 
 POSCAR: FCC Cu
  positions in cartesian coordinates
  velocities in cartesian coordinates
  No initial velocities read in
 


--------------------------------------------------------------------------------------------------------


 ion  position               nearest neighbor table
   1  0.000  0.000  0.000-   9 2.57  13 2.57  10 2.57  15 2.57   5 2.57   6 2.57   7 2.57   8 2.57

   2  0.000  0.500  0.000-  10 2.57  14 2.57   9 2.57  16 2.57   6 2.57   5 2.57   8 2.57   7 2.57

   3  0.500  0.000  0.000-  11 2.57  15 2.57  13 2.57  12 2.57   7 2.57   5 2.57   8 2.57   6 2.57

   4  0.500  0.500  0.000-  12 2.57  16 2.57  14 2.57  11 2.57   8 2.57   7 2.57   6 2.57   5 2.57

   5  0.250  0.250  0.000-   9 2.57  13 2.57  11 2.57  14 2.57   1 2.57   2 2.57   3 2.57   4 2.57

   6  0.250  0.750  0.000-  10 2.57  14 2.57  12 2.57  13 2.57   2 2.57   4 2.57   1 2.57   3 2.57

   7  0.750  0.250  0.000-  11 2.57  15 2.57  16 2.57   9 2.57   3 2.57   4 2.57   1 2.57   2 2.57

   8  0.750  0.750  0.000-  12 2.57  16 2.57  15 2.57  10 2.57   4 2.57   3 2.57   2 2.57   1 2.57

   9  0.000  0.250  0.066-  17 2.57  21 2.57  18 2.57  23 2.57   1 2.57   5 2.57   2 2.57   7 2.57
                            13 2.57  14 2.57  15 2.57  16 2.57
  10  0.000  0.750  0.066-  18 2.57  22 2.57  17 2.57  24 2.57   2 2.57   6 2.57   1 2.57   8 2.57
                            14 2.57  13 2.57  16 2.57  15 2.57
  11  0.500  0.250  0.066-  19 2.57  23 2.57  21 2.57  20 2.57   3 2.57   7 2.57   5 2.57   4 2.57
                            15 2.57  13 2.57  16 2.57  14 2.57
  12  0.500  0.750  0.066-  20 2.57  24 2.57  22 2.57  19 2.57   4 2.57   8 2.57   6 2.57   3 2.57
                            16 2.57  14 2.57  15 2.57  13 2.57
  13  0.250  0.000  0.066-  17 2.57  21 2.57  19 2.57  22 2.57   1 2.57   5 2.57   3 2.57   6 2.57
                             9 2.57  11 2.57  10 2.57  12 2.57
  14  0.250  0.500  0.066-  18 2.57  22 2.57  21 2.57  20 2.57   2 2.57   6 2.57   5 2.57   4 2.57
                            10 2.57   9 2.57  12 2.57  11 2.57
  15  0.750  0.000  0.066-  19 2.57  23 2.57  17 2.57  24 2.57   3 2.57   7 2.57   1 2.57   8 2.57
                            11 2.57   9 2.57  12 2.57  10 2.57
  16  0.750  0.500  0.066-  20 2.57  24 2.57  23 2.57  18 2.57   4 2.57   8 2.57   7 2.57   2 2.57
                            12 2.57  11 2.57  10 2.57   9 2.57
  17  0.000  0.000  0.131-   9 2.57  13 2.57  10 2.57  15 2.57  25 2.57  29 2.57  26 2.57  31 2.57
                            21 2.57  22 2.57  23 2.57  24 2.57
  18  0.000  0.500  0.131-  10 2.57  14 2.57   9 2.57  16 2.57  26 2.57  30 2.57  25 2.57  32 2.57
                            22 2.57  21 2.57  24 2.57  23 2.57
  19  0.500  0.000  0.131-  11 2.57  15 2.57  13 2.57  12 2.57  27 2.57  31 2.57  29 2.57  28 2.57
                            23 2.57  21 2.57  24 2.57  22 2.57
  20  0.500  0.500  0.131-  12 2.57  16 2.57  14 2.57  11 2.57  28 2.57  32 2.57  30 2.57  27 2.57
                            24 2.57  23 2.57  22 2.57  21 2.57
  21  0.250  0.250  0.131-   9 2.57  13 2.57  11 2.57  14 2.57  25 2.57  29 2.57  27 2.57  30 2.57
                            17 2.57  18 2.57  19 2.57  20 2.57
  22  0.250  0.750  0.131-  10 2.57  14 2.57  12 2.57  13 2.57  26 2.57  30 2.57  28 2.57  29 2.57
                            18 2.57  20 2.57  17 2.57  19 2.57
  23  0.750  0.250  0.131-  11 2.57  15 2.57  16 2.57   9 2.57  27 2.57  31 2.57  32 2.57  25 2.57
                            19 2.57  20 2.57  17 2.57  18 2.57
  24  0.750  0.750  0.131-  12 2.57  16 2.57  15 2.57  10 2.57  28 2.57  32 2.57  31 2.57  26 2.57
                            20 2.57  19 2.57  18 2.57  17 2.57
  25  0.000  0.250  0.197-  33 2.57  37 2.57  34 2.57  39 2.57  17 2.57  21 2.57  18 2.57  23 2.57
                            29 2.57  30 2.57  31 2.57  32 2.57
  26  0.000  0.750  0.197-  34 2.57  38 2.57  33 2.57  40 2.57  18 2.57  22 2.57  17 2.57  24 2.57
                            30 2.57  29 2.57  32 2.57  31 2.57
  27  0.500  0.250  0.197-  35 2.57  39 2.57  37 2.57  36 2.57  19 2.57  23 2.57  21 2.57  20 2.57
                            31 2.57  29 2.57  32 2.57  30 2.57
  28  0.500  0.750  0.197-  36 2.57  40 2.57  38 2.57  35 2.57  20 2.57  24 2.57  22 2.57  19 2.57
                            32 2.57  30 2.57  31 2.57  29 2.57
  29  0.250  0.000  0.197-  33 2.57  37 2.57  35 2.57  38 2.57  17 2.57  21 2.57  19 2.57  22 2.57
                            25 2.57  27 2.57  26 2.57  28 2.57
  30  0.250  0.500  0.197-  34 2.57  38 2.57  37 2.57  36 2.57  18 2.57  22 2.57  21 2.57  20 2.57
                            26 2.57  25 2.57  28 2.57  27 2.57
  31  0.750  0.000  0.197-  35 2.57  39 2.57  33 2.57  40 2.57  19 2.57  23 2.57  17 2.57  24 2.57
                            27 2.57  25 2.57  28 2.57  26 2.57
  32  0.750  0.500  0.197-  36 2.57  40 2.57  39 2.57  34 2.57  20 2.57  24 2.57  23 2.57  18 2.57
                            28 2.57  27 2.57  26 2.57  25 2.57
  33  0.000  0.000  0.262-  41 2.57  45 2.57  25 2.57  29 2.57  42 2.57  47 2.57  26 2.57  31 2.57
                            37 2.57  38 2.57  39 2.57  40 2.57
  34  0.000  0.500  0.262-  42 2.57  46 2.57  41 2.57  30 2.57  26 2.57  25 2.57  48 2.57  32 2.57
                            38 2.57  37 2.57  40 2.57  39 2.57
  35  0.500  0.000  0.262-  43 2.57  47 2.57  45 2.57  31 2.57  27 2.57  29 2.57  44 2.57  28 2.57
                            39 2.57  37 2.57  40 2.57  38 2.57
  36  0.500  0.500  0.262-  44 2.57  48 2.57  46 2.57  43 2.57  28 2.57  32 2.57  30 2.57  27 2.57
                            40 2.57  39 2.57  38 2.57  37 2.57
  37  0.250  0.250  0.262-  41 2.57  45 2.57  43 2.57  46 2.57  25 2.57  29 2.57  27 2.57  30 2.57
                            33 2.57  34 2.57  35 2.57  36 2.57
  38  0.250  0.750  0.262-  42 2.57  46 2.57  44 2.57  30 2.57  26 2.57  28 2.57  45 2.57  29 2.57
                            34 2.57  36 2.57  33 2.57  35 2.57
  39  0.750  0.250  0.262-  43 2.57  47 2.57  48 2.57  31 2.57  27 2.57  32 2.57  41 2.57  25 2.57
                            35 2.57  36 2.57  33 2.57  34 2.57
  40  0.750  0.750  0.262-  44 2.57  48 2.57  28 2.57  32 2.57  47 2.57  42 2.57  31 2.57  26 2.57
                            36 2.57  35 2.57  34 2.57  33 2.57
  41  0.000  0.250  0.328-  49 2.57  53 2.57  50 2.57  55 2.57  33 2.57  37 2.57  34 2.57  39 2.57
                            45 2.57  46 2.57  47 2.57  48 2.57
  42  0.000  0.750  0.328-  50 2.57  54 2.57  49 2.57  56 2.57  34 2.57  38 2.57  33 2.57  40 2.57
                            46 2.57  45 2.57  48 2.57  47 2.57
  43  0.500  0.250  0.328-  51 2.57  55 2.57  53 2.57  52 2.57  35 2.57  39 2.57  37 2.57  36 2.57
                            47 2.57  45 2.57  48 2.57  46 2.57
  44  0.500  0.750  0.328-  52 2.57  56 2.57  54 2.57  51 2.57  36 2.57  40 2.57  38 2.57  35 2.57
                            48 2.57  46 2.57  47 2.57  45 2.57
  45  0.250  0.000  0.328-  49 2.57  53 2.57  51 2.57  54 2.57  33 2.57  37 2.57  35 2.57  38 2.57
                            41 2.57  43 2.57  42 2.57  44 2.57
  46  0.250  0.500  0.328-  50 2.57  54 2.57  53 2.57  52 2.57  34 2.57  38 2.57  37 2.57  36 2.57
                            42 2.57  41 2.57  44 2.57  43 2.57
  47  0.750  0.000  0.328-  51 2.57  55 2.57  49 2.57  56 2.57  35 2.57  39 2.57  33 2.57  40 2.57
                            43 2.57  41 2.57  44 2.57  42 2.57
  48  0.750  0.500  0.328-  52 2.57  56 2.57  55 2.57  50 2.57  36 2.57  40 2.57  39 2.57  34 2.57
                            44 2.57  43 2.57  42 2.57  41 2.57
  49  0.000  0.000  0.393-  41 2.57  45 2.57  42 2.57  47 2.57  57 2.57  61 2.57  58 2.57  63 2.57
                            53 2.57  54 2.57  55 2.57  56 2.57
  50  0.000  0.500  0.393-  42 2.57  46 2.57  41 2.57  48 2.57  58 2.57  62 2.57  57 2.57  64 2.57
                            54 2.57  53 2.57  56 2.57  55 2.57
  51  0.500  0.000  0.393-  43 2.57  47 2.57  45 2.57  44 2.57  59 2.57  63 2.57  61 2.57  60 2.57
                            55 2.57  53 2.57  56 2.57  54 2.57
  52  0.500  0.500  0.393-  44 2.57  48 2.57  46 2.57  43 2.57  60 2.57  64 2.57  62 2.57  59 2.57
                            56 2.57  55 2.57  54 2.57  53 2.57
  53  0.250  0.250  0.393-  41 2.57  45 2.57  43 2.57  46 2.57  57 2.57  61 2.57  59 2.57  62 2.57
                            49 2.57  50 2.57  51 2.57  52 2.57
  54  0.250  0.750  0.393-  42 2.57  46 2.57  44 2.57  45 2.57  58 2.57  62 2.57  60 2.57  61 2.57
                            50 2.57  52 2.57  49 2.57  51 2.57
  55  0.750  0.250  0.393-  43 2.57  47 2.57  48 2.57  41 2.57  59 2.57  63 2.57  64 2.57  57 2.57
                            51 2.57  52 2.57  49 2.57  50 2.57
  56  0.750  0.750  0.393-  44 2.57  48 2.57  47 2.57  42 2.57  60 2.57  64 2.57  63 2.57  58 2.57
                            52 2.57  51 2.57  50 2.57  49 2.57
  57  0.000  0.250  0.459-  49 2.57  53 2.57  50 2.57  55 2.57  61 2.57  62 2.57  63 2.57  64 2.57

  58  0.000  0.750  0.459-  50 2.57  54 2.57  49 2.57  56 2.57  62 2.57  61 2.57  64 2.57  63 2.57

  59  0.500  0.250  0.459-  51 2.57  55 2.57  53 2.57  52 2.57  63 2.57  61 2.57  64 2.57  62 2.57

  60  0.500  0.750  0.459-  52 2.57  56 2.57  54 2.57  51 2.57  64 2.57  62 2.57  63 2.57  61 2.57

  61  0.250  0.000  0.459-  49 2.57  53 2.57  51 2.57  54 2.57  57 2.57  59 2.57  58 2.57  60 2.57

  62  0.250  0.500  0.459-  50 2.57  54 2.57  53 2.57  52 2.57  58 2.57  57 2.57  60 2.57  59 2.57

  63  0.750  0.000  0.459-  51 2.57  55 2.57  49 2.57  56 2.57  59 2.57  57 2.57  60 2.57  58 2.57

  64  0.750  0.500  0.459-  52 2.57  56 2.57  55 2.57  50 2.57  60 2.57  59 2.57  58 2.57  57 2.57

 
  LATTYP: Found a simple tetragonal cell.
 ALAT       =     7.2600002289
 C/A-ratio  =     3.8161155717
  
  Lattice vectors:
  
 A1 = (   7.2600002289,   0.0000000000,   0.0000000000)
 A2 = (   0.0000000000,   7.2600002289,   0.0000000000)
 A3 = (   0.0000000000,   0.0000000000,  27.7049999237)


Analysis of symmetry for initial positions (statically):
=====================================================================
 Subroutine PRICEL returns following result:
 
  LATTYP: Found a simple tetragonal cell.
 ALAT       =     2.5667976963
 C/A-ratio  =    10.7936047954
  
  Lattice vectors:
  
 A1 = (   1.8150000570,  -1.8150000570,   0.0000000000)
 A2 = (   1.8150000570,   1.8150000570,   0.0000000000)
 A3 = (   0.0000000000,   0.0000000000,  27.7049999237)
 
   8 primitive cells build up your supercell.
 

 Routine SETGRP: Setting up the symmetry group for a 
 simple tetragonal supercell.


 Subroutine GETGRP returns: Found 16 space group operations
 (whereof  8 operations were pure point group operations)
 out of a pool of 16 trial point group operations.


The static configuration has the point symmetry C_4v.
 The point group associated with its full space group is D_4h.


Analysis of symmetry for dynamics (positions and initial velocities):
=====================================================================
 Subroutine PRICEL returns following result:
 
  LATTYP: Found a simple tetragonal cell.
 ALAT       =     2.5667976963
 C/A-ratio  =    10.7936047954
  
  Lattice vectors:
  
 A1 = (   1.8150000570,  -1.8150000570,   0.0000000000)
 A2 = (   1.8150000570,   1.8150000570,   0.0000000000)
 A3 = (   0.0000000000,   0.0000000000,  27.7049999237)
 
   8 primitive cells build up your supercell.
 

 Routine SETGRP: Setting up the symmetry group for a 
 simple tetragonal supercell.


 Subroutine GETGRP returns: Found 16 space group operations
 (whereof  8 operations were pure point group operations)
 out of a pool of 16 trial point group operations.


The dynamic configuration has the point symmetry C_4v.
 The point group associated with its full space group is D_4h.


Analysis of constrained symmetry for selective dynamics:
=====================================================================
 Subroutine PRICEL returns following result:
 
  LATTYP: Found a simple tetragonal cell.
 ALAT       =     2.5667976963
 C/A-ratio  =    10.7936047954
  
  Lattice vectors:
  
 A1 = (   1.8150000570,  -1.8150000570,   0.0000000000)
 A2 = (   1.8150000570,   1.8150000570,   0.0000000000)
 A3 = (   0.0000000000,   0.0000000000,  27.7049999237)
 
   8 primitive cells build up your supercell.
 

 Routine SETGRP: Setting up the symmetry group for a 
 simple tetragonal supercell.


 Subroutine GETGRP returns: Found  8 space group operations
 (whereof  8 operations were pure point group operations)
 out of a pool of 16 trial point group operations.


The constrained configuration has the point symmetry C_4v.


Analysis of structural, dynamic, and magnetic symmetry:
=====================================================================
 Subroutine PRICEL returns following result:
 
  LATTYP: Found a simple tetragonal cell.
 ALAT       =     2.5667976963
 C/A-ratio  =    10.7936047954
  
  Lattice vectors:
  
 A1 = (   1.8150000570,  -1.8150000570,   0.0000000000)
 A2 = (   1.8150000570,   1.8150000570,   0.0000000000)
 A3 = (   0.0000000000,   0.0000000000,  27.7049999237)
 
   8 primitive cells build up your supercell.
 

 Routine SETGRP: Setting up the symmetry group for a 
 simple tetragonal supercell.


 Subroutine GETGRP returns: Found  8 space group operations
 (whereof  8 operations were pure point group operations)
 out of a pool of 16 trial point group operations.


The overall configuration has the point symmetry C_4v.


 Subroutine INISYM returns: Found  8 space group operations
 (whereof  8 operations are pure point group operations),
 and found     8 'primitive' translations


----------------------------------------------------------------------------------------

                                     Primitive cell                                     

  volume of cell :     182.5330

  direct lattice vectors                    reciprocal lattice vectors
     1.815000057 -1.815000057  0.000000000     0.275482085 -0.275482085  0.000000000
     1.815000057  1.815000057  0.000000000     0.275482085  0.275482085  0.000000000
     0.000000000  0.000000000 27.704999924     0.000000000  0.000000000  0.036094568

  length of vectors
     2.566797696  2.566797696 27.704999924     0.389590501  0.389590501  0.036094568

  position of ions in fractional coordinates (direct lattice)
     0.000000000  0.000000000  0.000000000
     0.500000000  0.500000000  0.065511642
     0.000000000  0.000000000  0.131023283
     0.500000000  0.500000000  0.196534925
     0.000000000  0.000000000  0.262046566
     0.500000000  0.500000000  0.327558208
     0.000000000  0.000000000  0.393069849
     0.500000000  0.500000000  0.458581491

  ion indices of the primitive-cell ions
   primitive index   ion index
                 1           1
                 2           9
                 3          17
                 4          25
                 5          33
                 6          41
                 7          49
                 8          57

----------------------------------------------------------------------------------------

 
 
 KPOINTS: Auto-mesh                               

Automatic generation of k-mesh.
 Grid dimensions read from file:
 generate k-points for:    3    3    1

 Generating k-lattice:

  Cartesian coordinates                     Fractional coordinates (reciprocal lattice)
     0.045913681  0.000000000  0.000000000     0.333333333  0.000000000  0.000000000
     0.000000000  0.045913681  0.000000000     0.000000000  0.333333333  0.000000000
     0.000000000  0.000000000  0.036094568     0.000000000  0.000000000  1.000000000

  Length of vectors
     0.045913681  0.045913681  0.036094568

  Shift w.r.t. Gamma in fractional coordinates (k-lattice)
     0.000000000  0.000000000  0.000000000

 
 Subroutine IBZKPT returns following result:
 ===========================================
 
 Found      3 irreducible k-points:
 
 Following reciprocal coordinates:
            Coordinates               Weight
  0.000000  0.000000  0.000000      1.000000
  0.333333  0.000000  0.000000      4.000000
  0.333333  0.333333  0.000000      4.000000
 
 Following cartesian coordinates:
            Coordinates               Weight
  0.000000  0.000000  0.000000      1.000000
  0.045914  0.000000  0.000000      4.000000
  0.045914  0.045914  0.000000      4.000000
 


--------------------------------------------------------------------------------------------------------




 Dimension of arrays:
   k-points           NKPTS =      3   k-points in BZ     NKDIM =      3   number of bands    NBANDS=    456
   number of dos      NEDOS =    301   number of ions     NIONS =     64
   non local maximal  LDIM  =      6   non local SUM 2l+1 LMDIM =     18
   total plane-waves  NPLWV = 181440
   max r-space proj   IRMAX =      1   max aug-charges    IRDMAX=   3798
   dimension x,y,z NGX =    36 NGY =   36 NGZ =  140
   dimension x,y,z NGXF=    72 NGYF=   72 NGZF=  280
   support grid    NGXF=    72 NGYF=   72 NGZF=  280
   ions per type =              64
   NGX,Y,Z   is equivalent  to a cutoff of   8.24,  8.24,  8.40 a.u.
   NGXF,Y,Z  is equivalent  to a cutoff of  16.49, 16.49, 16.80 a.u.

 SYSTEM =  unknown system                          
 POSCAR =  FCC Cu                                  

 Startparameter for this run:
   NWRITE =      2    write-flag & timer
   PREC   = normal    normal or accurate (medium, high low for compatibility)
   ISTART =      0    job   : 0-new  1-cont  2-samecut
   ICHARG =      2    charge: 1-file 2-atom 10-const
   ISPIN  =      2    spin polarized calculation?
   LNONCOLLINEAR =      F non collinear calculations
   LSORBIT =      F    spin-orbit coupling
   INIWAV =      1    electr: 0-lowe 1-rand  2-diag
   LASPH  =      F    aspherical Exc in radial PAW
 Electronic Relaxation 1
   ENCUT  =  400.0 eV  29.40 Ry    5.42 a.u.  11.84 11.84 45.18*2*pi/ulx,y,z
   ENINI  =  400.0     initial cutoff
   ENAUG  =  587.0 eV  augmentation charge cutoff
   NELM   =     60;   NELMIN=  2; NELMDL= -5     # of ELM steps 
   EDIFF  = 0.2E-03   stopping-criterion for ELM
   LREAL  =      F    real-space projection
   NLSPLINE    = F    spline interpolate recip. space projectors
   LCOMPAT=      F    compatible to vasp.4.4
   GGA_COMPAT  = T    GGA compatible to vasp.4.4-vasp.4.6
   LMAXPAW     = -100 max onsite density
   LMAXMIX     =    2 max onsite mixed and CHGCAR
   VOSKOWN=      0    Vosko Wilk Nusair interpolation
   ROPT   =    0.00000
 Ionic relaxation
   EDIFFG = -.3E-01   stopping-criterion for IOM
   NSW    =    800    number of steps for IOM
   NBLOCK =      1;   KBLOCK =    800    inner block; outer block 
   IBRION =      2    ionic relax: 0-MD 1-quasi-New 2-CG
   NFREE  =      1    steps in history (QN), initial steepest desc. (CG)
   ISIF   =      2    stress and relaxation
   IWAVPR =     11    prediction:  0-non 1-charg 2-wave 3-comb
   ISYM   =      1    0-nonsym 1-usesym 2-fastsym
   LCORR  =      T    Harris-Foulkes like correction to forces

   POTIM  = 0.5000    time-step for ionic-motion
   TEIN   =    0.0    initial temperature
   TEBEG  =    0.0;   TEEND  =   0.0 temperature during run
   SMASS  =  -3.00    Nose mass-parameter (am)
   estimated Nose-frequenzy (Omega)   =  0.10E-29 period in steps = 0.13E+47 mass=  -0.120E-26a.u.
   SCALEE = 1.0000    scale energy and forces
   NPACO  =    256;   APACO  = 10.0  distance and # of slots for P.C.
   PSTRESS=    0.0 pullay stress

  Mass of Ions in am
   POMASS =  63.55
  Ionic Valenz
   ZVAL   =  11.00
  Atomic Wigner-Seitz radii
   RWIGS  =  -1.00
  virtual crystal weights 
   VCA    =   1.00
   NELECT =     704.0000    total number of electrons
   NUPDOWN=      -1.0000    fix difference up-down

 DOS related values:
   EMIN   =  10.00;   EMAX   =-10.00  energy-range for DOS
   EFERMI =   0.00
   ISMEAR =     1;   SIGMA  =   0.20  broadening in eV -4-tet -1-fermi 0-gaus

 Electronic relaxation 2 (details)
   IALGO  =     38    algorithm
   LDIAG  =      T    sub-space diagonalisation (order eigenvalues)
   LSUBROT=      F    optimize rotation matrix (better conditioning)
   TURBO    =      0    0=normal 1=particle mesh
   IRESTART =      0    0=no restart 2=restart with 2 vectors
   NREBOOT  =      0    no. of reboots
   NMIN     =      0    reboot dimension
   EREF     =   0.00    reference energy to select bands
   IMIX   =      4    mixing-type and parameters
     AMIX     =   0.40;   BMIX     =  1.00
     AMIX_MAG =   1.60;   BMIX_MAG =  1.00
     AMIN     =   0.10
     WC   =   100.;   INIMIX=   1;  MIXPRE=   1;  MAXMIX= -45

 Intra band minimization:
   WEIMIN = 0.0010     energy-eigenvalue tresh-hold
   EBREAK =  0.11E-06  absolut break condition
   DEPER  =   0.30     relativ break condition  

   TIME   =   0.40     timestep for ELM

  volume/ion in A,a.u.               =      22.82       153.97
  Fermi-wavevector in a.u.,A,eV,Ry     =   1.283675  2.425795 22.419989  1.647823
  Thomas-Fermi vector in A             =   2.415914
 
 Write flags
   LWAVE        =      F    write WAVECAR
   LDOWNSAMPLE  =      F    k-point downsampling of WAVECAR
   LCHARG       =      F    write CHGCAR
   LVTOT        =      F    write LOCPOT, total local potential
   LVHAR        =      F    write LOCPOT, Hartree potential only
   LELF         =      F    write electronic localiz. function (ELF)
   LORBIT       =      0    0 simple, 1 ext, 2 COOP (PROOUT), +10 PAW based schemes


 Dipole corrections
   LMONO  =      F    monopole corrections only (constant potential shift)
   LDIPOL =      F    correct potential (dipole corrections)
   IDIPOL =      3    1-x, 2-y, 3-z, 4-all directions 
   EPSILON=  1.0000000 bulk dielectric constant

 Exchange correlation treatment:
   GGA     =    PE    GGA type
   LEXCH   =     8    internal setting for exchange type
   LIBXC   =     F    Libxc                    
   VOSKOWN =     0    Vosko Wilk Nusair interpolation
   LHFCALC =     F    Hartree Fock is set to
   LHFONE  =     F    Hartree Fock one center treatment
   AEXX    =    0.0000 exact exchange contribution

 Linear response parameters
   LEPSILON=     F    determine dielectric tensor
   LRPA    =     F    only Hartree local field effects (RPA)
   LNABLA  =     F    use nabla operator in PAW spheres
   LVEL    =     F    velocity operator in full k-point grid
   CSHIFT  =0.1000    complex shift for real part using Kramers Kronig
   OMEGAMAX=  -1.0    maximum frequency
   DEG_THRESHOLD= 0.2000000E-02 threshold for treating states as degnerate
   RTIME   =   -0.100 relaxation time in fs
  (WPLASMAI=    0.000 imaginary part of plasma frequency in eV, 0.658/RTIME)
   DFIELD  = 0.0000000 0.0000000 0.0000000 field for delta impulse in time
 
  Optional k-point grid parameters
   LKPOINTS_OPT  =     F    use optional k-point grid
   KPOINTS_OPT_MODE=     1    mode for optional k-point grid
 
 Orbital magnetization related:
   ORBITALMAG=     F  switch on orbital magnetization
   LCHIMAG   =     F  perturbation theory with respect to B field
   DQ        =  0.001000  dq finite difference perturbation B field
   LLRAUG    =     F  two centre corrections for induced B field



--------------------------------------------------------------------------------------------------------


 conjugate gradient relaxation of ions
   using selective dynamics as specified on POSCAR
   WARNING: If single coordinates had been selected the selection of coordinates
            is made according to the corresponding   d i r e c t   coordinates!
            Don't support selection of single cartesian coordinates -- sorry ...
  !
 charge density and potential will be updated during run
 spin polarized calculation
 Variant of blocked Davidson
 Davidson routine will perform the subspace rotation
 perform sub-space diagonalisation
    after iterative eigenvector-optimisation
 modified Broyden-mixing scheme, WC =      100.0
 initial mixing is a Kerker type mixing with AMIX =  0.4000 and BMIX =      1.0000
 Hartree-type preconditioning will be used
 using additional bands          104
 reciprocal scheme for non local part
 use partial core corrections
 calculate Harris-corrections to forces 
   (improved forces if not selfconsistent)
 use gradient corrections 
 use of overlap-Matrix (Vanderbilt PP)
 Methfessel and Paxton  Order N= 1 SIGMA  =   0.20


--------------------------------------------------------------------------------------------------------


  energy-cutoff  :      400.00
  volume of cell :     1460.26
      direct lattice vectors                 reciprocal lattice vectors
     7.260000229  0.000000000  0.000000000     0.137741042  0.000000000  0.000000000
     0.000000000  7.260000229  0.000000000     0.000000000  0.137741042  0.000000000
     0.000000000  0.000000000 27.704999924     0.000000000  0.000000000  0.036094568

  length of vectors
     7.260000229  7.260000229 27.704999924     0.137741042  0.137741042  0.036094568


 
 k-points in units of 2pi/SCALE and weight: Auto-mesh                               
   0.00000000  0.00000000  0.00000000       0.111
   0.04591368  0.00000000  0.00000000       0.444
   0.04591368  0.04591368  0.00000000       0.444
 
 k-points in reciprocal lattice and weights: Auto-mesh                               
   0.00000000  0.00000000  0.00000000       0.111
   0.33333333  0.00000000  0.00000000       0.444
   0.33333333  0.33333333  0.00000000       0.444
 
 position of ions in fractional coordinates (direct lattice) 
   0.00000000  0.00000000  0.00000000
   0.00000000  0.50000000  0.00000000
   0.50000000  0.00000000  0.00000000
   0.50000000  0.50000000  0.00000000
   0.25000000  0.25000000  0.00000000
   0.25000000  0.75000000  0.00000000
   0.75000000  0.25000000  0.00000000
   0.75000000  0.75000000  0.00000000
   0.00000000  0.25000000  0.06551164
   0.00000000  0.75000000  0.06551164
   0.50000000  0.25000000  0.06551164
   0.50000000  0.75000000  0.06551164
   0.25000000  0.00000000  0.06551164
   0.25000000  0.50000000  0.06551164
   0.75000000  0.00000000  0.06551164
   0.75000000  0.50000000  0.06551164
   0.00000000  0.00000000  0.13102328
   0.00000000  0.50000000  0.13102328
   0.50000000  0.00000000  0.13102328
   0.50000000  0.50000000  0.13102328
   0.25000000  0.25000000  0.13102328
   0.25000000  0.75000000  0.13102328
   0.75000000  0.25000000  0.13102328
   0.75000000  0.75000000  0.13102328
   0.00000000  0.25000000  0.19653492
   0.00000000  0.75000000  0.19653492
   0.50000000  0.25000000  0.19653492
   0.50000000  0.75000000  0.19653492
   0.25000000  0.00000000  0.19653492
   0.25000000  0.50000000  0.19653492
   0.75000000  0.00000000  0.19653492
   0.75000000  0.50000000  0.19653492
   0.00000000  0.00000000  0.26204657
   0.00000000  0.50000000  0.26204657
   0.50000000  0.00000000  0.26204657
   0.50000000  0.50000000  0.26204657
   0.25000000  0.25000000  0.26204657
   0.25000000  0.75000000  0.26204657
   0.75000000  0.25000000  0.26204657
   0.75000000  0.75000000  0.26204657
   0.00000000  0.25000000  0.32755821
   0.00000000  0.75000000  0.32755821
   0.50000000  0.25000000  0.32755821
   0.50000000  0.75000000  0.32755821
   0.25000000  0.00000000  0.32755821
   0.25000000  0.50000000  0.32755821
   0.75000000  0.00000000  0.32755821
   0.75000000  0.50000000  0.32755821
   0.00000000  0.00000000  0.39306985
   0.00000000  0.50000000  0.39306985
   0.50000000  0.00000000  0.39306985
   0.50000000  0.50000000  0.39306985
   0.25000000  0.25000000  0.39306985
   0.25000000  0.75000000  0.39306985
   0.75000000  0.25000000  0.39306985
   0.75000000  0.75000000  0.39306985
   0.00000000  0.25000000  0.45858149
   0.00000000  0.75000000  0.45858149
   0.50000000  0.25000000  0.45858149
   0.50000000  0.75000000  0.45858149
   0.25000000  0.00000000  0.45858149
   0.25000000  0.50000000  0.45858149
   0.75000000  0.00000000  0.45858149
   0.75000000  0.50000000  0.45858149
 
 position of ions in cartesian coordinates  (Angst):
   0.00000000  0.00000000  0.00000000
   0.00000000  3.63000011  0.00000000
   3.63000011  0.00000000  0.00000000
   3.63000011  3.63000011  0.00000000
   1.81500006  1.81500006  0.00000000
   1.81500006  5.44500017  0.00000000
   5.44500017  1.81500006  0.00000000
   5.44500017  5.44500017  0.00000000
   0.00000000  1.81500006  1.81500003
   0.00000000  5.44500017  1.81500003
   3.63000011  1.81500006  1.81500003
   3.63000011  5.44500017  1.81500003
   1.81500006  0.00000000  1.81500003
   1.81500006  3.63000011  1.81500003
   5.44500017  0.00000000  1.81500003
   5.44500017  3.63000011  1.81500003
   0.00000000  0.00000000  3.63000005
   0.00000000  3.63000011  3.63000005
   3.63000011  0.00000000  3.63000005
   3.63000011  3.63000011  3.63000005
   1.81500006  1.81500006  3.63000005
   1.81500006  5.44500017  3.63000005
   5.44500017  1.81500006  3.63000005
   5.44500017  5.44500017  3.63000005
   0.00000000  1.81500006  5.44500008
   0.00000000  5.44500017  5.44500008
   3.63000011  1.81500006  5.44500008
   3.63000011  5.44500017  5.44500008
   1.81500006  0.00000000  5.44500008
   1.81500006  3.63000011  5.44500008
   5.44500017  0.00000000  5.44500008
   5.44500017  3.63000011  5.44500008
   0.00000000  0.00000000  7.26000010
   0.00000000  3.63000011  7.26000010
   3.63000011  0.00000000  7.26000010
   3.63000011  3.63000011  7.26000010
   1.81500006  1.81500006  7.26000010
   1.81500006  5.44500017  7.26000010
   5.44500017  1.81500006  7.26000010
   5.44500017  5.44500017  7.26000010
   0.00000000  1.81500006  9.07500013
   0.00000000  5.44500017  9.07500013
   3.63000011  1.81500006  9.07500013
   3.63000011  5.44500017  9.07500013
   1.81500006  0.00000000  9.07500013
   1.81500006  3.63000011  9.07500013
   5.44500017  0.00000000  9.07500013
   5.44500017  3.63000011  9.07500013
   0.00000000  0.00000000 10.89000015
   0.00000000  3.63000011 10.89000015
   3.63000011  0.00000000 10.89000015
   3.63000011  3.63000011 10.89000015
   1.81500006  1.81500006 10.89000015
   1.81500006  5.44500017 10.89000015
   5.44500017  1.81500006 10.89000015
   5.44500017  5.44500017 10.89000015
   0.00000000  1.81500006 12.70500018
   0.00000000  5.44500017 12.70500018
   3.63000011  1.81500006 12.70500018
   3.63000011  5.44500017 12.70500018
   1.81500006  0.00000000 12.70500018
   1.81500006  3.63000011 12.70500018
   5.44500017  0.00000000 12.70500018
   5.44500017  3.63000011 12.70500018
 


--------------------------------------------------------------------------------------------------------


 k-point   1 :   0.0000 0.0000 0.0000  plane waves:   26575
 k-point   2 :   0.3333 0.0000 0.0000  plane waves:   26498
 k-point   3 :   0.3333 0.3333 0.0000  plane waves:   26589

 maximum and minimum number of plane-waves per node :      5330     5287

 maximum number of plane-waves:     26589
 maximum index in each direction: 
   IXMAX=   11   IYMAX=   11   IZMAX=   45
   IXMIN=  -12   IYMIN=  -12   IZMIN=  -45


 parallel 3D FFT for wavefunctions:
    minimum data exchange during FFTs selected (reduces bandwidth)
 parallel 3D FFT for charge:
    minimum data exchange during FFTs selected (reduces bandwidth)


 total amount of memory used by VASP MPI-rank0   111909. kBytes
=======================================================================

   base      :      30000. kBytes
   nonl-proj :       7745. kBytes
   fftplans  :       3883. kBytes
   grid      :       9073. kBytes
   one-center:        404. kBytes
   wavefun   :      60804. kBytes
 
     INWAV:  cpu time      0.0000: real time      0.0006
 Broyden mixing: mesh for mixing (old mesh)
   NGX = 23   NGY = 23   NGZ = 91
  (NGX  = 72   NGY  = 72   NGZ  =280)
  gives a total of  48139 points

 initial charge density was supplied:
 charge density of overlapping atoms calculated
 number of electron     704.0000000 magnetization      64.0000000
 keeping initial charge density in first step


--------------------------------------------------------------------------------------------------------


 Maximum index for augmentation-charges          285 (set IRDMAX)


--------------------------------------------------------------------------------------------------------


 First call to EWALD:  gamma=   0.156
 Maximum number of real-space cells 4x 4x 1
 Maximum number of reciprocal cells 2x 2x 6

    FEWALD:  cpu time      0.0035: real time      0.0035


--------------------------------------- Iteration      1(   1)  ---------------------------------------


    POTLOK:  cpu time      0.1077: real time      0.1086
    SETDIJ:  cpu time      0.0246: real time      0.0247
     EDDAV:  cpu time     31.4348: real time     31.6583
       DOS:  cpu time      0.0032: real time      0.0032
    --------------------------------------------
      LOOP:  cpu time     31.5703: real time     31.7948

 eigenvalue-minimisations  :  5472
 total energy-change (2. order) : 0.6808172E+04  (-0.2496129E+05)
 number of electron     704.0000000 magnetization      64.0000000
 augmentation part      704.0000000 magnetization      64.0000000

 Free energy of the ion-electron system (eV)
  ---------------------------------------------------
  alpha Z        PSCENC =      2051.35464541
  Ewald energy   TEWEN  =    382318.20690852
  -Hartree energ DENC   =   -469803.74000607
  -exchange      EXHF   =         0.00000000
  -V(xc)+E(xc)   XCENC  =      2925.48500044
  PAW double counting   =     78598.23974713   -85370.93961760
  entropy T*S    EENTRO =        -0.00654789
  eigenvalues    EBANDS =      7068.28283318
  atomic energy  EATOM  =     89021.28897279
  Solvation  Ediel_sol  =         0.00000000
  ---------------------------------------------------
  free energy    TOTEN  =      6808.17193592 eV

  energy without entropy =     6808.17848381  energy(sigma->0) =     6808.17411855


--------------------------------------------------------------------------------------------------------




--------------------------------------- Iteration      1(   2)  ---------------------------------------


     EDDAV:  cpu time     31.2191: real time     31.4424
       DOS:  cpu time      0.0034: real time      0.0035
    --------------------------------------------
      LOOP:  cpu time     31.2226: real time     31.4458

 eigenvalue-minimisations  :  5472
 total energy-change (2. order) :-0.5859236E+04  (-0.5610245E+04)
 number of electron     704.0000000 magnetization      64.0000000
 augmentation part      704.0000000 magnetization      64.0000000

 Free energy of the ion-electron system (eV)
  ---------------------------------------------------
  alpha Z        PSCENC =      2051.35464541
  Ewald energy   TEWEN  =    382318.20690852
  -Hartree energ DENC   =   -469803.74000607
  -exchange      EXHF   =         0.00000000
  -V(xc)+E(xc)   XCENC  =      2925.48500044
  PAW double counting   =     78598.23974713   -85370.93961760
  entropy T*S    EENTRO =         0.00584726
  eigenvalues    EBANDS =      1209.03487793
  atomic energy  EATOM  =     89021.28897279
  Solvation  Ediel_sol  =         0.00000000
  ---------------------------------------------------
  free energy    TOTEN  =       948.93637582 eV

  energy without entropy =      948.93052856  energy(sigma->0) =      948.93442674


--------------------------------------------------------------------------------------------------------




--------------------------------------- Iteration      1(   3)  ---------------------------------------


     EDDAV:  cpu time     31.1221: real time     31.3438
       DOS:  cpu time      0.0038: real time      0.0038
    --------------------------------------------
      LOOP:  cpu time     31.1259: real time     31.3476

 eigenvalue-minimisations  :  5472
 total energy-change (2. order) :-0.1128966E+04  (-0.1020327E+04)
 number of electron     704.0000000 magnetization      64.0000000
 augmentation part      704.0000000 magnetization      64.0000000

 Free energy of the ion-electron system (eV)
  ---------------------------------------------------
  alpha Z        PSCENC =      2051.35464541
  Ewald energy   TEWEN  =    382318.20690852
  -Hartree energ DENC   =   -469803.74000607
  -exchange      EXHF   =         0.00000000
  -V(xc)+E(xc)   XCENC  =      2925.48500044
  PAW double counting   =     78598.23974713   -85370.93961760
  entropy T*S    EENTRO =         0.12321237
  eigenvalues    EBANDS =        79.95189360
  atomic energy  EATOM  =     89021.28897279
  Solvation  Ediel_sol  =         0.00000000
  ---------------------------------------------------
  free energy    TOTEN  =      -180.02924340 eV

  energy without entropy =     -180.15245577  energy(sigma->0) =     -180.07031419


--------------------------------------------------------------------------------------------------------




--------------------------------------- Iteration      1(   4)  ---------------------------------------


     EDDAV:  cpu time     33.5768: real time     33.8174
       DOS:  cpu time      0.0042: real time      0.0042
    --------------------------------------------
      LOOP:  cpu time     33.5810: real time     33.8215

 eigenvalue-minimisations  :  6048
 total energy-change (2. order) :-0.8989906E+02  (-0.8575180E+02)
 number of electron     704.0000000 magnetization      64.0000000
 augmentation part      704.0000000 magnetization      64.0000000

 Free energy of the ion-electron system (eV)
  ---------------------------------------------------
  alpha Z        PSCENC =      2051.35464541
  Ewald energy   TEWEN  =    382318.20690852
  -Hartree energ DENC   =   -469803.74000607
  -exchange      EXHF   =         0.00000000
  -V(xc)+E(xc)   XCENC  =      2925.48500044
  PAW double counting   =     78598.23974713   -85370.93961760
  entropy T*S    EENTRO =         0.16595180
  eigenvalues    EBANDS =        -9.98990720
  atomic energy  EATOM  =     89021.28897279
  Solvation  Ediel_sol  =         0.00000000
  ---------------------------------------------------
  free energy    TOTEN  =      -269.92830477 eV

  energy without entropy =     -270.09425657  energy(sigma->0) =     -269.98362204


--------------------------------------------------------------------------------------------------------




--------------------------------------- Iteration      1(   5)  ---------------------------------------


     EDDAV:  cpu time     33.7970: real time     34.0377
       DOS:  cpu time      0.0043: real time      0.0043
    CHARGE:  cpu time      1.0419: real time      1.0470
    MIXING:  cpu time      0.0080: real time      0.0080
    --------------------------------------------
      LOOP:  cpu time     34.8511: real time     35.0970

 eigenvalue-minimisations  :  6080
 total energy-change (2. order) :-0.2256526E+01  (-0.2247521E+01)
 number of electron     704.0009088 magnetization      59.8195568
 augmentation part      416.6186130 magnetization      59.1282264

 Broyden mixing:
  rms(total) = 0.73958E+01    rms(broyden)= 0.73949E+01
  rms(prec ) = 0.75790E+01
  weight for this iteration     100.00

 Free energy of the ion-electron system (eV)
  ---------------------------------------------------
  alpha Z        PSCENC =      2051.35464541
  Ewald energy   TEWEN  =    382318.20690852
  -Hartree energ DENC   =   -469803.74000607
  -exchange      EXHF   =         0.00000000
  -V(xc)+E(xc)   XCENC  =      2925.48500044
  PAW double counting   =     78598.23974713   -85370.93961760
  entropy T*S    EENTRO =         0.16787044
  eigenvalues    EBANDS =       -12.24835189
  atomic energy  EATOM  =     89021.28897279
  Solvation  Ediel_sol  =         0.00000000
  ---------------------------------------------------
  free energy    TOTEN  =      -272.18483082 eV

  energy without entropy =     -272.35270126  energy(sigma->0) =     -272.24078763


--------------------------------------------------------------------------------------------------------




--------------------------------------- Iteration      1(   6)  ---------------------------------------


    POTLOK:  cpu time      0.1090: real time      0.1123
    SETDIJ:  cpu time      0.0228: real time      0.0229
     EDDAV:  cpu time     33.4707: real time     33.7066
       DOS:  cpu time      0.0036: real time      0.0036
    CHARGE:  cpu time      1.0090: real time      1.0139
    MIXING:  cpu time      0.0083: real time      0.0084
    --------------------------------------------
      LOOP:  cpu time     34.6234: real time     34.8675

 eigenvalue-minimisations  :  6016
 total energy-change (2. order) : 0.4713982E+02  (-0.6137369E+02)
 number of electron     704.0010066 magnetization      57.0795621
 augmentation part      469.8934264 magnetization      43.0095146

 Broyden mixing:
  rms(total) = 0.37626E+01    rms(broyden)= 0.37607E+01
  rms(prec ) = 0.38808E+01
  weight for this iteration     100.00

 eigenvalues of (default mixing * dielectric matrix)
  average eigenvalue GAMMA=   0.7917
  0.7917

 Free energy of the ion-electron system (eV)
  ---------------------------------------------------
  alpha Z        PSCENC =      2051.35464541
  Ewald energy   TEWEN  =    382318.20690852
  -Hartree energ DENC   =   -468063.29032743
  -exchange      EXHF   =         0.00000000
  -V(xc)+E(xc)   XCENC  =      2848.93252876
  PAW double counting   =     79554.67663539   -85980.09520109
  entropy T*S    EENTRO =         0.01428974
  eigenvalues    EBANDS =     -1976.13345866
  atomic energy  EATOM  =     89021.28897279
  Solvation  Ediel_sol  =         0.00000000
  ---------------------------------------------------
  free energy    TOTEN  =      -225.04500656 eV

  energy without entropy =     -225.05929630  energy(sigma->0) =     -225.04976981


--------------------------------------------------------------------------------------------------------




--------------------------------------- Iteration      1(   7)  ---------------------------------------


    POTLOK:  cpu time      0.1007: real time      0.1034
    SETDIJ:  cpu time      0.0228: real time      0.0229
     EDDAV:  cpu time     33.2856: real time     33.6786
       DOS:  cpu time      0.0035: real time      0.0035
    CHARGE:  cpu time      0.9882: real time      0.9930
    MIXING:  cpu time      0.0077: real time      0.0077
    --------------------------------------------
      LOOP:  cpu time     34.4084: real time     34.8091

 eigenvalue-minimisations  :  5952
 total energy-change (2. order) : 0.2912004E+02  (-0.1372260E+02)
 number of electron     704.0009727 magnetization      54.2770937
 augmentation part      450.7666949 magnetization      39.2854257

 Broyden mixing:
  rms(total) = 0.19040E+01    rms(broyden)= 0.19036E+01
  rms(prec ) = 0.19766E+01
  weight for this iteration     100.00

 eigenvalues of (default mixing * dielectric matrix)
  average eigenvalue GAMMA=   0.8165
  0.9964  0.6366

 Free energy of the ion-electron system (eV)
  ---------------------------------------------------
  alpha Z        PSCENC =      2051.35464541
  Ewald energy   TEWEN  =    382318.20690852
  -Hartree energ DENC   =   -469020.65298908
  -exchange      EXHF   =         0.00000000
  -V(xc)+E(xc)   XCENC  =      2883.99247667
  PAW double counting   =     81185.44528955   -87936.38941861
  entropy T*S    EENTRO =         0.09998058
  eigenvalues    EBANDS =      -699.27083708
  atomic energy  EATOM  =     89021.28897279
  Solvation  Ediel_sol  =         0.00000000
  ---------------------------------------------------
  free energy    TOTEN  =      -195.92497125 eV

  energy without entropy =     -196.02495184  energy(sigma->0) =     -195.95829811


--------------------------------------------------------------------------------------------------------




--------------------------------------- Iteration      1(   8)  ---------------------------------------


    POTLOK:  cpu time      0.1010: real time      0.1053
    SETDIJ:  cpu time      0.0229: real time      0.0230
     EDDAV:  cpu time     35.2247: real time     35.5354
       DOS:  cpu time      0.0041: real time      0.0041
    CHARGE:  cpu time      1.0157: real time      1.0208
    MIXING:  cpu time      0.0087: real time      0.0088
    --------------------------------------------
      LOOP:  cpu time     36.3772: real time     36.6974

 eigenvalue-minimisations  :  6424
 total energy-change (2. order) : 0.4191327E+00  (-0.4247728E+01)
 number of electron     704.0009670 magnetization      51.1816477
 augmentation part      449.0254592 magnetization      36.3949113

 Broyden mixing:
  rms(total) = 0.20455E+01    rms(broyden)= 0.20453E+01
  rms(prec ) = 0.22667E+01
  weight for this iteration     100.00

 eigenvalues of (default mixing * dielectric matrix)
  average eigenvalue GAMMA=   0.6945
  1.1188  0.6553  0.3094

 Free energy of the ion-electron system (eV)
  ---------------------------------------------------
  alpha Z        PSCENC =      2051.35464541
  Ewald energy   TEWEN  =    382318.20690852
  -Hartree energ DENC   =   -468819.79179557
  -exchange      EXHF   =         0.00000000
  -V(xc)+E(xc)   XCENC  =      2886.44992838
  PAW double counting   =     82029.42862932   -88848.39550152
  entropy T*S    EENTRO =         0.03015334
  eigenvalues    EBANDS =      -834.07777920
  atomic energy  EATOM  =     89021.28897279
  Solvation  Ediel_sol  =         0.00000000
  ---------------------------------------------------
  free energy    TOTEN  =      -195.50583853 eV

  energy without entropy =     -195.53599186  energy(sigma->0) =     -195.51588964


--------------------------------------------------------------------------------------------------------




--------------------------------------- Iteration      1(   9)  ---------------------------------------


    POTLOK:  cpu time      0.1142: real time      0.1179
    SETDIJ:  cpu time      0.0228: real time      0.0229
     EDDAV:  cpu time     42.8068: real time     43.4567
       DOS:  cpu time      0.0044: real time      0.0044
    CHARGE:  cpu time      1.0966: real time      1.1017
    MIXING:  cpu time      0.1035: real time      0.1038
    --------------------------------------------
      LOOP:  cpu time     44.1483: real time     44.8074

 eigenvalue-minimisations  :  7872
 total energy-change (2. order) : 0.5308341E+01  (-0.1082589E+01)
 number of electron     704.0009664 magnetization      43.2583342
 augmentation part      448.1591605 magnetization      28.2345311

 Broyden mixing:
  rms(total) = 0.14988E+01    rms(broyden)= 0.14987E+01
  rms(prec ) = 0.15074E+01
  weight for this iteration     100.00

 eigenvalues of (default mixing * dielectric matrix)
  average eigenvalue GAMMA=   0.9162
  1.3171  1.3171  0.7368  0.2937

 Free energy of the ion-electron system (eV)
  ---------------------------------------------------
  alpha Z        PSCENC =      2051.35464541
  Ewald energy   TEWEN  =    382318.20690852
  -Hartree energ DENC   =   -469071.42694045
  -exchange      EXHF   =         0.00000000
  -V(xc)+E(xc)   XCENC  =      2885.70175529
  PAW double counting   =     82799.05794097   -89670.69986012
  entropy T*S    EENTRO =         0.05634361
  eigenvalues    EBANDS =      -523.73726344
  atomic energy  EATOM  =     89021.28897279
  Solvation  Ediel_sol  =         0.00000000
  ---------------------------------------------------
  free energy    TOTEN  =      -190.19749742 eV

  energy without entropy =     -190.25384103  energy(sigma->0) =     -190.21627862


--------------------------------------------------------------------------------------------------------




--------------------------------------- Iteration      1(  10)  ---------------------------------------


    POTLOK:  cpu time      0.1140: real time      0.1175
    SETDIJ:  cpu time      0.0306: real time      0.0307
     EDDAV:  cpu time     42.4721: real time     42.7709
       DOS:  cpu time      0.0046: real time      0.0047
    CHARGE:  cpu time      1.1080: real time      1.1131
    MIXING:  cpu time      0.1089: real time      0.1092
    --------------------------------------------
      LOOP:  cpu time     43.8382: real time     44.1461

 eigenvalue-minimisations  :  8120
 total energy-change (2. order) :-0.1219855E+01  (-0.1057607E+01)
 number of electron     704.0009698 magnetization      31.7131979
 augmentation part      450.5897079 magnetization      18.0728751

 Broyden mixing:
  rms(total) = 0.12833E+01    rms(broyden)= 0.12832E+01
  rms(prec ) = 0.14122E+01
  weight for this iteration     100.00

 eigenvalues of (default mixing * dielectric matrix)
  average eigenvalue GAMMA=   1.0745
  2.7183  1.1598  0.6842  0.5303  0.2802

 Free energy of the ion-electron system (eV)
  ---------------------------------------------------
  alpha Z        PSCENC =      2051.35464541
  Ewald energy   TEWEN  =    382318.20690852
  -Hartree energ DENC   =   -468831.28851843
  -exchange      EXHF   =         0.00000000
  -V(xc)+E(xc)   XCENC  =      2877.27045482
  PAW double counting   =     83807.18610767   -90701.77370123
  entropy T*S    EENTRO =         0.05266264
  eigenvalues    EBANDS =      -733.71488495
  atomic energy  EATOM  =     89021.28897279
  Solvation  Ediel_sol  =         0.00000000
  ---------------------------------------------------
  free energy    TOTEN  =      -191.41735275 eV

  energy without entropy =     -191.47001540  energy(sigma->0) =     -191.43490697


--------------------------------------------------------------------------------------------------------




--------------------------------------- Iteration      1(  11)  ---------------------------------------


    POTLOK:  cpu time      0.1008: real time      0.1032
    SETDIJ:  cpu time      0.0228: real time      0.0229
     EDDAV:  cpu time     38.2422: real time     38.5893
       DOS:  cpu time      0.0043: real time      0.0043
    CHARGE:  cpu time      1.0296: real time      1.0342
    MIXING:  cpu time      0.0112: real time      0.0113
    --------------------------------------------
      LOOP:  cpu time     39.4109: real time     39.7651

 eigenvalue-minimisations  :  6768
 total energy-change (2. order) :-0.6529533E+01  (-0.1406236E+01)
 number of electron     704.0009730 magnetization      25.8224651
 augmentation part      451.7232153 magnetization      14.0750123

 Broyden mixing:
  rms(total) = 0.13414E+01    rms(broyden)= 0.13412E+01
  rms(prec ) = 0.20823E+01
  weight for this iteration     100.00

 eigenvalues of (default mixing * dielectric matrix)
  average eigenvalue GAMMA=   1.0918
  3.5103  1.1189  0.6706  0.6706  0.2675  0.3129

 Free energy of the ion-electron system (eV)
  ---------------------------------------------------
  alpha Z        PSCENC =      2051.35464541
  Ewald energy   TEWEN  =    382318.20690852
  -Hartree energ DENC   =   -468904.81451692
  -exchange      EXHF   =         0.00000000
  -V(xc)+E(xc)   XCENC  =      2869.19537223
  PAW double counting   =     85029.77852534   -91967.00997004
  entropy T*S    EENTRO =         0.04393321
  eigenvalues    EBANDS =      -615.99075669
  atomic energy  EATOM  =     89021.28897279
  Solvation  Ediel_sol  =         0.00000000
  ---------------------------------------------------
  free energy    TOTEN  =      -197.94688615 eV

  energy without entropy =     -197.99081936  energy(sigma->0) =     -197.96153055


--------------------------------------------------------------------------------------------------------




--------------------------------------- Iteration      1(  12)  ---------------------------------------


    POTLOK:  cpu time      0.1089: real time      0.1125
    SETDIJ:  cpu time      0.0229: real time      0.0230
     EDDAV:  cpu time     39.7049: real time     39.9671
       DOS:  cpu time      0.0039: real time      0.0039
    CHARGE:  cpu time      1.0171: real time      1.0219
    MIXING:  cpu time      0.0139: real time      0.0140
    --------------------------------------------
      LOOP:  cpu time     40.8716: real time     41.1423

 eigenvalue-minimisations  :  7472
 total energy-change (2. order) : 0.1136838E+01  (-0.1197992E+01)
 number of electron     704.0009749 magnetization      20.3674556
 augmentation part      452.7551370 magnetization       9.3878783

 Broyden mixing:
  rms(total) = 0.11077E+01    rms(broyden)= 0.11076E+01
  rms(prec ) = 0.12270E+01
  weight for this iteration     100.00

 eigenvalues of (default mixing * dielectric matrix)
  average eigenvalue GAMMA=   1.2495
  5.0891  1.1178  0.7969  0.7969  0.4873  0.2760  0.1821

 Free energy of the ion-electron system (eV)
  ---------------------------------------------------
  alpha Z        PSCENC =      2051.35464541
  Ewald energy   TEWEN  =    382318.20690852
  -Hartree energ DENC   =   -469010.18056313
  -exchange      EXHF   =         0.00000000
  -V(xc)+E(xc)   XCENC  =      2866.02440417
  PAW double counting   =     85492.39846269   -92451.06126721
  entropy T*S    EENTRO =         0.01746534
  eigenvalues    EBANDS =      -484.85907643
  atomic energy  EATOM  =     89021.28897279
  Solvation  Ediel_sol  =         0.00000000
  ---------------------------------------------------
  free energy    TOTEN  =      -196.81004785 eV

  energy without entropy =     -196.82751319  energy(sigma->0) =     -196.81586963


--------------------------------------------------------------------------------------------------------




--------------------------------------- Iteration      1(  13)  ---------------------------------------


    POTLOK:  cpu time      0.1013: real time      0.1034
    SETDIJ:  cpu time      0.0228: real time      0.0228
     EDDAV:  cpu time     44.8023: real time     45.1385
       DOS:  cpu time      0.0042: real time      0.0042
    CHARGE:  cpu time      1.0282: real time      1.0326
    MIXING:  cpu time      0.0100: real time      0.0101
    --------------------------------------------
      LOOP:  cpu time     45.9688: real time     46.3117

 eigenvalue-minimisations  :  8400
 total energy-change (2. order) :-0.4168645E+01  (-0.4301747E+00)
 number of electron     704.0009726 magnetization      14.7023471
 augmentation part      451.6336053 magnetization       4.7699469

 Broyden mixing:
  rms(total) = 0.76304E+00    rms(broyden)= 0.76297E+00
  rms(prec ) = 0.81952E+00
  weight for this iteration     100.00

 eigenvalues of (default mixing * dielectric matrix)
  average eigenvalue GAMMA=   1.5281
  7.5811  1.3163  0.8806  0.8806  0.6518  0.4623  0.2806  0.1716

 Free energy of the ion-electron system (eV)
  ---------------------------------------------------
  alpha Z        PSCENC =      2051.35464541
  Ewald energy   TEWEN  =    382318.20690852
  -Hartree energ DENC   =   -469173.11702107
  -exchange      EXHF   =         0.00000000
  -V(xc)+E(xc)   XCENC  =      2865.44697852
  PAW double counting   =     85474.36543141   -92445.70994103
  entropy T*S    EENTRO =         0.03051145
  eigenvalues    EBANDS =      -312.84517869
  atomic energy  EATOM  =     89021.28897279
  Solvation  Ediel_sol  =         0.00000000
  ---------------------------------------------------
  free energy    TOTEN  =      -200.97869269 eV

  energy without entropy =     -201.00920414  energy(sigma->0) =     -200.98886318


--------------------------------------------------------------------------------------------------------




--------------------------------------- Iteration      1(  14)  ---------------------------------------


    POTLOK:  cpu time      0.1063: real time      0.1094
    SETDIJ:  cpu time      0.0229: real time      0.0230
     EDDAV:  cpu time     36.3416: real time     36.5736
       DOS:  cpu time      0.0042: real time      0.0042
    CHARGE:  cpu time      0.9984: real time      1.0029
    MIXING:  cpu time      0.0094: real time      0.0094
    --------------------------------------------
      LOOP:  cpu time     37.4827: real time     37.7226

 eigenvalue-minimisations  :  6672
 total energy-change (2. order) :-0.6553799E+01  (-0.7015894E+00)
 number of electron     704.0009692 magnetization      11.8940519
 augmentation part      449.8400471 magnetization       3.8053775

 Broyden mixing:
  rms(total) = 0.37886E+00    rms(broyden)= 0.37870E+00
  rms(prec ) = 0.40402E+00
  weight for this iteration     100.00

 eigenvalues of (default mixing * dielectric matrix)
  average eigenvalue GAMMA=   1.7345
  9.8924  1.7735  0.8342  0.8342  0.7993  0.5966  0.4273  0.2813  0.1721

 Free energy of the ion-electron system (eV)
  ---------------------------------------------------
  alpha Z        PSCENC =      2051.35464541
  Ewald energy   TEWEN  =    382318.20690852
  -Hartree energ DENC   =   -469225.25608855
  -exchange      EXHF   =         0.00000000
  -V(xc)+E(xc)   XCENC  =      2865.31339151
  PAW double counting   =     84840.36577877   -91795.21490892
  entropy T*S    EENTRO =         0.03976126
  eigenvalues    EBANDS =      -283.63095206
  atomic energy  EATOM  =     89021.28897279
  Solvation  Ediel_sol  =         0.00000000
  ---------------------------------------------------
  free energy    TOTEN  =      -207.53249127 eV

  energy without entropy =     -207.57225253  energy(sigma->0) =     -207.54574502


--------------------------------------------------------------------------------------------------------




--------------------------------------- Iteration      1(  15)  ---------------------------------------


    POTLOK:  cpu time      0.1048: real time      0.1071
    SETDIJ:  cpu time      0.0228: real time      0.0229
     EDDAV:  cpu time     39.7873: real time     40.1172
       DOS:  cpu time      0.0113: real time      0.0113
    CHARGE:  cpu time      1.0095: real time      1.0154
    MIXING:  cpu time      0.0144: real time      0.0145
    --------------------------------------------
      LOOP:  cpu time     40.9501: real time     41.2883

 eigenvalue-minimisations  :  7296
 total energy-change (2. order) :-0.6549177E+01  (-0.6022204E+00)
 number of electron     704.0009668 magnetization       9.9223308
 augmentation part      448.6779486 magnetization       3.3398115

 Broyden mixing:
  rms(total) = 0.38707E+00    rms(broyden)= 0.38698E+00
  rms(prec ) = 0.40923E+00
  weight for this iteration     100.00

 eigenvalues of (default mixing * dielectric matrix)
  average eigenvalue GAMMA=   1.7900
 11.1282  2.2571  1.0556  0.7590  0.7590  0.6552  0.4617  0.2801  0.3720  0.1726

 Free energy of the ion-electron system (eV)
  ---------------------------------------------------
  alpha Z        PSCENC =      2051.35464541
  Ewald energy   TEWEN  =    382318.20690852
  -Hartree energ DENC   =   -469209.13073691
  -exchange      EXHF   =         0.00000000
  -V(xc)+E(xc)   XCENC  =      2863.69930841
  PAW double counting   =     84216.68556142   -91146.65540689
  entropy T*S    EENTRO =         0.03316308
  eigenvalues    EBANDS =      -329.56408415
  atomic energy  EATOM  =     89021.28897279
  Solvation  Ediel_sol  =         0.00000000
  ---------------------------------------------------
  free energy    TOTEN  =      -214.08166832 eV

  energy without entropy =     -214.11483140  energy(sigma->0) =     -214.09272268


--------------------------------------------------------------------------------------------------------




--------------------------------------- Iteration      1(  16)  ---------------------------------------


    POTLOK:  cpu time      0.1018: real time      0.1051
    SETDIJ:  cpu time      0.0228: real time      0.0229
     EDDAV:  cpu time     34.4519: real time     34.6760
       DOS:  cpu time      0.0041: real time      0.0041
    CHARGE:  cpu time      0.9987: real time      1.0032
    MIXING:  cpu time      0.0128: real time      0.0128
    --------------------------------------------
      LOOP:  cpu time     35.5920: real time     35.8241

 eigenvalue-minimisations  :  6264
 total energy-change (2. order) :-0.4696968E+01  (-0.4685228E+00)
 number of electron     704.0009668 magnetization       8.9333083
 augmentation part      448.6408233 magnetization       3.7987511

 Broyden mixing:
  rms(total) = 0.25772E+00    rms(broyden)= 0.25763E+00
  rms(prec ) = 0.27297E+00
  weight for this iteration     100.00

 eigenvalues of (default mixing * dielectric matrix)
  average eigenvalue GAMMA=   1.7652
 11.6317  2.5026  1.0589  0.8434  0.8434  0.6468  0.6468  0.2807  0.4247  0.3659
  0.1725

 Free energy of the ion-electron system (eV)
  ---------------------------------------------------
  alpha Z        PSCENC =      2051.35464541
  Ewald energy   TEWEN  =    382318.20690852
  -Hartree energ DENC   =   -469151.41838857
  -exchange      EXHF   =         0.00000000
  -V(xc)+E(xc)   XCENC  =      2861.10258256
  PAW double counting   =     83694.93554566   -90595.17080244
  entropy T*S    EENTRO =        -0.01795464
  eigenvalues    EBANDS =      -419.06014565
  atomic energy  EATOM  =     89021.28897279
  Solvation  Ediel_sol  =         0.00000000
  ---------------------------------------------------
  free energy    TOTEN  =      -218.77863635 eV

  energy without entropy =     -218.76068171  energy(sigma->0) =     -218.77265147


--------------------------------------------------------------------------------------------------------




--------------------------------------- Iteration      1(  17)  ---------------------------------------


    POTLOK:  cpu time      0.1010: real time      0.1034
    SETDIJ:  cpu time      0.0301: real time      0.0302
     EDDAV:  cpu time     36.3936: real time     36.6326
       DOS:  cpu time      0.0041: real time      0.0042
    CHARGE:  cpu time      1.0236: real time      1.0282
    MIXING:  cpu time      0.0105: real time      0.0105
    --------------------------------------------
      LOOP:  cpu time     37.5630: real time     37.8092

 eigenvalue-minimisations  :  6688
 total energy-change (2. order) :-0.1977829E+01  (-0.1634153E+00)
 number of electron     704.0009679 magnetization       8.1092300
 augmentation part      449.1893689 magnetization       3.8852109

 Broyden mixing:
  rms(total) = 0.17215E+00    rms(broyden)= 0.17208E+00
  rms(prec ) = 0.17678E+00
  weight for this iteration     100.00

 eigenvalues of (default mixing * dielectric matrix)
  average eigenvalue GAMMA=   1.7572
 12.0057  2.6313  0.9962  0.9962  1.0736  0.7368  0.7368  0.6629  0.1724  0.2806
  0.4330  0.3602

 Free energy of the ion-electron system (eV)
  ---------------------------------------------------
  alpha Z        PSCENC =      2051.35464541
  Ewald energy   TEWEN  =    382318.20690852
  -Hartree energ DENC   =   -469097.06458460
  -exchange      EXHF   =         0.00000000
  -V(xc)+E(xc)   XCENC  =      2859.07214104
  PAW double counting   =     83533.79791203   -90419.91798344
  entropy T*S    EENTRO =        -0.05876188
  eigenvalues    EBANDS =      -487.43571500
  atomic energy  EATOM  =     89021.28897279
  Solvation  Ediel_sol  =         0.00000000
  ---------------------------------------------------
  free energy    TOTEN  =      -220.75646512 eV

  energy without entropy =     -220.69770324  energy(sigma->0) =     -220.73687783


--------------------------------------------------------------------------------------------------------




--------------------------------------- Iteration      1(  18)  ---------------------------------------


    POTLOK:  cpu time      0.1007: real time      0.1047
    SETDIJ:  cpu time      0.0228: real time      0.0229
     EDDAV:  cpu time     34.0775: real time     34.3531
       DOS:  cpu time      0.0045: real time      0.0045
    CHARGE:  cpu time      0.9963: real time      1.0008
    MIXING:  cpu time      0.0104: real time      0.0105
    --------------------------------------------
      LOOP:  cpu time     35.2123: real time     35.4965

 eigenvalue-minimisations  :  5848
 total energy-change (2. order) :-0.1395244E+01  (-0.7572237E-01)
 number of electron     704.0009681 magnetization       6.7851134
 augmentation part      449.1762184 magnetization       3.1882153

 Broyden mixing:
  rms(total) = 0.16809E+00    rms(broyden)= 0.16807E+00
  rms(prec ) = 0.17383E+00
  weight for this iteration     100.00

 eigenvalues of (default mixing * dielectric matrix)
  average eigenvalue GAMMA=   1.7484
 12.4740  2.9351  1.3923  0.9823  0.9823  0.9220  0.6851  0.6851  0.1724  0.2806
  0.4544  0.3695  0.3935

 Free energy of the ion-electron system (eV)
  ---------------------------------------------------
  alpha Z        PSCENC =      2051.35464541
  Ewald energy   TEWEN  =    382318.20690852
  -Hartree energ DENC   =   -469070.29091524
  -exchange      EXHF   =         0.00000000
  -V(xc)+E(xc)   XCENC  =      2858.18476873
  PAW double counting   =     83493.51458974   -90379.09050035
  entropy T*S    EENTRO =        -0.08873756
  eigenvalues    EBANDS =      -515.23144155
  atomic energy  EATOM  =     89021.28897279
  Solvation  Ediel_sol  =         0.00000000
  ---------------------------------------------------
  free energy    TOTEN  =      -222.15170950 eV

  energy without entropy =     -222.06297194  energy(sigma->0) =     -222.12213032


--------------------------------------------------------------------------------------------------------




--------------------------------------- Iteration      1(  19)  ---------------------------------------


    POTLOK:  cpu time      0.1105: real time      0.1128
    SETDIJ:  cpu time      0.0227: real time      0.0228
     EDDAV:  cpu time     40.1097: real time     40.4349
       DOS:  cpu time      0.0041: real time      0.0042
    CHARGE:  cpu time      1.0103: real time      1.0162
    MIXING:  cpu time      0.0105: real time      0.0106
    --------------------------------------------
      LOOP:  cpu time     41.2677: real time     41.6014

 eigenvalue-minimisations  :  7536
 total energy-change (2. order) :-0.1369882E+01  (-0.6188830E-01)
 number of electron     704.0009683 magnetization       5.6103375
 augmentation part      449.3833751 magnetization       2.8634489

 Broyden mixing:
  rms(total) = 0.13924E+00    rms(broyden)= 0.13920E+00
  rms(prec ) = 0.14091E+00
  weight for this iteration     100.00

 eigenvalues of (default mixing * dielectric matrix)
  average eigenvalue GAMMA=   1.7311
 12.8852  2.6468  1.9634  1.0528  1.0528  0.7962  0.7962  0.6963  0.6963  0.1724
  0.2806  0.4372  0.4041  0.3549

 Free energy of the ion-electron system (eV)
  ---------------------------------------------------
  alpha Z        PSCENC =      2051.35464541
  Ewald energy   TEWEN  =    382318.20690852
  -Hartree energ DENC   =   -469015.94497719
  -exchange      EXHF   =         0.00000000
  -V(xc)+E(xc)   XCENC  =      2856.81369757
  PAW double counting   =     83428.07414556   -90310.53298691
  entropy T*S    EENTRO =        -0.13473580
  eigenvalues    EBANDS =      -572.64726139
  atomic energy  EATOM  =     89021.28897279
  Solvation  Ediel_sol  =         0.00000000
  ---------------------------------------------------
  free energy    TOTEN  =      -223.52159146 eV

  energy without entropy =     -223.38685565  energy(sigma->0) =     -223.47667952


--------------------------------------------------------------------------------------------------------




--------------------------------------- Iteration      1(  20)  ---------------------------------------


    POTLOK:  cpu time      0.1020: real time      0.1059
    SETDIJ:  cpu time      0.0228: real time      0.0229
     EDDAV:  cpu time     34.7458: real time     35.0617
       DOS:  cpu time      0.0049: real time      0.0049
    CHARGE:  cpu time      0.9975: real time      1.0017
    MIXING:  cpu time      0.0121: real time      0.0121
    --------------------------------------------
      LOOP:  cpu time     35.8850: real time     36.2092

 eigenvalue-minimisations  :  6168
 total energy-change (2. order) :-0.1255974E+01  (-0.4612685E-01)
 number of electron     704.0009686 magnetization       3.7280600
 augmentation part      449.4529639 magnetization       1.6122800

 Broyden mixing:
  rms(total) = 0.12745E+00    rms(broyden)= 0.12743E+00
  rms(prec ) = 0.13320E+00
  weight for this iteration     100.00

[...]
 E8    (eV) :   -15.4316
 % E8        : 58.85
    FORVDW:  cpu time      0.3662: real time      0.3679

  FORCE on cell =-STRESS in cart. coord.  units (eV):
  Direction    XX          YY          ZZ          XY          YZ          ZX
  --------------------------------------------------------------------------------------
  Alpha Z  2051.35465  2051.35465  2051.35465
  Ewald  434949.05930434949.05930************    -0.00000     0.00000     0.00000
  Hartree460049.64566460049.64566************    -0.00000    -0.00000    -0.00000
  E(xc)   -4112.77141 -4112.77141 -4116.67924    -0.00000     0.00000     0.00000
  Local  ************************918277.50188     0.00000    -0.00000    -0.00000
  n-local -1396.14474 -1380.70720 -1392.31017     9.65086    -0.00001    -0.00001
  augment  6055.62905  6055.62905  6069.10788    -0.00000     0.00000    -0.00000
  Kinetic  5729.12931  5743.29726  5760.70973     4.85337     0.00000     0.00001
  Fock        0.00000     0.00000     0.00000     0.00000     0.00000     0.00000
  vdW       -31.38664   -31.38664   -25.60733    -0.00000     0.00000     0.00000
  -------------------------------------------------------------------------------------
  Total     -42.67160   -42.67160   -23.02883     0.00000     0.00000     0.00000
  in kB     -46.81856   -46.81856   -25.26685     0.00000     0.00000     0.00000
  external pressure =      -39.63 kB  Pullay stress =        0.00 kB


 VOLUME and BASIS-vectors are now :
 -----------------------------------------------------------------------------
  energy-cutoff  :      400.00
  volume of cell :     1460.26
      direct lattice vectors                 reciprocal lattice vectors
     7.260000229  0.000000000  0.000000000     0.137741042  0.000000000  0.000000000
     0.000000000  7.260000229  0.000000000     0.000000000  0.137741042  0.000000000
     0.000000000  0.000000000 27.704999924     0.000000000  0.000000000  0.036094568

  length of vectors
     7.260000229  7.260000229 27.704999924     0.137741042  0.137741042  0.036094568


 FORCES acting on ions
    electron-ion (+dipol)            ewald-force                    non-local-force                 convergence-correction
 -----------------------------------------------------------------------------------------------
   -.123E-12 -.525E-12 0.549E+04   -.354E-06 -.354E-06 -.549E+04   0.000E+00 -.265E-22 -.347E+01   -.229E-10 -.242E-10 -.517E-01
   -.140E-12 0.174E-05 0.549E+04   -.354E-06 0.147E-06 -.549E+04   0.265E-22 0.401E-22 -.347E+01   -.234E-10 0.183E-10 -.517E-01
   0.174E-05 0.108E-12 0.549E+04   0.147E-06 -.354E-06 -.549E+04   -.331E-23 0.529E-22 -.347E+01   0.170E-10 -.246E-10 -.517E-01
   0.174E-05 0.174E-05 0.549E+04   0.147E-06 0.147E-06 -.549E+04   -.265E-22 -.463E-22 -.347E+01   0.175E-10 0.186E-10 -.517E-01
   0.871E-06 0.871E-06 0.549E+04   -.147E-06 -.147E-06 -.549E+04   0.000E+00 -.331E-22 -.347E+01   -.257E-10 -.226E-10 -.517E-01
   0.871E-06 0.261E-05 0.549E+04   -.147E-06 0.354E-06 -.549E+04   0.397E-22 -.132E-22 -.347E+01   -.253E-10 0.181E-10 -.517E-01
   0.261E-05 0.871E-06 0.549E+04   0.354E-06 -.147E-06 -.549E+04   -.265E-22 -.827E-24 -.347E+01   0.211E-10 -.221E-10 -.517E-01
   0.261E-05 0.261E-05 0.549E+04   0.354E-06 0.354E-06 -.549E+04   0.000E+00 0.298E-22 -.347E+01   0.207E-10 0.176E-10 -.517E-01
   -.110E-12 0.851E-06 0.397E+04   -.466E-06 -.191E-06 -.397E+04   -.562E-22 0.794E-22 -.436E+00   -.567E-10 -.142E-10 0.317E-01
   -.117E-12 0.255E-05 0.397E+04   -.466E-06 0.466E-06 -.397E+04   -.232E-22 -.529E-22 -.436E+00   -.571E-10 0.108E-09 0.317E-01
   0.170E-05 0.851E-06 0.397E+04   0.191E-06 -.191E-06 -.397E+04   -.662E-23 0.662E-22 -.436E+00   0.665E-10 -.137E-10 0.317E-01
   0.170E-05 0.255E-05 0.397E+04   0.191E-06 0.466E-06 -.397E+04   0.529E-22 -.314E-22 -.436E+00   0.669E-10 0.108E-09 0.317E-01
   0.851E-06 -.112E-12 0.397E+04   -.191E-06 -.466E-06 -.397E+04   0.265E-22 -.381E-22 -.436E+00   -.169E-10 -.574E-10 0.317E-01
   0.851E-06 0.170E-05 0.397E+04   -.191E-06 0.191E-06 -.397E+04   0.463E-22 -.265E-22 -.436E+00   -.164E-10 0.671E-10 0.317E-01
   0.255E-05 0.407E-12 0.397E+04   0.466E-06 -.466E-06 -.397E+04   -.132E-22 -.265E-22 -.436E+00   0.111E-09 -.577E-10 0.317E-01
   0.255E-05 0.170E-05 0.397E+04   0.466E-06 0.191E-06 -.397E+04   -.207E-24 -.662E-23 -.436E+00   0.110E-09 0.676E-10 0.317E-01
   -.108E-12 -.124E-11 0.240E+04   -.483E-06 -.483E-06 -.240E+04   0.000E+00 0.265E-22 -.856E-01   0.370E-11 0.241E-11 0.133E+00
   -.113E-12 0.170E-05 0.240E+04   -.483E-06 0.204E-06 -.240E+04   0.000E+00 -.265E-22 -.856E-01   0.324E-11 -.106E-09 0.133E+00
   0.170E-05 0.546E-12 0.240E+04   0.204E-06 -.483E-06 -.240E+04   0.794E-22 0.529E-22 -.856E-01   -.107E-09 0.240E-11 0.133E+00
   0.170E-05 0.170E-05 0.240E+04   0.204E-06 0.204E-06 -.240E+04   -.265E-22 0.596E-22 -.856E-01   -.106E-09 -.105E-09 0.133E+00
   0.851E-06 0.851E-06 0.240E+04   -.204E-06 -.204E-06 -.240E+04   -.529E-22 0.265E-22 -.856E-01   -.434E-10 -.415E-10 0.133E+00
   0.851E-06 0.255E-05 0.240E+04   -.204E-06 0.483E-06 -.240E+04   0.265E-22 -.215E-22 -.856E-01   -.433E-10 -.152E-09 0.133E+00
   0.255E-05 0.851E-06 0.240E+04   0.483E-06 -.204E-06 -.240E+04   0.794E-22 0.298E-22 -.856E-01   -.150E-09 -.410E-10 0.133E+00
   0.255E-05 0.255E-05 0.240E+04   0.483E-06 0.483E-06 -.240E+04   0.265E-22 -.331E-22 -.856E-01   -.150E-09 -.152E-09 0.133E+00
   -.119E-12 0.849E-06 0.811E+03   -.490E-06 -.208E-06 -.811E+03   0.000E+00 0.364E-22 0.737E-01   0.997E-10 0.405E-10 0.313E+00
   -.117E-12 0.255E-05 0.811E+03   -.490E-06 0.490E-06 -.811E+03   -.265E-22 -.584E-23 0.737E-01   0.100E-09 -.209E-09 0.313E+00
   0.170E-05 0.849E-06 0.811E+03   0.208E-06 -.208E-06 -.811E+03   0.000E+00 0.662E-23 0.737E-01   -.147E-09 0.410E-10 0.313E+00
   0.170E-05 0.255E-05 0.811E+03   0.208E-06 0.490E-06 -.811E+03   0.132E-22 -.910E-23 0.737E-01   -.148E-09 -.209E-09 0.313E+00
   0.849E-06 0.408E-13 0.811E+03   -.208E-06 -.490E-06 -.811E+03   0.000E+00 0.000E+00 0.737E-01   0.387E-10 0.999E-10 0.313E+00
   0.849E-06 0.170E-05 0.811E+03   -.208E-06 0.208E-06 -.811E+03   0.132E-22 -.331E-22 0.737E-01   0.392E-10 -.147E-09 0.313E+00
   0.255E-05 -.422E-12 0.811E+03   0.490E-06 -.490E-06 -.811E+03   0.000E+00 -.447E-22 0.737E-01   -.207E-09 0.101E-09 0.313E+00
   0.255E-05 0.170E-05 0.811E+03   0.490E-06 0.208E-06 -.811E+03   0.000E+00 -.744E-23 0.737E-01   -.208E-09 -.148E-09 0.313E+00
   -.124E-12 -.153E-12 -.779E+03   -.488E-06 -.488E-06 0.779E+03   -.153E-22 -.662E-23 -.296E-01   0.170E-09 0.171E-09 0.321E+00
   -.119E-12 0.170E-05 -.779E+03   -.488E-06 0.208E-06 0.779E+03   0.331E-23 -.248E-23 -.296E-01   0.169E-09 -.841E-10 0.321E+00
   0.170E-05 -.858E-12 -.779E+03   0.208E-06 -.488E-06 0.779E+03   0.165E-22 -.993E-23 -.296E-01   -.837E-10 0.171E-09 0.321E+00
   0.170E-05 0.170E-05 -.779E+03   0.208E-06 0.208E-06 0.779E+03   0.165E-22 0.232E-22 -.296E-01   -.826E-10 -.837E-10 0.321E+00
   0.850E-06 0.850E-06 -.779E+03   -.208E-06 -.208E-06 0.779E+03   -.662E-23 0.993E-23 -.296E-01   0.200E-09 0.200E-09 0.321E+00
   0.850E-06 0.255E-05 -.779E+03   -.208E-06 0.488E-06 0.779E+03   -.662E-23 -.165E-23 -.296E-01   0.200E-09 -.557E-10 0.321E+00
   0.255E-05 0.850E-06 -.779E+03   0.488E-06 -.208E-06 0.779E+03   0.496E-23 0.331E-23 -.296E-01   -.554E-10 0.201E-09 0.321E+00
   0.255E-05 0.255E-05 -.779E+03   0.488E-06 0.488E-06 0.779E+03   0.211E-22 0.414E-22 -.296E-01   -.556E-10 -.570E-10 0.321E+00
   -.115E-12 0.849E-06 -.236E+04   -.490E-06 -.206E-06 0.236E+04   -.496E-22 -.290E-22 -.960E-01   0.412E-09 0.325E-09 0.188E+00
   -.115E-12 0.255E-05 -.236E+04   -.490E-06 0.490E-06 0.236E+04   -.827E-23 0.993E-23 -.960E-01   0.412E-09 -.288E-09 0.188E+00
   0.170E-05 0.849E-06 -.236E+04   0.206E-06 -.206E-06 0.236E+04   -.447E-22 0.331E-22 -.960E-01   -.198E-09 0.325E-09 0.188E+00
   0.170E-05 0.255E-05 -.236E+04   0.206E-06 0.490E-06 0.236E+04   -.265E-22 -.273E-22 -.960E-01   -.198E-09 -.288E-09 0.188E+00
   0.849E-06 0.376E-12 -.236E+04   -.206E-06 -.490E-06 0.236E+04   -.265E-22 -.662E-23 -.960E-01   0.325E-09 0.413E-09 0.188E+00
   0.849E-06 0.170E-05 -.236E+04   -.206E-06 0.206E-06 0.236E+04   -.546E-22 -.447E-22 -.960E-01   0.325E-09 -.198E-09 0.188E+00
   0.255E-05 0.173E-11 -.236E+04   0.490E-06 -.490E-06 0.236E+04   -.165E-23 -.993E-23 -.960E-01   -.288E-09 0.414E-09 0.188E+00
   0.255E-05 0.170E-05 -.236E+04   0.490E-06 0.206E-06 0.236E+04   0.662E-23 0.199E-22 -.960E-01   -.288E-09 -.199E-09 0.188E+00
   -.831E-13 -.135E-11 -.398E+04   -.485E-06 -.485E-06 0.398E+04   0.993E-23 0.529E-22 0.232E+00   0.346E-09 0.347E-09 0.178E+00
   -.934E-13 0.169E-05 -.398E+04   -.485E-06 0.195E-06 0.398E+04   0.265E-22 -.265E-22 0.232E+00   0.345E-09 -.119E-09 0.178E+00
   0.169E-05 -.301E-11 -.398E+04   0.195E-06 -.485E-06 0.398E+04   -.662E-23 0.529E-22 0.232E+00   -.118E-09 0.347E-09 0.178E+00
   0.169E-05 0.169E-05 -.398E+04   0.195E-06 0.195E-06 0.398E+04   0.534E-22 -.265E-22 0.232E+00   -.118E-09 -.119E-09 0.178E+00
   0.846E-06 0.846E-06 -.398E+04   -.194E-06 -.194E-06 0.398E+04   -.794E-22 0.000E+00 0.232E+00   0.232E-09 0.230E-09 0.178E+00
   0.846E-06 0.254E-05 -.398E+04   -.194E-06 0.485E-06 0.398E+04   0.265E-22 -.662E-23 0.232E+00   0.232E-09 -.235E-09 0.178E+00
   0.254E-05 0.846E-06 -.398E+04   0.485E-06 -.194E-06 0.398E+04   0.265E-22 -.397E-22 0.232E+00   -.236E-09 0.231E-09 0.178E+00
   0.254E-05 0.254E-05 -.398E+04   0.485E-06 0.485E-06 0.398E+04   -.529E-22 0.397E-22 0.232E+00   -.236E-09 -.235E-09 0.178E+00
   -.108E-12 0.868E-06 -.555E+04   -.368E-06 -.151E-06 0.555E+04   0.212E-21 0.265E-22 0.351E+01   -.247E-09 -.114E-09 0.874E-01
   -.104E-12 0.260E-05 -.555E+04   -.368E-06 0.368E-06 0.555E+04   0.000E+00 -.794E-22 0.351E+01   -.248E-09 0.299E-09 0.874E-01
   0.173E-05 0.868E-06 -.555E+04   0.151E-06 -.151E-06 0.555E+04   0.212E-21 0.212E-21 0.351E+01   0.165E-09 -.114E-09 0.874E-01
   0.173E-05 0.260E-05 -.555E+04   0.151E-06 0.368E-06 0.555E+04   0.794E-22 -.529E-22 0.351E+01   0.166E-09 0.300E-09 0.874E-01
   0.868E-06 -.979E-15 -.555E+04   -.151E-06 -.368E-06 0.555E+04   0.265E-22 0.106E-21 0.351E+01   -.111E-09 -.247E-09 0.874E-01
   0.868E-06 0.173E-05 -.555E+04   -.151E-06 0.151E-06 0.555E+04   0.000E+00 0.106E-21 0.351E+01   -.112E-09 0.165E-09 0.874E-01
   0.260E-05 0.344E-12 -.555E+04   0.368E-06 -.368E-06 0.555E+04   -.212E-21 0.000E+00 0.351E+01   0.297E-09 -.247E-09 0.874E-01
   0.260E-05 0.173E-05 -.555E+04   0.368E-06 0.151E-06 0.555E+04   0.159E-21 -.159E-21 0.351E+01   0.298E-09 0.165E-09 0.874E-01
 -----------------------------------------------------------------------------------------------
   0.820E-04 0.820E-04 -.718E+01   -.269E-12 0.162E-12 0.227E-10   0.477E-21 0.231E-21 -.237E+01   0.780E-09 0.785E-09 0.960E+01
 
 
 POSITION                                       TOTAL-FORCE (eV/Angst)
 -----------------------------------------------------------------------------------
      0.00000      0.00000      0.00000        -0.000000      0.000000      0.304476
      0.00000      3.63000      0.00000        -0.000000     -0.000000      0.304476
      3.63000      0.00000      0.00000         0.000000     -0.000000      0.304476
      3.63000      3.63000      0.00000         0.000000      0.000000      0.304476
      1.81500      1.81500      0.00000         0.000000     -0.000000      0.304476
      1.81500      5.44500      0.00000        -0.000000     -0.000000      0.304476
      5.44500      1.81500      0.00000         0.000000      0.000000      0.304476
      5.44500      5.44500      0.00000        -0.000000      0.000000      0.304476
      0.00000      1.81500      1.81500         0.000000     -0.000000     -0.064773
      0.00000      5.44500      1.81500        -0.000000      0.000000     -0.064773
      3.63000      1.81500      1.81500         0.000000     -0.000000     -0.064773
      3.63000      5.44500      1.81500        -0.000000      0.000000     -0.064773
      1.81500      0.00000      1.81500         0.000000     -0.000000     -0.064773
      1.81500      3.63000      1.81500         0.000000     -0.000000     -0.064773
      5.44500      0.00000      1.81500        -0.000000     -0.000000     -0.064773
      5.44500      3.63000      1.81500        -0.000000      0.000000     -0.064773
      0.00000     -0.00000      3.64712         0.000000      0.000000     -0.057825
      0.00000      3.63000      3.64712        -0.000000     -0.000000     -0.057825
      3.63000      0.00000      3.64712        -0.000000     -0.000000     -0.057825
      3.63000      3.63000      3.64712        -0.000000     -0.000000     -0.057825
      1.81500      1.81500      3.64712         0.000000     -0.000000     -0.057825
      1.81500      5.44500      3.64712        -0.000000      0.000000     -0.057825
      5.44500      1.81500      3.64712         0.000000      0.000000     -0.057825
      5.44500      5.44500      3.64712         0.000000     -0.000000     -0.057825
      0.00000      1.81500      5.45176        -0.000000     -0.000000      0.019060
      0.00000      5.44500      5.45176        -0.000000      0.000000      0.019060
      3.63000      1.81500      5.45176         0.000000     -0.000000      0.019060
      3.63000      5.44500      5.45176         0.000000      0.000000      0.019060
      1.81500     -0.00000      5.45176        -0.000000      0.000000      0.019060
      1.81500      3.63000      5.45176         0.000000     -0.000000      0.019060
      5.44500     -0.00000      5.45176        -0.000000      0.000000      0.019060
      5.44500      3.63000      5.45176        -0.000000      0.000000      0.019060
     -0.00000      0.00000      7.25446        -0.000000     -0.000000      0.023812
      0.00000      3.63000      7.25446        -0.000000      0.000000      0.023812
      3.63000      0.00000      7.25446         0.000000      0.000000      0.023812
      3.63000      3.63000      7.25446         0.000000      0.000000      0.023812
      1.81500      1.81500      7.25446         0.000000      0.000000      0.023812
      1.81500      5.44500      7.25446        -0.000000      0.000000      0.023812
      5.44500      1.81500      7.25446        -0.000000     -0.000000      0.023812
      5.44500      5.44500      7.25446        -0.000000      0.000000      0.023812
      0.00000      1.81500      9.07585        -0.000000     -0.000000     -0.202118
      0.00000      5.44500      9.07585        -0.000000      0.000000     -0.202118
      3.63000      1.81500      9.07585         0.000000      0.000000     -0.202118
      3.63000      5.44500      9.07585         0.000000     -0.000000     -0.202118
      1.81500      0.00000      9.07585         0.000000     -0.000000     -0.202118
      1.81500      3.63000      9.07585        -0.000000      0.000000     -0.202118
      5.44500     -0.00000      9.07585        -0.000000     -0.000000     -0.202118
      5.44500      3.63000      9.07585         0.000000      0.000000     -0.202118
     -0.00000      0.00000     10.85642         0.000000     -0.000000      0.000288
     -0.00000      3.63000     10.85642         0.000000      0.000000      0.000288
      3.63000      0.00000     10.85642         0.000000      0.000000      0.000288
      3.63000      3.63000     10.85642         0.000000      0.000000      0.000288
      1.81500      1.81500     10.85642        -0.000000     -0.000000      0.000288
      1.81500      5.44500     10.85642         0.000000      0.000000      0.000288
      5.44500      1.81500     10.85642         0.000000     -0.000000      0.000288
      5.44500      5.44500     10.85642         0.000000      0.000000      0.000288
     -0.00000      1.81500     12.59898         0.000000     -0.000000     -0.022921
     -0.00000      5.44500     12.59898         0.000000      0.000000     -0.022921
      3.63000      1.81500     12.59898        -0.000000      0.000000     -0.022921
      3.63000      5.44500     12.59898         0.000000     -0.000000     -0.022921
      1.81500     -0.00000     12.59898         0.000000     -0.000000     -0.022921
      1.81500      3.63000     12.59898        -0.000000     -0.000000     -0.022921
      5.44500     -0.00000     12.59898        -0.000000      0.000000     -0.022921
      5.44500      3.63000     12.59898        -0.000000     -0.000000     -0.022921
 -----------------------------------------------------------------------------------
    total drift:                                0.000082      0.000082      0.057201


--------------------------------------------------------------------------------------------------------



  FREE ENERGIE OF THE ION-ELECTRON SYSTEM (eV)
  ---------------------------------------------------
  free  energy   TOTEN  =      -254.84641967 eV

  energy  without entropy=     -254.61559295  energy(sigma->0) =     -254.76947743
 
 d Force = 0.2571839E-02[-0.212E-03, 0.536E-02]  d Energy = 0.3285264E-02-0.713E-03
 d Force =-0.1007399E+04[-0.101E+04,-0.101E+04]  d Ewald  =-0.1007399E+04 0.413E-03


--------------------------------------------------------------------------------------------------------


    POTLOK:  cpu time      0.1260: real time      0.1267


--------------------------------------------------------------------------------------------------------


 stress matrix after NEB project (eV)
    -42.67160      0.00000      0.00000
      0.00000    -42.67160      0.00000
      0.00000      0.00000    -23.02883
  FORCES: max atom, RMS     0.202118    0.075541
  FORCE total and by dimension    0.604325    0.202118
  Stress total and by dimension   64.591469   42.671600


--------------------------------------------------------------------------------------------------------


    WAVPRE:  cpu time      0.0253: real time      0.2501
    FEWALD:  cpu time      0.0020: real time      0.0020
    ORTHCH:  cpu time      4.4663: real time      4.4926
     LOOP+:  cpu time    362.4832: real time    366.0458


--------------------------------------- Iteration      9(   1)  ---------------------------------------


    POTLOK:  cpu time      0.1001: real time      0.1011
    SETDIJ:  cpu time      0.0226: real time      0.0227
     EDDAV:  cpu time     33.3998: real time     33.6302
       DOS:  cpu time      0.0044: real time      0.0044
    CHARGE:  cpu time      1.0143: real time      1.0192
    MIXING:  cpu time      0.0067: real time      0.0067
    --------------------------------------------
      LOOP:  cpu time     34.5480: real time     34.7845

 eigenvalue-minimisations  :  6024
 total energy-change (2. order) : 0.2819030E-01  (-0.1224132E+01)
 number of electron     704.0009450 magnetization       0.0013272
 augmentation part      449.2110476 magnetization       0.0008305

 Broyden mixing:
  rms(total) = 0.23353E-01    rms(broyden)= 0.23292E-01
  rms(prec ) = 0.24719E-01
  weight for this iteration     100.00

 Free energy of the ion-electron system (eV)
  ---------------------------------------------------
  alpha Z        PSCENC =      2051.35464541
  Ewald energy   TEWEN  =    389361.35771359
  -Hartree energ DENC   =   -475817.17523326
  -exchange      EXHF   =         0.00000000
  -V(xc)+E(xc)   XCENC  =      2853.12367145
  PAW double counting   =     83644.80628116   -90536.95441772
  entropy T*S    EENTRO =        -0.23173232
  eigenvalues    EBANDS =      -806.16653998
  atomic energy  EATOM  =     89021.28897279
  Solvation  Ediel_sol  =         0.00000000
  ---------------------------------------------------
  free energy    TOTEN  =      -228.59663888 eV

  energy without entropy =     -228.36490656  energy(sigma->0) =     -228.51939478


--------------------------------------------------------------------------------------------------------




--------------------------------------- Iteration      9(   2)  ---------------------------------------


    POTLOK:  cpu time      0.1043: real time      0.1066
    SETDIJ:  cpu time      0.0229: real time      0.0230
