unknown system                          
           1
     7.260000    0.000000    0.000000
     0.000000    7.260000    0.000000
     0.000000    0.000000   27.705000
   Cu
    64
Direct configuration=     1
   0.00000000  0.00000000  0.00000000
   0.00000000  0.50000000  0.00000000
   0.50000000  0.00000000  0.00000000
   0.50000000  0.50000000  0.00000000
   0.25000000  0.25000000  0.00000000
   0.25000000  0.75000000  0.00000000
   0.75000000  0.25000000  0.00000000
   0.75000000  0.75000000  0.00000000
   0.00000000  0.25000000  0.06551164
   0.00000000  0.75000000  0.06551164
   0.50000000  0.25000000  0.06551164
   0.50000000  0.75000000  0.06551164
   0.25000000  0.00000000  0.06551164
   0.25000000  0.50000000  0.06551164
   0.75000000  0.00000000  0.06551164
   0.75000000  0.50000000  0.06551164
   0.00000000  0.00000000  0.13102328
   0.00000000  0.50000000  0.13102328
   0.50000000  0.00000000  0.13102328
   0.50000000  0.50000000  0.13102328
   0.25000000  0.25000000  0.13102328
   0.25000000  0.75000000  0.13102328
   0.75000000  0.25000000  0.13102328
   0.75000000  0.75000000  0.13102328
   0.00000000  0.25000000  0.19653492
   0.00000000  0.75000000  0.19653492
   0.50000000  0.25000000  0.19653492
   0.50000000  0.75000000  0.19653492
   0.25000000  0.00000000  0.19653492
   0.25000000  0.50000000  0.19653492
   0.75000000  0.00000000  0.19653492
   0.75000000  0.50000000  0.19653492
   0.00000000  0.00000000  0.26204657
   0.00000000  0.50000000  0.26204657
   0.50000000  0.00000000  0.26204657
   0.50000000  0.50000000  0.26204657
   0.25000000  0.25000000  0.26204657
   0.25000000  0.75000000  0.26204657
   0.75000000  0.25000000  0.26204657
   0.75000000  0.75000000  0.26204657
   0.00000000  0.25000000  0.32755821
   0.00000000  0.75000000  0.32755821
   0.50000000  0.25000000  0.32755821
   0.50000000  0.75000000  0.32755821
   0.25000000  0.00000000  0.32755821
   0.25000000  0.50000000  0.32755821
   0.75000000  0.00000000  0.32755821
   0.75000000  0.50000000  0.32755821
   0.00000000  0.00000000  0.39306985
   0.00000000  0.50000000  0.39306985
   0.50000000  0.00000000  0.39306985
   0.50000000  0.50000000  0.39306985
   0.25000000  0.25000000  0.39306985
   0.25000000  0.75000000  0.39306985
   0.75000000  0.25000000  0.39306985
   0.75000000  0.75000000  0.39306985
   0.00000000  0.25000000  0.45858149
   0.00000000  0.75000000  0.45858149
   0.50000000  0.25000000  0.45858149
   0.50000000  0.75000000  0.45858149
   0.25000000  0.00000000  0.45858149
   0.25000000  0.50000000  0.45858149
   0.75000000  0.00000000  0.45858149
   0.75000000  0.50000000  0.45858149
Direct configuration=     2
   0.00000000  0.00000000  0.00000000
   0.00000000  0.50000000  0.00000000
   0.50000000  0.00000000  0.00000000
   0.50000000  0.50000000  0.00000000
   0.25000000  0.25000000  0.00000000
   0.25000000  0.75000000  0.00000000
   0.75000000  0.25000000  0.00000000
   0.75000000  0.75000000  0.00000000
   0.00000000  0.25000000  0.06551164
   0.00000000  0.75000000  0.06551164
   0.50000000  0.25000000  0.06551164
   0.50000000  0.75000000  0.06551164
   0.25000000  0.00000000  0.06551164
   0.25000000  0.50000000  0.06551164
   0.75000000  0.00000000  0.06551164
   0.75000000  0.50000000  0.06551164
   0.00000000 -0.00000000  0.13109140
   0.00000000  0.50000000  0.13109140
   0.50000000 -0.00000000  0.13109140
   0.50000000  0.50000000  0.13109140
   0.25000000  0.25000000  0.13109140
   0.25000000  0.75000000  0.13109140
   0.75000000  0.25000000  0.13109140
   0.75000000  0.75000000  0.13109140
   0.00000000  0.25000000  0.19658818
   0.00000000  0.75000000  0.19658818
   0.50000000  0.25000000  0.19658818
   0.50000000  0.75000000  0.19658818
   0.25000000 -0.00000000  0.19658818
   0.25000000  0.50000000  0.19658818
   0.75000000  0.00000000  0.19658818
   0.75000000  0.50000000  0.19658818
  -0.00000000  0.00000000  0.26198347
   0.00000000  0.50000000  0.26198347
   0.50000000  0.00000000  0.26198347
   0.50000000  0.50000000  0.26198347
   0.25000000  0.25000000  0.26198347
   0.25000000  0.75000000  0.26198347
   0.75000000  0.25000000  0.26198347
   0.75000000  0.75000000  0.26198347
  -0.00000000  0.25000000  0.32751953
  -0.00000000  0.75000000  0.32751953
   0.50000000  0.25000000  0.32751953
   0.50000000  0.75000000  0.32751953
   0.25000000  0.00000000  0.32751953
   0.25000000  0.50000000  0.32751953
   0.75000000 -0.00000000  0.32751953
   0.75000000  0.50000000  0.32751953
  -0.00000000  0.00000000  0.39325164
  -0.00000000  0.50000000  0.39325164
   0.50000000 -0.00000000  0.39325164
   0.50000000  0.50000000  0.39325164
   0.25000000  0.25000000  0.39325164
   0.25000000  0.75000000  0.39325164
   0.75000000  0.25000000  0.39325164
   0.75000000  0.75000000  0.39325164
  -0.00000000  0.25000000  0.45806849
  -0.00000000  0.75000000  0.45806849
   0.50000000  0.25000000  0.45806849
   0.50000000  0.75000000  0.45806849
   0.25000000 -0.00000000  0.45806849
   0.25000000  0.50000000  0.45806849
   0.75000000 -0.00000000  0.45806849
   0.75000000  0.50000000  0.45806849
Direct configuration=     3
   0.00000000  0.00000000  0.00000000
   0.00000000  0.50000000  0.00000000
   0.50000000  0.00000000  0.00000000
   0.50000000  0.50000000  0.00000000
   0.25000000  0.25000000  0.00000000
   0.25000000  0.75000000  0.00000000
   0.75000000  0.25000000  0.00000000
   0.75000000  0.75000000  0.00000000
   0.00000000  0.25000000  0.06551164
   0.00000000  0.75000000  0.06551164
   0.50000000  0.25000000  0.06551164
   0.50000000  0.75000000  0.06551164
   0.25000000  0.00000000  0.06551164
   0.25000000  0.50000000  0.06551164
   0.75000000  0.00000000  0.06551164
   0.75000000  0.50000000  0.06551164
   0.00000000 -0.00000000  0.13115441
   0.00000000  0.50000000  0.13115441
   0.50000000 -0.00000000  0.13115441
   0.50000000  0.50000000  0.13115441
   0.25000000  0.25000000  0.13115441
   0.25000000  0.75000000  0.13115441
   0.75000000  0.25000000  0.13115441
   0.75000000  0.75000000  0.13115441
   0.00000000  0.25000000  0.19663745
   0.00000000  0.75000000  0.19663745
   0.50000000  0.25000000  0.19663745
   0.50000000  0.75000000  0.19663745
   0.25000000 -0.00000000  0.19663745
   0.25000000  0.50000000  0.19663745
   0.75000000  0.00000000  0.19663745
   0.75000000  0.50000000  0.19663745
  -0.00000000  0.00000000  0.26192508
   0.00000000  0.50000000  0.26192508
   0.50000000  0.00000000  0.26192508
   0.50000000  0.50000000  0.26192508
   0.25000000  0.25000000  0.26192508
   0.25000000  0.75000000  0.26192508
   0.75000000  0.25000000  0.26192508
   0.75000000  0.75000000  0.26192508
  -0.00000000  0.25000000  0.32748375
  -0.00000000  0.75000000  0.32748375
   0.50000000  0.25000000  0.32748375
   0.50000000  0.75000000  0.32748375
   0.25000000  0.00000000  0.32748375
   0.25000000  0.50000000  0.32748375
   0.75000000 -0.00000000  0.32748375
   0.75000000  0.50000000  0.32748375
  -0.00000000  0.00000000  0.39341983
  -0.00000000  0.50000000  0.39341983
   0.50000000 -0.00000000  0.39341983
   0.50000000  0.50000000  0.39341983
   0.25000000  0.25000000  0.39341983
   0.25000000  0.75000000  0.39341983
   0.75000000  0.25000000  0.39341983
   0.75000000  0.75000000  0.39341983
  -0.00000000  0.25000000  0.45759386
  -0.00000000  0.75000000  0.45759386
   0.50000000  0.25000000  0.45759386
   0.50000000  0.75000000  0.45759386
   0.25000000 -0.00000000  0.45759386
   0.25000000  0.50000000  0.45759386
   0.75000000 -0.00000000  0.45759386
   0.75000000  0.50000000  0.45759386
Direct configuration=     4
   0.00000000  0.00000000  0.00000000
   0.00000000  0.50000000  0.00000000
   0.50000000  0.00000000  0.00000000
   0.50000000  0.50000000  0.00000000
   0.25000000  0.25000000  0.00000000
   0.25000000  0.75000000  0.00000000
   0.75000000  0.25000000  0.00000000
   0.75000000  0.75000000  0.00000000
   0.00000000  0.25000000  0.06551164
   0.00000000  0.75000000  0.06551164
   0.50000000  0.25000000  0.06551164
   0.50000000  0.75000000  0.06551164
   0.25000000  0.00000000  0.06551164
   0.25000000  0.50000000  0.06551164
   0.75000000  0.00000000  0.06551164
   0.75000000  0.50000000  0.06551164
   0.00000000 -0.00000000  0.13128045
   0.00000000  0.50000000  0.13128045
   0.50000000 -0.00000000  0.13128045
   0.50000000  0.50000000  0.13128045
   0.25000000  0.25000000  0.13128045
   0.25000000  0.75000000  0.13128045
   0.75000000  0.25000000  0.13128045
   0.75000000  0.75000000  0.13128045
   0.00000000  0.25000000  0.19673600
   0.00000000  0.75000000  0.19673600
   0.50000000  0.25000000  0.19673600
   0.50000000  0.75000000  0.19673600
   0.25000000 -0.00000000  0.19673600
   0.25000000  0.50000000  0.19673600
   0.75000000  0.00000000  0.19673600
   0.75000000  0.50000000  0.19673600
  -0.00000000  0.00000000  0.26180832
   0.00000000  0.50000000  0.26180832
   0.50000000  0.00000000  0.26180832
   0.50000000  0.50000000  0.26180832
   0.25000000  0.25000000  0.26180832
   0.25000000  0.75000000  0.26180832
   0.75000000  0.25000000  0.26180832
   0.75000000  0.75000000  0.26180832
  -0.00000000  0.25000000  0.32741218
  -0.00000000  0.75000000  0.32741218
   0.50000000  0.25000000  0.32741218
   0.50000000  0.75000000  0.32741218
   0.25000000  0.00000000  0.32741218
   0.25000000  0.50000000  0.32741218
   0.75000000 -0.00000000  0.32741218
   0.75000000  0.50000000  0.32741218
  -0.00000000  0.00000000  0.39375621
  -0.00000000  0.50000000  0.39375621
   0.50000000 -0.00000000  0.39375621
   0.50000000  0.50000000  0.39375621
   0.25000000  0.25000000  0.39375621
   0.25000000  0.75000000  0.39375621
   0.75000000  0.25000000  0.39375621
   0.75000000  0.75000000  0.39375621
  -0.00000000  0.25000000  0.45664460
  -0.00000000  0.75000000  0.45664460
   0.50000000  0.25000000  0.45664460
   0.50000000  0.75000000  0.45664460
   0.25000000 -0.00000000  0.45664460
   0.25000000  0.50000000  0.45664460
   0.75000000 -0.00000000  0.45664460
   0.75000000  0.50000000  0.45664460
Direct configuration=     5
   0.00000000  0.00000000  0.00000000
   0.00000000  0.50000000  0.00000000
   0.50000000  0.00000000  0.00000000
   0.50000000  0.50000000  0.00000000
   0.25000000  0.25000000  0.00000000
   0.25000000  0.75000000  0.00000000
   0.75000000  0.25000000  0.00000000
   0.75000000  0.75000000  0.00000000
   0.00000000  0.25000000  0.06551164
   0.00000000  0.75000000  0.06551164
   0.50000000  0.25000000  0.06551164
   0.50000000  0.75000000  0.06551164
   0.25000000  0.00000000  0.06551164
   0.25000000  0.50000000  0.06551164
   0.75000000  0.00000000  0.06551164
   0.75000000  0.50000000  0.06551164
   0.00000000 -0.00000000  0.13124494
   0.00000000  0.50000000  0.13124494
   0.50000000 -0.00000000  0.13124494
   0.50000000  0.50000000  0.13124494
   0.25000000  0.25000000  0.13124494
   0.25000000  0.75000000  0.13124494
   0.75000000  0.25000000  0.13124494
   0.75000000  0.75000000  0.13124494
   0.00000000  0.25000000  0.19670823
   0.00000000  0.75000000  0.19670823
   0.50000000  0.25000000  0.19670823
   0.50000000  0.75000000  0.19670823
   0.25000000 -0.00000000  0.19670823
   0.25000000  0.50000000  0.19670823
   0.75000000  0.00000000  0.19670823
   0.75000000  0.50000000  0.19670823
  -0.00000000  0.00000000  0.26184122
   0.00000000  0.50000000  0.26184122
   0.50000000  0.00000000  0.26184122
   0.50000000  0.50000000  0.26184122
   0.25000000  0.25000000  0.26184122
   0.25000000  0.75000000  0.26184122
   0.75000000  0.25000000  0.26184122
   0.75000000  0.75000000  0.26184122
  -0.00000000  0.25000000  0.32743235
  -0.00000000  0.75000000  0.32743235
   0.50000000  0.25000000  0.32743235
   0.50000000  0.75000000  0.32743235
   0.25000000  0.00000000  0.32743235
   0.25000000  0.50000000  0.32743235
   0.75000000 -0.00000000  0.32743235
   0.75000000  0.50000000  0.32743235
  -0.00000000  0.00000000  0.39366143
  -0.00000000  0.50000000  0.39366143
   0.50000000 -0.00000000  0.39366143
   0.50000000  0.50000000  0.39366143
   0.25000000  0.25000000  0.39366143
   0.25000000  0.75000000  0.39366143
   0.75000000  0.25000000  0.39366143
   0.75000000  0.75000000  0.39366143
  -0.00000000  0.25000000  0.45691206
  -0.00000000  0.75000000  0.45691206
   0.50000000  0.25000000  0.45691206
   0.50000000  0.75000000  0.45691206
   0.25000000 -0.00000000  0.45691206
   0.25000000  0.50000000  0.45691206
   0.75000000 -0.00000000  0.45691206
   0.75000000  0.50000000  0.45691206
Direct configuration=     6
   0.00000000  0.00000000  0.00000000
   0.00000000  0.50000000  0.00000000
   0.50000000  0.00000000  0.00000000
   0.50000000  0.50000000  0.00000000
   0.25000000  0.25000000  0.00000000
   0.25000000  0.75000000  0.00000000
   0.75000000  0.25000000  0.00000000
   0.75000000  0.75000000  0.00000000
   0.00000000  0.25000000  0.06551164
   0.00000000  0.75000000  0.06551164
   0.50000000  0.25000000  0.06551164
   0.50000000  0.75000000  0.06551164
   0.25000000  0.00000000  0.06551164
   0.25000000  0.50000000  0.06551164
   0.75000000  0.00000000  0.06551164
   0.75000000  0.50000000  0.06551164
   0.00000000 -0.00000000  0.13132123
   0.00000000  0.50000000  0.13132123
   0.50000000 -0.00000000  0.13132123
   0.50000000  0.50000000  0.13132123
   0.25000000  0.25000000  0.13132123
   0.25000000  0.75000000  0.13132123
   0.75000000  0.25000000  0.13132123
   0.75000000  0.75000000  0.13132123
   0.00000000  0.25000000  0.19672184
   0.00000000  0.75000000  0.19672184
   0.50000000  0.25000000  0.19672184
   0.50000000  0.75000000  0.19672184
   0.25000000 -0.00000000  0.19672184
   0.25000000  0.50000000  0.19672184
   0.75000000  0.00000000  0.19672184
   0.75000000  0.50000000  0.19672184
  -0.00000000  0.00000000  0.26184226
   0.00000000  0.50000000  0.26184226
   0.50000000  0.00000000  0.26184226
   0.50000000  0.50000000  0.26184226
   0.25000000  0.25000000  0.26184226
   0.25000000  0.75000000  0.26184226
   0.75000000  0.25000000  0.26184226
   0.75000000  0.75000000  0.26184226
  -0.00000000  0.25000000  0.32746248
  -0.00000000  0.75000000  0.32746248
   0.50000000  0.25000000  0.32746248
   0.50000000  0.75000000  0.32746248
   0.25000000  0.00000000  0.32746248
   0.25000000  0.50000000  0.32746248
   0.75000000 -0.00000000  0.32746248
   0.75000000  0.50000000  0.32746248
  -0.00000000  0.00000000  0.39331422
  -0.00000000  0.50000000  0.39331422
   0.50000000  0.00000000  0.39331422
   0.50000000  0.50000000  0.39331422
   0.25000000  0.25000000  0.39331422
   0.25000000  0.75000000  0.39331422
   0.75000000  0.25000000  0.39331422
   0.75000000  0.75000000  0.39331422
  -0.00000000  0.25000000  0.45649682
  -0.00000000  0.75000000  0.45649682
   0.50000000  0.25000000  0.45649682
   0.50000000  0.75000000  0.45649682
   0.25000000 -0.00000000  0.45649682
   0.25000000  0.50000000  0.45649682
   0.75000000 -0.00000000  0.45649682
   0.75000000  0.50000000  0.45649682
Direct configuration=     7
   0.00000000  0.00000000  0.00000000
   0.00000000  0.50000000  0.00000000
   0.50000000  0.00000000  0.00000000
   0.50000000  0.50000000  0.00000000
   0.25000000  0.25000000  0.00000000
   0.25000000  0.75000000  0.00000000
   0.75000000  0.25000000  0.00000000
   0.75000000  0.75000000  0.00000000
   0.00000000  0.25000000  0.06551164
   0.00000000  0.75000000  0.06551164
   0.50000000  0.25000000  0.06551164
   0.50000000  0.75000000  0.06551164
   0.25000000  0.00000000  0.06551164
   0.25000000  0.50000000  0.06551164
   0.75000000  0.00000000  0.06551164
   0.75000000  0.50000000  0.06551164
   0.00000000 -0.00000000  0.13155011
   0.00000000  0.50000000  0.13155011
   0.50000000  0.00000000  0.13155011
   0.50000000  0.50000000  0.13155011
   0.25000000  0.25000000  0.13155011
   0.25000000  0.75000000  0.13155011
   0.75000000  0.25000000  0.13155011
   0.75000000  0.75000000  0.13155011
   0.00000000  0.25000000  0.19676266
   0.00000000  0.75000000  0.19676266
   0.50000000  0.25000000  0.19676266
   0.50000000  0.75000000  0.19676266
   0.25000000 -0.00000000  0.19676266
   0.25000000  0.50000000  0.19676266
   0.75000000 -0.00000000  0.19676266
   0.75000000  0.50000000  0.19676266
  -0.00000000  0.00000000  0.26184538
   0.00000000  0.50000000  0.26184538
   0.50000000  0.00000000  0.26184538
   0.50000000  0.50000000  0.26184538
   0.25000000  0.25000000  0.26184538
   0.25000000  0.75000000  0.26184538
   0.75000000  0.25000000  0.26184538
   0.75000000  0.75000000  0.26184538
  -0.00000000  0.25000000  0.32755287
   0.00000000  0.75000000  0.32755287
   0.50000000  0.25000000  0.32755287
   0.50000000  0.75000000  0.32755287
   0.25000000  0.00000000  0.32755287
   0.25000000  0.50000000  0.32755287
   0.75000000 -0.00000000  0.32755287
   0.75000000  0.50000000  0.32755287
  -0.00000000  0.00000000  0.39227256
  -0.00000000  0.50000000  0.39227256
   0.50000000  0.00000000  0.39227256
   0.50000000  0.50000000  0.39227256
   0.25000000  0.25000000  0.39227256
   0.25000000  0.75000000  0.39227256
   0.75000000  0.25000000  0.39227256
   0.75000000  0.75000000  0.39227256
  -0.00000000  0.25000000  0.45525111
  -0.00000000  0.75000000  0.45525111
   0.50000000  0.25000000  0.45525111
   0.50000000  0.75000000  0.45525111
   0.25000000 -0.00000000  0.45525111
   0.25000000  0.50000000  0.45525111
   0.75000000 -0.00000000  0.45525111
   0.75000000  0.50000000  0.45525111
Direct configuration=     8
   0.00000000  0.00000000  0.00000000
   0.00000000  0.50000000  0.00000000
   0.50000000  0.00000000  0.00000000
   0.50000000  0.50000000  0.00000000
   0.25000000  0.25000000  0.00000000
   0.25000000  0.75000000  0.00000000
   0.75000000  0.25000000  0.00000000
   0.75000000  0.75000000  0.00000000
   0.00000000  0.25000000  0.06551164
   0.00000000  0.75000000  0.06551164
   0.50000000  0.25000000  0.06551164
   0.50000000  0.75000000  0.06551164
   0.25000000  0.00000000  0.06551164
   0.25000000  0.50000000  0.06551164
   0.75000000  0.00000000  0.06551164
   0.75000000  0.50000000  0.06551164
   0.00000000 -0.00000000  0.13164128
   0.00000000  0.50000000  0.13164128
   0.50000000  0.00000000  0.13164128
   0.50000000  0.50000000  0.13164128
   0.25000000  0.25000000  0.13164128
   0.25000000  0.75000000  0.13164128
   0.75000000  0.25000000  0.13164128
   0.75000000  0.75000000  0.13164128
   0.00000000  0.25000000  0.19677891
   0.00000000  0.75000000  0.19677891
   0.50000000  0.25000000  0.19677891
   0.50000000  0.75000000  0.19677891
   0.25000000 -0.00000000  0.19677891
   0.25000000  0.50000000  0.19677891
   0.75000000 -0.00000000  0.19677891
   0.75000000  0.50000000  0.19677891
  -0.00000000  0.00000000  0.26184662
   0.00000000  0.50000000  0.26184662
   0.50000000  0.00000000  0.26184662
   0.50000000  0.50000000  0.26184662
   0.25000000  0.25000000  0.26184662
   0.25000000  0.75000000  0.26184662
   0.75000000  0.25000000  0.26184662
   0.75000000  0.75000000  0.26184662
   0.00000000  0.25000000  0.32758887
   0.00000000  0.75000000  0.32758887
   0.50000000  0.25000000  0.32758887
   0.50000000  0.75000000  0.32758887
   0.25000000  0.00000000  0.32758887
   0.25000000  0.50000000  0.32758887
   0.75000000 -0.00000000  0.32758887
   0.75000000  0.50000000  0.32758887
  -0.00000000  0.00000000  0.39185763
  -0.00000000  0.50000000  0.39185763
   0.50000000  0.00000000  0.39185763
   0.50000000  0.50000000  0.39185763
   0.25000000  0.25000000  0.39185763
   0.25000000  0.75000000  0.39185763
   0.75000000  0.25000000  0.39185763
   0.75000000  0.75000000  0.39185763
  -0.00000000  0.25000000  0.45475490
  -0.00000000  0.75000000  0.45475490
   0.50000000  0.25000000  0.45475490
   0.50000000  0.75000000  0.45475490
   0.25000000 -0.00000000  0.45475490
   0.25000000  0.50000000  0.45475490
   0.75000000 -0.00000000  0.45475490
   0.75000000  0.50000000  0.45475490
