   8   8   0   0
  0.2116159E+02  0.2566798E-09  0.2566798E-09  0.2967047E-08  0.5000000E-15
  1.000000000000000E-004
  CAR 
 unknown system                          
     13.31504122     -9.05309976  301      1.70587048      1.00000000
     -9.053  0.0000E+00  0.0000E+00  0.0000E+00  0.0000E+00
     -8.979  0.0000E+00  0.0000E+00  0.0000E+00  0.0000E+00
     -8.904  0.0000E+00  0.0000E+00  0.0000E+00  0.0000E+00
     -8.829  0.0000E+00  0.0000E+00  0.0000E+00  0.0000E+00
     -8.755  0.0000E+00  0.0000E+00  0.0000E+00  0.0000E+00
     -8.680 -0.7637E-31 -0.7641E-31 -0.5694E-32 -0.5697E-32
     -8.606 -0.2726E-28 -0.2727E-28 -0.2038E-29 -0.2039E-29
     -8.531 -0.7366E-26 -0.7369E-26 -0.5512E-27 -0.5515E-27
     -8.457 -0.1503E-23 -0.1504E-23 -0.1126E-24 -0.1127E-24
     -8.382 -0.2315E-21 -0.2316E-21 -0.1737E-22 -0.1738E-22
     -8.307 -0.2691E-19 -0.2692E-19 -0.2024E-20 -0.2025E-20
     -8.233 -0.2255E-17 -0.2256E-17 -0.1702E-18 -0.1702E-18
     -8.158 -0.1508E-15 -0.1509E-15 -0.1142E-16 -0.1142E-16
     -8.084 -0.7461E-14 -0.7463E-14 -0.5677E-15 -0.5679E-15
     -8.009 -0.2773E-12 -0.2774E-12 -0.2125E-13 -0.2125E-13
     -7.935 -0.7730E-11 -0.7732E-11 -0.5976E-12 -0.5977E-12
     -7.860 -0.1611E-09 -0.1611E-09 -0.1261E-10 -0.1261E-10
     -7.786 -0.2501E-08 -0.2502E-08 -0.1991E-09 -0.1992E-09
     -7.711 -0.2879E-07 -0.2879E-07 -0.2345E-08 -0.2346E-08
     -7.636 -0.2435E-06 -0.2435E-06 -0.2050E-07 -0.2050E-07
     -7.562 -0.1493E-05 -0.1493E-05 -0.1318E-06 -0.1319E-06
     -7.487 -0.6474E-05 -0.6475E-05 -0.6145E-06 -0.6146E-06
     -7.413 -0.1876E-04 -0.1876E-04 -0.2013E-05 -0.2013E-05
     -7.338 -0.3038E-04 -0.3038E-04 -0.4278E-05 -0.4278E-05
     -7.264  0.1886E-05  0.1893E-05 -0.4137E-05 -0.4137E-05
     -7.189  0.1434E-03  0.1434E-03  0.6551E-05  0.6553E-05
     -7.115  0.3820E-03  0.3820E-03  0.3503E-04  0.3503E-04
     -7.040  0.5567E-03  0.5567E-03  0.7653E-04  0.7654E-04
     -6.965  0.5012E-03  0.5011E-03  0.1139E-03  0.1139E-03
     -6.891  0.2648E-03  0.2647E-03  0.1336E-03  0.1336E-03
     -6.816  0.7996E-04  0.7995E-04  0.1396E-03  0.1396E-03
     -6.742  0.1226E-03  0.1227E-03  0.1487E-03  0.1487E-03
     -6.667  0.3528E-03  0.3528E-03  0.1751E-03  0.1751E-03
     -6.593  0.5486E-03  0.5486E-03  0.2160E-03  0.2160E-03
     -6.518  0.5173E-03  0.5172E-03  0.2545E-03  0.2545E-03
     -6.443  0.2961E-03  0.2961E-03  0.2766E-03  0.2766E-03
     -6.369  0.7658E-04  0.7656E-04  0.2823E-03  0.2823E-03
     -6.294 -0.3146E-04 -0.3147E-04  0.2800E-03  0.2800E-03
     -6.220 -0.5586E-04 -0.5586E-04  0.2758E-03  0.2758E-03
     -6.145 -0.3427E-04 -0.3426E-04  0.2732E-03  0.2732E-03
     -6.071  0.6802E-04  0.6804E-04  0.2783E-03  0.2783E-03
     -5.996  0.2836E-03  0.2836E-03  0.2995E-03  0.2995E-03
     -5.922  0.5126E-03  0.5127E-03  0.3377E-03  0.3377E-03
     -5.847  0.5663E-03  0.5663E-03  0.3799E-03  0.3799E-03
     -5.772  0.3938E-03  0.3937E-03  0.4093E-03  0.4093E-03
     -5.698  0.1524E-03  0.1524E-03  0.4206E-03  0.4206E-03
     -5.623  0.5135E-05  0.5126E-05  0.4210E-03  0.4210E-03
     -5.549 -0.3158E-04 -0.3158E-04  0.4187E-03  0.4187E-03
     -5.474 -0.2494E-04 -0.2494E-04  0.4168E-03  0.4168E-03
     -5.400 -0.2373E-04 -0.2373E-04  0.4150E-03  0.4150E-03
     -5.325 -0.3163E-04 -0.3163E-04  0.4127E-03  0.4127E-03
     -5.251 -0.7004E-05 -0.6996E-05  0.4121E-03  0.4121E-03
     -5.176  0.1194E-03  0.1195E-03  0.4211E-03  0.4211E-03
     -5.101  0.3532E-03  0.3533E-03  0.4474E-03  0.4474E-03
     -5.027  0.5512E-03  0.5513E-03  0.4885E-03  0.4885E-03
     -4.952  0.5378E-03  0.5378E-03  0.5286E-03  0.5286E-03
     -4.878  0.3259E-03  0.3258E-03  0.5529E-03  0.5529E-03
     -4.803  0.9944E-04  0.9941E-04  0.5603E-03  0.5603E-03
     -4.729 -0.1321E-04 -0.1322E-04  0.5593E-03  0.5593E-03
     -4.654 -0.3002E-04 -0.3002E-04  0.5571E-03  0.5571E-03
     -4.579 -0.1927E-04 -0.1927E-04  0.5556E-03  0.5556E-03
     -4.505 -0.2081E-04 -0.2081E-04  0.5541E-03  0.5541E-03
     -4.430 -0.4800E-04 -0.4800E-04  0.5505E-03  0.5505E-03
     -4.356 -0.9496E-04 -0.9496E-04  0.5434E-03  0.5434E-03
     -4.281 -0.9875E-04 -0.9874E-04  0.5361E-03  0.5361E-03
     -4.207  0.1233E-03  0.1234E-03  0.5453E-03  0.5453E-03
     -4.132  0.8413E-03  0.8414E-03  0.6080E-03  0.6080E-03
     -4.058  0.2089E-02  0.2089E-02  0.7637E-03  0.7638E-03
     -3.983  0.3247E-02  0.3247E-02  0.1006E-02  0.1006E-02
     -3.908  0.3443E-02  0.3443E-02  0.1263E-02  0.1263E-02
     -3.834  0.2789E-02  0.2789E-02  0.1471E-02  0.1471E-02
     -3.759  0.2459E-02  0.2459E-02  0.1654E-02  0.1654E-02
     -3.685  0.2920E-02  0.2920E-02  0.1872E-02  0.1872E-02
     -3.610  0.3134E-02  0.3134E-02  0.2105E-02  0.2105E-02
     -3.536  0.2261E-02  0.2261E-02  0.2274E-02  0.2274E-02
     -3.461  0.1095E-02  0.1095E-02  0.2356E-02  0.2356E-02
     -3.387  0.1053E-02  0.1053E-02  0.2434E-02  0.2434E-02
     -3.312  0.2341E-02  0.2342E-02  0.2609E-02  0.2609E-02
     -3.237  0.3616E-02  0.3616E-02  0.2878E-02  0.2878E-02
     -3.163  0.3445E-02  0.3445E-02  0.3135E-02  0.3135E-02
     -3.088  0.1959E-02  0.1959E-02  0.3281E-02  0.3281E-02
     -3.014  0.7303E-03  0.7302E-03  0.3336E-02  0.3336E-02
     -2.939  0.1091E-02  0.1091E-02  0.3417E-02  0.3417E-02
     -2.865  0.2803E-02  0.2803E-02  0.3626E-02  0.3626E-02
     -2.790  0.4204E-02  0.4204E-02  0.3939E-02  0.3939E-02
     -2.715  0.3881E-02  0.3881E-02  0.4229E-02  0.4229E-02
     -2.641  0.2345E-02  0.2345E-02  0.4404E-02  0.4404E-02
     -2.566  0.1434E-02  0.1434E-02  0.4511E-02  0.4511E-02
     -2.492  0.1994E-02  0.1994E-02  0.4659E-02  0.4659E-02
     -2.417  0.2927E-02  0.2927E-02  0.4877E-02  0.4877E-02
     -2.343  0.2838E-02  0.2838E-02  0.5089E-02  0.5089E-02
     -2.268  0.1975E-02  0.1975E-02  0.5236E-02  0.5236E-02
     -2.194  0.1734E-02  0.1734E-02  0.5366E-02  0.5366E-02
     -2.119  0.2757E-02  0.2757E-02  0.5571E-02  0.5571E-02
     -2.044  0.4724E-02  0.4725E-02  0.5923E-02  0.5923E-02
     -1.970  0.7587E-02  0.7587E-02  0.6489E-02  0.6489E-02
     -1.895  0.1151E-01  0.1151E-01  0.7347E-02  0.7348E-02
     -1.821  0.1564E-01  0.1564E-01  0.8514E-02  0.8514E-02
     -1.746  0.1798E-01  0.1798E-01  0.9854E-02  0.9854E-02
     -1.672  0.1695E-01  0.1695E-01  0.1112E-01  0.1112E-01
     -1.597  0.1310E-01  0.1310E-01  0.1209E-01  0.1209E-01
     -1.522  0.8940E-02  0.8940E-02  0.1276E-01  0.1276E-01
     -1.448  0.6556E-02  0.6556E-02  0.1325E-01  0.1325E-01
     -1.373  0.6001E-02  0.6001E-02  0.1370E-01  0.1370E-01
     -1.299  0.6350E-02  0.6350E-02  0.1417E-01  0.1417E-01
     -1.224  0.7006E-02  0.7006E-02  0.1469E-01  0.1469E-01
     -1.150  0.7983E-02  0.7983E-02  0.1529E-01  0.1529E-01
     -1.075  0.9692E-02  0.9692E-02  0.1601E-01  0.1601E-01
     -1.001  0.1215E-01  0.1215E-01  0.1692E-01  0.1692E-01
     -0.926  0.1472E-01  0.1472E-01  0.1801E-01  0.1801E-01
     -0.851  0.1723E-01  0.1723E-01  0.1930E-01  0.1930E-01
     -0.777  0.2000E-01  0.2000E-01  0.2079E-01  0.2079E-01
     -0.702  0.2214E-01  0.2214E-01  0.2244E-01  0.2244E-01
     -0.628  0.2175E-01  0.2175E-01  0.2406E-01  0.2406E-01
     -0.553  0.1844E-01  0.1844E-01  0.2544E-01  0.2544E-01
     -0.479  0.1405E-01  0.1405E-01  0.2649E-01  0.2649E-01
     -0.404  0.1062E-01  0.1062E-01  0.2728E-01  0.2728E-01
     -0.330  0.8807E-02  0.8807E-02  0.2793E-01  0.2793E-01
     -0.255  0.8673E-02  0.8673E-02  0.2858E-01  0.2858E-01
     -0.180  0.1067E-01  0.1067E-01  0.2938E-01  0.2938E-01
     -0.106  0.1468E-01  0.1468E-01  0.3047E-01  0.3047E-01
     -0.031  0.1882E-01  0.1882E-01  0.3187E-01  0.3187E-01
      0.043  0.2062E-01  0.2062E-01  0.3341E-01  0.3341E-01
      0.118  0.1992E-01  0.1992E-01  0.3490E-01  0.3490E-01
      0.192  0.1960E-01  0.1960E-01  0.3636E-01  0.3636E-01
      0.267  0.2214E-01  0.2214E-01  0.3801E-01  0.3801E-01
      0.342  0.2632E-01  0.2632E-01  0.3997E-01  0.3997E-01
      0.416  0.2890E-01  0.2890E-01  0.4213E-01  0.4213E-01
      0.491  0.2829E-01  0.2829E-01  0.4423E-01  0.4423E-01
      0.565  0.2488E-01  0.2488E-01  0.4609E-01  0.4609E-01
      0.640  0.1993E-01  0.1993E-01  0.4757E-01  0.4758E-01
      0.714  0.1572E-01  0.1572E-01  0.4875E-01  0.4875E-01
      0.789  0.1443E-01  0.1443E-01  0.4982E-01  0.4982E-01
      0.863  0.1531E-01  0.1531E-01  0.5096E-01  0.5096E-01
      0.938  0.1525E-01  0.1525E-01  0.5210E-01  0.5210E-01
      1.013  0.1272E-01  0.1272E-01  0.5305E-01  0.5305E-01
      1.087  0.8928E-02  0.8928E-02  0.5372E-01  0.5372E-01
      1.162  0.5369E-02  0.5369E-02  0.5412E-01  0.5412E-01
      1.236  0.2506E-02  0.2506E-02  0.5430E-01  0.5430E-01
      1.311  0.5199E-03  0.5199E-03  0.5434E-01  0.5434E-01
      1.385 -0.3589E-03 -0.3589E-03  0.5432E-01  0.5432E-01
      1.460 -0.5084E-04 -0.5072E-04  0.5431E-01  0.5431E-01
      1.534  0.1301E-02  0.1301E-02  0.5441E-01  0.5441E-01
      1.609  0.3012E-02  0.3012E-02  0.5463E-01  0.5463E-01
      1.684  0.3850E-02  0.3850E-02  0.5492E-01  0.5492E-01
      1.758  0.3151E-02  0.3151E-02  0.5515E-01  0.5515E-01
      1.833  0.1656E-02  0.1656E-02  0.5528E-01  0.5528E-01
      1.907  0.5927E-03  0.5926E-03  0.5532E-01  0.5532E-01
      1.982  0.3373E-03  0.3374E-03  0.5535E-01  0.5535E-01
      2.056  0.4172E-03  0.4172E-03  0.5538E-01  0.5538E-01
      2.131  0.3703E-03  0.3702E-03  0.5541E-01  0.5541E-01
      2.206  0.1729E-03  0.1728E-03  0.5542E-01  0.5542E-01
      2.280 -0.9800E-05 -0.9863E-05  0.5542E-01  0.5542E-01
      2.355 -0.1292E-03 -0.1292E-03  0.5541E-01  0.5541E-01
      2.429 -0.2026E-03 -0.2026E-03  0.5539E-01  0.5539E-01
      2.504 -0.5699E-04 -0.5692E-04  0.5539E-01  0.5539E-01
      2.578  0.6919E-03  0.6921E-03  0.5544E-01  0.5544E-01
      2.653  0.2089E-02  0.2089E-02  0.5560E-01  0.5560E-01
      2.727  0.3294E-02  0.3294E-02  0.5584E-01  0.5584E-01
      2.802  0.3243E-02  0.3243E-02  0.5608E-01  0.5608E-01
      2.877  0.1985E-02  0.1985E-02  0.5623E-01  0.5623E-01
      2.951  0.6179E-03  0.6177E-03  0.5628E-01  0.5628E-01
      3.026 -0.7227E-04 -0.7232E-04  0.5627E-01  0.5627E-01
      3.100 -0.1767E-03 -0.1767E-03  0.5626E-01  0.5626E-01
      3.175 -0.9350E-04 -0.9349E-04  0.5625E-01  0.5625E-01
      3.249 -0.2941E-04 -0.2941E-04  0.5625E-01  0.5625E-01
      3.324 -0.6295E-05 -0.6293E-05  0.5625E-01  0.5625E-01
      3.398 -0.1052E-05 -0.1052E-05  0.5625E-01  0.5625E-01
      3.473 -0.9805E-06 -0.9808E-06  0.5625E-01  0.5625E-01
      3.548 -0.5839E-05 -0.5842E-05  0.5625E-01  0.5625E-01
      3.622 -0.2771E-04 -0.2772E-04  0.5625E-01  0.5625E-01
      3.697 -0.8972E-04 -0.8974E-04  0.5624E-01  0.5624E-01
      3.771 -0.1746E-03 -0.1746E-03  0.5623E-01  0.5623E-01
      3.846 -0.8612E-04 -0.8606E-04  0.5622E-01  0.5622E-01
      3.920  0.5715E-03  0.5717E-03  0.5626E-01  0.5626E-01
      3.995  0.1919E-02  0.1919E-02  0.5641E-01  0.5641E-01
      4.070  0.3207E-02  0.3207E-02  0.5665E-01  0.5665E-01
      4.144  0.3323E-02  0.3323E-02  0.5689E-01  0.5689E-01
      4.219  0.2155E-02  0.2155E-02  0.5705E-01  0.5705E-01
      4.293  0.7443E-03  0.7441E-03  0.5711E-01  0.5711E-01
      4.368 -0.3103E-04 -0.3111E-04  0.5711E-01  0.5711E-01
      4.442 -0.1808E-03 -0.1808E-03  0.5709E-01  0.5709E-01
      4.517 -0.1036E-03 -0.1035E-03  0.5709E-01  0.5709E-01
      4.591 -0.3421E-04 -0.3420E-04  0.5708E-01  0.5708E-01
      4.666 -0.7616E-05 -0.7613E-05  0.5708E-01  0.5708E-01
      4.741 -0.1226E-05 -0.1226E-05  0.5708E-01  0.5708E-01
      4.815 -0.3998E-06 -0.3998E-06  0.5708E-01  0.5708E-01
      4.890 -0.2112E-05 -0.2113E-05  0.5708E-01  0.5708E-01
      4.964 -0.1227E-04 -0.1227E-04  0.5708E-01  0.5708E-01
      5.039 -0.5112E-04 -0.5113E-04  0.5708E-01  0.5708E-01
      5.113 -0.1454E-03 -0.1454E-03  0.5707E-01  0.5707E-01
      5.188 -0.2478E-03 -0.2478E-03  0.5705E-01  0.5705E-01
      5.263 -0.8763E-04 -0.8763E-04  0.5704E-01  0.5704E-01
      5.337  0.7996E-03  0.7998E-03  0.5710E-01  0.5710E-01
      5.412  0.2637E-02  0.2637E-02  0.5730E-01  0.5730E-01
      5.486  0.4960E-02  0.4961E-02  0.5767E-01  0.5767E-01
      5.561  0.6737E-02  0.6737E-02  0.5817E-01  0.5817E-01
      5.635  0.6931E-02  0.6931E-02  0.5869E-01  0.5869E-01
      5.710  0.5289E-02  0.5289E-02  0.5908E-01  0.5908E-01
      5.784  0.2859E-02  0.2858E-02  0.5930E-01  0.5930E-01
      5.859  0.1208E-02  0.1207E-02  0.5939E-01  0.5939E-01
      5.934  0.9212E-03  0.9199E-03  0.5945E-01  0.5945E-01
      6.008  0.1339E-02  0.1338E-02  0.5955E-01  0.5955E-01
      6.083  0.1611E-02  0.1615E-02  0.5967E-01  0.5967E-01
      6.157  0.1480E-02  0.1495E-02  0.5978E-01  0.5979E-01
      6.232  0.1207E-02  0.1233E-02  0.5987E-01  0.5988E-01
      6.306  0.1077E-02  0.1098E-02  0.5995E-01  0.5996E-01
      6.381  0.1012E-02  0.1009E-02  0.6003E-01  0.6003E-01
      6.455  0.7354E-03  0.7122E-03  0.6008E-01  0.6009E-01
      6.530  0.2884E-03  0.2636E-03  0.6011E-01  0.6011E-01
      6.605  0.1804E-03  0.1676E-03  0.6012E-01  0.6012E-01
      6.679  0.1019E-02  0.1017E-02  0.6020E-01  0.6020E-01
      6.754  0.2873E-02  0.2875E-02  0.6041E-01  0.6041E-01
      6.828  0.4771E-02  0.4773E-02  0.6077E-01  0.6077E-01
      6.903  0.5210E-02  0.5210E-02  0.6115E-01  0.6115E-01
      6.977  0.3722E-02  0.3721E-02  0.6143E-01  0.6143E-01
      7.052  0.1490E-02  0.1488E-02  0.6154E-01  0.6154E-01
      7.127 -0.1233E-04 -0.1455E-04  0.6154E-01  0.6154E-01
      7.201 -0.2416E-03 -0.2419E-03  0.6152E-01  0.6152E-01
      7.276  0.6672E-03  0.6757E-03  0.6157E-01  0.6157E-01
      7.350  0.2293E-02  0.2316E-02  0.6174E-01  0.6175E-01
      7.425  0.3745E-02  0.3775E-02  0.6202E-01  0.6203E-01
      7.499  0.3999E-02  0.4013E-02  0.6232E-01  0.6233E-01
      7.574  0.2866E-02  0.2851E-02  0.6254E-01  0.6254E-01
      7.648  0.1261E-02  0.1230E-02  0.6263E-01  0.6263E-01
      7.723  0.3373E-03  0.3147E-03  0.6265E-01  0.6266E-01
      7.798  0.5845E-03  0.5768E-03  0.6270E-01  0.6270E-01
      7.872  0.1552E-02  0.1552E-02  0.6281E-01  0.6281E-01
      7.947  0.2221E-02  0.2222E-02  0.6298E-01  0.6298E-01
      8.021  0.1924E-02  0.1925E-02  0.6312E-01  0.6312E-01
      8.096  0.9718E-03  0.9719E-03  0.6320E-01  0.6320E-01
      8.170  0.1173E-03  0.1171E-03  0.6320E-01  0.6320E-01
      8.245 -0.2848E-03 -0.2850E-03  0.6318E-01  0.6318E-01
      8.319 -0.2166E-03 -0.2158E-03  0.6317E-01  0.6317E-01
      8.394  0.4871E-03  0.4899E-03  0.6320E-01  0.6320E-01
      8.469  0.1913E-02  0.1917E-02  0.6335E-01  0.6335E-01
      8.543  0.3414E-02  0.3416E-02  0.6360E-01  0.6360E-01
      8.618  0.3900E-02  0.3897E-02  0.6389E-01  0.6389E-01
      8.692  0.3065E-02  0.3060E-02  0.6412E-01  0.6412E-01
      8.767  0.1825E-02  0.1821E-02  0.6426E-01  0.6426E-01
      8.841  0.1403E-02  0.1404E-02  0.6436E-01  0.6436E-01
      8.916  0.2260E-02  0.2271E-02  0.6453E-01  0.6453E-01
      8.991  0.3683E-02  0.3704E-02  0.6480E-01  0.6481E-01
      9.065  0.4302E-02  0.4319E-02  0.6512E-01  0.6513E-01
      9.140  0.3433E-02  0.3435E-02  0.6538E-01  0.6538E-01
      9.214  0.1979E-02  0.1974E-02  0.6553E-01  0.6553E-01
      9.289  0.1521E-02  0.1532E-02  0.6564E-01  0.6565E-01
      9.363  0.2471E-02  0.2493E-02  0.6583E-01  0.6583E-01
      9.438  0.3528E-02  0.3531E-02  0.6609E-01  0.6609E-01
      9.512  0.3302E-02  0.3279E-02  0.6633E-01  0.6634E-01
      9.587  0.2140E-02  0.2132E-02  0.6649E-01  0.6650E-01
      9.662  0.1632E-02  0.1677E-02  0.6662E-01  0.6662E-01
      9.736  0.2390E-02  0.2457E-02  0.6679E-01  0.6681E-01
      9.811  0.3229E-02  0.3244E-02  0.6703E-01  0.6705E-01
      9.885  0.2839E-02  0.2780E-02  0.6725E-01  0.6726E-01
      9.960  0.1421E-02  0.1341E-02  0.6735E-01  0.6736E-01
     10.034  0.1489E-03  0.1040E-03  0.6736E-01  0.6736E-01
     10.109 -0.1685E-03 -0.1664E-03  0.6735E-01  0.6735E-01
     10.184  0.6035E-03  0.6399E-03  0.6740E-01  0.6740E-01
     10.258  0.2087E-02  0.2140E-02  0.6755E-01  0.6756E-01
     10.333  0.3477E-02  0.3539E-02  0.6781E-01  0.6782E-01
     10.407  0.4183E-02  0.4254E-02  0.6812E-01  0.6814E-01
     10.482  0.4283E-02  0.4337E-02  0.6844E-01  0.6846E-01
     10.556  0.3854E-02  0.3835E-02  0.6873E-01  0.6875E-01
     10.631  0.2696E-02  0.2596E-02  0.6893E-01  0.6894E-01
     10.705  0.1152E-02  0.1045E-02  0.6902E-01  0.6902E-01
     10.780  0.2368E-03  0.2021E-03  0.6903E-01  0.6903E-01
     10.855  0.6688E-03  0.7169E-03  0.6908E-01  0.6909E-01
     10.929  0.2108E-02  0.2183E-02  0.6924E-01  0.6925E-01
     11.004  0.3275E-02  0.3303E-02  0.6949E-01  0.6950E-01
     11.078  0.3093E-02  0.3052E-02  0.6972E-01  0.6972E-01
     11.153  0.1865E-02  0.1805E-02  0.6986E-01  0.6986E-01
     11.227  0.7800E-03  0.7503E-03  0.6991E-01  0.6992E-01
     11.302  0.4097E-03  0.4077E-03  0.6994E-01  0.6995E-01
     11.376  0.3935E-03  0.3913E-03  0.6997E-01  0.6998E-01
     11.451  0.3009E-03  0.2898E-03  0.7000E-01  0.7000E-01
     11.526  0.1190E-03  0.1084E-03  0.7000E-01  0.7000E-01
     11.600 -0.3105E-05 -0.7192E-05  0.7000E-01  0.7000E-01
     11.675 -0.3111E-04 -0.3093E-04  0.7000E-01  0.7000E-01
     11.749 -0.1884E-04 -0.1790E-04  0.7000E-01  0.7000E-01
     11.824 -0.6481E-05 -0.5996E-05  0.7000E-01  0.7000E-01
     11.898 -0.1494E-05 -0.1352E-05  0.7000E-01  0.7000E-01
     11.973 -0.2435E-06 -0.2161E-06  0.7000E-01  0.7000E-01
     12.048 -0.2879E-07 -0.2507E-07  0.7000E-01  0.7000E-01
     12.122 -0.2502E-08 -0.2139E-08  0.7000E-01  0.7000E-01
     12.197 -0.1611E-09 -0.1353E-09  0.7000E-01  0.7000E-01
     12.271 -0.7732E-11 -0.6381E-11  0.7000E-01  0.7000E-01
     12.346 -0.2774E-12 -0.2250E-12  0.7000E-01  0.7000E-01
     12.420 -0.7463E-14 -0.5949E-14  0.7000E-01  0.7000E-01
     12.495 -0.1510E-15 -0.1183E-15  0.7000E-01  0.7000E-01
     12.569 -0.2482E-17 -0.1654E-17  0.7000E-01  0.7000E-01
     12.644  0.0000E+00  0.0000E+00  0.7000E-01  0.7000E-01
     12.719  0.0000E+00  0.0000E+00  0.7000E-01  0.7000E-01
     12.793  0.0000E+00  0.0000E+00  0.7000E-01  0.7000E-01
     12.868  0.0000E+00  0.0000E+00  0.7000E-01  0.7000E-01
     12.942  0.0000E+00  0.0000E+00  0.7000E-01  0.7000E-01
     13.017  0.0000E+00  0.0000E+00  0.7000E-01  0.7000E-01
     13.091  0.0000E+00  0.0000E+00  0.7000E-01  0.7000E-01
     13.166  0.0000E+00  0.0000E+00  0.7000E-01  0.7000E-01
     13.240  0.0000E+00  0.0000E+00  0.7000E-01  0.7000E-01
     13.315  0.0000E+00  0.0000E+00  0.7000E-01  0.7000E-01
