    8    8  800    2
  0.2116159E+02  0.2566798E-09  0.2566798E-09  0.2967047E-08  0.5000000E-15
  1.000000000000000E-004
  CAR 
 unknown system                          
     88      3     56
 
  0.0000000E+00  0.0000000E+00  0.0000000E+00  0.1111111E+00
      1         -7.053093       -7.053100   1.000000   1.000000
      2         -6.604969       -6.604977   1.000000   1.000000
      3         -5.905272       -5.905280   1.000000   1.000000
      4         -5.030886       -5.030895   1.000000   1.000000
      5         -4.110549       -4.110559   1.000000   1.000000
      6         -3.307119       -3.307128   1.000000   1.000000
      7         -2.850998       -2.851005   1.000000   1.000000
      8         -2.761473       -2.761480   1.000000   1.000000
      9         -0.944253       -0.944256   1.000000   1.000000
     10         -0.908128       -0.908132   1.000000   1.000000
     11         -0.799816       -0.799818   1.000000   1.000000
     12         -0.799814       -0.799817   1.000000   1.000000
     13         -0.797838       -0.797840   1.000000   1.000000
     14         -0.797835       -0.797837   1.000000   1.000000
     15         -0.774460       -0.774463   1.000000   1.000000
     16         -0.718767       -0.718769   1.000000   1.000000
     17         -0.718764       -0.718766   1.000000   1.000000
     18         -0.688267       -0.688270   1.000000   1.000000
     19         -0.688265       -0.688267   1.000000   1.000000
     20         -0.662992       -0.662996   1.000000   1.000000
     21         -0.622899       -0.622901   1.000000   1.000000
     22         -0.622895       -0.622897   1.000000   1.000000
     23         -0.545450       -0.545452   1.000000   1.000000
     24         -0.545446       -0.545448   1.000000   1.000000
     25         -0.422641       -0.422646   1.000000   1.000000
     26         -0.198503       -0.198512   1.000000   1.000000
     27         -0.158049       -0.158052   1.000000   1.000000
     28         -0.158048       -0.158051   1.000000   1.000000
     29         -0.019577       -0.019580   1.000000   1.000000
     30         -0.019576       -0.019579   1.000000   1.000000
     31          0.038006        0.038004   1.000000   1.000000
     32          0.038008        0.038006   1.000000   1.000000
     33          0.074832        0.074829   1.000000   1.000000
     34          0.074832        0.074830   1.000000   1.000000
     35          0.212121        0.212119   1.000000   1.000000
     36          0.212122        0.212120   1.000000   1.000000
     37          0.341629        0.341626   1.000000   1.000000
     38          0.341630        0.341627   1.000000   1.000000
     39          0.441755        0.441741   1.000000   1.000000
     40          0.448488        0.448485   1.000000   1.000000
     41          0.448488        0.448485   1.000000   1.000000
     42          0.573607        0.573605   1.000000   1.000000
     43          0.573608        0.573605   1.000000   1.000000
     44          0.875800        0.875799   1.000000   1.000000
     45          0.875802        0.875801   1.000000   1.000000
     46          0.961243        0.961242   1.000001   1.000001
     47          0.961246        0.961244   1.000001   1.000001
     48          1.727501        1.727457   0.409064   0.409245
     49          2.015231        2.015191  -0.025526  -0.025535
     50          6.320523        6.314353  -0.000000  -0.000000
     51          6.395221        6.392764  -0.000000  -0.000000
     52          7.474915        7.469904   0.000000   0.000000
     53          7.528023        7.523554   0.000000   0.000000
     54          9.120449        9.114365   0.000000   0.000000
     55          9.361867        9.359114   0.000000   0.000000
     56         11.315041       11.310554   0.000000   0.000000
 
  0.3333333E+00  0.0000000E+00  0.0000000E+00  0.6666667E+00
      1         -3.960625       -3.960631   1.000000   1.000000
      2         -3.657138       -3.657144   1.000000   1.000000
      3         -3.235433       -3.235440   1.000000   1.000000
      4         -2.801736       -2.801742   1.000000   1.000000
      5         -2.425077       -2.425083   1.000000   1.000000
      6         -2.103079       -2.103084   1.000000   1.000000
      7         -1.952577       -1.952580   1.000000   1.000000
      8         -1.862166       -1.862170   1.000000   1.000000
      9         -1.772535       -1.772540   1.000000   1.000000
     10         -1.677610       -1.677614   1.000000   1.000000
     11         -1.456187       -1.456191   1.000000   1.000000
     12         -1.261705       -1.261709   1.000000   1.000000
     13         -1.104632       -1.104635   1.000000   1.000000
     14         -0.969833       -0.969837   1.000000   1.000000
     15         -0.919658       -0.919662   1.000000   1.000000
     16         -0.794593       -0.794598   1.000000   1.000000
     17         -0.759794       -0.759797   1.000000   1.000000
     18         -0.707451       -0.707455   1.000000   1.000000
     19         -0.653121       -0.653124   1.000000   1.000000
     20         -0.597830       -0.597833   1.000000   1.000000
     21         -0.520997       -0.521001   1.000000   1.000000
     22         -0.385914       -0.385918   1.000000   1.000000
     23         -0.348753       -0.348757   1.000000   1.000000
     24         -0.197712       -0.197716   1.000000   1.000000
     25         -0.090249       -0.090253   1.000000   1.000000
     26          0.024370        0.024365   1.000000   1.000000
     27          0.103786        0.103783   1.000000   1.000000
     28          0.186437        0.186431   1.000000   1.000000
     29          0.249383        0.249381   1.000000   1.000000
     30          0.281770        0.281763   1.000000   1.000000
     31          0.301175        0.301174   1.000000   1.000000
     32          0.342985        0.342983   1.000000   1.000000
     33          0.379283        0.379280   1.000000   1.000000
     34          0.382274        0.382272   1.000000   1.000000
     35          0.456341        0.456339   1.000000   1.000000
     36          0.504202        0.504200   1.000000   1.000000
     37          0.537641        0.537636   1.000000   1.000000
     38          0.617058        0.617056   1.000000   1.000000
     39          0.624508        0.624504   1.000000   1.000000
     40          0.830484        0.830482   1.000000   1.000000
     41          0.858774        0.858766   1.000000   1.000000
     42          0.895495        0.895493   1.000000   1.000000
     43          1.005912        1.005911   1.000004   1.000004
     44          1.119301        1.119299   1.000135   1.000135
     45          1.638125        1.638114   0.769237   0.769275
     46          2.724878        2.724866  -0.000000  -0.000000
     47          4.075374        4.075359  -0.000000  -0.000000
     48          5.600965        5.600939  -0.000000  -0.000000
     49          6.862941        6.862896  -0.000000  -0.000000
     50          8.547336        8.547142   0.000000   0.000000
     51          9.035561        9.035311   0.000000   0.000000
     52          9.435243        9.433619   0.000000   0.000000
     53          9.787508        9.783604   0.000000   0.000000
     54         10.317676       10.315364   0.000000   0.000000
     55         10.529744       10.524170   0.000000   0.000000
     56         10.991490       10.987997   0.000000   0.000000
 
 -0.3333333E+00  0.3333333E+00  0.0000000E+00  0.2222222E+00
      1         -1.861771       -1.861775   1.000000   1.000000
      2         -1.855180       -1.855183   1.000000   1.000000
      3         -1.851799       -1.851802   1.000000   1.000000
      4         -1.779387       -1.779391   1.000000   1.000000
      5         -1.739213       -1.739216   1.000000   1.000000
      6         -1.725988       -1.725991   1.000000   1.000000
      7         -1.699297       -1.699300   1.000000   1.000000
      8         -1.698229       -1.698232   1.000000   1.000000
      9         -1.673021       -1.673024   1.000000   1.000000
     10         -1.664180       -1.664184   1.000000   1.000000
     11         -1.594114       -1.594118   1.000000   1.000000
     12         -1.490505       -1.490509   1.000000   1.000000
     13         -1.371466       -1.371470   1.000000   1.000000
     14         -1.246547       -1.246552   1.000000   1.000000
     15         -1.179028       -1.179033   1.000000   1.000000
     16         -1.029754       -1.029757   1.000000   1.000000
     17         -1.002230       -1.002232   1.000000   1.000000
     18         -0.986150       -0.986153   1.000000   1.000000
     19         -0.913869       -0.913872   1.000000   1.000000
     20         -0.706033       -0.706036   1.000000   1.000000
     21         -0.555814       -0.555817   1.000000   1.000000
     22         -0.128928       -0.128932   1.000000   1.000000
     23         -0.113328       -0.113332   1.000000   1.000000
     24         -0.029234       -0.029237   1.000000   1.000000
     25         -0.029000       -0.029002   1.000000   1.000000
     26         -0.008117       -0.008122   1.000000   1.000000
     27          0.009210        0.009207   1.000000   1.000000
     28          0.010017        0.010014   1.000000   1.000000
     29          0.019166        0.019161   1.000000   1.000000
     30          0.055881        0.055878   1.000000   1.000000
     31          0.349088        0.349086   1.000000   1.000000
     32          0.402155        0.402153   1.000000   1.000000
     33          0.498571        0.498568   1.000000   1.000000
     34          0.501882        0.501879   1.000000   1.000000
     35          0.553323        0.553320   1.000000   1.000000
     36          0.604074        0.604071   1.000000   1.000000
     37          0.700673        0.700671   1.000000   1.000000
     38          0.738685        0.738683   1.000000   1.000000
     39          0.777648        0.777643   1.000000   1.000000
     40          0.845122        0.845116   1.000000   1.000000
     41          5.451809        5.451804  -0.000000  -0.000000
     42          5.457212        5.457208  -0.000000  -0.000000
     43          5.473244        5.473239  -0.000000  -0.000000
     44          5.630781        5.630775  -0.000000  -0.000000
     45          5.674778        5.674772  -0.000000  -0.000000
     46          5.953408        5.953401  -0.000000  -0.000000
     47          6.106197        6.106188  -0.000000  -0.000000
     48          6.744793        6.744783  -0.000000  -0.000000
     49          6.860425        6.860413  -0.000000  -0.000000
     50          7.379079        7.379071   0.000000   0.000000
     51          7.397779        7.397771   0.000000   0.000000
     52          7.479339        7.479334   0.000000   0.000000
     53          7.913237        7.913230   0.000000   0.000000
     54          7.927527        7.927519   0.000000   0.000000
     55          8.688643        8.688627   0.000000   0.000000
     56          8.914526        8.914511   0.000000   0.000000
