       N       E                     dE             d eps       ncg     rms          rms(c)
DAV:   1     0.764381278654E+03    0.76438E+03   -0.33039E+04   672   0.198E+03
DAV:   2     0.603158736787E+02   -0.70407E+03   -0.68053E+03   672   0.412E+02
DAV:   3    -0.324293401756E+02   -0.92745E+02   -0.87979E+02   704   0.197E+02
DAV:   4    -0.359170729949E+02   -0.34877E+01   -0.34664E+01   768   0.528E+01
DAV:   5    -0.359930981948E+02   -0.76025E-01   -0.76015E-01   776   0.650E+00    0.271E+01
DAV:   6    -0.295839716575E+02    0.64091E+01   -0.81506E+01   720   0.142E+02    0.132E+01
DAV:   7    -0.270329975367E+02    0.25510E+01   -0.24985E+01   776   0.113E+02    0.837E+00
DAV:   8    -0.260622540024E+02    0.97074E+00   -0.72167E+00  1032   0.724E+01    0.634E+00
DAV:   9    -0.257425238898E+02    0.31973E+00   -0.26427E+00   936   0.297E+01    0.570E+00
DAV:  10    -0.256759804192E+02    0.66543E-01   -0.13260E+00   776   0.302E+01    0.504E+00
DAV:  11    -0.257013239103E+02   -0.25343E-01   -0.26483E+00   920   0.319E+01    0.421E+00
DAV:  12    -0.259304973340E+02   -0.22917E+00   -0.23150E+00   944   0.413E+01    0.326E+00
DAV:  13    -0.262379310207E+02   -0.30743E+00   -0.24639E+00  1024   0.379E+01    0.228E+00
DAV:  14    -0.278777718318E+02   -0.16398E+01   -0.19555E+00  1080   0.252E+01    0.131E+00
DAV:  15    -0.287733064177E+02   -0.89553E+00   -0.89750E-01   904   0.127E+01    0.925E-01
DAV:  16    -0.291171014211E+02   -0.34380E+00   -0.25131E-01   792   0.578E+00    0.799E-01
DAV:  17    -0.294574190541E+02   -0.34032E+00   -0.20563E-01   864   0.590E+00    0.725E-01
DAV:  18    -0.296765377379E+02   -0.21912E+00   -0.11452E-01   736   0.295E+00    0.607E-01
DAV:  19    -0.298699070750E+02   -0.19337E+00   -0.12107E-01   872   0.434E+00    0.506E-01
DAV:  20    -0.299801594621E+02   -0.11025E+00   -0.42320E-02   816   0.327E+00    0.366E-01
DAV:  21    -0.302849186894E+02   -0.30476E+00   -0.57975E-02   912   0.353E+00    0.280E-01
DAV:  22    -0.305233421822E+02   -0.23842E+00   -0.40347E-02   944   0.326E+00    0.259E-01
DAV:  23    -0.305357676996E+02   -0.12426E-01   -0.65292E-03   760   0.113E+00    0.955E-02
DAV:  24    -0.305335754288E+02    0.21923E-02   -0.25510E-03   792   0.117E+00    0.678E-02
DAV:  25    -0.305329326876E+02    0.64274E-03   -0.99163E-04   616   0.802E-01    0.472E-02
DAV:  26    -0.305334061543E+02   -0.47347E-03   -0.51733E-04   616   0.471E-01    0.320E-02
DAV:  27    -0.305342968790E+02   -0.89072E-03   -0.31949E-04   472   0.357E-01    0.297E-02
DAV:  28    -0.305355514447E+02   -0.12546E-02   -0.14340E-04   408   0.298E-01    0.200E-02
DAV:  29    -0.305366270235E+02   -0.10756E-02   -0.10231E-04   424   0.216E-01    0.133E-02
DAV:  30    -0.305369030109E+02   -0.27599E-03   -0.10395E-04   408   0.108E-01    0.109E-02
DAV:  31    -0.305369163335E+02   -0.13323E-04   -0.41299E-05   400   0.696E-02
   1 F= -.33881775E+02 E0= -.33871503E+02  d E =-.338818E+02  mag=    -0.0011
       N       E                     dE             d eps       ncg     rms          rms(c)
DAV:   1    -0.305398004502E+02   -0.28974E-02   -0.36117E+00   688   0.739E+00    0.164E-01
DAV:   2    -0.305512184695E+02   -0.11418E-01   -0.88600E-02  1200   0.659E+00    0.320E-01
DAV:   3    -0.305467399136E+02    0.44786E-02   -0.64203E-02  1272   0.652E+00    0.173E-01
DAV:   4    -0.305456578249E+02    0.10821E-02   -0.76262E-03   944   0.247E+00    0.109E-01
DAV:   5    -0.305456199125E+02    0.37912E-04   -0.15392E-03   736   0.810E-01
   2 F= -.33892853E+02 E0= -.33882571E+02  d E =-.110784E-01  mag=    -0.0010
       N       E                     dE             d eps       ncg     rms          rms(c)
DAV:   1    -0.305085721423E+02    0.37086E-01   -0.23105E+01   704   0.187E+01    0.429E-01
DAV:   2    -0.305831443840E+02   -0.74572E-01   -0.59996E-01  1200   0.163E+01    0.786E-01
DAV:   3    -0.305545732260E+02    0.28571E-01   -0.35411E-01  1248   0.166E+01    0.461E-01
DAV:   4    -0.305488309604E+02    0.57423E-02   -0.46847E-02  1200   0.583E+00    0.300E-01
DAV:   5    -0.305484010422E+02    0.42992E-03   -0.96508E-03  1040   0.218E+00    0.245E-01
DAV:   6    -0.305478044171E+02    0.59663E-03   -0.29807E-03   896   0.131E+00    0.171E-01
DAV:   7    -0.305474673014E+02    0.33712E-03   -0.35285E-03   984   0.170E+00    0.598E-02
DAV:   8    -0.305474267454E+02    0.40556E-04   -0.46513E-04   504   0.730E-01
   3 F= -.33900588E+02 E0= -.33890416E+02  d E =-.188133E-01  mag=    -0.0009
       N       E                     dE             d eps       ncg     rms          rms(c)
DAV:   1    -0.305477663617E+02   -0.29906E-03   -0.12805E+00   704   0.428E+00    0.775E-02
DAV:   2    -0.305515993487E+02   -0.38330E-02   -0.33624E-02  1160   0.317E+00    0.159E-01
DAV:   3    -0.305499064983E+02    0.16929E-02   -0.17869E-02  1072   0.358E+00    0.973E-02
DAV:   4    -0.305497927874E+02    0.11371E-03   -0.15754E-03   728   0.864E-01
   4 F= -.33901542E+02 E0= -.33891368E+02  d E =-.197676E-01  mag=    -0.0008
       N       E                     dE             d eps       ncg     rms          rms(c)
DAV:   1    -0.305453065541E+02    0.45999E-02   -0.36938E+00   712   0.756E+00    0.134E-01
DAV:   2    -0.305525134041E+02   -0.72069E-02   -0.72310E-02  1088   0.341E+00    0.179E-01
DAV:   3    -0.305523685128E+02    0.14489E-03   -0.19144E-02  1024   0.385E+00    0.126E-01
DAV:   4    -0.305516291713E+02    0.73934E-03   -0.62708E-03   672   0.224E+00    0.944E-02
DAV:   5    -0.305515714866E+02    0.57685E-04   -0.11522E-03   640   0.849E-01
   5 F= -.33907897E+02 E0= -.33897696E+02  d E =-.635443E-02  mag=    -0.0008
       N       E                     dE             d eps       ncg     rms          rms(c)
DAV:   1    -0.304879088013E+02    0.63720E-01   -0.34100E+01   704   0.240E+01    0.434E-01
DAV:   2    -0.305629136075E+02   -0.75005E-01   -0.74723E-01  1120   0.119E+01    0.637E-01
DAV:   3    -0.305565318025E+02    0.63818E-02   -0.22232E-01  1120   0.133E+01    0.462E-01
DAV:   4    -0.305493854880E+02    0.71463E-02   -0.46603E-02  1184   0.578E+00    0.330E-01
DAV:   5    -0.305490789685E+02    0.30652E-03   -0.82730E-03   976   0.233E+00    0.297E-01
DAV:   6    -0.305476191510E+02    0.14598E-02   -0.46403E-03   912   0.169E+00    0.168E-01
DAV:   7    -0.305471561473E+02    0.46300E-03   -0.31619E-03   952   0.183E+00    0.500E-02
DAV:   8    -0.305471288032E+02    0.27344E-04   -0.65858E-04   592   0.690E-01
   6 F= -.33917483E+02 E0= -.33907452E+02  d E =-.159411E-01  mag=    -0.0006
       N       E                     dE             d eps       ncg     rms          rms(c)
DAV:   1    -0.305400378548E+02    0.71183E-02   -0.22047E+00   704   0.582E+00    0.108E-01
DAV:   2    -0.305442129441E+02   -0.41751E-02   -0.42022E-02  1088   0.253E+00    0.133E-01
DAV:   3    -0.305442518853E+02   -0.38941E-04   -0.12719E-02   896   0.299E+00    0.105E-01
DAV:   4    -0.305437159323E+02    0.53595E-03   -0.35799E-03   560   0.163E+00    0.675E-02
DAV:   5    -0.305437132602E+02    0.26720E-05   -0.60424E-04   512   0.625E-01
   7 F= -.33917763E+02 E0= -.33907667E+02  d E =-.162204E-01  mag=    -0.0006
       N       E                     dE             d eps       ncg     rms          rms(c)
DAV:   1    -0.305364068746E+02    0.73091E-02   -0.50897E+00   704   0.916E+00    0.162E-01
DAV:   2    -0.305464840373E+02   -0.10077E-01   -0.10173E-01  1088   0.445E+00    0.243E-01
DAV:   3    -0.305453670677E+02    0.11170E-02   -0.30338E-02  1120   0.451E+00    0.156E-01
DAV:   4    -0.305445926815E+02    0.77439E-03   -0.44890E-03   656   0.165E+00    0.128E-01
DAV:   5    -0.305446211706E+02   -0.28489E-04   -0.16139E-03   608   0.112E+00
   8 F= -.33923598E+02 E0= -.33913400E+02  d E =-.583548E-02  mag=    -0.0005
       N       E                     dE             d eps       ncg     rms          rms(c)
DAV:   1    -0.304625006779E+02    0.82092E-01   -0.46837E+01   720   0.290E+01    0.521E-01
DAV:   2    -0.305631450597E+02   -0.10064E+00   -0.10133E+00  1104   0.145E+01    0.763E-01
DAV:   3    -0.305500311843E+02    0.13114E-01   -0.31443E-01  1184   0.155E+01    0.491E-01
DAV:   4    -0.305418820217E+02    0.81492E-02   -0.55184E-02  1216   0.597E+00    0.372E-01
DAV:   5    -0.305416776914E+02    0.20433E-03   -0.13479E-02   992   0.310E+00    0.329E-01
DAV:   6    -0.305392935246E+02    0.23842E-02   -0.81160E-03   960   0.233E+00    0.162E-01
DAV:   7    -0.305388879927E+02    0.40553E-03   -0.36125E-03  1072   0.187E+00    0.666E-02
DAV:   8    -0.305388110071E+02    0.76986E-04   -0.95574E-04   616   0.893E-01
   9 F= -.33932874E+02 E0= -.33922918E+02  d E =-.151114E-01  mag=    -0.0004
       N       E                     dE             d eps       ncg     rms          rms(c)
DAV:   1    -0.305327679369E+02    0.61201E-02   -0.20664E+00   704   0.579E+00    0.101E-01
DAV:   2    -0.305366845272E+02   -0.39166E-02   -0.39132E-02  1056   0.241E+00    0.129E-01
DAV:   3    -0.305365398260E+02    0.14470E-03   -0.11228E-02   864   0.284E+00    0.925E-02
DAV:   4    -0.305361607092E+02    0.37912E-03   -0.25108E-03   528   0.128E+00    0.654E-02
DAV:   5    -0.305361755503E+02   -0.14841E-04   -0.55705E-04   464   0.674E-01
  10 F= -.33933506E+02 E0= -.33923411E+02  d E =-.157438E-01  mag=    -0.0004
       N       E                     dE             d eps       ncg     rms          rms(c)
DAV:   1    -0.305240876833E+02    0.12073E-01   -0.92778E+00   704   0.129E+01    0.209E-01
DAV:   2    -0.305404418765E+02   -0.16354E-01   -0.17026E-01  1008   0.357E+00    0.251E-01
DAV:   3    -0.305404080757E+02    0.33801E-04   -0.13306E-02   880   0.318E+00    0.187E-01
DAV:   4    -0.305396092720E+02    0.79880E-03   -0.70751E-03   672   0.222E+00    0.162E-01
DAV:   5    -0.305392480814E+02    0.36119E-03   -0.10894E-03   568   0.816E-01    0.122E-01
DAV:   6    -0.305389702730E+02    0.27781E-03   -0.20513E-03  1040   0.853E-01    0.360E-02
DAV:   7    -0.305389468652E+02    0.23408E-04   -0.27880E-04   432   0.499E-01
  11 F= -.33940682E+02 E0= -.33930666E+02  d E =-.717522E-02  mag=    -0.0003
       N       E                     dE             d eps       ncg     rms          rms(c)
DAV:   1    -0.304761223116E+02    0.62848E-01   -0.34746E+01   704   0.257E+01    0.410E-01
DAV:   2    -0.305399385353E+02   -0.63816E-01   -0.66203E-01  1024   0.689E+00    0.476E-01
DAV:   3    -0.305382358131E+02    0.17027E-02   -0.24337E-02   832   0.461E+00    0.323E-01
DAV:   4    -0.305375855338E+02    0.65028E-03   -0.20652E-02  1040   0.390E+00    0.307E-01
DAV:   5    -0.305362903284E+02    0.12952E-02   -0.68844E-03   928   0.207E+00    0.243E-01
DAV:   6    -0.305354557794E+02    0.83455E-03   -0.79498E-03  1264   0.233E+00    0.133E-01
DAV:   7    -0.305348431198E+02    0.61266E-03   -0.65267E-03   864   0.264E+00    0.447E-02
DAV:   8    -0.305347445746E+02    0.98545E-04   -0.77464E-04   496   0.805E-01
  12 F= -.33945178E+02 E0= -.33935219E+02  d E =-.116720E-01  mag=    -0.0003
       N       E                     dE             d eps       ncg     rms          rms(c)
DAV:   1    -0.305287046989E+02    0.61384E-02   -0.42824E+00   720   0.879E+00    0.137E-01
DAV:   2    -0.305359388061E+02   -0.72341E-02   -0.74657E-02   992   0.221E+00    0.148E-01
DAV:   3    -0.305359752875E+02   -0.36481E-04   -0.53224E-03   736   0.204E+00    0.118E-01
DAV:   4    -0.305356313863E+02    0.34390E-03   -0.35299E-03   464   0.161E+00    0.999E-02
DAV:   5    -0.305354722504E+02    0.15914E-03   -0.80504E-04   384   0.725E-01
  13 F= -.33948938E+02 E0= -.33938853E+02  d E =-.375950E-02  mag=    -0.0002
       N       E                     dE             d eps       ncg     rms          rms(c)
DAV:   1    -0.304692692542E+02    0.66362E-01   -0.39099E+01   704   0.276E+01    0.420E-01
DAV:   2    -0.305399324975E+02   -0.70663E-01   -0.73245E-01  1040   0.772E+00    0.502E-01
DAV:   3    -0.305404523219E+02   -0.51982E-03   -0.85289E-02  1072   0.807E+00    0.410E-01
DAV:   4    -0.305359240637E+02    0.45283E-02   -0.39013E-02  1040   0.535E+00    0.344E-01
DAV:   5    -0.305355604955E+02    0.36357E-03   -0.95862E-03   944   0.274E+00    0.288E-01
DAV:   6    -0.305330401418E+02    0.25204E-02   -0.95481E-03  1264   0.268E+00    0.121E-01
DAV:   7    -0.305328433483E+02    0.19679E-03   -0.28268E-03  1024   0.171E+00    0.545E-02
DAV:   8    -0.305327975342E+02    0.45814E-04   -0.67497E-04   512   0.774E-01
  14 F= -.33955480E+02 E0= -.33945435E+02  d E =-.103019E-01  mag=    -0.0002
       N       E                     dE             d eps       ncg     rms          rms(c)
DAV:   1    -0.305189325734E+02    0.13911E-01   -0.67690E+00   704   0.111E+01    0.176E-01
DAV:   2    -0.305305974312E+02   -0.11665E-01   -0.12070E-01  1008   0.287E+00    0.196E-01
DAV:   3    -0.305306476372E+02   -0.50206E-04   -0.91521E-03   784   0.273E+00    0.152E-01
DAV:   4    -0.305300699024E+02    0.57773E-03   -0.57378E-03   528   0.211E+00    0.130E-01
DAV:   5    -0.305298095213E+02    0.26038E-03   -0.13136E-03   568   0.857E-01    0.863E-02
DAV:   6    -0.305297072208E+02    0.10230E-03   -0.12524E-03   512   0.113E+00
  15 F= -.33956335E+02 E0= -.33946409E+02  d E =-.111565E-01  mag=    -0.0002
       N       E                     dE             d eps       ncg     rms          rms(c)
DAV:   1    -0.305251471746E+02    0.46623E-02   -0.50279E+00   704   0.981E+00    0.146E-01
DAV:   2    -0.305340616170E+02   -0.89144E-02   -0.91354E-02  1024   0.266E+00    0.170E-01
DAV:   3    -0.305341413605E+02   -0.79743E-04   -0.87872E-03   816   0.246E+00    0.139E-01
DAV:   4    -0.305336981201E+02    0.44324E-03   -0.47496E-03   576   0.197E+00    0.109E-01
DAV:   5    -0.305335925097E+02    0.10561E-03   -0.85355E-04   480   0.884E-01
  16 F= -.33962791E+02 E0= -.33952871E+02  d E =-.645591E-02  mag=    -0.0002
       N       E                     dE             d eps       ncg     rms          rms(c)
DAV:   1    -0.305143569273E+02    0.19341E-01   -0.12371E+01   704   0.154E+01    0.244E-01
DAV:   2    -0.305368579025E+02   -0.22501E-01   -0.23330E-01  1024   0.451E+00    0.306E-01
DAV:   3    -0.305365218863E+02    0.33602E-03   -0.25251E-02  1008   0.409E+00    0.241E-01
DAV:   4    -0.305355148697E+02    0.10070E-02   -0.11428E-02   784   0.318E+00    0.195E-01
DAV:   5    -0.305352281564E+02    0.28671E-03   -0.29070E-03   592   0.156E+00    0.174E-01
DAV:   6    -0.305347171082E+02    0.51105E-03   -0.52126E-03  1040   0.212E+00    0.880E-02
DAV:   7    -0.305344644369E+02    0.25267E-03   -0.18739E-03   816   0.131E+00    0.326E-02
DAV:   8    -0.305344779131E+02   -0.13476E-04   -0.36422E-04   416   0.346E-01
  17 F= -.33967803E+02 E0= -.33957858E+02  d E =-.114679E-01  mag=    -0.0001
       N       E                     dE             d eps       ncg     rms          rms(c)
DAV:   1    -0.305290224707E+02    0.54420E-02   -0.24804E+00   704   0.684E+00    0.105E-01
DAV:   2    -0.305333842953E+02   -0.43618E-02   -0.44744E-02  1024   0.194E+00    0.113E-01
DAV:   3    -0.305334982611E+02   -0.11397E-03   -0.59614E-03   688   0.215E+00    0.104E-01
DAV:   4    -0.305331664853E+02    0.33178E-03   -0.29363E-03   512   0.158E+00    0.735E-02
DAV:   5    -0.305331320234E+02    0.34462E-04   -0.38632E-04   416   0.553E-01
  18 F= -.33968354E+02 E0= -.33958358E+02  d E =-.120196E-01  mag=    -0.0001
       N       E                     dE             d eps       ncg     rms          rms(c)
DAV:   1    -0.305331116494E+02    0.54836E-04   -0.39018E-01   736   0.282E+00    0.444E-02
DAV:   2    -0.305338748252E+02   -0.76318E-03   -0.77427E-03  1088   0.124E+00    0.516E-02
DAV:   3    -0.305338274148E+02    0.47410E-04   -0.17445E-03   528   0.117E+00
  19 F= -.33968285E+02 E0= -.33958399E+02  d E =-.119501E-01  mag=    -0.0001
       N       E                     dE             d eps       ncg     rms          rms(c)
DAV:   1    -0.305334503957E+02    0.42443E-03   -0.66005E-02   912   0.135E+00    0.245E-02
DAV:   2    -0.305336706394E+02   -0.22024E-03   -0.19233E-03   528   0.124E+00    0.544E-02
DAV:   3    -0.305334823934E+02    0.18825E-03   -0.17547E-03   464   0.117E+00
  20 F= -.33968263E+02 E0= -.33958297E+02  d E =-.119282E-01  mag=    -0.0001
       N       E                     dE             d eps       ncg     rms          rms(c)
DAV:   1    -0.305288527392E+02    0.48179E-02   -0.24855E+00   720   0.678E+00    0.104E-01
DAV:   2    -0.305333695956E+02   -0.45169E-02   -0.47407E-02  1040   0.210E+00    0.119E-01
DAV:   3    -0.305333182949E+02    0.51301E-04   -0.39211E-03   800   0.180E+00    0.968E-02
DAV:   4    -0.305332011275E+02    0.11717E-03   -0.19217E-03   576   0.124E+00
  21 F= -.33969995E+02 E0= -.33960178E+02  d E =-.173199E-02  mag=    -0.0001
       N       E                     dE             d eps       ncg     rms          rms(c)
DAV:   1    -0.305332984088E+02    0.19886E-04   -0.80381E-02   832   0.146E+00    0.691E-02
DAV:   2    -0.305338289591E+02   -0.53055E-03   -0.54110E-03   752   0.203E+00    0.889E-02
DAV:   3    -0.305334278231E+02    0.40114E-03   -0.60798E-03   544   0.213E+00    0.491E-02
DAV:   4    -0.305333904989E+02    0.37324E-04   -0.19999E-03   432   0.134E+00
  22 F= -.33969817E+02 E0= -.33959859E+02  d E =-.155365E-02  mag=    -0.0001
       N       E                     dE             d eps       ncg     rms          rms(c)
DAV:   1    -0.305332054252E+02    0.22240E-03   -0.23336E-02  1008   0.972E-01    0.156E-02
DAV:   2    -0.305332528539E+02   -0.47429E-04   -0.45738E-04   400   0.631E-01
  23 F= -.33969872E+02 E0= -.33960025E+02  d E =-.160897E-02  mag=    -0.0001
       N       E                     dE             d eps       ncg     rms          rms(c)
DAV:   1    -0.305331287892E+02    0.76636E-04   -0.67696E-04   488   0.610E-01    0.152E-02
DAV:   2    -0.305332047336E+02   -0.75944E-04   -0.69302E-04   392   0.746E-01
  24 F= -.33969857E+02 E0= -.33960038E+02  d E =-.159428E-02  mag=    -0.0001
       N       E                     dE             d eps       ncg     rms          rms(c)
DAV:   1    -0.305332100759E+02   -0.81287E-04   -0.58440E-04   432   0.660E-01    0.941E-03
DAV:   2    -0.305332730823E+02   -0.63006E-04   -0.53174E-04   376   0.628E-01
  25 F= -.33969893E+02 E0= -.33960047E+02  d E =-.162986E-02  mag=    -0.0001
       N       E                     dE             d eps       ncg     rms          rms(c)
DAV:   1    -0.305331922427E+02    0.17833E-04   -0.41307E-04   376   0.561E-01    0.482E-03
DAV:   2    -0.305332018615E+02   -0.96189E-05   -0.81842E-05   368   0.137E-01
  26 F= -.33969849E+02 E0= -.33960015E+02  d E =-.158573E-02  mag=    -0.0001
       N       E                     dE             d eps       ncg     rms          rms(c)
DAV:   1    -0.305332139532E+02   -0.21711E-04   -0.58609E-05   400   0.172E-01    0.548E-03
DAV:   2    -0.305332340375E+02   -0.20084E-04   -0.17725E-04   416   0.399E-01
  27 F= -.33969870E+02 E0= -.33960032E+02  d E =-.160703E-02  mag=    -0.0001
       N       E                     dE             d eps       ncg     rms          rms(c)
DAV:   1    -0.305332126643E+02    0.12889E-05   -0.14429E-04   384   0.335E-01    0.195E-03
DAV:   2    -0.305332181403E+02   -0.54760E-05   -0.41119E-05   368   0.168E-01
  28 F= -.33969858E+02 E0= -.33960014E+02  d E =-.159536E-02  mag=    -0.0001
       N       E                     dE             d eps       ncg     rms          rms(c)
DAV:   1    -0.305321713724E+02    0.10413E-02   -0.31071E-01   720   0.237E+00    0.336E-02
DAV:   2    -0.305327047040E+02   -0.53333E-03   -0.54598E-03  1008   0.741E-01    0.404E-02
DAV:   3    -0.305326915223E+02    0.13182E-04   -0.84322E-04   448   0.824E-01
  29 F= -.33970294E+02 E0= -.33960426E+02  d E =-.435427E-03  mag=    -0.0001
