<?xml version="1.0" encoding="ISO-8859-1"?>
<modeling>
 <generator>
  <i name="program" type="string">vasp </i>
  <i name="version" type="string">6.3.2  </i>
  <i name="subversion" type="string">27Jun22 (build Aug 17 2022 15:43:34) complex                          parallel </i>
  <i name="platform" type="string">tv2STDVTST </i>
  <i name="date" type="string">2025 01 17 </i>
  <i name="time" type="string">13:53:47 </i>
 </generator>
 <incar>
  <i type="int" name="ISTART">     0</i>
  <i type="string" name="PREC">Normal</i>
  <i type="int" name="ISPIN">     2</i>
  <i type="int" name="ICHARG">     2</i>
  <i type="int" name="IBRION">     2</i>
  <i name="EDIFF">      0.00020000</i>
  <i name="EDIFFG">     -0.03000000</i>
  <i type="int" name="NSW">   800</i>
  <i type="int" name="ISIF">     2</i>
  <i type="int" name="ISYM">     1</i>
  <i name="ENCUT">    400.00000000</i>
  <i name="POTIM">      0.50000000</i>
  <i type="logical" name="LREAL"> F  </i>
  <i type="int" name="ISMEAR">     1</i>
  <i name="SIGMA">      0.20000000</i>
  <i type="logical" name="LWAVE"> F  </i>
  <i type="logical" name="LCHARG"> F  </i>
  <i type="string" name="GGA">PE</i>
  <i type="int" name="IDIPOL">     3</i>
  <i type="int" name="IVDW">    11</i>
 </incar>
 <primitive_cell>
  <structure name="primitive_cell" >
   <crystal>
    <varray name="basis" >
     <v>       2.56679773       0.00000000       0.00000000 </v>
     <v>       1.28339887       2.22291204       0.00000000 </v>
     <v>       0.00000000       0.00000000      29.67047077 </v>
    </varray>
    <i name="volume">    169.29275129 </i>
    <varray name="rec_basis" >
     <v>       0.38959050      -0.22493018       0.00000000 </v>
     <v>       0.00000000       0.44986035       0.00000000 </v>
     <v>       0.00000000       0.00000000       0.03370354 </v>
    </varray>
   </crystal>
   <varray name="positions" >
    <v>       0.00000000       0.00000000       0.00000000 </v>
    <v>       0.33333333       0.33333333       0.07063526 </v>
    <v>       0.66666667       0.66666667       0.14127053 </v>
    <v>       0.00000000       0.00000000       0.21190579 </v>
    <v>       0.33333333       0.33333333       0.28254106 </v>
    <v>       0.66666667       0.66666667       0.35317632 </v>
    <v>       0.00000000       0.00000000       0.42381158 </v>
    <v>       0.33333333       0.33333333       0.49444685 </v>
   </varray>
  </structure>
  <varray name="primitive_index" >
   <v type="int" >        1 </v>
   <v type="int" >        2 </v>
   <v type="int" >        3 </v>
   <v type="int" >        4 </v>
   <v type="int" >        5 </v>
   <v type="int" >        6 </v>
   <v type="int" >        7 </v>
   <v type="int" >        8 </v>
  </varray>
 </primitive_cell>
 <kpoints>
  <generation param="Monkhorst-Pack">
   <v type="int" name="divisions">       3        3        1 </v>
   <v name="usershift">      0.00000000       0.00000000       0.00000000 </v>
   <v name="genvec1">      0.33333333       0.00000000       0.00000000 </v>
   <v name="genvec2">      0.00000000       0.33333333       0.00000000 </v>
   <v name="genvec3">      0.00000000       0.00000000       1.00000000 </v>
   <v name="shift">      0.00000000       0.00000000       0.00000000 </v>
  </generation>
  <varray name="kpointlist" >
   <v>       0.00000000       0.00000000       0.00000000 </v>
   <v>       0.33333333       0.00000000       0.00000000 </v>
   <v>      -0.33333333       0.33333333       0.00000000 </v>
  </varray>
  <varray name="weights" >
   <v>       0.11111111 </v>
   <v>       0.66666667 </v>
   <v>       0.22222222 </v>
  </varray>
 </kpoints>
 <parameters>
  <separator name="general" >
   <i type="string" name="SYSTEM">unknown system</i>
   <i type="logical" name="LCOMPAT"> F  </i>
  </separator>
  <separator name="electronic" >
   <i type="string" name="PREC">normal</i>
   <i name="ENMAX">    400.00000000</i>
   <i name="ENAUG">    586.98000000</i>
   <i name="EDIFF">      0.00020000</i>
   <i type="int" name="IALGO">    38</i>
   <i type="int" name="IWAVPR">    11</i>
   <i type="int" name="NBANDS">    56</i>
   <i type="int" name="NBANDSLOW">    -1</i>
   <i type="int" name="NBANDSHIGH">    -1</i>
   <i name="NELECT">     88.00000000</i>
   <i type="int" name="TURBO">     0</i>
   <i type="int" name="IRESTART">     0</i>
   <i type="int" name="NREBOOT">     0</i>
   <i type="int" name="NMIN">     0</i>
   <i name="EREF">      0.00000000</i>
   <separator name="electronic smearing" >
    <i type="int" name="ISMEAR">     1</i>
    <i name="SIGMA">      0.20000000</i>
    <i name="KSPACING">      0.50000000</i>
    <i type="logical" name="KGAMMA"> T  </i>
    <i type="logical" name="KBLOWUP"> T  </i>
   </separator>
   <separator name="electronic projectors" >
    <i type="logical" name="LREAL"> F  </i>
    <v name="ROPT">      0.00000000</v>
    <i type="int" name="LMAXPAW">  -100</i>
    <i type="int" name="LMAXMIX">     2</i>
    <i type="logical" name="NLSPLINE"> F  </i>
   </separator>
   <separator name="electronic startup" >
    <i type="int" name="ISTART">     0</i>
    <i type="int" name="ICHARG">     2</i>
    <i type="int" name="INIWAV">     1</i>
   </separator>
   <separator name="electronic spin" >
    <i type="int" name="ISPIN">     2</i>
    <i type="logical" name="LNONCOLLINEAR"> F  </i>
    <v name="MAGMOM">      1.00000000      1.00000000      1.00000000      1.00000000      1.00000000      1.00000000      1.00000000      1.00000000</v>
    <i name="NUPDOWN">     -1.00000000</i>
    <i type="logical" name="LSORBIT"> F  </i>
    <v name="SAXIS">      0.00000000      0.00000000      1.00000000</v>
    <i type="logical" name="LSPIRAL"> F  </i>
    <v name="QSPIRAL">      0.00000000      0.00000000      0.00000000</v>
    <i type="logical" name="LZEROZ"> F  </i>
   </separator>
   <separator name="electronic exchange-correlation" >
    <i type="logical" name="LASPH"> F  </i>
    <i type="logical" name="LMETAGGA"> F  </i>
   </separator>
   <separator name="electronic convergence" >
    <i type="int" name="NELM">    60</i>
    <i type="int" name="NELMDL">    -5</i>
    <i type="int" name="NELMIN">     2</i>
    <i name="ENINI">    400.00000000</i>
    <separator name="electronic convergence detail" >
     <i type="logical" name="LDIAG"> T  </i>
     <i type="logical" name="LSUBROT"> F  </i>
     <i name="WEIMIN">      0.00100000</i>
     <i name="EBREAK">      0.00000089</i>
     <i name="DEPER">      0.30000000</i>
     <i type="int" name="NRMM">     4</i>
     <i name="TIME">      0.40000000</i>
    </separator>
   </separator>
   <separator name="electronic mixer" >
    <i name="AMIX">      0.40000000</i>
    <i name="BMIX">      1.00000000</i>
    <i name="AMIN">      0.10000000</i>
    <i name="AMIX_MAG">      1.60000000</i>
    <i name="BMIX_MAG">      1.00000000</i>
    <separator name="electronic mixer details" >
     <i type="int" name="IMIX">     4</i>
     <i type="logical" name="MIXFIRST"> F  </i>
     <i type="int" name="MAXMIX">   -45</i>
     <i name="WC">    100.00000000</i>
     <i type="int" name="INIMIX">     1</i>
     <i type="int" name="MIXPRE">     1</i>
     <i type="int" name="MREMOVE">     5</i>
    </separator>
   </separator>
   <separator name="electronic dipolcorrection" >
    <i type="logical" name="LDIPOL"> F  </i>
    <i type="logical" name="LMONO"> F  </i>
    <i type="int" name="IDIPOL">     3</i>
    <i name="EPSILON">      1.00000000</i>
    <v name="DIPOL">   -100.00000000   -100.00000000   -100.00000000</v>
    <i name="EFIELD">      0.00000000</i>
   </separator>
  </separator>
  <separator name="grids" >
   <i type="int" name="NGX">    14</i>
   <i type="int" name="NGY">    14</i>
   <i type="int" name="NGZ">   150</i>
   <i type="int" name="NGXF">    28</i>
   <i type="int" name="NGYF">    28</i>
   <i type="int" name="NGZF">   300</i>
   <i type="logical" name="ADDGRID"> F  </i>
  </separator>
  <separator name="ionic" >
   <i type="int" name="NSW">   800</i>
   <i type="int" name="IBRION">     2</i>
   <i type="int" name="MDALGO">     0</i>
   <i type="int" name="ISIF">     2</i>
   <i name="PSTRESS">      0.00000000</i>
   <i name="EDIFFG">     -0.03000000</i>
   <i type="int" name="NFREE">     1</i>
   <i name="POTIM">      0.50000000</i>
   <i name="SMASS">     -3.00000000</i>
   <i name="SCALEE">      1.00000000</i>
  </separator>
  <separator name="ionic md" >
   <i name="TEBEG">      0.00010000</i>
   <i name="TEEND">      0.00010000</i>
   <i type="int" name="NBLOCK">     1</i>
   <i type="int" name="KBLOCK">   800</i>
   <i type="int" name="NPACO">   256</i>
   <i name="APACO">     10.00000000</i>
  </separator>
  <separator name="symmetry" >
   <i type="int" name="ISYM">     1</i>
   <i name="SYMPREC">      0.00001000</i>
  </separator>
  <separator name="dos" >
   <i type="int" name="LORBIT">     0</i>
   <v name="RWIGS">     -1.00000000</v>
   <i type="int" name="NEDOS">   301</i>
   <i name="EMIN">     10.00000000</i>
   <i name="EMAX">    -10.00000000</i>
   <i name="EFERMI">      0.00000000</i>
  </separator>
  <separator name="writing" >
   <i type="int" name="NWRITE">     2</i>
   <i type="logical" name="LWAVE"> F  </i>
   <i type="logical" name="LDOWNSAMPLE"> F  </i>
   <i type="logical" name="LCHARG"> F  </i>
   <i type="logical" name="LPARD"> F  </i>
   <i type="logical" name="LVTOT"> F  </i>
   <i type="logical" name="LVHAR"> F  </i>
   <i type="logical" name="LELF"> F  </i>
   <i type="logical" name="LOPTICS"> F  </i>
   <v name="STM">      0.00000000      0.00000000      0.00000000      0.00000000      0.00000000      0.00000000      0.00000000</v>
  </separator>
  <separator name="performance" >
   <i type="int" name="NPAR">     4</i>
   <i type="int" name="NSIM">     4</i>
   <i type="int" name="NBLK">    -1</i>
   <i type="logical" name="LPLANE"> T  </i>
   <i type="logical" name="LSCALAPACK"> T  </i>
   <i type="logical" name="LSCAAWARE"> F  </i>
   <i type="logical" name="LSCALU"> F  </i>
   <i type="logical" name="LASYNC"> F  </i>
   <i type="logical" name="LORBITALREAL"> F  </i>
  </separator>
  <separator name="miscellaneous" >
   <i type="int" name="IDIOT">     3</i>
   <i type="int" name="PHON_NSTRUCT">    -1</i>
   <i type="logical" name="LMUSIC"> F  </i>
   <v name="POMASS">     63.54600000</v>
   <v name="DARWINR">      0.00000000</v>
   <v name="DARWINV">      1.00000000</v>
   <i type="logical" name="LCORR"> T  </i>
  </separator>
  <i type="logical" name="GGA_COMPAT"> T  </i>
  <i type="logical" name="LBERRY"> F  </i>
  <i type="int" name="ICORELEVEL">     0</i>
  <i type="logical" name="LDAU"> F  </i>
  <i type="int" name="I_CONSTRAINED_M">     0</i>
  <separator name="electronic exchange-correlation" >
   <i type="string" name="GGA">PE</i>
   <i type="int" name="VOSKOWN">     0</i>
   <i type="logical" name="LHFCALC"> F  </i>
   <i type="string" name="PRECFOCK"></i>
   <i type="logical" name="LSYMGRAD"> F  </i>
   <i type="logical" name="LHFONE"> F  </i>
   <i type="logical" name="LRHFCALC"> F  </i>
   <i type="logical" name="LTHOMAS"> F  </i>
   <i type="logical" name="LMODELHF"> F  </i>
   <i type="logical" name="LFOCKACE"> F  </i>
   <i name="ENCUT4O">     -1.00000000</i>
   <i type="int" name="EXXOEP">     0</i>
   <i type="int" name="FOURORBIT">     0</i>
   <i name="AEXX">      0.00000000</i>
   <i name="HFALPHA">      0.00000000</i>
   <i name="MCALPHA">      0.00000000</i>
   <i name="ALDAX">      1.00000000</i>
   <i name="AGGAX">      1.00000000</i>
   <i name="ALDAC">      1.00000000</i>
   <i name="AGGAC">      1.00000000</i>
   <i type="int" name="NKREDX">     1</i>
   <i type="int" name="NKREDY">     1</i>
   <i type="int" name="NKREDZ">     1</i>
   <i type="logical" name="SHIFTRED"> F  </i>
   <i type="logical" name="ODDONLY"> F  </i>
   <i type="logical" name="EVENONLY"> F  </i>
   <i type="int" name="LMAXFOCK">     0</i>
   <i type="int" name="NMAXFOCKAE">     0</i>
   <i type="logical" name="LFOCKAEDFT"> F  </i>
   <i name="HFSCREEN">      0.00000000</i>
   <i name="HFSCREENC">      0.00000000</i>
   <i type="int" name="NBANDSGWLOW">     0</i>
  </separator>
  <separator name="vdW DFT" >
   <i type="logical" name="LUSE_VDW"> F  </i>
   <i name="Zab_VDW">     -0.84910000</i>
   <i name="PARAM1">      0.12340000</i>
   <i name="PARAM2">      1.00000000</i>
   <i name="PARAM3">      0.00000000</i>
  </separator>
  <separator name="model GW" >
   <i type="int" name="MODEL_GW">     0</i>
   <i name="MODEL_EPS0">     12.69695635</i>
   <i name="MODEL_ALPHA">      1.00000000</i>
  </separator>
  <separator name="linear response parameters" >
   <i type="logical" name="LEPSILON"> F  </i>
   <i type="logical" name="LRPA"> F  </i>
   <i type="logical" name="LNABLA"> F  </i>
   <i type="logical" name="LVEL"> F  </i>
   <i name="CSHIFT">      0.10000000</i>
   <i name="OMEGAMAX">     -1.00000000</i>
   <i name="DEG_THRESHOLD">      0.00200000</i>
   <i name="RTIME">     -0.10000000</i>
   <i name="WPLASMAI">      0.00000000</i>
   <v name="DFIELD">      0.00000000      0.00000000      0.00000000</v>
   <v name="WPLASMA">      0.00000000      0.00000000      0.00000000      0.00000000      0.00000000      0.00000000      0.00000000      0.00000000      0.00000000</v>
  </separator>
  <separator name="orbital magnetization" >
   <i type="logical" name="NUCIND"> F  </i>
   <v name="MAGPOS">      0.00000000      0.00000000      0.00000000</v>
   <i type="logical" name="LNICSALL"> T  </i>
   <i type="logical" name="ORBITALMAG"> F  </i>
   <i type="logical" name="LMAGBLOCH"> F  </i>
   <i type="logical" name="LCHIMAG"> F  </i>
   <i type="logical" name="LGAUGE"> T  </i>
   <i type="int" name="MAGATOM">     0</i>
   <v name="MAGDIPOL">      0.00000000      0.00000000      0.00000000</v>
   <v name="AVECCONST">      0.00000000      0.00000000      0.00000000</v>
  </separator>
  <separator name="response functions" >
   <i type="logical" name="LFINITE_TEMPERATURE"> F  </i>
   <i type="logical" name="LADDER"> F  </i>
   <i type="logical" name="LRPAFORCE"> F  </i>
   <i type="logical" name="LFXC"> F  </i>
   <i type="logical" name="LHARTREE"> T  </i>
   <i type="int" name="IBSE">     0</i>
   <v type="int" name="KPOINT">    -1     0     0     0</v>
   <i type="logical" name="LTCTC"> F  </i>
   <i type="logical" name="LTCTE"> F  </i>
   <i type="logical" name="LTETE"> F  </i>
   <i type="logical" name="LTRIPLET"> F  </i>
   <i type="logical" name="LFXCEPS"> F  </i>
   <i type="logical" name="LFXHEG"> F  </i>
   <i type="int" name="NATURALO">     2</i>
   <i type="logical" name="LHOLEGF"> F  </i>
   <i type="logical" name="L2ORDER"> F  </i>
   <i type="logical" name="LDMP1"> F  </i>
   <i type="logical" name="LMP2LT"> F  </i>
   <i type="logical" name="LSMP2LT"> F  </i>
   <i type="logical" name="LGWLF"> F  </i>
   <i name="ENCUTGW">     -2.00000000</i>
   <i name="ENCUTGWSOFT">     -2.00000000</i>
   <i name="ENCUTLF">     -1.00000000</i>
   <i type="logical" name="LESF_SPLINES"> F  </i>
   <i type="int" name="LMAXMP2">    -1</i>
   <i name="SCISSOR">      0.00000000</i>
   <i type="int" name="NOMEGA">     0</i>
   <i type="int" name="NOMEGAR">     0</i>
   <i type="int" name="NBANDSGW">    -1</i>
   <i type="int" name="NBANDSO">    -1</i>
   <i type="int" name="NBANDSV">    -1</i>
   <i type="int" name="NELMGW">     1</i>
   <i type="int" name="NELMHF">     1</i>
   <i type="int" name="DIM">     3</i>
   <i type="int" name="IESPILON">     4</i>
   <i type="int" name="ANTIRES">     0</i>
   <i name="OMEGAMAX">    -30.00000000</i>
   <i name="OMEGAMIN">    -30.00000000</i>
   <i name="OMEGATL">   -200.00000000</i>
   <i type="int" name="OMEGAGRID">     0</i>
   <i name="CSHIFT">     -0.10000000</i>
   <i type="logical" name="LSELFENERGY"> F  </i>
   <i type="logical" name="LSPECTRAL"> F  </i>
   <i type="logical" name="LSPECTRALGW"> F  </i>
   <i type="logical" name="LSINGLES"> F  </i>
   <i type="logical" name="LFERMIGW"> F  </i>
   <i type="logical" name="ODDONLYGW"> F  </i>
   <i type="logical" name="EVENONLYGW"> F  </i>
   <i type="int" name="NKREDLFX">     1</i>
   <i type="int" name="NKREDLFY">     1</i>
   <i type="int" name="NKREDLFZ">     1</i>
   <i type="int" name="MAXMEM">  2800</i>
   <i type="int" name="TELESCOPE">     0</i>
   <i type="int" name="NTAUPAR">    -1</i>
   <i type="int" name="NOMEGAPAR">    -1</i>
   <i name="DAMP_NEWTON">      0.80000001</i>
   <i name="LAMBDA">      1.00000000</i>
  </separator>
  <separator name="External order field" >
   <i name="OFIELD_KAPPA">      0.00000000</i>
   <v name="OFIELD_K">      0.00000000      0.00000000      0.00000000</v>
   <i name="OFIELD_Q6_NEAR">      0.00000000</i>
   <i name="OFIELD_Q6_FAR">      0.00000000</i>
   <i name="OFIELD_A">      0.00000000</i>
  </separator>
  <separator name="optional k-points parameters" >
   <i type="int" name="KPOINTS_OPT_MODE">     1</i>
   <i type="logical" name="LKPOINTS_OPT"> F  </i>
  </separator>
 </parameters>
 <atominfo>
  <atoms>       8 </atoms>
  <types>       1 </types>
  <array name="atoms" >
   <dimension dim="1">ion</dimension>
   <field type="string">element</field>
   <field type="int">atomtype</field>
   <set>
    <rc><c>Cu</c><c>   1</c></rc>
    <rc><c>Cu</c><c>   1</c></rc>
    <rc><c>Cu</c><c>   1</c></rc>
    <rc><c>Cu</c><c>   1</c></rc>
    <rc><c>Cu</c><c>   1</c></rc>
    <rc><c>Cu</c><c>   1</c></rc>
    <rc><c>Cu</c><c>   1</c></rc>
    <rc><c>Cu</c><c>   1</c></rc>
   </set>
  </array>
  <array name="atomtypes" >
   <dimension dim="1">type</dimension>
   <field type="int">atomspertype</field>
   <field type="string">element</field>
   <field>mass</field>
   <field>valence</field>
   <field type="string">pseudopotential</field>
   <set>
    <rc><c>   8</c><c>Cu</c><c>     63.54600000</c><c>     11.00000000</c><c>  PAW_PBE Cu 22Jun2005                  </c></rc>
   </set>
  </array>
 </atominfo>
 <structure name="initialpos" >
  <crystal>
   <varray name="basis" >
    <v>       2.56679773       0.00000000       0.00000000 </v>
    <v>       1.28339887       2.22291204       0.00000000 </v>
    <v>       0.00000000       0.00000000      29.67047077 </v>
   </varray>
   <i name="volume">    169.29275129 </i>
   <varray name="rec_basis" >
    <v>       0.38959050      -0.22493018       0.00000000 </v>
    <v>       0.00000000       0.44986035       0.00000000 </v>
    <v>       0.00000000       0.00000000       0.03370354 </v>
   </varray>
  </crystal>
  <varray name="positions" >
   <v>       0.00000000       0.00000000       0.00000000 </v>
   <v>       0.33333333       0.33333333       0.07063526 </v>
   <v>       0.66666667       0.66666667       0.14127053 </v>
   <v>       0.00000000       0.00000000       0.21190579 </v>
   <v>       0.33333333       0.33333333       0.28254106 </v>
   <v>       0.66666667       0.66666667       0.35317632 </v>
   <v>       0.00000000       0.00000000       0.42381158 </v>
   <v>       0.33333333       0.33333333       0.49444685 </v>
  </varray>
  <varray name="selective"  type="logical" >
   <v type="logical" >  F  F  F </v>
   <v type="logical" >  F  F  F </v>
   <v type="logical" >  T  T  T </v>
   <v type="logical" >  T  T  T </v>
   <v type="logical" >  T  T  T </v>
   <v type="logical" >  T  T  T </v>
   <v type="logical" >  T  T  T </v>
   <v type="logical" >  T  T  T </v>
  </varray>
  <nose>
   <v>      -3.00000000       0.00000000       0.00010000       0.00010000 </v>
  </nose>
 </structure>
 <calculation>
  <scstep>
   <time name="dav">    0.20    0.20</time>
   <time name="total">    0.23    0.23</time>
   <energy>
    <i name="alphaZ">    276.47370612 </i>
    <i name="ewald">  49799.34773087 </i>
    <i name="hartreedc"> -60800.69884003 </i>
    <i name="XCdc">    365.94474599 </i>
    <i name="pawpsdc">   9824.77996839 </i>
    <i name="pawaedc"> -10671.36745220 </i>
    <i name="eentropy">     -0.00652961 </i>
    <i name="bandstr">    842.24682751 </i>
    <i name="atom">  11127.66112160 </i>
    <i name="e_fr_energy">    764.38127865 </i>
    <i name="e_wo_entrp">    764.38780826 </i>
    <i name="e_0_energy">    764.38345519 </i>
   </energy>
  </scstep>
  <scstep>
   <time name="dav">    0.19    0.19</time>
   <time name="total">    0.19    0.19</time>
   <energy>
    <i name="e_fr_energy">     60.31587368 </i>
    <i name="e_wo_entrp">     60.32529665 </i>
    <i name="e_0_energy">     60.31901467 </i>
   </energy>
  </scstep>
  <scstep>
   <time name="dav">    0.19    0.19</time>
   <time name="total">    0.19    0.19</time>
   <energy>
    <i name="e_fr_energy">    -32.42934018 </i>
    <i name="e_wo_entrp">    -32.45656169 </i>
    <i name="e_0_energy">    -32.43841401 </i>
   </energy>
  </scstep>
  <scstep>
   <time name="dav">    0.20    0.21</time>
   <time name="total">    0.20    0.21</time>
   <energy>
    <i name="e_fr_energy">    -35.91707299 </i>
    <i name="e_wo_entrp">    -35.95291496 </i>
    <i name="e_0_energy">    -35.92902032 </i>
   </energy>
  </scstep>
  <scstep>
   <time name="dav">    0.20    0.21</time>
   <time name="total">    0.26    0.26</time>
   <energy>
    <i name="e_fr_energy">    -35.99309819 </i>
    <i name="e_wo_entrp">    -36.02905836 </i>
    <i name="e_0_energy">    -36.00508492 </i>
   </energy>
  </scstep>
  <scstep>
   <time name="dav">    0.19    0.19</time>
   <time name="total">    0.27    0.27</time>
   <energy>
    <i name="e_fr_energy">    -29.58397166 </i>
    <i name="e_wo_entrp">    -29.55562631 </i>
    <i name="e_0_energy">    -29.57452321 </i>
   </energy>
  </scstep>
  <scstep>
   <time name="dav">    0.21    0.21</time>
   <time name="total">    0.29    0.30</time>
   <energy>
    <i name="e_fr_energy">    -27.03299754 </i>
    <i name="e_wo_entrp">    -27.03404505 </i>
    <i name="e_0_energy">    -27.03334671 </i>
   </energy>
  </scstep>
  <scstep>
   <time name="dav">    0.26    0.27</time>
   <time name="total">    0.34    0.34</time>
   <energy>
    <i name="e_fr_energy">    -26.06225400 </i>
    <i name="e_wo_entrp">    -26.04630034 </i>
    <i name="e_0_energy">    -26.05693611 </i>
   </energy>
  </scstep>
  <scstep>
   <time name="dav">    0.24    0.24</time>
   <time name="total">    0.31    0.32</time>
   <energy>
    <i name="e_fr_energy">    -25.74252389 </i>
    <i name="e_wo_entrp">    -25.72453986 </i>
    <i name="e_0_energy">    -25.73652921 </i>
   </energy>
  </scstep>
  <scstep>
   <time name="dav">    0.20    0.21</time>
   <time name="total">    0.28    0.28</time>
   <energy>
    <i name="e_fr_energy">    -25.67598042 </i>
    <i name="e_wo_entrp">    -25.65752538 </i>
    <i name="e_0_energy">    -25.66982874 </i>
   </energy>
  </scstep>
  <scstep>
   <time name="dav">    0.23    0.23</time>
   <time name="total">    0.31    0.31</time>
   <energy>
    <i name="e_fr_energy">    -25.70132391 </i>
    <i name="e_wo_entrp">    -25.69165382 </i>
    <i name="e_0_energy">    -25.69810055 </i>
   </energy>
  </scstep>
  <scstep>
   <time name="dav">    0.24    0.24</time>
   <time name="total">    0.31    0.32</time>
   <energy>
    <i name="e_fr_energy">    -25.93049733 </i>
    <i name="e_wo_entrp">    -25.92109043 </i>
    <i name="e_0_energy">    -25.92736170 </i>
   </energy>
  </scstep>
  <scstep>
   <time name="dav">    0.26    0.26</time>
   <time name="total">    0.33    0.33</time>
   <energy>
    <i name="e_fr_energy">    -26.23793102 </i>
    <i name="e_wo_entrp">    -26.22559812 </i>
    <i name="e_0_energy">    -26.23382005 </i>
   </energy>
  </scstep>
  <scstep>
   <time name="dav">    0.28    0.28</time>
   <time name="total">    0.36    0.36</time>
   <energy>
    <i name="e_fr_energy">    -27.87777183 </i>
    <i name="e_wo_entrp">    -27.86455356 </i>
    <i name="e_0_energy">    -27.87336574 </i>
   </energy>
  </scstep>
  <scstep>
   <time name="dav">    0.23    0.23</time>
   <time name="total">    0.31    0.31</time>
   <energy>
    <i name="e_fr_energy">    -28.77330642 </i>
    <i name="e_wo_entrp">    -28.76675978 </i>
    <i name="e_0_energy">    -28.77112421 </i>
   </energy>
  </scstep>
  <scstep>
   <time name="dav">    0.21    0.21</time>
   <time name="total">    0.28    0.28</time>
   <energy>
    <i name="e_fr_energy">    -29.11710142 </i>
    <i name="e_wo_entrp">    -29.11033627 </i>
    <i name="e_0_energy">    -29.11484637 </i>
   </energy>
  </scstep>
  <scstep>
   <time name="dav">    0.22    0.22</time>
   <time name="total">    0.30    0.30</time>
   <energy>
    <i name="e_fr_energy">    -29.45741905 </i>
    <i name="e_wo_entrp">    -29.44539612 </i>
    <i name="e_0_energy">    -29.45341141 </i>
   </energy>
  </scstep>
  <scstep>
   <time name="dav">    0.20    0.20</time>
   <time name="total">    0.27    0.27</time>
   <energy>
    <i name="e_fr_energy">    -29.67653774 </i>
    <i name="e_wo_entrp">    -29.66090432 </i>
    <i name="e_0_energy">    -29.67132660 </i>
   </energy>
  </scstep>
  <scstep>
   <time name="dav">    0.22    0.22</time>
   <time name="total">    0.30    0.30</time>
   <energy>
    <i name="e_fr_energy">    -29.86990708 </i>
    <i name="e_wo_entrp">    -29.84970861 </i>
    <i name="e_0_energy">    -29.86317425 </i>
   </energy>
  </scstep>
  <scstep>
   <time name="dav">    0.21    0.21</time>
   <time name="total">    0.29    0.29</time>
   <energy>
    <i name="e_fr_energy">    -29.98015946 </i>
    <i name="e_wo_entrp">    -29.95777742 </i>
    <i name="e_0_energy">    -29.97269878 </i>
   </energy>
  </scstep>
  <scstep>
   <time name="dav">    0.23    0.23</time>
   <time name="total">    0.31    0.31</time>
   <energy>
    <i name="e_fr_energy">    -30.28491869 </i>
    <i name="e_wo_entrp">    -30.25951687 </i>
    <i name="e_0_energy">    -30.27645142 </i>
   </energy>
  </scstep>
  <scstep>
   <time name="dav">    0.24    0.24</time>
   <time name="total">    0.31    0.31</time>
   <energy>
    <i name="e_fr_energy">    -30.52334218 </i>
    <i name="e_wo_entrp">    -30.49553883 </i>
    <i name="e_0_energy">    -30.51407440 </i>
   </energy>
  </scstep>
  <scstep>
   <time name="dav">    0.20    0.20</time>
   <time name="total">    0.28    0.28</time>
   <energy>
    <i name="e_fr_energy">    -30.53576770 </i>
    <i name="e_wo_entrp">    -30.50569917 </i>
    <i name="e_0_energy">    -30.52574486 </i>
   </energy>
  </scstep>
  <scstep>
   <time name="dav">    0.22    0.22</time>
   <time name="total">    0.30    0.30</time>
   <energy>
    <i name="e_fr_energy">    -30.53357543 </i>
    <i name="e_wo_entrp">    -30.50329195 </i>
    <i name="e_0_energy">    -30.52348094 </i>
   </energy>
  </scstep>
  <scstep>
   <time name="dav">    0.18    0.18</time>
   <time name="total">    0.25    0.26</time>
   <energy>
    <i name="e_fr_energy">    -30.53293269 </i>
    <i name="e_wo_entrp">    -30.50242173 </i>
    <i name="e_0_energy">    -30.52276237 </i>
   </energy>
  </scstep>
  <scstep>
   <time name="dav">    0.18    0.18</time>
   <time name="total">    0.25    0.25</time>
   <energy>
    <i name="e_fr_energy">    -30.53340615 </i>
    <i name="e_wo_entrp">    -30.50246042 </i>
    <i name="e_0_energy">    -30.52309091 </i>
   </energy>
  </scstep>
  <scstep>
   <time name="dav">    0.15    0.15</time>
   <time name="total">    0.23    0.23</time>
   <energy>
    <i name="e_fr_energy">    -30.53429688 </i>
    <i name="e_wo_entrp">    -30.50361344 </i>
    <i name="e_0_energy">    -30.52406907 </i>
   </energy>
  </scstep>
  <scstep>
   <time name="dav">    0.14    0.14</time>
   <time name="total">    0.21    0.22</time>
   <energy>
    <i name="e_fr_energy">    -30.53555144 </i>
    <i name="e_wo_entrp">    -30.50474697 </i>
    <i name="e_0_energy">    -30.52528329 </i>
   </energy>
  </scstep>
  <scstep>
   <time name="dav">    0.14    0.14</time>
   <time name="total">    0.22    0.22</time>
   <energy>
    <i name="e_fr_energy">    -30.53662702 </i>
    <i name="e_wo_entrp">    -30.50579876 </i>
    <i name="e_0_energy">    -30.52635093 </i>
   </energy>
  </scstep>
  <scstep>
   <time name="dav">    0.14    0.14</time>
   <time name="total">    0.21    0.21</time>
   <energy>
    <i name="e_fr_energy">    -30.53690301 </i>
    <i name="e_wo_entrp">    -30.50607195 </i>
    <i name="e_0_energy">    -30.52662599 </i>
   </energy>
  </scstep>
  <scstep>
   <time name="dav">    0.14    0.14</time>
   <time name="total">    0.16    0.16</time>
   <energy>
    <i name="alphaZ">    276.47370612 </i>
    <i name="ewald">  49799.34773087 </i>
    <i name="hartreedc"> -60681.41984131 </i>
    <i name="XCdc">    356.80270331 </i>
    <i name="pawpsdc">  10464.05539326 </i>
    <i name="pawaedc"> -11324.76973622 </i>
    <i name="eentropy">     -0.03081399 </i>
    <i name="bandstr">    -48.65717998 </i>
    <i name="atom">  11127.66112160 </i>
    <i name="e_fr_energy">    -30.53691633 </i>
    <i name="e_wo_entrp">    -30.50610234 </i>
    <i name="e_0_energy">    -30.52664500 </i>
   </energy>
  </scstep>
  <dipole>
   <v name="dipole">      0.00000000       0.00000000       0.00400482 </v>
   <i name="Tr[quadrupol]">    -79.81734448 </i>
   <i name="Echarged">      0.00000000 </i>
   <i name="Edipol_quadrupol">      0.00000000 </i>
   <i name="Eion">      0.00000000 </i>
  </dipole>
  <structure>
   <crystal>
    <varray name="basis" >
     <v>       2.56679773       0.00000000       0.00000000 </v>
     <v>       1.28339887       2.22291204       0.00000000 </v>
     <v>       0.00000000       0.00000000      29.67047077 </v>
    </varray>
    <i name="volume">    169.29275129 </i>
    <varray name="rec_basis" >
     <v>       0.38959050      -0.22493018       0.00000000 </v>
     <v>       0.00000000       0.44986035       0.00000000 </v>
     <v>       0.00000000       0.00000000       0.03370354 </v>
    </varray>
   </crystal>
   <varray name="positions" >
    <v>       0.00000000       0.00000000       0.00000000 </v>
    <v>       0.33333333       0.33333333       0.07063526 </v>
    <v>       0.66666667       0.66666667       0.14127053 </v>
    <v>       0.00000000       0.00000000       0.21190579 </v>
    <v>       0.33333333       0.33333333       0.28254106 </v>
    <v>       0.66666667       0.66666667       0.35317632 </v>
    <v>       0.00000000       0.00000000       0.42381158 </v>
    <v>       0.33333333       0.33333333       0.49444685 </v>
   </varray>
  </structure>
  <varray name="forces" >
   <v>      -0.00000000      -0.00000000       0.48575960 </v>
   <v>       0.00000000       0.00000000      -0.12813376 </v>
   <v>      -0.00000000       0.00000000      -0.04550993 </v>
   <v>      -0.00000000      -0.00000000       0.09058086 </v>
   <v>      -0.00000000      -0.00000000      -0.08885837 </v>
   <v>      -0.00000000      -0.00000000       0.04530040 </v>
   <v>       0.00000000       0.00000000       0.12459594 </v>
   <v>       0.00000000       0.00000000      -0.48373474 </v>
  </varray>
  <varray name="stress" >
   <v>     -59.68311656      -0.00000000       0.00000000 </v>
   <v>      -0.00000000     -59.68311655       0.00000000 </v>
   <v>      -0.00000000       0.00000000     -59.87808116 </v>
  </varray>
  <energy>
   <i name="e_fr_energy">    -33.88177462 </i>
   <i name="e_wo_entrp">    -33.85096062 </i>
   <i name="e_0_energy">    -33.87150329 </i>
  </energy>
  <time name="totalsc">    8.71    8.83</time>
 </calculation>
 <calculation>
  <scstep>
   <time name="dav">    0.19    0.19</time>
   <time name="total">    0.26    0.26</time>
   <energy>
    <i name="alphaZ">    276.47370612 </i>
    <i name="ewald">  49906.77355672 </i>
    <i name="hartreedc"> -60788.48578053 </i>
    <i name="XCdc">    356.83577602 </i>
    <i name="pawpsdc">  10463.86334456 </i>
    <i name="pawaedc"> -11324.55626263 </i>
    <i name="eentropy">     -0.03043509 </i>
    <i name="bandstr">    -49.07482722 </i>
    <i name="atom">  11127.66112160 </i>
    <i name="e_fr_energy">    -30.53980045 </i>
    <i name="e_wo_entrp">    -30.50936536 </i>
    <i name="e_0_energy">    -30.52965542 </i>
   </energy>
  </scstep>
  <scstep>
   <time name="dav">    0.29    0.29</time>
   <time name="total">    0.37    0.37</time>
   <energy>
    <i name="e_fr_energy">    -30.55121847 </i>
    <i name="e_wo_entrp">    -30.51970626 </i>
    <i name="e_0_energy">    -30.54071440 </i>
   </energy>
  </scstep>
  <scstep>
   <time name="dav">    0.31    0.31</time>
   <time name="total">    0.38    0.39</time>
   <energy>
    <i name="e_fr_energy">    -30.54673991 </i>
    <i name="e_wo_entrp">    -30.51562073 </i>
    <i name="e_0_energy">    -30.53636685 </i>
   </energy>
  </scstep>
  <scstep>
   <time name="dav">    0.24    0.24</time>
   <time name="total">    0.32    0.32</time>
   <energy>
    <i name="e_fr_energy">    -30.54565782 </i>
    <i name="e_wo_entrp">    -30.51526334 </i>
    <i name="e_0_energy">    -30.53552633 </i>
   </energy>
  </scstep>
  <scstep>
   <time name="dav">    0.20    0.20</time>
   <time name="total">    0.22    0.22</time>
   <energy>
    <i name="alphaZ">    276.47370612 </i>
    <i name="ewald">  49906.77355672 </i>
    <i name="hartreedc"> -60788.99584608 </i>
    <i name="XCdc">    356.82646969 </i>
    <i name="pawpsdc">  10466.42962504 </i>
    <i name="pawaedc"> -11327.11319306 </i>
    <i name="eentropy">     -0.03084542 </i>
    <i name="bandstr">    -48.57021453 </i>
    <i name="atom">  11127.66112160 </i>
    <i name="e_fr_energy">    -30.54561991 </i>
    <i name="e_wo_entrp">    -30.51477449 </i>
    <i name="e_0_energy">    -30.53533811 </i>
   </energy>
  </scstep>
  <dipole>
   <v name="dipole">      0.00000000       0.00000000      -0.00253255 </v>
   <i name="Tr[quadrupol]">    -79.82597918 </i>
   <i name="Echarged">      0.00000000 </i>
   <i name="Edipol_quadrupol">      0.00000000 </i>
   <i name="Eion">      0.00000000 </i>
  </dipole>
  <structure>
   <crystal>
    <varray name="basis" >
     <v>       2.56679773       0.00000000       0.00000000 </v>
     <v>       1.28339887       2.22291204       0.00000000 </v>
     <v>       0.00000000       0.00000000      29.67047077 </v>
    </varray>
    <i name="volume">    169.29275129 </i>
    <varray name="rec_basis" >
     <v>       0.38959050      -0.22493018       0.00000000 </v>
     <v>       0.00000000       0.44986035       0.00000000 </v>
     <v>       0.00000000       0.00000000       0.03370354 </v>
    </varray>
   </crystal>
   <varray name="positions" >
    <v>       0.00000000       0.00000000       0.00000000 </v>
    <v>       0.33333333       0.33333333       0.07063526 </v>
    <v>       0.66666667       0.66666667       0.14119653 </v>
    <v>      -0.00000000      -0.00000000       0.21205307 </v>
    <v>       0.33333333       0.33333333       0.28239658 </v>
    <v>       0.66666667       0.66666667       0.35324998 </v>
    <v>       0.00000000       0.00000000       0.42401417 </v>
    <v>       0.33333333       0.33333333       0.49366032 </v>
   </varray>
  </structure>
  <varray name="forces" >
   <v>      -0.00000000       0.00000000       0.48331723 </v>
   <v>       0.00000000       0.00000000      -0.13075041 </v>
   <v>       0.00000000       0.00000000      -0.01681720 </v>
   <v>      -0.00000000       0.00000000       0.04729128 </v>
   <v>      -0.00000000       0.00000000      -0.03313004 </v>
   <v>       0.00000000       0.00000000       0.03322180 </v>
   <v>      -0.00000000       0.00000000      -0.00358041 </v>
   <v>      -0.00000000      -0.00000000      -0.37955225 </v>
  </varray>
  <varray name="stress" >
   <v>     -52.64379176      -0.00000000      -0.00000000 </v>
   <v>      -0.00000000     -52.64379176       0.00000000 </v>
   <v>       0.00000000       0.00000000     -51.64597320 </v>
  </varray>
  <energy>
   <i name="e_fr_energy">    -33.89285297 </i>
   <i name="e_wo_entrp">    -33.86200755 </i>
   <i name="e_0_energy">    -33.88257116 </i>
  </energy>
  <time name="totalsc">    1.90    1.99</time>
 </calculation>
 <calculation>
  <scstep>
   <time name="dav">    0.19    0.19</time>
   <time name="total">    0.27    0.27</time>
   <energy>
    <i name="alphaZ">    276.47370612 </i>
    <i name="ewald">  50177.68952107 </i>
    <i name="hartreedc"> -61059.25813368 </i>
    <i name="XCdc">    356.92789102 </i>
    <i name="pawpsdc">  10466.93163282 </i>
    <i name="pawaedc"> -11327.63965264 </i>
    <i name="eentropy">     -0.02984519 </i>
    <i name="bandstr">    -49.26481327 </i>
    <i name="atom">  11127.66112160 </i>
    <i name="e_fr_energy">    -30.50857214 </i>
    <i name="e_wo_entrp">    -30.47872696 </i>
    <i name="e_0_energy">    -30.49862375 </i>
   </energy>
  </scstep>
  <scstep>
   <time name="dav">    0.29    0.29</time>
   <time name="total">    0.37    0.37</time>
   <energy>
    <i name="e_fr_energy">    -30.58314438 </i>
    <i name="e_wo_entrp">    -30.55495395 </i>
    <i name="e_0_energy">    -30.57374757 </i>
   </energy>
  </scstep>
  <scstep>
   <time name="dav">    0.30    0.31</time>
   <time name="total">    0.38    0.38</time>
   <energy>
    <i name="e_fr_energy">    -30.55457323 </i>
    <i name="e_wo_entrp">    -30.52295021 </i>
    <i name="e_0_energy">    -30.54403222 </i>
   </energy>
  </scstep>
  <scstep>
   <time name="dav">    0.29    0.30</time>
   <time name="total">    0.37    0.37</time>
   <energy>
    <i name="e_fr_energy">    -30.54883096 </i>
    <i name="e_wo_entrp">    -30.51963227 </i>
    <i name="e_0_energy">    -30.53909806 </i>
   </energy>
  </scstep>
  <scstep>
   <time name="dav">    0.26    0.26</time>
   <time name="total">    0.33    0.33</time>
   <energy>
    <i name="e_fr_energy">    -30.54840104 </i>
    <i name="e_wo_entrp">    -30.51769657 </i>
    <i name="e_0_energy">    -30.53816622 </i>
   </energy>
  </scstep>
  <scstep>
   <time name="dav">    0.23    0.23</time>
   <time name="total">    0.30    0.31</time>
   <energy>
    <i name="e_fr_energy">    -30.54780442 </i>
    <i name="e_wo_entrp">    -30.51742720 </i>
    <i name="e_0_energy">    -30.53767868 </i>
   </energy>
  </scstep>
  <scstep>
   <time name="dav">    0.25    0.25</time>
   <time name="total">    0.32    0.32</time>
   <energy>
    <i name="e_fr_energy">    -30.54746730 </i>
    <i name="e_wo_entrp">    -30.51689761 </i>
    <i name="e_0_energy">    -30.53727740 </i>
   </energy>
  </scstep>
  <scstep>
   <time name="dav">    0.15    0.16</time>
   <time name="total">    0.18    0.18</time>
   <energy>
    <i name="alphaZ">    276.47370612 </i>
    <i name="ewald">  50177.68952107 </i>
    <i name="hartreedc"> -61060.15318430 </i>
    <i name="XCdc">    356.90292878 </i>
    <i name="pawpsdc">  10480.78523448 </i>
    <i name="pawaedc"> -11341.76460828 </i>
    <i name="eentropy">     -0.03051500 </i>
    <i name="bandstr">    -48.11163122 </i>
    <i name="atom">  11127.66112160 </i>
    <i name="e_fr_energy">    -30.54742675 </i>
    <i name="e_wo_entrp">    -30.51691174 </i>
    <i name="e_0_energy">    -30.53725508 </i>
   </energy>
  </scstep>
  <dipole>
   <v name="dipole">      0.00000000       0.00000000      -0.00893893 </v>
   <i name="Tr[quadrupol]">    -79.84345061 </i>
   <i name="Echarged">      0.00000000 </i>
   <i name="Edipol_quadrupol">      0.00000000 </i>
   <i name="Eion">      0.00000000 </i>
  </dipole>
  <structure>
   <crystal>
    <varray name="basis" >
     <v>       2.56679773       0.00000000       0.00000000 </v>
     <v>       1.28339887       2.22291204       0.00000000 </v>
     <v>       0.00000000       0.00000000      29.67047077 </v>
    </varray>
    <i name="volume">    169.29275129 </i>
    <varray name="rec_basis" >
     <v>       0.38959050      -0.22493018       0.00000000 </v>
     <v>       0.00000000       0.44986035       0.00000000 </v>
     <v>       0.00000000       0.00000000       0.03370354 </v>
    </varray>
   </crystal>
   <varray name="positions" >
    <v>       0.00000000       0.00000000       0.00000000 </v>
    <v>       0.33333333       0.33333333       0.07063526 </v>
    <v>       0.66666667       0.66666667       0.14101161 </v>
    <v>      -0.00000000      -0.00000000       0.21242112 </v>
    <v>       0.33333333       0.33333333       0.28203553 </v>
    <v>       0.66666667       0.66666667       0.35343404 </v>
    <v>       0.00000000       0.00000000       0.42452043 </v>
    <v>       0.33333333       0.33333333       0.49169480 </v>
   </varray>
  </structure>
  <varray name="forces" >
   <v>      -0.00000000      -0.00000000       0.48620415 </v>
   <v>       0.00000000      -0.00000000      -0.14808438 </v>
   <v>       0.00000000      -0.00000000       0.05324081 </v>
   <v>      -0.00000000      -0.00000000      -0.09728452 </v>
   <v>       0.00000000       0.00000000       0.10472937 </v>
   <v>       0.00000000      -0.00000000       0.00179524 </v>
   <v>      -0.00000000      -0.00000000      -0.38394803 </v>
   <v>       0.00000000       0.00000000      -0.01665265 </v>
  </varray>
  <varray name="stress" >
   <v>     -59.42671786      -0.00000000      -0.00000000 </v>
   <v>      -0.00000000     -59.42671786      -0.00000000 </v>
   <v>      -0.00000000      -0.00000000     -54.00501426 </v>
  </varray>
  <energy>
   <i name="e_fr_energy">    -33.90058795 </i>
   <i name="e_wo_entrp">    -33.87007294 </i>
   <i name="e_0_energy">    -33.89041628 </i>
  </energy>
  <time name="totalsc">    2.86    2.96</time>
 </calculation>
 <calculation>
  <scstep>
   <time name="dav">    0.19    0.19</time>
   <time name="total">    0.26    0.26</time>
   <energy>
    <i name="alphaZ">    276.47370612 </i>
    <i name="ewald">  50112.83745944 </i>
    <i name="hartreedc"> -60995.34028944 </i>
    <i name="XCdc">    356.87898161 </i>
    <i name="pawpsdc">  10480.68964920 </i>
    <i name="pawaedc"> -11341.66370148 </i>
    <i name="eentropy">     -0.03070852 </i>
    <i name="bandstr">    -48.05398490 </i>
    <i name="atom">  11127.66112160 </i>
    <i name="e_fr_energy">    -30.54776636 </i>
    <i name="e_wo_entrp">    -30.51705785 </i>
    <i name="e_0_energy">    -30.53753019 </i>
   </energy>
  </scstep>
  <scstep>
   <time name="dav">    0.28    0.29</time>
   <time name="total">    0.36    0.36</time>
   <energy>
    <i name="e_fr_energy">    -30.55159935 </i>
    <i name="e_wo_entrp">    -30.52119525 </i>
    <i name="e_0_energy">    -30.54146465 </i>
   </energy>
  </scstep>
  <scstep>
   <time name="dav">    0.27    0.27</time>
   <time name="total">    0.34    0.34</time>
   <energy>
    <i name="e_fr_energy">    -30.54990650 </i>
    <i name="e_wo_entrp">    -30.51979119 </i>
    <i name="e_0_energy">    -30.53986806 </i>
   </energy>
  </scstep>
  <scstep>
   <time name="dav">    0.20    0.20</time>
   <time name="total">    0.22    0.22</time>
   <energy>
    <i name="alphaZ">    276.47370612 </i>
    <i name="ewald">  50112.83745944 </i>
    <i name="hartreedc"> -60994.91859364 </i>
    <i name="XCdc">    356.87723758 </i>
    <i name="pawpsdc">  10478.85640951 </i>
    <i name="pawaedc"> -11339.76701957 </i>
    <i name="eentropy">     -0.03052389 </i>
    <i name="bandstr">    -48.53958993 </i>
    <i name="atom">  11127.66112160 </i>
    <i name="e_fr_energy">    -30.54979279 </i>
    <i name="e_wo_entrp">    -30.51926889 </i>
    <i name="e_0_energy">    -30.53961816 </i>
   </energy>
  </scstep>
  <dipole>
   <v name="dipole">      0.00000000       0.00000000      -0.00688269 </v>
   <i name="Tr[quadrupol]">    -79.82601429 </i>
   <i name="Echarged">      0.00000000 </i>
   <i name="Edipol_quadrupol">      0.00000000 </i>
   <i name="Eion">      0.00000000 </i>
  </dipole>
  <structure>
   <crystal>
    <varray name="basis" >
     <v>       2.56679773       0.00000000       0.00000000 </v>
     <v>       1.28339887       2.22291204       0.00000000 </v>
     <v>       0.00000000       0.00000000      29.67047077 </v>
    </varray>
    <i name="volume">    169.29275129 </i>
    <varray name="rec_basis" >
     <v>       0.38959050      -0.22493018       0.00000000 </v>
     <v>       0.00000000       0.44986035       0.00000000 </v>
     <v>       0.00000000       0.00000000       0.03370354 </v>
    </varray>
   </crystal>
   <varray name="positions" >
    <v>       0.00000000       0.00000000       0.00000000 </v>
    <v>       0.33333333       0.33333333       0.07063526 </v>
    <v>       0.66666667       0.66666667       0.14105566 </v>
    <v>      -0.00000000      -0.00000000       0.21233345 </v>
    <v>       0.33333333       0.33333333       0.28212153 </v>
    <v>       0.66666667       0.66666667       0.35339020 </v>
    <v>       0.00000000       0.00000000       0.42439984 </v>
    <v>       0.33333333       0.33333333       0.49216301 </v>
   </varray>
  </structure>
  <varray name="forces" >
   <v>      -0.00000000      -0.00000000       0.48503355 </v>
   <v>      -0.00000000      -0.00000000      -0.14654510 </v>
   <v>       0.00000000       0.00000000       0.04515158 </v>
   <v>      -0.00000000      -0.00000000      -0.07528010 </v>
   <v>       0.00000000       0.00000000       0.07173186 </v>
   <v>       0.00000000       0.00000000      -0.00242814 </v>
   <v>       0.00000000       0.00000000      -0.29356670 </v>
   <v>      -0.00000000      -0.00000000      -0.08409696 </v>
  </varray>
  <varray name="stress" >
   <v>     -54.78213808      -0.00000000       0.00000000 </v>
   <v>      -0.00000000     -54.78213808       0.00000000 </v>
   <v>       0.00000000       0.00000000     -50.42815852 </v>
  </varray>
  <energy>
   <i name="e_fr_energy">    -33.90154225 </i>
   <i name="e_wo_entrp">    -33.87101836 </i>
   <i name="e_0_energy">    -33.89136762 </i>
  </energy>
  <time name="totalsc">    1.53    1.60</time>
 </calculation>
 <calculation>
  <scstep>
   <time name="dav">    0.19    0.19</time>
   <time name="total">    0.27    0.27</time>
   <energy>
    <i name="alphaZ">    276.47370612 </i>
    <i name="ewald">  50292.26638367 </i>
    <i name="hartreedc"> -61173.95642717 </i>
    <i name="XCdc">    356.90605161 </i>
    <i name="pawpsdc">  10478.63103167 </i>
    <i name="pawaedc"> -11339.53501796 </i>
    <i name="eentropy">     -0.03024785 </i>
    <i name="bandstr">    -48.96190825 </i>
    <i name="atom">  11127.66112160 </i>
    <i name="e_fr_energy">    -30.54530655 </i>
    <i name="e_wo_entrp">    -30.51505870 </i>
    <i name="e_0_energy">    -30.53522394 </i>
   </energy>
  </scstep>
  <scstep>
   <time name="dav">    0.28    0.28</time>
   <time name="total">    0.36    0.36</time>
   <energy>
    <i name="e_fr_energy">    -30.55251340 </i>
    <i name="e_wo_entrp">    -30.52142635 </i>
    <i name="e_0_energy">    -30.54215105 </i>
   </energy>
  </scstep>
  <scstep>
   <time name="dav">    0.26    0.26</time>
   <time name="total">    0.33    0.34</time>
   <energy>
    <i name="e_fr_energy">    -30.55236851 </i>
    <i name="e_wo_entrp">    -30.52170940 </i>
    <i name="e_0_energy">    -30.54214881 </i>
   </energy>
  </scstep>
  <scstep>
   <time name="dav">    0.19    0.19</time>
   <time name="total">    0.26    0.26</time>
   <energy>
    <i name="e_fr_energy">    -30.55162917 </i>
    <i name="e_wo_entrp">    -30.52150742 </i>
    <i name="e_0_energy">    -30.54158859 </i>
   </energy>
  </scstep>
  <scstep>
   <time name="dav">    0.18    0.18</time>
   <time name="total">    0.20    0.21</time>
   <energy>
    <i name="alphaZ">    276.47370612 </i>
    <i name="ewald">  50292.26638367 </i>
    <i name="hartreedc"> -61174.45656738 </i>
    <i name="XCdc">    356.90220453 </i>
    <i name="pawpsdc">  10479.67929316 </i>
    <i name="pawaedc"> -11340.59703256 </i>
    <i name="eentropy">     -0.03060269 </i>
    <i name="bandstr">    -48.45007793 </i>
    <i name="atom">  11127.66112160 </i>
    <i name="e_fr_energy">    -30.55157149 </i>
    <i name="e_wo_entrp">    -30.52096880 </i>
    <i name="e_0_energy">    -30.54137059 </i>
   </energy>
  </scstep>
  <dipole>
   <v name="dipole">      0.00000000       0.00000000      -0.00796015 </v>
   <i name="Tr[quadrupol]">    -79.83356299 </i>
   <i name="Echarged">      0.00000000 </i>
   <i name="Edipol_quadrupol">      0.00000000 </i>
   <i name="Eion">      0.00000000 </i>
  </dipole>
  <structure>
   <crystal>
    <varray name="basis" >
     <v>       2.56679773       0.00000000       0.00000000 </v>
     <v>       1.28339887       2.22291204       0.00000000 </v>
     <v>       0.00000000       0.00000000      29.67047077 </v>
    </varray>
    <i name="volume">    169.29275129 </i>
    <varray name="rec_basis" >
     <v>       0.38959050      -0.22493018       0.00000000 </v>
     <v>       0.00000000       0.44986035       0.00000000 </v>
     <v>       0.00000000       0.00000000       0.03370354 </v>
    </varray>
   </crystal>
   <varray name="positions" >
    <v>       0.00000000       0.00000000       0.00000000 </v>
    <v>       0.33333333       0.33333333       0.07063526 </v>
    <v>       0.66666667       0.66666667       0.14111258 </v>
    <v>      -0.00000000      -0.00000000       0.21225292 </v>
    <v>       0.33333333       0.33333333       0.28219578 </v>
    <v>       0.66666667       0.66666667       0.35342899 </v>
    <v>       0.00000000       0.00000000       0.42386248 </v>
    <v>       0.33333333       0.33333333       0.49150170 </v>
   </varray>
  </structure>
  <varray name="forces" >
   <v>       0.00000000       0.00000000       0.48159207 </v>
   <v>      -0.00000000       0.00000000      -0.14233806 </v>
   <v>      -0.00000000      -0.00000000       0.01341373 </v>
   <v>      -0.00000000       0.00000000      -0.02968319 </v>
   <v>       0.00000000       0.00000000       0.04297665 </v>
   <v>       0.00000000       0.00000000      -0.06064885 </v>
   <v>       0.00000000      -0.00000000      -0.24113691 </v>
   <v>      -0.00000000       0.00000000      -0.06417545 </v>
  </varray>
  <varray name="stress" >
   <v>     -54.73909995      -0.00000000      -0.00000000 </v>
   <v>      -0.00000000     -54.73909995       0.00000000 </v>
   <v>      -0.00000000       0.00000000     -49.49107282 </v>
  </varray>
  <energy>
   <i name="e_fr_energy">    -33.90789668 </i>
   <i name="e_wo_entrp">    -33.87729399 </i>
   <i name="e_0_energy">    -33.89769578 </i>
  </energy>
  <time name="totalsc">    1.77    1.83</time>
 </calculation>
 <calculation>
  <scstep>
   <time name="dav">    0.19    0.19</time>
   <time name="total">    0.26    0.26</time>
   <energy>
    <i name="alphaZ">    276.47370612 </i>
    <i name="ewald">  50833.67974080 </i>
    <i name="hartreedc"> -61715.27870949 </i>
    <i name="XCdc">    357.00235777 </i>
    <i name="pawpsdc">  10479.99397073 </i>
    <i name="pawaedc"> -11340.92776600 </i>
    <i name="eentropy">     -0.03031063 </i>
    <i name="bandstr">    -49.06201971 </i>
    <i name="atom">  11127.66112160 </i>
    <i name="e_fr_energy">    -30.48790880 </i>
    <i name="e_wo_entrp">    -30.45759817 </i>
    <i name="e_0_energy">    -30.47780526 </i>
   </energy>
  </scstep>
  <scstep>
   <time name="dav">    0.27    0.28</time>
   <time name="total">    0.35    0.35</time>
   <energy>
    <i name="e_fr_energy">    -30.56291361 </i>
    <i name="e_wo_entrp">    -30.53172067 </i>
    <i name="e_0_energy">    -30.55251596 </i>
   </energy>
  </scstep>
  <scstep>
   <time name="dav">    0.28    0.28</time>
   <time name="total">    0.35    0.35</time>
   <energy>
    <i name="e_fr_energy">    -30.55653180 </i>
    <i name="e_wo_entrp">    -30.52462853 </i>
    <i name="e_0_energy">    -30.54589738 </i>
   </energy>
  </scstep>
  <scstep>
   <time name="dav">    0.29    0.29</time>
   <time name="total">    0.36    0.37</time>
   <energy>
    <i name="e_fr_energy">    -30.54938549 </i>
    <i name="e_wo_entrp">    -30.52023495 </i>
    <i name="e_0_energy">    -30.53966864 </i>
   </energy>
  </scstep>
  <scstep>
   <time name="dav">    0.24    0.25</time>
   <time name="total">    0.32    0.32</time>
   <energy>
    <i name="e_fr_energy">    -30.54907897 </i>
    <i name="e_wo_entrp">    -30.51827216 </i>
    <i name="e_0_energy">    -30.53881003 </i>
   </energy>
  </scstep>
  <scstep>
   <time name="dav">    0.23    0.23</time>
   <time name="total">    0.31    0.31</time>
   <energy>
    <i name="e_fr_energy">    -30.54761915 </i>
    <i name="e_wo_entrp">    -30.51722115 </i>
    <i name="e_0_energy">    -30.53748648 </i>
   </energy>
  </scstep>
  <scstep>
   <time name="dav">    0.24    0.24</time>
   <time name="total">    0.31    0.32</time>
   <energy>
    <i name="e_fr_energy">    -30.54715615 </i>
    <i name="e_wo_entrp">    -30.51677798 </i>
    <i name="e_0_energy">    -30.53703009 </i>
   </energy>
  </scstep>
  <scstep>
   <time name="dav">    0.17    0.17</time>
   <time name="total">    0.20    0.20</time>
   <energy>
    <i name="alphaZ">    276.47370612 </i>
    <i name="ewald">  50833.67974080 </i>
    <i name="hartreedc"> -61714.82926402 </i>
    <i name="XCdc">    356.96729483 </i>
    <i name="pawpsdc">  10491.40907097 </i>
    <i name="pawaedc"> -11352.54708654 </i>
    <i name="eentropy">     -0.03009519 </i>
    <i name="bandstr">    -49.33161737 </i>
    <i name="atom">  11127.66112160 </i>
    <i name="e_fr_energy">    -30.54712880 </i>
    <i name="e_wo_entrp">    -30.51703361 </i>
    <i name="e_0_energy">    -30.53709707 </i>
   </energy>
  </scstep>
  <dipole>
   <v name="dipole">      0.00000000       0.00000000      -0.01028961 </v>
   <i name="Tr[quadrupol]">    -79.82839228 </i>
   <i name="Echarged">      0.00000000 </i>
   <i name="Edipol_quadrupol">      0.00000000 </i>
   <i name="Eion">      0.00000000 </i>
  </dipole>
  <structure>
   <crystal>
    <varray name="basis" >
     <v>       2.56679773       0.00000000       0.00000000 </v>
     <v>       1.28339887       2.22291204       0.00000000 </v>
     <v>       0.00000000       0.00000000      29.67047077 </v>
    </varray>
    <i name="volume">    169.29275129 </i>
    <varray name="rec_basis" >
     <v>       0.38959050      -0.22493018       0.00000000 </v>
     <v>       0.00000000       0.44986035       0.00000000 </v>
     <v>       0.00000000       0.00000000       0.03370354 </v>
    </varray>
   </crystal>
   <varray name="positions" >
    <v>       0.00000000       0.00000000       0.00000000 </v>
    <v>       0.33333333       0.33333333       0.07063526 </v>
    <v>       0.66666667       0.66666667       0.14128331 </v>
    <v>      -0.00000000      -0.00000000       0.21201134 </v>
    <v>       0.33333333       0.33333333       0.28241850 </v>
    <v>       0.66666667       0.66666667       0.35354539 </v>
    <v>       0.00000000       0.00000000       0.42225041 </v>
    <v>       0.33333333       0.33333333       0.48951779 </v>
   </varray>
  </structure>
  <varray name="forces" >
   <v>      -0.00000000      -0.00000000       0.48720529 </v>
   <v>       0.00000000       0.00000000      -0.12863777 </v>
   <v>       0.00000000       0.00000000      -0.04259061 </v>
   <v>      -0.00000000      -0.00000000       0.06304527 </v>
   <v>      -0.00000000      -0.00000000      -0.02574222 </v>
   <v>       0.00000000       0.00000000      -0.25458734 </v>
   <v>      -0.00000000      -0.00000000      -0.07971716 </v>
   <v>      -0.00000000      -0.00000000      -0.01897545 </v>
  </varray>
  <varray name="stress" >
   <v>     -53.68268643      -0.00000000      -0.00000000 </v>
   <v>      -0.00000000     -53.68268642       0.00000000 </v>
   <v>      -0.00000000       0.00000000     -43.83378395 </v>
  </varray>
  <energy>
   <i name="e_fr_energy">    -33.91748332 </i>
   <i name="e_wo_entrp">    -33.88738813 </i>
   <i name="e_0_energy">    -33.90745159 </i>
  </energy>
  <time name="totalsc">    2.80    2.88</time>
 </calculation>
 <calculation>
  <scstep>
   <time name="dav">    0.19    0.19</time>
   <time name="total">    0.26    0.27</time>
   <energy>
    <i name="alphaZ">    276.47370612 </i>
    <i name="ewald">  50974.11850663 </i>
    <i name="hartreedc"> -61855.16416773 </i>
    <i name="XCdc">    356.99209849 </i>
    <i name="pawpsdc">  10491.37048508 </i>
    <i name="pawaedc"> -11352.51782639 </i>
    <i name="eentropy">     -0.03008661 </i>
    <i name="bandstr">    -49.44387506 </i>
    <i name="atom">  11127.66112160 </i>
    <i name="e_fr_energy">    -30.54003785 </i>
    <i name="e_wo_entrp">    -30.50995124 </i>
    <i name="e_0_energy">    -30.53000898 </i>
   </energy>
  </scstep>
  <scstep>
   <time name="dav">    0.27    0.27</time>
   <time name="total">    0.34    0.34</time>
   <energy>
    <i name="e_fr_energy">    -30.54421294 </i>
    <i name="e_wo_entrp">    -30.51390598 </i>
    <i name="e_0_energy">    -30.53411062 </i>
   </energy>
  </scstep>
  <scstep>
   <time name="dav">    0.23    0.23</time>
   <time name="total">    0.30    0.31</time>
   <energy>
    <i name="e_fr_energy">    -30.54425189 </i>
    <i name="e_wo_entrp">    -30.51381102 </i>
    <i name="e_0_energy">    -30.53410493 </i>
   </energy>
  </scstep>
  <scstep>
   <time name="dav">    0.17    0.17</time>
   <time name="total">    0.24    0.24</time>
   <energy>
    <i name="e_fr_energy">    -30.54371593 </i>
    <i name="e_wo_entrp">    -30.51384161 </i>
    <i name="e_0_energy">    -30.53375783 </i>
   </energy>
  </scstep>
  <scstep>
   <time name="dav">    0.16    0.16</time>
   <time name="total">    0.18    0.18</time>
   <energy>
    <i name="alphaZ">    276.47370612 </i>
    <i name="ewald">  50974.11850663 </i>
    <i name="hartreedc"> -61855.34483778 </i>
    <i name="XCdc">    356.98523334 </i>
    <i name="pawpsdc">  10492.98623223 </i>
    <i name="pawaedc"> -11354.14612654 </i>
    <i name="eentropy">     -0.03028658 </i>
    <i name="bandstr">    -49.24726228 </i>
    <i name="atom">  11127.66112160 </i>
    <i name="e_fr_energy">    -30.54371326 </i>
    <i name="e_wo_entrp">    -30.51342668 </i>
    <i name="e_0_energy">    -30.53361773 </i>
   </energy>
  </scstep>
  <dipole>
   <v name="dipole">      0.00000000       0.00000000      -0.01079995 </v>
   <i name="Tr[quadrupol]">    -79.83480939 </i>
   <i name="Echarged">      0.00000000 </i>
   <i name="Edipol_quadrupol">      0.00000000 </i>
   <i name="Eion">      0.00000000 </i>
  </dipole>
  <structure>
   <crystal>
    <varray name="basis" >
     <v>       2.56679773       0.00000000       0.00000000 </v>
     <v>       1.28339887       2.22291204       0.00000000 </v>
     <v>       0.00000000       0.00000000      29.67047077 </v>
    </varray>
    <i name="volume">    169.29275129 </i>
    <varray name="rec_basis" >
     <v>       0.38959050      -0.22493018       0.00000000 </v>
     <v>       0.00000000       0.44986035       0.00000000 </v>
     <v>       0.00000000       0.00000000       0.03370354 </v>
    </varray>
   </crystal>
   <varray name="positions" >
    <v>       0.00000000       0.00000000       0.00000000 </v>
    <v>       0.33333333       0.33333333       0.07063526 </v>
    <v>       0.66666667       0.66666667       0.14132736 </v>
    <v>      -0.00000000      -0.00000000       0.21194902 </v>
    <v>       0.33333333       0.33333333       0.28247597 </v>
    <v>       0.66666667       0.66666667       0.35357541 </v>
    <v>       0.00000000       0.00000000       0.42183451 </v>
    <v>       0.33333333       0.33333333       0.48900596 </v>
   </varray>
  </structure>
  <varray name="forces" >
   <v>       0.00000000      -0.00000000       0.48178810 </v>
   <v>      -0.00000000      -0.00000000      -0.12123598 </v>
   <v>       0.00000000       0.00000000      -0.05949871 </v>
   <v>       0.00000000      -0.00000000       0.09364910 </v>
   <v>      -0.00000000      -0.00000000      -0.05374270 </v>
   <v>       0.00000000       0.00000000      -0.33202617 </v>
   <v>       0.00000000       0.00000000      -0.03291479 </v>
   <v>       0.00000000       0.00000000       0.02398115 </v>
  </varray>
  <varray name="stress" >
   <v>     -53.45886256      -0.00000000       0.00000000 </v>
   <v>      -0.00000000     -53.45886256       0.00000000 </v>
   <v>      -0.00000000       0.00000000     -43.13966353 </v>
  </varray>
  <energy>
   <i name="e_fr_energy">    -33.91776260 </i>
   <i name="e_wo_entrp">    -33.88747603 </i>
   <i name="e_0_energy">    -33.90766708 </i>
  </energy>
  <time name="totalsc">    1.67    1.73</time>
 </calculation>
 <calculation>
  <scstep>
   <time name="dav">    0.19    0.19</time>
   <time name="total">    0.26    0.27</time>
   <energy>
    <i name="alphaZ">    276.47370612 </i>
    <i name="ewald">  51194.89718616 </i>
    <i name="hartreedc"> -62075.73513692 </i>
    <i name="XCdc">    357.01270770 </i>
    <i name="pawpsdc">  10493.50648494 </i>
    <i name="pawaedc"> -11354.68585465 </i>
    <i name="eentropy">     -0.03019451 </i>
    <i name="bandstr">    -49.63642733 </i>
    <i name="atom">  11127.66112160 </i>
    <i name="e_fr_energy">    -30.53640687 </i>
    <i name="e_wo_entrp">    -30.50621237 </i>
    <i name="e_0_energy">    -30.52634204 </i>
   </energy>
  </scstep>
  <scstep>
   <time name="dav">    0.28    0.28</time>
   <time name="total">    0.36    0.36</time>
   <energy>
    <i name="e_fr_energy">    -30.54648404 </i>
    <i name="e_wo_entrp">    -30.51632349 </i>
    <i name="e_0_energy">    -30.53643052 </i>
   </energy>
  </scstep>
  <scstep>
   <time name="dav">    0.28    0.28</time>
   <time name="total">    0.35    0.36</time>
   <energy>
    <i name="e_fr_energy">    -30.54536707 </i>
    <i name="e_wo_entrp">    -30.51483013 </i>
    <i name="e_0_energy">    -30.53518809 </i>
   </energy>
  </scstep>
  <scstep>
   <time name="dav">    0.18    0.19</time>
   <time name="total">    0.26    0.26</time>
   <energy>
    <i name="e_fr_energy">    -30.54459268 </i>
    <i name="e_wo_entrp">    -30.51470482 </i>
    <i name="e_0_energy">    -30.53463006 </i>
   </energy>
  </scstep>
  <scstep>
   <time name="dav">    0.17    0.18</time>
   <time name="total">    0.20    0.20</time>
   <energy>
    <i name="alphaZ">    276.47370612 </i>
    <i name="ewald">  51194.89718616 </i>
    <i name="hartreedc"> -62076.22109389 </i>
    <i name="XCdc">    357.00430036 </i>
    <i name="pawpsdc">  10495.68820622 </i>
    <i name="pawaedc"> -11356.88173434 </i>
    <i name="eentropy">     -0.03059516 </i>
    <i name="bandstr">    -49.13571824 </i>
    <i name="atom">  11127.66112160 </i>
    <i name="e_fr_energy">    -30.54462117 </i>
    <i name="e_wo_entrp">    -30.51402601 </i>
    <i name="e_0_energy">    -30.53442278 </i>
   </energy>
  </scstep>
  <dipole>
   <v name="dipole">      0.00000000       0.00000000      -0.01128027 </v>
   <i name="Tr[quadrupol]">    -79.84113950 </i>
   <i name="Echarged">      0.00000000 </i>
   <i name="Edipol_quadrupol">      0.00000000 </i>
   <i name="Eion">      0.00000000 </i>
  </dipole>
  <structure>
   <crystal>
    <varray name="basis" >
     <v>       2.56679773       0.00000000       0.00000000 </v>
     <v>       1.28339887       2.22291204       0.00000000 </v>
     <v>       0.00000000       0.00000000      29.67047077 </v>
    </varray>
    <i name="volume">    169.29275129 </i>
    <varray name="rec_basis" >
     <v>       0.38959050      -0.22493018       0.00000000 </v>
     <v>       0.00000000       0.44986035       0.00000000 </v>
     <v>       0.00000000       0.00000000       0.03370354 </v>
    </varray>
   </crystal>
   <varray name="positions" >
    <v>       0.00000000       0.00000000       0.00000000 </v>
    <v>       0.33333333       0.33333333       0.07063526 </v>
    <v>       0.66666667       0.66666667       0.14127784 </v>
    <v>      -0.00000000      -0.00000000       0.21203589 </v>
    <v>       0.33333333       0.33333333       0.28245373 </v>
    <v>       0.66666667       0.66666667       0.35302438 </v>
    <v>       0.00000000       0.00000000       0.42124671 </v>
    <v>       0.33333333       0.33333333       0.48839702 </v>
   </varray>
  </structure>
  <varray name="forces" >
   <v>      -0.00000000      -0.00000000       0.48999787 </v>
   <v>       0.00000000      -0.00000000      -0.10551886 </v>
   <v>      -0.00000000      -0.00000000      -0.01908241 </v>
   <v>      -0.00000000      -0.00000000       0.06070322 </v>
   <v>      -0.00000000      -0.00000000      -0.09308122 </v>
   <v>       0.00000000       0.00000000      -0.28197972 </v>
   <v>       0.00000000      -0.00000000      -0.06125630 </v>
   <v>      -0.00000000      -0.00000000       0.01021742 </v>
  </varray>
  <varray name="stress" >
   <v>     -53.21123308      -0.00000000      -0.00000000 </v>
   <v>      -0.00000000     -53.21123308       0.00000000 </v>
   <v>       0.00000000       0.00000000     -42.37122258 </v>
  </varray>
  <energy>
   <i name="e_fr_energy">    -33.92359809 </i>
   <i name="e_wo_entrp">    -33.89300292 </i>
   <i name="e_0_energy">    -33.91339970 </i>
  </energy>
  <time name="totalsc">    1.78    1.89</time>
 </calculation>
 <calculation>
  <scstep>
   <time name="dav">    0.19    0.19</time>
   <time name="total">    0.27    0.27</time>
   <energy>
    <i name="alphaZ">    276.47370612 </i>
    <i name="ewald">  51860.74166049 </i>
    <i name="hartreedc"> -62741.42449228 </i>
    <i name="XCdc">    357.10882308 </i>
    <i name="pawpsdc">  10496.72553297 </i>
    <i name="pawaedc"> -11358.03087482 </i>
    <i name="eentropy">     -0.03057794 </i>
    <i name="bandstr">    -49.68739990 </i>
    <i name="atom">  11127.66112160 </i>
    <i name="e_fr_energy">    -30.46250068 </i>
    <i name="e_wo_entrp">    -30.43192273 </i>
    <i name="e_0_energy">    -30.45230803 </i>
   </energy>
  </scstep>
  <scstep>
   <time name="dav">    0.27    0.27</time>
   <time name="total">    0.35    0.35</time>
   <energy>
    <i name="e_fr_energy">    -30.56314506 </i>
    <i name="e_wo_entrp">    -30.53350426 </i>
    <i name="e_0_energy">    -30.55326479 </i>
   </energy>
  </scstep>
  <scstep>
   <time name="dav">    0.29    0.29</time>
   <time name="total">    0.36    0.37</time>
   <energy>
    <i name="e_fr_energy">    -30.55003118 </i>
    <i name="e_wo_entrp">    -30.51803438 </i>
    <i name="e_0_energy">    -30.53936558 </i>
   </energy>
  </scstep>
  <scstep>
   <time name="dav">    0.30    0.30</time>
   <time name="total">    0.37    0.38</time>
   <energy>
    <i name="e_fr_energy">    -30.54188202 </i>
    <i name="e_wo_entrp">    -30.51308747 </i>
    <i name="e_0_energy">    -30.53228384 </i>
   </energy>
  </scstep>
  <scstep>
   <time name="dav">    0.25    0.25</time>
   <time name="total">    0.32    0.32</time>
   <energy>
    <i name="e_fr_energy">    -30.54167769 </i>
    <i name="e_wo_entrp">    -30.51061255 </i>
    <i name="e_0_energy">    -30.53132264 </i>
   </energy>
  </scstep>
  <scstep>
   <time name="dav">    0.24    0.24</time>
   <time name="total">    0.32    0.32</time>
   <energy>
    <i name="e_fr_energy">    -30.53929352 </i>
    <i name="e_wo_entrp">    -30.50863309 </i>
    <i name="e_0_energy">    -30.52907338 </i>
   </energy>
  </scstep>
  <scstep>
   <time name="dav">    0.26    0.27</time>
   <time name="total">    0.34    0.34</time>
   <energy>
    <i name="e_fr_energy">    -30.53888799 </i>
    <i name="e_wo_entrp">    -30.50850569 </i>
    <i name="e_0_energy">    -30.52876056 </i>
   </energy>
  </scstep>
  <scstep>
   <time name="dav">    0.18    0.18</time>
   <time name="total">    0.20    0.21</time>
   <energy>
    <i name="alphaZ">    276.47370612 </i>
    <i name="ewald">  51860.74166049 </i>
    <i name="hartreedc"> -62740.11936077 </i>
    <i name="XCdc">    357.05957621 </i>
    <i name="pawpsdc">  10507.15631608 </i>
    <i name="pawaedc"> -11368.55100431 </i>
    <i name="eentropy">     -0.02986859 </i>
    <i name="bandstr">    -50.93095784 </i>
    <i name="atom">  11127.66112160 </i>
    <i name="e_fr_energy">    -30.53881101 </i>
    <i name="e_wo_entrp">    -30.50894242 </i>
    <i name="e_0_energy">    -30.52885481 </i>
   </energy>
  </scstep>
  <dipole>
   <v name="dipole">      0.00000000       0.00000000      -0.01218978 </v>
   <i name="Tr[quadrupol]">    -79.81293623 </i>
   <i name="Echarged">      0.00000000 </i>
   <i name="Edipol_quadrupol">      0.00000000 </i>
   <i name="Eion">      0.00000000 </i>
  </dipole>
  <structure>
   <crystal>
    <varray name="basis" >
     <v>       2.56679773       0.00000000       0.00000000 </v>
     <v>       1.28339887       2.22291204       0.00000000 </v>
     <v>       0.00000000       0.00000000      29.67047077 </v>
    </varray>
    <i name="volume">    169.29275129 </i>
    <varray name="rec_basis" >
     <v>       0.38959050      -0.22493018       0.00000000 </v>
     <v>       0.00000000       0.44986035       0.00000000 </v>
     <v>       0.00000000       0.00000000       0.03370354 </v>
    </varray>
   </crystal>
   <varray name="positions" >
    <v>       0.00000000       0.00000000       0.00000000 </v>
    <v>       0.33333333       0.33333333       0.07063526 </v>
    <v>       0.66666667       0.66666667       0.14112926 </v>
    <v>      -0.00000000      -0.00000000       0.21229650 </v>
    <v>       0.33333333       0.33333333       0.28238702 </v>
    <v>       0.66666667       0.66666667       0.35137129 </v>
    <v>       0.00000000       0.00000000       0.41948332 </v>
    <v>       0.33333333       0.33333333       0.48657023 </v>
   </varray>
  </structure>
  <varray name="forces" >
   <v>       0.00000000       0.00000000       0.47925755 </v>
   <v>      -0.00000000      -0.00000000      -0.14779586 </v>
   <v>       0.00000000       0.00000000       0.01123136 </v>
   <v>       0.00000000       0.00000000      -0.03424780 </v>
   <v>      -0.00000000      -0.00000000      -0.24804305 </v>
   <v>       0.00000000      -0.00000000      -0.08239792 </v>
   <v>       0.00000000      -0.00000000      -0.00280615 </v>
   <v>       0.00000000       0.00000000       0.02480187 </v>
  </varray>
  <varray name="stress" >
   <v>     -51.41116621      -0.00000000       0.00000000 </v>
   <v>      -0.00000000     -51.41116621       0.00000000 </v>
   <v>      -0.00000000       0.00000000     -35.03077644 </v>
  </varray>
  <energy>
   <i name="e_fr_energy">    -33.93287398 </i>
   <i name="e_wo_entrp">    -33.90300539 </i>
   <i name="e_0_energy">    -33.92291778 </i>
  </energy>
  <time name="totalsc">    2.88    2.94</time>
 </calculation>
 <calculation>
  <scstep>
   <time name="dav">    0.19    0.19</time>
   <time name="total">    0.26    0.27</time>
   <energy>
    <i name="alphaZ">    276.47370612 </i>
    <i name="ewald">  52003.06855999 </i>
    <i name="hartreedc"> -62882.56525380 </i>
    <i name="XCdc">    357.08013036 </i>
    <i name="pawpsdc">  10507.15817842 </i>
    <i name="pawaedc"> -11368.56659696 </i>
    <i name="eentropy">     -0.03008767 </i>
    <i name="bandstr">    -50.81252599 </i>
    <i name="atom">  11127.66112160 </i>
    <i name="e_fr_energy">    -30.53276794 </i>
    <i name="e_wo_entrp">    -30.50268027 </i>
    <i name="e_0_energy">    -30.52273871 </i>
   </energy>
  </scstep>
  <scstep>
   <time name="dav">    0.26    0.26</time>
   <time name="total">    0.33    0.34</time>
   <energy>
    <i name="e_fr_energy">    -30.53668453 </i>
    <i name="e_wo_entrp">    -30.50671025 </i>
    <i name="e_0_energy">    -30.52669310 </i>
   </energy>
  </scstep>
  <scstep>
   <time name="dav">    0.22    0.23</time>
   <time name="total">    0.30    0.30</time>
   <energy>
    <i name="e_fr_energy">    -30.53653983 </i>
    <i name="e_wo_entrp">    -30.50623009 </i>
    <i name="e_0_energy">    -30.52643658 </i>
   </energy>
  </scstep>
  <scstep>
   <time name="dav">    0.16    0.16</time>
   <time name="total">    0.23    0.24</time>
   <energy>
    <i name="e_fr_energy">    -30.53616071 </i>
    <i name="e_wo_entrp">    -30.50630039 </i>
    <i name="e_0_energy">    -30.52620727 </i>
   </energy>
  </scstep>
  <scstep>
   <time name="dav">    0.15    0.15</time>
   <time name="total">    0.17    0.17</time>
   <energy>
    <i name="alphaZ">    276.47370612 </i>
    <i name="ewald">  52003.06855999 </i>
    <i name="hartreedc"> -62882.72711637 </i>
    <i name="XCdc">    357.07512869 </i>
    <i name="pawpsdc">  10508.35259910 </i>
    <i name="pawaedc"> -11369.77116471 </i>
    <i name="eentropy">     -0.03028568 </i>
    <i name="bandstr">    -50.63872429 </i>
    <i name="atom">  11127.66112160 </i>
    <i name="e_fr_energy">    -30.53617555 </i>
    <i name="e_wo_entrp">    -30.50588987 </i>
    <i name="e_0_energy">    -30.52608032 </i>
   </energy>
  </scstep>
  <dipole>
   <v name="dipole">      0.00000000       0.00000000      -0.01245641 </v>
   <i name="Tr[quadrupol]">    -79.82887346 </i>
   <i name="Echarged">      0.00000000 </i>
   <i name="Edipol_quadrupol">      0.00000000 </i>
   <i name="Eion">      0.00000000 </i>
  </dipole>
  <structure>
   <crystal>
    <varray name="basis" >
     <v>       2.56679773       0.00000000       0.00000000 </v>
     <v>       1.28339887       2.22291204       0.00000000 </v>
     <v>       0.00000000       0.00000000      29.67047077 </v>
    </varray>
    <i name="volume">    169.29275129 </i>
    <varray name="rec_basis" >
     <v>       0.38959050      -0.22493018       0.00000000 </v>
     <v>       0.00000000       0.44986035       0.00000000 </v>
     <v>       0.00000000       0.00000000       0.03370354 </v>
    </varray>
   </crystal>
   <varray name="positions" >
    <v>       0.00000000       0.00000000       0.00000000 </v>
    <v>       0.33333333       0.33333333       0.07063526 </v>
    <v>       0.66666667       0.66666667       0.14109765 </v>
    <v>      -0.00000000      -0.00000000       0.21235194 </v>
    <v>       0.33333333       0.33333333       0.28237283 </v>
    <v>       0.66666667       0.66666667       0.35101962 </v>
    <v>       0.00000000       0.00000000       0.41910818 </v>
    <v>       0.33333333       0.33333333       0.48618160 </v>
   </varray>
  </structure>
  <varray name="forces" >
   <v>      -0.00000000      -0.00000000       0.47839558 </v>
   <v>      -0.00000000      -0.00000000      -0.13987484 </v>
   <v>      -0.00000000      -0.00000000       0.03427792 </v>
   <v>       0.00000000       0.00000000      -0.05747348 </v>
   <v>       0.00000000      -0.00000000      -0.29520516 </v>
   <v>       0.00000000       0.00000000      -0.04867696 </v>
   <v>       0.00000000      -0.00000000      -0.01189595 </v>
   <v>       0.00000000       0.00000000       0.04045289 </v>
  </varray>
  <varray name="stress" >
   <v>     -52.58582829      -0.00000000      -0.00000000 </v>
   <v>      -0.00000000     -52.58582829       0.00000000 </v>
   <v>       0.00000000       0.00000000     -36.19207459 </v>
  </varray>
  <energy>
   <i name="e_fr_energy">    -33.93350641 </i>
   <i name="e_wo_entrp">    -33.90322073 </i>
   <i name="e_0_energy">    -33.92341118 </i>
  </energy>
  <time name="totalsc">    1.64    1.73</time>
 </calculation>
 <calculation>
  <scstep>
   <time name="dav">    0.19    0.19</time>
   <time name="total">    0.26    0.27</time>
   <energy>
    <i name="alphaZ">    276.47370612 </i>
    <i name="ewald">  52233.17161336 </i>
    <i name="hartreedc"> -63112.40540069 </i>
    <i name="XCdc">    357.09747745 </i>
    <i name="pawpsdc">  10508.73011495 </i>
    <i name="pawaedc"> -11370.17457780 </i>
    <i name="eentropy">     -0.03009933 </i>
    <i name="bandstr">    -51.04804333 </i>
    <i name="atom">  11127.66112160 </i>
    <i name="e_fr_energy">    -30.52408768 </i>
    <i name="e_wo_entrp">    -30.49398835 </i>
    <i name="e_0_energy">    -30.51405457 </i>
   </energy>
  </scstep>
  <scstep>
   <time name="dav">    0.25    0.25</time>
   <time name="total">    0.32    0.33</time>
   <energy>
    <i name="e_fr_energy">    -30.54044188 </i>
    <i name="e_wo_entrp">    -30.51062049 </i>
    <i name="e_0_energy">    -30.53050141 </i>
   </energy>
  </scstep>
  <scstep>
   <time name="dav">    0.23    0.23</time>
   <time name="total">    0.30    0.30</time>
   <energy>
    <i name="e_fr_energy">    -30.54040808 </i>
    <i name="e_wo_entrp">    -30.50989318 </i>
    <i name="e_0_energy">    -30.53023645 </i>
   </energy>
  </scstep>
  <scstep>
   <time name="dav">    0.19    0.19</time>
   <time name="total">    0.26    0.26</time>
   <energy>
    <i name="e_fr_energy">    -30.53960927 </i>
    <i name="e_wo_entrp">    -30.50973742 </i>
    <i name="e_0_energy">    -30.52965199 </i>
   </energy>
  </scstep>
  <scstep>
   <time name="dav">    0.17    0.17</time>
   <time name="total">    0.24    0.24</time>
   <energy>
    <i name="e_fr_energy">    -30.53924808 </i>
    <i name="e_wo_entrp">    -30.50920345 </i>
    <i name="e_0_energy">    -30.52923320 </i>
   </energy>
  </scstep>
  <scstep>
   <time name="dav">    0.26    0.26</time>
   <time name="total">    0.33    0.33</time>
   <energy>
    <i name="e_fr_energy">    -30.53897027 </i>
    <i name="e_wo_entrp">    -30.50905570 </i>
    <i name="e_0_energy">    -30.52899875 </i>
   </energy>
  </scstep>
  <scstep>
   <time name="dav">    0.14    0.14</time>
   <time name="total">    0.17    0.17</time>
   <energy>
    <i name="alphaZ">    276.47370612 </i>
    <i name="ewald">  52233.17161336 </i>
    <i name="hartreedc"> -63112.22955450 </i>
    <i name="XCdc">    357.08805675 </i>
    <i name="pawpsdc">  10511.08876106 </i>
    <i name="pawaedc"> -11372.57404655 </i>
    <i name="eentropy">     -0.03004790 </i>
    <i name="bandstr">    -51.18855680 </i>
    <i name="atom">  11127.66112160 </i>
    <i name="e_fr_energy">    -30.53894687 </i>
    <i name="e_wo_entrp">    -30.50889896 </i>
    <i name="e_0_energy">    -30.52893090 </i>
   </energy>
  </scstep>
  <dipole>
   <v name="dipole">      0.00000000       0.00000000      -0.01125556 </v>
   <i name="Tr[quadrupol]">    -79.81864472 </i>
   <i name="Echarged">      0.00000000 </i>
   <i name="Edipol_quadrupol">      0.00000000 </i>
   <i name="Eion">      0.00000000 </i>
  </dipole>
  <structure>
   <crystal>
    <varray name="basis" >
     <v>       2.56679773       0.00000000       0.00000000 </v>
     <v>       1.28339887       2.22291204       0.00000000 </v>
     <v>       0.00000000       0.00000000      29.67047077 </v>
    </varray>
    <i name="volume">    169.29275129 </i>
    <varray name="rec_basis" >
     <v>       0.38959050      -0.22493018       0.00000000 </v>
     <v>       0.00000000       0.44986035       0.00000000 </v>
     <v>       0.00000000       0.00000000       0.03370354 </v>
    </varray>
   </crystal>
   <varray name="positions" >
    <v>       0.00000000       0.00000000       0.00000000 </v>
    <v>       0.33333333       0.33333333       0.07063526 </v>
    <v>       0.66666667       0.66666667       0.14115576 </v>
    <v>      -0.00000000      -0.00000000       0.21225815 </v>
    <v>       0.33333333       0.33333333       0.28144660 </v>
    <v>       0.66666667       0.66666667       0.35034752 </v>
    <v>       0.00000000       0.00000000       0.41851398 </v>
    <v>       0.33333333       0.33333333       0.48572785 </v>
   </varray>
  </structure>
  <varray name="forces" >
   <v>      -0.00000000      -0.00000000       0.48793987 </v>
   <v>       0.00000000      -0.00000000      -0.13215548 </v>
   <v>      -0.00000000      -0.00000000       0.00489752 </v>
   <v>       0.00000000      -0.00000000      -0.13977965 </v>
   <v>      -0.00000000      -0.00000000      -0.14603606 </v>
   <v>       0.00000000       0.00000000      -0.06490463 </v>
   <v>      -0.00000000       0.00000000      -0.01452613 </v>
   <v>      -0.00000000      -0.00000000       0.00456457 </v>
  </varray>
  <varray name="stress" >
   <v>     -52.74829439      -0.00000000      -0.00000000 </v>
   <v>      -0.00000000     -52.74829439       0.00000000 </v>
   <v>      -0.00000000       0.00000000     -34.94014282 </v>
  </varray>
  <energy>
[...]
       <r>     8.0212     1.5393    50.4985 </r>
       <r>     8.0958     0.7774    50.5564 </r>
       <r>     8.1704     0.0938    50.5634 </r>
       <r>     8.2449    -0.2279    50.5464 </r>
       <r>     8.3195    -0.1733    50.5335 </r>
       <r>     8.3941     0.3897    50.5626 </r>
       <r>     8.4686     1.5306    50.6767 </r>
       <r>     8.5432     2.7314    50.8804 </r>
       <r>     8.6177     3.1196    51.1130 </r>
       <r>     8.6923     2.4518    51.2958 </r>
       <r>     8.7669     1.4597    51.4046 </r>
       <r>     8.8414     1.1223    51.4883 </r>
       <r>     8.9160     1.8076    51.6231 </r>
       <r>     8.9905     2.9463    51.8427 </r>
       <r>     9.0651     3.4414    52.0993 </r>
       <r>     9.1397     2.7467    52.3041 </r>
       <r>     9.2142     1.5832    52.4222 </r>
       <r>     9.2888     1.2172    52.5129 </r>
       <r>     9.3633     1.9767    52.6603 </r>
       <r>     9.4379     2.8225    52.8708 </r>
       <r>     9.5125     2.6418    53.0677 </r>
       <r>     9.5870     1.7120    53.1954 </r>
       <r>     9.6616     1.3059    53.2928 </r>
       <r>     9.7361     1.9123    53.4353 </r>
       <r>     9.8107     2.5835    53.6280 </r>
       <r>     9.8853     2.2715    53.7973 </r>
       <r>     9.9598     1.1366    53.8821 </r>
       <r>    10.0344     0.1191    53.8910 </r>
       <r>    10.1089    -0.1348    53.8809 </r>
       <r>    10.1835     0.4828    53.9169 </r>
       <r>    10.2581     1.6695    54.0414 </r>
       <r>    10.3326     2.7818    54.2488 </r>
       <r>    10.4072     3.3468    54.4983 </r>
       <r>    10.4817     3.4264    54.7538 </r>
       <r>    10.5563     3.0835    54.9837 </r>
       <r>    10.6309     2.1571    55.1445 </r>
       <r>    10.7054     0.9215    55.2133 </r>
       <r>    10.7800     0.1894    55.2274 </r>
       <r>    10.8545     0.5351    55.2673 </r>
       <r>    10.9291     1.6867    55.3930 </r>
       <r>    11.0037     2.6204    55.5884 </r>
       <r>    11.0782     2.4745    55.7729 </r>
       <r>    11.1528     1.4922    55.8842 </r>
       <r>    11.2273     0.6240    55.9307 </r>
       <r>    11.3019     0.3278    55.9551 </r>
       <r>    11.3765     0.3148    55.9786 </r>
       <r>    11.4510     0.2407    55.9966 </r>
       <r>    11.5256     0.0952    56.0037 </r>
       <r>    11.6002    -0.0025    56.0035 </r>
       <r>    11.6747    -0.0249    56.0016 </r>
       <r>    11.7493    -0.0151    56.0005 </r>
       <r>    11.8238    -0.0052    56.0001 </r>
       <r>    11.8984    -0.0012    56.0000 </r>
       <r>    11.9730    -0.0002    56.0000 </r>
       <r>    12.0475    -0.0000    56.0000 </r>
       <r>    12.1221    -0.0000    56.0000 </r>
       <r>    12.1966    -0.0000    56.0000 </r>
       <r>    12.2712    -0.0000    56.0000 </r>
       <r>    12.3458    -0.0000    56.0000 </r>
       <r>    12.4203    -0.0000    56.0000 </r>
       <r>    12.4949    -0.0000    56.0000 </r>
       <r>    12.5694    -0.0000    56.0000 </r>
       <r>    12.6440     0.0000    56.0000 </r>
       <r>    12.7186     0.0000    56.0000 </r>
       <r>    12.7931     0.0000    56.0000 </r>
       <r>    12.8677     0.0000    56.0000 </r>
       <r>    12.9422     0.0000    56.0000 </r>
       <r>    13.0168     0.0000    56.0000 </r>
       <r>    13.0914     0.0000    56.0000 </r>
       <r>    13.1659     0.0000    56.0000 </r>
       <r>    13.2405     0.0000    56.0000 </r>
       <r>    13.3150     0.0000    56.0000 </r>
      </set>
      <set comment="spin 2">
       <r>    -9.0531     0.0000     0.0000 </r>
       <r>    -8.9785     0.0000     0.0000 </r>
       <r>    -8.9040     0.0000     0.0000 </r>
       <r>    -8.8294     0.0000     0.0000 </r>
       <r>    -8.7549     0.0000     0.0000 </r>
       <r>    -8.6803    -0.0000    -0.0000 </r>
       <r>    -8.6057    -0.0000    -0.0000 </r>
       <r>    -8.5312    -0.0000    -0.0000 </r>
       <r>    -8.4566    -0.0000    -0.0000 </r>
       <r>    -8.3821    -0.0000    -0.0000 </r>
       <r>    -8.3075    -0.0000    -0.0000 </r>
       <r>    -8.2329    -0.0000    -0.0000 </r>
       <r>    -8.1584    -0.0000    -0.0000 </r>
       <r>    -8.0838    -0.0000    -0.0000 </r>
       <r>    -8.0093    -0.0000    -0.0000 </r>
       <r>    -7.9347    -0.0000    -0.0000 </r>
       <r>    -7.8601    -0.0000    -0.0000 </r>
       <r>    -7.7856    -0.0000    -0.0000 </r>
       <r>    -7.7110    -0.0000    -0.0000 </r>
       <r>    -7.6365    -0.0002    -0.0000 </r>
       <r>    -7.5619    -0.0012    -0.0001 </r>
       <r>    -7.4873    -0.0052    -0.0005 </r>
       <r>    -7.4128    -0.0150    -0.0016 </r>
       <r>    -7.3382    -0.0243    -0.0034 </r>
       <r>    -7.2636     0.0015    -0.0033 </r>
       <r>    -7.1891     0.1147     0.0052 </r>
       <r>    -7.1145     0.3056     0.0280 </r>
       <r>    -7.0400     0.4453     0.0612 </r>
       <r>    -6.9654     0.4009     0.0911 </r>
       <r>    -6.8908     0.2118     0.1069 </r>
       <r>    -6.8163     0.0640     0.1117 </r>
       <r>    -6.7417     0.0981     0.1190 </r>
       <r>    -6.6672     0.2823     0.1400 </r>
       <r>    -6.5926     0.4389     0.1728 </r>
       <r>    -6.5180     0.4138     0.2036 </r>
       <r>    -6.4435     0.2369     0.2213 </r>
       <r>    -6.3689     0.0612     0.2258 </r>
       <r>    -6.2944    -0.0252     0.2240 </r>
       <r>    -6.2198    -0.0447     0.2206 </r>
       <r>    -6.1452    -0.0274     0.2186 </r>
       <r>    -6.0707     0.0544     0.2227 </r>
       <r>    -5.9961     0.2269     0.2396 </r>
       <r>    -5.9216     0.4101     0.2702 </r>
       <r>    -5.8470     0.4530     0.3039 </r>
       <r>    -5.7724     0.3150     0.3274 </r>
       <r>    -5.6979     0.1219     0.3365 </r>
       <r>    -5.6233     0.0041     0.3368 </r>
       <r>    -5.5488    -0.0253     0.3349 </r>
       <r>    -5.4742    -0.0200     0.3334 </r>
       <r>    -5.3996    -0.0190     0.3320 </r>
       <r>    -5.3251    -0.0253     0.3301 </r>
       <r>    -5.2505    -0.0056     0.3297 </r>
       <r>    -5.1760     0.0956     0.3368 </r>
       <r>    -5.1014     0.2826     0.3579 </r>
       <r>    -5.0268     0.4410     0.3908 </r>
       <r>    -4.9523     0.4302     0.4229 </r>
       <r>    -4.8777     0.2607     0.4423 </r>
       <r>    -4.8032     0.0795     0.4482 </r>
       <r>    -4.7286    -0.0106     0.4475 </r>
       <r>    -4.6540    -0.0240     0.4457 </r>
       <r>    -4.5795    -0.0154     0.4445 </r>
       <r>    -4.5049    -0.0166     0.4433 </r>
       <r>    -4.4304    -0.0384     0.4404 </r>
       <r>    -4.3558    -0.0760     0.4347 </r>
       <r>    -4.2812    -0.0790     0.4289 </r>
       <r>    -4.2067     0.0987     0.4362 </r>
       <r>    -4.1321     0.6732     0.4864 </r>
       <r>    -4.0575     1.6712     0.6110 </r>
       <r>    -3.9830     2.5977     0.8047 </r>
       <r>    -3.9084     2.7547     1.0101 </r>
       <r>    -3.8339     2.2313     1.1765 </r>
       <r>    -3.7593     1.9669     1.3231 </r>
       <r>    -3.6847     2.3359     1.4973 </r>
       <r>    -3.6102     2.5075     1.6842 </r>
       <r>    -3.5356     1.8088     1.8191 </r>
       <r>    -3.4611     0.8761     1.8844 </r>
       <r>    -3.3865     0.8423     1.9472 </r>
       <r>    -3.3119     1.8732     2.0869 </r>
       <r>    -3.2374     2.8931     2.3026 </r>
       <r>    -3.1628     2.7557     2.5081 </r>
       <r>    -3.0883     1.5672     2.6249 </r>
       <r>    -3.0137     0.5842     2.6685 </r>
       <r>    -2.9391     0.8728     2.7336 </r>
       <r>    -2.8646     2.2428     2.9008 </r>
       <r>    -2.7900     3.3634     3.1516 </r>
       <r>    -2.7155     3.1047     3.3831 </r>
       <r>    -2.6409     1.8759     3.5229 </r>
       <r>    -2.5663     1.1470     3.6084 </r>
       <r>    -2.4918     1.5951     3.7274 </r>
       <r>    -2.4172     2.3415     3.9020 </r>
       <r>    -2.3427     2.2707     4.0713 </r>
       <r>    -2.2681     1.5802     4.1891 </r>
       <r>    -2.1935     1.3869     4.2925 </r>
       <r>    -2.1190     2.2058     4.4570 </r>
       <r>    -2.0444     3.7797     4.7388 </r>
       <r>    -1.9699     6.0696     5.1913 </r>
       <r>    -1.8953     9.2099     5.8780 </r>
       <r>    -1.8207    12.5115     6.8109 </r>
       <r>    -1.7462    14.3839     7.8833 </r>
       <r>    -1.6716    13.5603     8.8944 </r>
       <r>    -1.5971    10.4768     9.6756 </r>
       <r>    -1.5225     7.1518    10.2088 </r>
       <r>    -1.4479     5.2449    10.5999 </r>
       <r>    -1.3734     4.8006    10.9578 </r>
       <r>    -1.2988     5.0800    11.3366 </r>
       <r>    -1.2243     5.6049    11.7545 </r>
       <r>    -1.1497     6.3863    12.2306 </r>
       <r>    -1.0751     7.7537    12.8087 </r>
       <r>    -1.0006     9.7190    13.5334 </r>
       <r>    -0.9260    11.7764    14.4115 </r>
       <r>    -0.8514    13.7856    15.4393 </r>
       <r>    -0.7769    15.9981    16.6321 </r>
       <r>    -0.7023    17.7086    17.9525 </r>
       <r>    -0.6278    17.4036    19.2501 </r>
       <r>    -0.5532    14.7550    20.3503 </r>
       <r>    -0.4786    11.2368    21.1881 </r>
       <r>    -0.4041     8.4929    21.8213 </r>
       <r>    -0.3295     7.0454    22.3466 </r>
       <r>    -0.2550     6.9382    22.8639 </r>
       <r>    -0.1804     8.5375    23.5005 </r>
       <r>    -0.1058    11.7433    24.3761 </r>
       <r>    -0.0313    15.0531    25.4984 </r>
       <r>     0.0433    16.4982    26.7286 </r>
       <r>     0.1178    15.9356    27.9167 </r>
       <r>     0.1924    15.6788    29.0857 </r>
       <r>     0.2670    17.7157    30.4066 </r>
       <r>     0.3415    21.0543    31.9764 </r>
       <r>     0.4161    23.1197    33.7003 </r>
       <r>     0.4906    22.6319    35.3877 </r>
       <r>     0.5652    19.9009    36.8715 </r>
       <r>     0.6398    15.9400    38.0600 </r>
       <r>     0.7143    12.5757    38.9977 </r>
       <r>     0.7889    11.5446    39.8584 </r>
       <r>     0.8634    12.2515    40.7719 </r>
       <r>     0.9380    12.2010    41.6816 </r>
       <r>     1.0126    10.1732    42.4402 </r>
       <r>     1.0871     7.1425    42.9727 </r>
       <r>     1.1617     4.2951    43.2929 </r>
       <r>     1.2362     2.0046    43.4424 </r>
       <r>     1.3108     0.4159    43.4734 </r>
       <r>     1.3854    -0.2871    43.4520 </r>
       <r>     1.4599    -0.0406    43.4490 </r>
       <r>     1.5345     1.0408    43.5266 </r>
       <r>     1.6090     2.4096    43.7063 </r>
       <r>     1.6836     3.0798    43.9359 </r>
       <r>     1.7582     2.5205    44.1238 </r>
       <r>     1.8327     1.3249    44.2226 </r>
       <r>     1.9073     0.4741    44.2579 </r>
       <r>     1.9818     0.2699    44.2781 </r>
       <r>     2.0564     0.3338    44.3030 </r>
       <r>     2.1310     0.2962    44.3250 </r>
       <r>     2.2055     0.1382    44.3353 </r>
       <r>     2.2801    -0.0079    44.3348 </r>
       <r>     2.3547    -0.1034    44.3270 </r>
       <r>     2.4292    -0.1621    44.3150 </r>
       <r>     2.5038    -0.0455    44.3116 </r>
       <r>     2.5783     0.5537    44.3529 </r>
       <r>     2.6529     1.6715    44.4775 </r>
       <r>     2.7275     2.6352    44.6740 </r>
       <r>     2.8020     2.5941    44.8674 </r>
       <r>     2.8766     1.5879    44.9858 </r>
       <r>     2.9511     0.4942    45.0226 </r>
       <r>     3.0257    -0.0579    45.0183 </r>
       <r>     3.1003    -0.1414    45.0078 </r>
       <r>     3.1748    -0.0748    45.0022 </r>
       <r>     3.2494    -0.0235    45.0004 </r>
       <r>     3.3239    -0.0050    45.0001 </r>
       <r>     3.3985    -0.0008    45.0000 </r>
       <r>     3.4731    -0.0008    44.9999 </r>
       <r>     3.5476    -0.0047    44.9996 </r>
       <r>     3.6222    -0.0222    44.9979 </r>
       <r>     3.6967    -0.0718    44.9926 </r>
       <r>     3.7713    -0.1397    44.9822 </r>
       <r>     3.8459    -0.0688    44.9770 </r>
       <r>     3.9204     0.4574    45.0111 </r>
       <r>     3.9950     1.5354    45.1256 </r>
       <r>     4.0695     2.5658    45.3169 </r>
       <r>     4.1441     2.6583    45.5151 </r>
       <r>     4.2187     1.7239    45.6437 </r>
       <r>     4.2932     0.5953    45.6881 </r>
       <r>     4.3678    -0.0249    45.6862 </r>
       <r>     4.4423    -0.1446    45.6754 </r>
       <r>     4.5169    -0.0828    45.6692 </r>
       <r>     4.5915    -0.0274    45.6672 </r>
       <r>     4.6660    -0.0061    45.6667 </r>
       <r>     4.7406    -0.0010    45.6667 </r>
       <r>     4.8151    -0.0003    45.6667 </r>
       <r>     4.8897    -0.0017    45.6665 </r>
       <r>     4.9643    -0.0098    45.6658 </r>
       <r>     5.0388    -0.0409    45.6627 </r>
       <r>     5.1134    -0.1163    45.6541 </r>
       <r>     5.1879    -0.1983    45.6393 </r>
       <r>     5.2625    -0.0701    45.6341 </r>
       <r>     5.3371     0.6398    45.6818 </r>
       <r>     5.4116     2.1095    45.8390 </r>
       <r>     5.4862     3.9686    46.1349 </r>
       <r>     5.5608     5.3900    46.5368 </r>
       <r>     5.6353     5.5446    46.9502 </r>
       <r>     5.7099     4.2310    47.2657 </r>
       <r>     5.7844     2.2868    47.4362 </r>
       <r>     5.8590     0.9659    47.5082 </r>
       <r>     5.9336     0.7359    47.5631 </r>
       <r>     6.0081     1.0703    47.6429 </r>
       <r>     6.0827     1.2918    47.7392 </r>
       <r>     6.1572     1.1962    47.8284 </r>
       <r>     6.2318     0.9866    47.9020 </r>
       <r>     6.3064     0.8785    47.9675 </r>
       <r>     6.3809     0.8076    48.0277 </r>
       <r>     6.4555     0.5698    48.0702 </r>
       <r>     6.5300     0.2109    48.0859 </r>
       <r>     6.6046     0.1341    48.0959 </r>
       <r>     6.6792     0.8136    48.1565 </r>
       <r>     6.7537     2.3001    48.3280 </r>
       <r>     6.8283     3.8180    48.6127 </r>
       <r>     6.9028     4.1679    48.9235 </r>
       <r>     6.9774     2.9771    49.1454 </r>
       <r>     7.0520     1.1903    49.2342 </r>
       <r>     7.1265    -0.0116    49.2333 </r>
       <r>     7.2011    -0.1935    49.2189 </r>
       <r>     7.2756     0.5406    49.2592 </r>
       <r>     7.3502     1.8529    49.3974 </r>
       <r>     7.4248     3.0203    49.6226 </r>
       <r>     7.4993     3.2100    49.8619 </r>
       <r>     7.5739     2.2807    50.0319 </r>
       <r>     7.6484     0.9842    50.1053 </r>
       <r>     7.7230     0.2517    50.1241 </r>
       <r>     7.7976     0.4615    50.1585 </r>
       <r>     7.8721     1.2417    50.2511 </r>
       <r>     7.9467     1.7778    50.3836 </r>
       <r>     8.0212     1.5399    50.4985 </r>
       <r>     8.0958     0.7775    50.5564 </r>
       <r>     8.1704     0.0937    50.5634 </r>
       <r>     8.2449    -0.2280    50.5464 </r>
       <r>     8.3195    -0.1726    50.5335 </r>
       <r>     8.3941     0.3919    50.5628 </r>
       <r>     8.4686     1.5338    50.6771 </r>
       <r>     8.5432     2.7331    50.8809 </r>
       <r>     8.6177     3.1180    51.1134 </r>
       <r>     8.6923     2.4478    51.2959 </r>
       <r>     8.7669     1.4565    51.4045 </r>
       <r>     8.8414     1.1234    51.4883 </r>
       <r>     8.9160     1.8170    51.6237 </r>
       <r>     8.9905     2.9631    51.8447 </r>
       <r>     9.0651     3.4556    52.1023 </r>
       <r>     9.1397     2.7481    52.3072 </r>
       <r>     9.2142     1.5794    52.4250 </r>
       <r>     9.2888     1.2254    52.5163 </r>
       <r>     9.3633     1.9941    52.6650 </r>
       <r>     9.4379     2.8247    52.8756 </r>
       <r>     9.5125     2.6231    53.0712 </r>
       <r>     9.5870     1.7056    53.1984 </r>
       <r>     9.6616     1.3418    53.2984 </r>
       <r>     9.7361     1.9654    53.4450 </r>
       <r>     9.8107     2.5950    53.6385 </r>
       <r>     9.8853     2.2241    53.8043 </r>
       <r>     9.9598     1.0728    53.8843 </r>
       <r>    10.0344     0.0832    53.8905 </r>
       <r>    10.1089    -0.1331    53.8806 </r>
       <r>    10.1835     0.5119    53.9187 </r>
       <r>    10.2581     1.7123    54.0464 </r>
       <r>    10.3326     2.8312    54.2575 </r>
       <r>    10.4072     3.4036    54.5113 </r>
       <r>    10.4817     3.4699    54.7700 </r>
       <r>    10.5563     3.0683    54.9988 </r>
       <r>    10.6309     2.0765    55.1536 </r>
       <r>    10.7054     0.8358    55.2159 </r>
       <r>    10.7800     0.1617    55.2280 </r>
       <r>    10.8545     0.5735    55.2707 </r>
       <r>    10.9291     1.7463    55.4009 </r>
       <r>    11.0037     2.6421    55.5979 </r>
       <r>    11.0782     2.4417    55.7800 </r>
       <r>    11.1528     1.4439    55.8876 </r>
       <r>    11.2273     0.6003    55.9324 </r>
       <r>    11.3019     0.3261    55.9567 </r>
       <r>    11.3765     0.3130    55.9800 </r>
       <r>    11.4510     0.2319    55.9973 </r>
       <r>    11.5256     0.0867    56.0038 </r>
       <r>    11.6002    -0.0058    56.0034 </r>
       <r>    11.6747    -0.0247    56.0015 </r>
       <r>    11.7493    -0.0143    56.0005 </r>
       <r>    11.8238    -0.0048    56.0001 </r>
       <r>    11.8984    -0.0011    56.0000 </r>
       <r>    11.9730    -0.0002    56.0000 </r>
       <r>    12.0475    -0.0000    56.0000 </r>
       <r>    12.1221    -0.0000    56.0000 </r>
       <r>    12.1966    -0.0000    56.0000 </r>
       <r>    12.2712    -0.0000    56.0000 </r>
       <r>    12.3458    -0.0000    56.0000 </r>
       <r>    12.4203    -0.0000    56.0000 </r>
       <r>    12.4949    -0.0000    56.0000 </r>
       <r>    12.5694    -0.0000    56.0000 </r>
       <r>    12.6440     0.0000    56.0000 </r>
       <r>    12.7186     0.0000    56.0000 </r>
       <r>    12.7931     0.0000    56.0000 </r>
       <r>    12.8677     0.0000    56.0000 </r>
       <r>    12.9422     0.0000    56.0000 </r>
       <r>    13.0168     0.0000    56.0000 </r>
       <r>    13.0914     0.0000    56.0000 </r>
       <r>    13.1659     0.0000    56.0000 </r>
       <r>    13.2405     0.0000    56.0000 </r>
       <r>    13.3150     0.0000    56.0000 </r>
      </set>
     </set>
    </array>
   </total>
  </dos>
 </calculation>
 <structure name="finalpos" >
  <crystal>
   <varray name="basis" >
    <v>       2.56679773       0.00000000       0.00000000 </v>
    <v>       1.28339887       2.22291204       0.00000000 </v>
    <v>       0.00000000       0.00000000      29.67047077 </v>
   </varray>
   <i name="volume">    169.29275129 </i>
   <varray name="rec_basis" >
    <v>       0.38959050      -0.22493018       0.00000000 </v>
    <v>       0.00000000       0.44986035       0.00000000 </v>
    <v>       0.00000000       0.00000000       0.03370354 </v>
   </varray>
  </crystal>
  <varray name="positions" >
   <v>       0.00000000       0.00000000       0.00000000 </v>
   <v>       0.33333333       0.33333333       0.07063526 </v>
   <v>       0.66666667       0.66666667       0.13908594 </v>
   <v>       0.00000000      -0.00000000       0.20816512 </v>
   <v>       0.33333333       0.33333333       0.27656240 </v>
   <v>       0.66666667       0.66666667       0.34556034 </v>
   <v>       0.00000000       0.00000000       0.41400593 </v>
   <v>       0.33333333       0.33333333       0.48139269 </v>
  </varray>
  <varray name="selective"  type="logical" >
   <v type="logical" >  F  F  F </v>
   <v type="logical" >  F  F  F </v>
   <v type="logical" >  T  T  T </v>
   <v type="logical" >  T  T  T </v>
   <v type="logical" >  T  T  T </v>
   <v type="logical" >  T  T  T </v>
   <v type="logical" >  T  T  T </v>
   <v type="logical" >  T  T  T </v>
  </varray>
  <nose>
   <v>      -3.00000000       0.00000000       0.00010000       0.00010000 </v>
  </nose>
 </structure>
</modeling>
