unknown system                          
           1
     2.566798    0.000000    0.000000
     1.283399    2.222912    0.000000
     0.000000    0.000000   29.670471
   Cu
     8
Direct configuration=     1
   0.00000000  0.00000000  0.00000000
   0.33333333  0.33333333  0.07063526
   0.66666667  0.66666667  0.14127053
   0.00000000  0.00000000  0.21190579
   0.33333333  0.33333333  0.28254106
   0.66666667  0.66666667  0.35317632
   0.00000000  0.00000000  0.42381158
   0.33333333  0.33333333  0.49444685
Direct configuration=     2
   0.00000000  0.00000000  0.00000000
   0.33333333  0.33333333  0.07063526
   0.66666667  0.66666667  0.14119653
  -0.00000000 -0.00000000  0.21205307
   0.33333333  0.33333333  0.28239658
   0.66666667  0.66666667  0.35324998
   0.00000000  0.00000000  0.42401417
   0.33333333  0.33333333  0.49366032
Direct configuration=     3
   0.00000000  0.00000000  0.00000000
   0.33333333  0.33333333  0.07063526
   0.66666667  0.66666667  0.14101161
  -0.00000000 -0.00000000  0.21242112
   0.33333333  0.33333333  0.28203553
   0.66666667  0.66666667  0.35343404
   0.00000000  0.00000000  0.42452043
   0.33333333  0.33333333  0.49169480
Direct configuration=     4
   0.00000000  0.00000000  0.00000000
   0.33333333  0.33333333  0.07063526
   0.66666667  0.66666667  0.14105566
  -0.00000000 -0.00000000  0.21233345
   0.33333333  0.33333333  0.28212153
   0.66666667  0.66666667  0.35339020
   0.00000000  0.00000000  0.42439984
   0.33333333  0.33333333  0.49216301
Direct configuration=     5
   0.00000000  0.00000000  0.00000000
   0.33333333  0.33333333  0.07063526
   0.66666667  0.66666667  0.14111258
  -0.00000000 -0.00000000  0.21225292
   0.33333333  0.33333333  0.28219578
   0.66666667  0.66666667  0.35342899
   0.00000000  0.00000000  0.42386248
   0.33333333  0.33333333  0.49150170
Direct configuration=     6
   0.00000000  0.00000000  0.00000000
   0.33333333  0.33333333  0.07063526
   0.66666667  0.66666667  0.14128331
  -0.00000000 -0.00000000  0.21201134
   0.33333333  0.33333333  0.28241850
   0.66666667  0.66666667  0.35354539
   0.00000000  0.00000000  0.42225041
   0.33333333  0.33333333  0.48951779
Direct configuration=     7
   0.00000000  0.00000000  0.00000000
   0.33333333  0.33333333  0.07063526
   0.66666667  0.66666667  0.14132736
  -0.00000000 -0.00000000  0.21194902
   0.33333333  0.33333333  0.28247597
   0.66666667  0.66666667  0.35357541
   0.00000000  0.00000000  0.42183451
   0.33333333  0.33333333  0.48900596
Direct configuration=     8
   0.00000000  0.00000000  0.00000000
   0.33333333  0.33333333  0.07063526
   0.66666667  0.66666667  0.14127784
  -0.00000000 -0.00000000  0.21203589
   0.33333333  0.33333333  0.28245373
   0.66666667  0.66666667  0.35302438
   0.00000000  0.00000000  0.42124671
   0.33333333  0.33333333  0.48839702
Direct configuration=     9
   0.00000000  0.00000000  0.00000000
   0.33333333  0.33333333  0.07063526
   0.66666667  0.66666667  0.14112926
  -0.00000000 -0.00000000  0.21229650
   0.33333333  0.33333333  0.28238702
   0.66666667  0.66666667  0.35137129
   0.00000000  0.00000000  0.41948332
   0.33333333  0.33333333  0.48657023
Direct configuration=    10
   0.00000000  0.00000000  0.00000000
   0.33333333  0.33333333  0.07063526
   0.66666667  0.66666667  0.14109765
  -0.00000000 -0.00000000  0.21235194
   0.33333333  0.33333333  0.28237283
   0.66666667  0.66666667  0.35101962
   0.00000000  0.00000000  0.41910818
   0.33333333  0.33333333  0.48618160
Direct configuration=    11
   0.00000000  0.00000000  0.00000000
   0.33333333  0.33333333  0.07063526
   0.66666667  0.66666667  0.14115576
  -0.00000000 -0.00000000  0.21225815
   0.33333333  0.33333333  0.28144660
   0.66666667  0.66666667  0.35034752
   0.00000000  0.00000000  0.41851398
   0.33333333  0.33333333  0.48572785
Direct configuration=    12
   0.00000000  0.00000000  0.00000000
   0.33333333  0.33333333  0.07063526
   0.66666667  0.66666667  0.14126750
  -0.00000000 -0.00000000  0.21207778
   0.33333333  0.33333333  0.27966543
   0.66666667  0.66666667  0.34905504
   0.00000000  0.00000000  0.41737129
   0.33333333  0.33333333  0.48485526
Direct configuration=    13
   0.00000000  0.00000000  0.00000000
   0.33333333  0.33333333  0.07063526
   0.66666667  0.66666667  0.14124716
  -0.00000000 -0.00000000  0.21166883
   0.33333333  0.33333333  0.27924034
   0.66666667  0.66666667  0.34853200
   0.00000000  0.00000000  0.41699679
   0.33333333  0.33333333  0.48452194
Direct configuration=    14
   0.00000000  0.00000000  0.00000000
   0.33333333  0.33333333  0.07063526
   0.66666667  0.66666667  0.14118617
   0.00000000 -0.00000000  0.21044197
   0.33333333  0.33333333  0.27796509
   0.66666667  0.66666667  0.34696286
   0.00000000  0.00000000  0.41587330
   0.33333333  0.33333333  0.48352200
Direct configuration=    15
   0.00000000  0.00000000  0.00000000
   0.33333333  0.33333333  0.07063526
   0.66666667  0.66666667  0.14116062
   0.00000000 -0.00000000  0.20992809
   0.33333333  0.33333333  0.27743093
   0.66666667  0.66666667  0.34630561
   0.00000000  0.00000000  0.41540272
   0.33333333  0.33333333  0.48310316
Direct configuration=    16
   0.00000000  0.00000000  0.00000000
   0.33333333  0.33333333  0.07063526
   0.66666667  0.66666667  0.14055868
   0.00000000 -0.00000000  0.20939013
   0.33333333  0.33333333  0.27732538
   0.66666667  0.66666667  0.34605853
   0.00000000  0.00000000  0.41503007
   0.33333333  0.33333333  0.48270646
Direct configuration=    17
   0.00000000  0.00000000  0.00000000
   0.33333333  0.33333333  0.07063526
   0.66666667  0.66666667  0.13961681
   0.00000000 -0.00000000  0.20854836
   0.33333333  0.33333333  0.27716022
   0.66666667  0.66666667  0.34567191
   0.00000000  0.00000000  0.41444697
   0.33333333  0.33333333  0.48208574
Direct configuration=    18
   0.00000000  0.00000000  0.00000000
   0.33333333  0.33333333  0.07063526
   0.66666667  0.66666667  0.13919370
   0.00000000 -0.00000000  0.20817023
   0.33333333  0.33333333  0.27708602
   0.66666667  0.66666667  0.34549823
   0.00000000  0.00000000  0.41418504
   0.33333333  0.33333333  0.48180690
Direct configuration=    19
   0.00000000  0.00000000  0.00000000
   0.33333333  0.33333333  0.07063526
   0.66666667  0.66666667  0.13936265
   0.00000000 -0.00000000  0.20832122
   0.33333333  0.33333333  0.27711565
   0.66666667  0.66666667  0.34556758
   0.00000000  0.00000000  0.41428963
   0.33333333  0.33333333  0.48191824
Direct configuration=    20
   0.00000000  0.00000000  0.00000000
   0.33333333  0.33333333  0.07063526
   0.66666667  0.66666667  0.13929397
   0.00000000 -0.00000000  0.20825984
   0.33333333  0.33333333  0.27710361
   0.66666667  0.66666667  0.34553939
   0.00000000  0.00000000  0.41424711
   0.33333333  0.33333333  0.48187298
Direct configuration=    21
   0.00000000  0.00000000  0.00000000
   0.33333333  0.33333333  0.07063526
   0.66666667  0.66666667  0.13895600
   0.00000000 -0.00000000  0.20820261
   0.33333333  0.33333333  0.27665948
   0.66666667  0.66666667  0.34564439
   0.00000000  0.00000000  0.41402172
   0.33333333  0.33333333  0.48152475
Direct configuration=    22
   0.00000000  0.00000000  0.00000000
   0.33333333  0.33333333  0.07063526
   0.66666667  0.66666667  0.13901757
   0.00000000 -0.00000000  0.20821304
   0.33333333  0.33333333  0.27674039
   0.66666667  0.66666667  0.34562526
   0.00000000  0.00000000  0.41406278
   0.33333333  0.33333333  0.48158819
Direct configuration=    23
   0.00000000  0.00000000  0.00000000
   0.33333333  0.33333333  0.07063526
   0.66666667  0.66666667  0.13898534
   0.00000000 -0.00000000  0.20820758
   0.33333333  0.33333333  0.27669803
   0.66666667  0.66666667  0.34563527
   0.00000000  0.00000000  0.41404128
   0.33333333  0.33333333  0.48155498
Direct configuration=    24
   0.00000000  0.00000000  0.00000000
   0.33333333  0.33333333  0.07063526
   0.66666667  0.66666667  0.13897969
   0.00000000 -0.00000000  0.20820662
   0.33333333  0.33333333  0.27669061
   0.66666667  0.66666667  0.34563703
   0.00000000  0.00000000  0.41403752
   0.33333333  0.33333333  0.48154916
Direct configuration=    25
   0.00000000  0.00000000  0.00000000
   0.33333333  0.33333333  0.07063526
   0.66666667  0.66666667  0.13898507
   0.00000000 -0.00000000  0.20820753
   0.33333333  0.33333333  0.27669768
   0.66666667  0.66666667  0.34563536
   0.00000000  0.00000000  0.41404110
   0.33333333  0.33333333  0.48155470
Direct configuration=    26
   0.00000000  0.00000000  0.00000000
   0.33333333  0.33333333  0.07063526
   0.66666667  0.66666667  0.13898238
   0.00000000 -0.00000000  0.20820708
   0.33333333  0.33333333  0.27669414
   0.66666667  0.66666667  0.34563619
   0.00000000  0.00000000  0.41403931
   0.33333333  0.33333333  0.48155193
Direct configuration=    27
   0.00000000  0.00000000  0.00000000
   0.33333333  0.33333333  0.07063526
   0.66666667  0.66666667  0.13898348
   0.00000000 -0.00000000  0.20820726
   0.33333333  0.33333333  0.27669559
   0.66666667  0.66666667  0.34563585
   0.00000000  0.00000000  0.41404005
   0.33333333  0.33333333  0.48155307
Direct configuration=    28
   0.00000000  0.00000000  0.00000000
   0.33333333  0.33333333  0.07063526
   0.66666667  0.66666667  0.13898327
   0.00000000 -0.00000000  0.20820723
   0.33333333  0.33333333  0.27669532
   0.66666667  0.66666667  0.34563591
   0.00000000  0.00000000  0.41403991
   0.33333333  0.33333333  0.48155285
Direct configuration=    29
   0.00000000  0.00000000  0.00000000
   0.33333333  0.33333333  0.07063526
   0.66666667  0.66666667  0.13908594
   0.00000000 -0.00000000  0.20816512
   0.33333333  0.33333333  0.27656240
   0.66666667  0.66666667  0.34556034
   0.00000000  0.00000000  0.41400593
   0.33333333  0.33333333  0.48139269
