unknown system                          
           1
     7.700393    0.000000    0.000000
     3.850197    6.668736    0.000000
     0.000000    0.000000   23.383125
   Cu
    45
Direct configuration=     1
   0.00000000  0.00000000  0.00000000
   0.00000000  0.33333333  0.00000000
   1.00000000  0.66666667  0.00000000
   0.33333333  0.00000000  0.00000000
   0.33333333  0.33333333  0.00000000
   0.33333333  0.66666667  0.00000000
   0.66666667  0.00000000  0.00000000
   0.66666667  0.33333333  0.00000000
   0.66666667  0.66666667  0.00000000
   0.11111111  0.11111111  0.08962794
   0.11111111  0.44444444  0.08962794
   0.11111111  0.77777778  0.08962794
   0.44444444  0.11111111  0.08962794
   0.44444444  0.44444444  0.08962794
   0.44444444  0.77777778  0.08962794
   0.77777778  0.11111111  0.08962794
   0.77777778  0.44444444  0.08962794
   0.77777778  0.77777778  0.08962794
   0.22222222  0.22222222  0.17925589
   0.22222222  0.55555556  0.17925589
   0.22222222  0.88888889  0.17925589
   0.55555556  0.22222222  0.17925589
   0.55555556  0.55555556  0.17925589
   0.55555556  0.88888889  0.17925589
   0.88888889  0.22222222  0.17925589
   0.88888889  0.55555556  0.17925589
   0.88888889  0.88888889  0.17925589
   0.00000000  0.00000000  0.26888383
   0.00000000  0.33333333  0.26888383
   1.00000000  0.66666667  0.26888383
   0.33333333  0.00000000  0.26888383
   0.33333333  0.33333333  0.26888383
   0.33333333  0.66666667  0.26888383
   0.66666667  0.00000000  0.26888383
   0.66666667  0.33333333  0.26888383
   0.66666667  0.66666667  0.26888383
   0.11111111  0.11111111  0.35851178
   0.11111111  0.44444444  0.35851178
   0.11111111  0.77777778  0.35851178
   0.44444444  0.11111111  0.35851178
   0.44444444  0.44444444  0.35851178
   0.44444444  0.77777778  0.35851178
   0.77777778  0.11111111  0.35851178
   0.77777778  0.44444444  0.35851178
   0.77777778  0.77777778  0.35851178
Direct configuration=     2
   0.00000000  0.00000000  0.00000000
   0.00000000  0.33333333  0.00000000
   1.00000000  0.66666667  0.00000000
   0.33333333  0.00000000  0.00000000
   0.33333333  0.33333333  0.00000000
   0.33333333  0.66666667  0.00000000
   0.66666667  0.00000000  0.00000000
   0.66666667  0.33333333  0.00000000
   0.66666667  0.66666667  0.00000000
   0.11111111  0.11111111  0.08962794
   0.11111111  0.44444444  0.08962794
   0.11111111  0.77777778  0.08962794
   0.44444444  0.11111111  0.08962794
   0.44444444  0.44444444  0.08962794
   0.44444444  0.77777778  0.08962794
   0.77777778  0.11111111  0.08962794
   0.77777778  0.44444444  0.08962794
   0.77777778  0.77777778  0.08962794
   0.22222222  0.22222222  0.17925744
   0.22222222  0.55555556  0.17925744
   0.22222222  0.88888889  0.17925744
   0.55555556  0.22222222  0.17925744
   0.55555556  0.55555556  0.17925744
   0.55555556  0.88888889  0.17925744
   0.88888889  0.22222222  0.17925744
   0.88888889  0.55555556  0.17925744
   0.88888889  0.88888889  0.17925744
   0.00000000 -0.00000000  0.26878167
   0.00000000  0.33333333  0.26878167
   1.00000000  0.66666667  0.26878167
   0.33333333 -0.00000000  0.26878167
   0.33333333  0.33333333  0.26878167
   0.33333333  0.66666667  0.26878167
   0.66666667 -0.00000000  0.26878167
   0.66666667  0.33333333  0.26878167
   0.66666667  0.66666667  0.26878167
   0.11111111  0.11111111  0.35818248
   0.11111111  0.44444444  0.35818248
   0.11111111  0.77777778  0.35818248
   0.44444444  0.11111111  0.35818248
   0.44444444  0.44444444  0.35818248
   0.44444444  0.77777778  0.35818248
   0.77777778  0.11111111  0.35818248
   0.77777778  0.44444444  0.35818248
   0.77777778  0.77777778  0.35818248
Direct configuration=     3
   0.00000000  0.00000000  0.00000000
   0.00000000  0.33333333  0.00000000
   1.00000000  0.66666667  0.00000000
   0.33333333  0.00000000  0.00000000
   0.33333333  0.33333333  0.00000000
   0.33333333  0.66666667  0.00000000
   0.66666667  0.00000000  0.00000000
   0.66666667  0.33333333  0.00000000
   0.66666667  0.66666667  0.00000000
   0.11111111  0.11111111  0.08962794
   0.11111111  0.44444444  0.08962794
   0.11111111  0.77777778  0.08962794
   0.44444444  0.11111111  0.08962794
   0.44444444  0.44444444  0.08962794
   0.44444444  0.77777778  0.08962794
   0.77777778  0.11111111  0.08962794
   0.77777778  0.44444444  0.08962794
   0.77777778  0.77777778  0.08962794
   0.22222222  0.22222222  0.17926208
   0.22222222  0.55555556  0.17926208
   0.22222222  0.88888889  0.17926208
   0.55555556  0.22222222  0.17926208
   0.55555556  0.55555556  0.17926208
   0.55555556  0.88888889  0.17926208
   0.88888889  0.22222222  0.17926208
   0.88888889  0.55555556  0.17926208
   0.88888889  0.88888889  0.17926208
   0.00000000 -0.00000000  0.26847516
   0.00000000  0.33333333  0.26847516
   1.00000000  0.66666667  0.26847516
   0.33333333 -0.00000000  0.26847516
   0.33333333  0.33333333  0.26847516
   0.33333333  0.66666667  0.26847516
   0.66666667 -0.00000000  0.26847516
   0.66666667  0.33333333  0.26847516
   0.66666667  0.66666667  0.26847516
   0.11111111  0.11111111  0.35719458
   0.11111111  0.44444444  0.35719458
   0.11111111  0.77777778  0.35719458
   0.44444444  0.11111111  0.35719458
   0.44444444  0.44444444  0.35719458
   0.44444444  0.77777778  0.35719458
   0.77777778  0.11111111  0.35719458
   0.77777778  0.44444444  0.35719458
   0.77777778  0.77777778  0.35719458
Direct configuration=     4
   0.00000000  0.00000000  0.00000000
   0.00000000  0.33333333  0.00000000
   1.00000000  0.66666667  0.00000000
   0.33333333  0.00000000  0.00000000
   0.33333333  0.33333333  0.00000000
   0.33333333  0.66666667  0.00000000
   0.66666667  0.00000000  0.00000000
   0.66666667  0.33333333  0.00000000
   0.66666667  0.66666667  0.00000000
   0.11111111  0.11111111  0.08962794
   0.11111111  0.44444444  0.08962794
   0.11111111  0.77777778  0.08962794
   0.44444444  0.11111111  0.08962794
   0.44444444  0.44444444  0.08962794
   0.44444444  0.77777778  0.08962794
   0.77777778  0.11111111  0.08962794
   0.77777778  0.44444444  0.08962794
   0.77777778  0.77777778  0.08962794
   0.22222222  0.22222222  0.17927137
   0.22222222  0.55555556  0.17927137
   0.22222222  0.88888889  0.17927137
   0.55555556  0.22222222  0.17927137
   0.55555556  0.55555556  0.17927137
   0.55555556  0.88888889  0.17927137
   0.88888889  0.22222222  0.17927137
   0.88888889  0.55555556  0.17927137
   0.88888889  0.88888889  0.17927137
   0.00000000 -0.00000000  0.26786216
   0.00000000  0.33333333  0.26786216
   1.00000000  0.66666667  0.26786216
   0.33333333 -0.00000000  0.26786216
   0.33333333  0.33333333  0.26786216
   0.33333333  0.66666667  0.26786216
   0.66666667 -0.00000000  0.26786216
   0.66666667  0.33333333  0.26786216
   0.66666667  0.66666667  0.26786216
   0.11111111  0.11111111  0.35521878
   0.11111111  0.44444444  0.35521878
   0.11111111  0.77777778  0.35521878
   0.44444444  0.11111111  0.35521878
   0.44444444  0.44444444  0.35521878
   0.44444444  0.77777778  0.35521878
   0.77777778  0.11111111  0.35521878
   0.77777778  0.44444444  0.35521878
   0.77777778  0.77777778  0.35521878
Direct configuration=     5
   0.00000000  0.00000000  0.00000000
   0.00000000  0.33333333  0.00000000
   1.00000000  0.66666667  0.00000000
   0.33333333  0.00000000  0.00000000
   0.33333333  0.33333333  0.00000000
   0.33333333  0.66666667  0.00000000
   0.66666667  0.00000000  0.00000000
   0.66666667  0.33333333  0.00000000
   0.66666667  0.66666667  0.00000000
   0.11111111  0.11111111  0.08962794
   0.11111111  0.44444444  0.08962794
   0.11111111  0.77777778  0.08962794
   0.44444444  0.11111111  0.08962794
   0.44444444  0.44444444  0.08962794
   0.44444444  0.77777778  0.08962794
   0.77777778  0.11111111  0.08962794
   0.77777778  0.44444444  0.08962794
   0.77777778  0.77777778  0.08962794
   0.22222222  0.22222222  0.17905429
   0.22222222  0.55555556  0.17905429
   0.22222222  0.88888889  0.17905429
   0.55555556  0.22222222  0.17905429
   0.55555556  0.55555556  0.17905429
   0.55555556  0.88888889  0.17905429
   0.88888889  0.22222222  0.17905429
   0.88888889  0.55555556  0.17905429
   0.88888889  0.88888889  0.17905429
  -0.00000000 -0.00000000  0.26744700
   0.00000000  0.33333333  0.26744700
   1.00000000  0.66666667  0.26744700
   0.33333333 -0.00000000  0.26744700
   0.33333333  0.33333333  0.26744700
   0.33333333  0.66666667  0.26744700
   0.66666667 -0.00000000  0.26744700
   0.66666667  0.33333333  0.26744700
   0.66666667  0.66666667  0.26744700
   0.11111111  0.11111111  0.35490195
   0.11111111  0.44444444  0.35490195
   0.11111111  0.77777778  0.35490195
   0.44444444  0.11111111  0.35490195
   0.44444444  0.44444444  0.35490195
   0.44444444  0.77777778  0.35490195
   0.77777778  0.11111111  0.35490195
   0.77777778  0.44444444  0.35490195
   0.77777778  0.77777778  0.35490195
Direct configuration=     6
   0.00000000  0.00000000  0.00000000
   0.00000000  0.33333333  0.00000000
   1.00000000  0.66666667  0.00000000
   0.33333333  0.00000000  0.00000000
   0.33333333  0.33333333  0.00000000
   0.33333333  0.66666667  0.00000000
   0.66666667  0.00000000  0.00000000
   0.66666667  0.33333333  0.00000000
   0.66666667  0.66666667  0.00000000
   0.11111111  0.11111111  0.08962794
   0.11111111  0.44444444  0.08962794
   0.11111111  0.77777778  0.08962794
   0.44444444  0.11111111  0.08962794
   0.44444444  0.44444444  0.08962794
   0.44444444  0.77777778  0.08962794
   0.77777778  0.11111111  0.08962794
   0.77777778  0.44444444  0.08962794
   0.77777778  0.77777778  0.08962794
   0.22222222  0.22222222  0.17840305
   0.22222222  0.55555556  0.17840305
   0.22222222  0.88888889  0.17840305
   0.55555556  0.22222222  0.17840305
   0.55555556  0.55555556  0.17840305
   0.55555556  0.88888889  0.17840305
   0.88888889  0.22222222  0.17840305
   0.88888889  0.55555556  0.17840305
   0.88888889  0.88888889  0.17840305
  -0.00000000 -0.00000000  0.26620152
   0.00000000  0.33333333  0.26620152
   1.00000000  0.66666667  0.26620152
   0.33333333 -0.00000000  0.26620152
   0.33333333  0.33333333  0.26620152
   0.33333333  0.66666667  0.26620152
   0.66666667 -0.00000000  0.26620152
   0.66666667  0.33333333  0.26620152
   0.66666667  0.66666667  0.26620152
   0.11111111  0.11111111  0.35395148
   0.11111111  0.44444444  0.35395148
   0.11111111  0.77777778  0.35395148
   0.44444444  0.11111111  0.35395148
   0.44444444  0.44444444  0.35395148
   0.44444444  0.77777778  0.35395148
   0.77777778  0.11111111  0.35395148
   0.77777778  0.44444444  0.35395148
   0.77777778  0.77777778  0.35395148
Direct configuration=     7
   0.00000000  0.00000000  0.00000000
   0.00000000  0.33333333  0.00000000
   1.00000000  0.66666667  0.00000000
   0.33333333  0.00000000  0.00000000
   0.33333333  0.33333333  0.00000000
   0.33333333  0.66666667  0.00000000
   0.66666667  0.00000000  0.00000000
   0.66666667  0.33333333  0.00000000
   0.66666667  0.66666667  0.00000000
   0.11111111  0.11111111  0.08962794
   0.11111111  0.44444444  0.08962794
   0.11111111  0.77777778  0.08962794
   0.44444444  0.11111111  0.08962794
   0.44444444  0.44444444  0.08962794
   0.44444444  0.77777778  0.08962794
   0.77777778  0.11111111  0.08962794
   0.77777778  0.44444444  0.08962794
   0.77777778  0.77777778  0.08962794
   0.22222222  0.22222222  0.17710057
   0.22222222  0.55555556  0.17710057
   0.22222222  0.88888889  0.17710057
   0.55555556  0.22222222  0.17710057
   0.55555556  0.55555556  0.17710057
   0.55555556  0.88888889  0.17710057
   0.88888889  0.22222222  0.17710057
   0.88888889  0.55555556  0.17710057
   0.88888889  0.88888889  0.17710057
  -0.00000000 -0.00000000  0.26371057
   0.00000000  0.33333333  0.26371057
   1.00000000  0.66666667  0.26371057
   0.33333333 -0.00000000  0.26371057
   0.33333333  0.33333333  0.26371057
   0.33333333  0.66666667  0.26371057
   0.66666667 -0.00000000  0.26371057
   0.66666667  0.33333333  0.26371057
   0.66666667  0.66666667  0.26371057
   0.11111111  0.11111111  0.35205052
   0.11111111  0.44444444  0.35205052
   0.11111111  0.77777778  0.35205052
   0.44444444  0.11111111  0.35205052
   0.44444444  0.44444444  0.35205052
   0.44444444  0.77777778  0.35205052
   0.77777778  0.11111111  0.35205052
   0.77777778  0.44444444  0.35205052
   0.77777778  0.77777778  0.35205052
Direct configuration=     8
   0.00000000  0.00000000  0.00000000
   0.00000000  0.33333333  0.00000000
   1.00000000  0.66666667  0.00000000
   0.33333333  0.00000000  0.00000000
   0.33333333  0.33333333  0.00000000
   0.33333333  0.66666667  0.00000000
   0.66666667  0.00000000  0.00000000
   0.66666667  0.33333333  0.00000000
   0.66666667  0.66666667  0.00000000
   0.11111111  0.11111111  0.08962794
   0.11111111  0.44444444  0.08962794
   0.11111111  0.77777778  0.08962794
   0.44444444  0.11111111  0.08962794
   0.44444444  0.44444444  0.08962794
   0.44444444  0.77777778  0.08962794
   0.77777778  0.11111111  0.08962794
   0.77777778  0.44444444  0.08962794
   0.77777778  0.77777778  0.08962794
   0.22222222  0.22222222  0.17777557
   0.22222222  0.55555556  0.17777557
   0.22222222  0.88888889  0.17777557
   0.55555556  0.22222222  0.17777557
   0.55555556  0.55555556  0.17777557
   0.55555556  0.88888889  0.17777557
   0.88888889  0.22222222  0.17777557
   0.88888889  0.55555556  0.17777557
   0.88888889  0.88888889  0.17777557
  -0.00000000 -0.00000000  0.26500148
   0.00000000  0.33333333  0.26500148
   1.00000000  0.66666667  0.26500148
   0.33333333 -0.00000000  0.26500148
   0.33333333  0.33333333  0.26500148
   0.33333333  0.66666667  0.26500148
   0.66666667 -0.00000000  0.26500148
   0.66666667  0.33333333  0.26500148
   0.66666667  0.66666667  0.26500148
   0.11111111  0.11111111  0.35303567
   0.11111111  0.44444444  0.35303567
   0.11111111  0.77777778  0.35303567
   0.44444444  0.11111111  0.35303567
   0.44444444  0.44444444  0.35303567
   0.44444444  0.77777778  0.35303567
   0.77777778  0.11111111  0.35303567
   0.77777778  0.44444444  0.35303567
   0.77777778  0.77777778  0.35303567
Direct configuration=     9
   0.00000000  0.00000000  0.00000000
   0.00000000  0.33333333  0.00000000
   1.00000000  0.66666667  0.00000000
   0.33333333  0.00000000  0.00000000
   0.33333333  0.33333333  0.00000000
   0.33333333  0.66666667  0.00000000
   0.66666667  0.00000000  0.00000000
   0.66666667  0.33333333  0.00000000
   0.66666667  0.66666667  0.00000000
   0.11111111  0.11111111  0.08962794
   0.11111111  0.44444444  0.08962794
   0.11111111  0.77777778  0.08962794
   0.44444444  0.11111111  0.08962794
   0.44444444  0.44444444  0.08962794
   0.44444444  0.77777778  0.08962794
   0.77777778  0.11111111  0.08962794
   0.77777778  0.44444444  0.08962794
   0.77777778  0.77777778  0.08962794
   0.22222222  0.22222222  0.17717390
   0.22222222  0.55555556  0.17717390
   0.22222222  0.88888889  0.17717390
   0.55555556  0.22222222  0.17717390
   0.55555556  0.55555556  0.17717390
   0.55555556  0.88888889  0.17717390
   0.88888889  0.22222222  0.17717390
   0.88888889  0.55555556  0.17717390
   0.88888889  0.88888889  0.17717390
  -0.00000000 -0.00000000  0.26495689
   0.00000000  0.33333333  0.26495689
   1.00000000  0.66666667  0.26495689
   0.33333333 -0.00000000  0.26495689
   0.33333333  0.33333333  0.26495689
   0.33333333  0.66666667  0.26495689
   0.66666667 -0.00000000  0.26495689
   0.66666667  0.33333333  0.26495689
   0.66666667  0.66666667  0.26495689
   0.11111111  0.11111111  0.35276397
   0.11111111  0.44444444  0.35276397
   0.11111111  0.77777778  0.35276397
   0.44444444  0.11111111  0.35276397
   0.44444444  0.44444444  0.35276397
   0.44444444  0.77777778  0.35276397
   0.77777778  0.11111111  0.35276397
   0.77777778  0.44444444  0.35276397
   0.77777778  0.77777778  0.35276397
