  34  34   0   0
  0.1991679E+02  0.5133596E-09  0.5133596E-09  0.2967047E-08  0.5000000E-15
  1.000000000000000E-004
  CAR 
 unknown system                          
     14.83263551     -9.12118322  301      2.16998128      1.00000000
     -9.121  0.0000E+00  0.0000E+00  0.0000E+00  0.0000E+00
     -9.041  0.0000E+00  0.0000E+00  0.0000E+00  0.0000E+00
     -8.961  0.0000E+00  0.0000E+00  0.0000E+00  0.0000E+00
     -8.882  0.0000E+00  0.0000E+00  0.0000E+00  0.0000E+00
     -8.802  0.0000E+00  0.0000E+00  0.0000E+00  0.0000E+00
     -8.722 -0.5923E-30 -0.5923E-30 -0.4729E-31 -0.4729E-31
     -8.642 -0.2855E-27 -0.2855E-27 -0.2285E-28 -0.2285E-28
     -8.562 -0.9993E-25 -0.9993E-25 -0.8002E-26 -0.8002E-26
     -8.482 -0.2534E-22 -0.2534E-22 -0.2031E-23 -0.2031E-23
     -8.403 -0.4654E-20 -0.4654E-20 -0.3737E-21 -0.3737E-21
     -8.323 -0.6187E-18 -0.6187E-18 -0.4978E-19 -0.4978E-19
     -8.243 -0.5765E-16 -0.5765E-16 -0.4653E-17 -0.4653E-17
     -8.163 -0.3983E-14 -0.3983E-14 -0.3227E-15 -0.3227E-15
     -8.083 -0.1984E-12 -0.1984E-12 -0.1616E-13 -0.1616E-13
     -8.003 -0.7106E-11 -0.7106E-11 -0.5835E-12 -0.5835E-12
     -7.923 -0.1824E-09 -0.1824E-09 -0.1515E-10 -0.1515E-10
     -7.844 -0.3344E-08 -0.3344E-08 -0.2821E-09 -0.2821E-09
     -7.764 -0.4344E-07 -0.4344E-07 -0.3751E-08 -0.3751E-08
     -7.684 -0.3958E-06 -0.3958E-06 -0.3535E-07 -0.3535E-07
     -7.604 -0.2482E-05 -0.2482E-05 -0.2335E-06 -0.2335E-06
     -7.524 -0.1030E-04 -0.1030E-04 -0.1056E-05 -0.1056E-05
     -7.444 -0.2560E-04 -0.2560E-04 -0.3100E-05 -0.3100E-05
     -7.365 -0.2288E-04 -0.2288E-04 -0.4927E-05 -0.4927E-05
     -7.285  0.7097E-04  0.7097E-04  0.7401E-06  0.7401E-06
     -7.205  0.2975E-03  0.2975E-03  0.2449E-04  0.2449E-04
     -7.125  0.5222E-03  0.5222E-03  0.6619E-04  0.6619E-04
     -7.045  0.5205E-03  0.5205E-03  0.1077E-03  0.1077E-03
     -6.965  0.3015E-03  0.3015E-03  0.1318E-03  0.1318E-03
     -6.885  0.1519E-03  0.1519E-03  0.1439E-03  0.1439E-03
     -6.806  0.2660E-03  0.2660E-03  0.1652E-03  0.1652E-03
     -6.726  0.4805E-03  0.4805E-03  0.2035E-03  0.2035E-03
     -6.646  0.4689E-03  0.4689E-03  0.2410E-03  0.2410E-03
     -6.566  0.1696E-03  0.1696E-03  0.2545E-03  0.2545E-03
     -6.486 -0.2827E-04 -0.2827E-04  0.2523E-03  0.2523E-03
     -6.406  0.4897E-03  0.4897E-03  0.2914E-03  0.2914E-03
     -6.327  0.1896E-02  0.1896E-02  0.4428E-03  0.4428E-03
     -6.247  0.3259E-02  0.3259E-02  0.7030E-03  0.7030E-03
     -6.167  0.3314E-02  0.3314E-02  0.9675E-03  0.9675E-03
     -6.087  0.2256E-02  0.2256E-02  0.1148E-02  0.1148E-02
     -6.007  0.1678E-02  0.1678E-02  0.1282E-02  0.1282E-02
     -5.927  0.2397E-02  0.2397E-02  0.1473E-02  0.1473E-02
     -5.847  0.3306E-02  0.3306E-02  0.1737E-02  0.1737E-02
     -5.768  0.2934E-02  0.2934E-02  0.1971E-02  0.1971E-02
     -5.688  0.1450E-02  0.1450E-02  0.2087E-02  0.2087E-02
     -5.608  0.1247E-03  0.1247E-03  0.2097E-02  0.2097E-02
     -5.528 -0.3730E-03 -0.3730E-03  0.2067E-02  0.2067E-02
     -5.448  0.2392E-04  0.2392E-04  0.2069E-02  0.2069E-02
     -5.368  0.1413E-02  0.1413E-02  0.2182E-02  0.2182E-02
     -5.289  0.3250E-02  0.3250E-02  0.2441E-02  0.2441E-02
     -5.209  0.4005E-02  0.4005E-02  0.2761E-02  0.2761E-02
     -5.129  0.2897E-02  0.2897E-02  0.2993E-02  0.2993E-02
     -5.049  0.1037E-02  0.1037E-02  0.3075E-02  0.3075E-02
     -4.969 -0.1585E-03 -0.1585E-03  0.3063E-02  0.3063E-02
     -4.889 -0.3506E-03 -0.3506E-03  0.3035E-02  0.3035E-02
     -4.809  0.3507E-03  0.3507E-03  0.3063E-02  0.3063E-02
     -4.730  0.1799E-02  0.1799E-02  0.3206E-02  0.3206E-02
     -4.650  0.3348E-02  0.3348E-02  0.3474E-02  0.3474E-02
     -4.570  0.4381E-02  0.4381E-02  0.3824E-02  0.3824E-02
     -4.490  0.5169E-02  0.5169E-02  0.4236E-02  0.4236E-02
     -4.410  0.5921E-02  0.5921E-02  0.4709E-02  0.4709E-02
     -4.330  0.5802E-02  0.5802E-02  0.5172E-02  0.5172E-02
     -4.251  0.4279E-02  0.4279E-02  0.5514E-02  0.5514E-02
     -4.171  0.2548E-02  0.2548E-02  0.5717E-02  0.5717E-02
     -4.091  0.2177E-02  0.2177E-02  0.5891E-02  0.5891E-02
     -4.011  0.3118E-02  0.3118E-02  0.6140E-02  0.6140E-02
     -3.931  0.4591E-02  0.4591E-02  0.6507E-02  0.6507E-02
     -3.851  0.6575E-02  0.6575E-02  0.7032E-02  0.7032E-02
     -3.771  0.8571E-02  0.8571E-02  0.7716E-02  0.7716E-02
     -3.692  0.9032E-02  0.9032E-02  0.8437E-02  0.8437E-02
     -3.612  0.7767E-02  0.7767E-02  0.9057E-02  0.9057E-02
     -3.532  0.6695E-02  0.6695E-02  0.9592E-02  0.9592E-02
     -3.452  0.6902E-02  0.6902E-02  0.1014E-01  0.1014E-01
     -3.372  0.7167E-02  0.7167E-02  0.1072E-01  0.1072E-01
     -3.292  0.6310E-02  0.6310E-02  0.1122E-01  0.1122E-01
     -3.213  0.4804E-02  0.4804E-02  0.1160E-01  0.1160E-01
     -3.133  0.3713E-02  0.3713E-02  0.1190E-01  0.1190E-01
     -3.053  0.3901E-02  0.3901E-02  0.1221E-01  0.1221E-01
     -2.973  0.5579E-02  0.5579E-02  0.1266E-01  0.1266E-01
     -2.893  0.7814E-02  0.7814E-02  0.1328E-01  0.1328E-01
     -2.813  0.1009E-01  0.1009E-01  0.1409E-01  0.1409E-01
     -2.733  0.1361E-01  0.1361E-01  0.1517E-01  0.1517E-01
     -2.654  0.1923E-01  0.1923E-01  0.1671E-01  0.1671E-01
     -2.574  0.2577E-01  0.2577E-01  0.1876E-01  0.1876E-01
     -2.494  0.3101E-01  0.3101E-01  0.2124E-01  0.2124E-01
     -2.414  0.3266E-01  0.3266E-01  0.2385E-01  0.2385E-01
     -2.334  0.2970E-01  0.2970E-01  0.2622E-01  0.2622E-01
     -2.254  0.2469E-01  0.2469E-01  0.2819E-01  0.2819E-01
     -2.175  0.2252E-01  0.2252E-01  0.2999E-01  0.2999E-01
     -2.095  0.2577E-01  0.2577E-01  0.3205E-01  0.3205E-01
     -2.015  0.3309E-01  0.3309E-01  0.3469E-01  0.3469E-01
     -1.935  0.4116E-01  0.4116E-01  0.3798E-01  0.3798E-01
     -1.855  0.4661E-01  0.4661E-01  0.4170E-01  0.4170E-01
     -1.775  0.4775E-01  0.4775E-01  0.4551E-01  0.4551E-01
     -1.695  0.4524E-01  0.4524E-01  0.4912E-01  0.4912E-01
     -1.616  0.4067E-01  0.4067E-01  0.5237E-01  0.5237E-01
     -1.536  0.3654E-01  0.3654E-01  0.5529E-01  0.5529E-01
     -1.456  0.3525E-01  0.3525E-01  0.5810E-01  0.5810E-01
     -1.376  0.3725E-01  0.3725E-01  0.6108E-01  0.6108E-01
     -1.296  0.4267E-01  0.4267E-01  0.6448E-01  0.6448E-01
     -1.216  0.5113E-01  0.5113E-01  0.6857E-01  0.6857E-01
     -1.137  0.5881E-01  0.5881E-01  0.7326E-01  0.7326E-01
     -1.057  0.6155E-01  0.6155E-01  0.7818E-01  0.7818E-01
     -0.977  0.6210E-01  0.6210E-01  0.8313E-01  0.8313E-01
     -0.897  0.6694E-01  0.6694E-01  0.8848E-01  0.8848E-01
     -0.817  0.7528E-01  0.7528E-01  0.9449E-01  0.9449E-01
     -0.737  0.7995E-01  0.7995E-01  0.1009E+00  0.1009E+00
     -0.658  0.7837E-01  0.7837E-01  0.1071E+00  0.1071E+00
     -0.578  0.7427E-01  0.7427E-01  0.1131E+00  0.1131E+00
     -0.498  0.7101E-01  0.7101E-01  0.1187E+00  0.1187E+00
     -0.418  0.6912E-01  0.6912E-01  0.1243E+00  0.1243E+00
     -0.338  0.6836E-01  0.6836E-01  0.1297E+00  0.1297E+00
     -0.258  0.6782E-01  0.6782E-01  0.1351E+00  0.1351E+00
     -0.178  0.6577E-01  0.6577E-01  0.1404E+00  0.1404E+00
     -0.099  0.6296E-01  0.6296E-01  0.1454E+00  0.1454E+00
     -0.019  0.6159E-01  0.6159E-01  0.1503E+00  0.1503E+00
      0.061  0.6220E-01  0.6220E-01  0.1553E+00  0.1553E+00
      0.141  0.6688E-01  0.6688E-01  0.1606E+00  0.1606E+00
      0.221  0.7751E-01  0.7751E-01  0.1668E+00  0.1668E+00
      0.301  0.8858E-01  0.8858E-01  0.1739E+00  0.1739E+00
      0.380  0.9294E-01  0.9294E-01  0.1813E+00  0.1813E+00
      0.460  0.9251E-01  0.9251E-01  0.1887E+00  0.1887E+00
      0.540  0.9234E-01  0.9234E-01  0.1961E+00  0.1961E+00
      0.620  0.8824E-01  0.8824E-01  0.2031E+00  0.2031E+00
      0.700  0.7118E-01  0.7118E-01  0.2088E+00  0.2088E+00
      0.780  0.4251E-01  0.4251E-01  0.2122E+00  0.2122E+00
      0.860  0.1545E-01  0.1545E-01  0.2134E+00  0.2134E+00
      0.939  0.9081E-03  0.9081E-03  0.2135E+00  0.2135E+00
      1.019 -0.1611E-02 -0.1611E-02  0.2134E+00  0.2134E+00
      1.099  0.8936E-03  0.8936E-03  0.2134E+00  0.2134E+00
      1.179  0.3119E-02  0.3119E-02  0.2137E+00  0.2137E+00
      1.259  0.4091E-02  0.4091E-02  0.2140E+00  0.2140E+00
      1.339  0.4948E-02  0.4948E-02  0.2144E+00  0.2144E+00
      1.418  0.6026E-02  0.6026E-02  0.2149E+00  0.2149E+00
      1.498  0.6239E-02  0.6239E-02  0.2154E+00  0.2154E+00
      1.578  0.4705E-02  0.4705E-02  0.2158E+00  0.2158E+00
      1.658  0.2622E-02  0.2622E-02  0.2160E+00  0.2160E+00
      1.738  0.2736E-02  0.2736E-02  0.2162E+00  0.2162E+00
      1.818  0.6333E-02  0.6333E-02  0.2167E+00  0.2167E+00
      1.898  0.1141E-01  0.1141E-01  0.2176E+00  0.2176E+00
      1.977  0.1447E-01  0.1447E-01  0.2188E+00  0.2188E+00
      2.057  0.1408E-01  0.1408E-01  0.2199E+00  0.2199E+00
      2.137  0.1227E-01  0.1227E-01  0.2209E+00  0.2209E+00
      2.217  0.1131E-01  0.1131E-01  0.2218E+00  0.2218E+00
      2.297  0.1010E-01  0.1010E-01  0.2226E+00  0.2226E+00
      2.377  0.6828E-02  0.6828E-02  0.2231E+00  0.2231E+00
      2.456  0.3304E-02  0.3304E-02  0.2234E+00  0.2234E+00
      2.536  0.2626E-02  0.2626E-02  0.2236E+00  0.2236E+00
      2.616  0.4807E-02  0.4807E-02  0.2240E+00  0.2240E+00
      2.696  0.7464E-02  0.7464E-02  0.2246E+00  0.2246E+00
      2.776  0.8567E-02  0.8567E-02  0.2253E+00  0.2253E+00
      2.856  0.7505E-02  0.7505E-02  0.2259E+00  0.2259E+00
      2.936  0.5588E-02  0.5588E-02  0.2263E+00  0.2263E+00
      3.015  0.4737E-02  0.4737E-02  0.2267E+00  0.2267E+00
      3.095  0.4675E-02  0.4675E-02  0.2271E+00  0.2271E+00
      3.175  0.3907E-02  0.3907E-02  0.2274E+00  0.2274E+00
      3.255  0.2876E-02  0.2876E-02  0.2276E+00  0.2276E+00
      3.335  0.3236E-02  0.3236E-02  0.2279E+00  0.2279E+00
      3.415  0.5425E-02  0.5425E-02  0.2283E+00  0.2283E+00
      3.494  0.8633E-02  0.8633E-02  0.2290E+00  0.2290E+00
      3.574  0.1156E-01  0.1156E-01  0.2299E+00  0.2299E+00
      3.654  0.1259E-01  0.1259E-01  0.2309E+00  0.2309E+00
      3.734  0.1080E-01  0.1080E-01  0.2318E+00  0.2318E+00
      3.814  0.7341E-02  0.7341E-02  0.2324E+00  0.2324E+00
      3.894  0.4598E-02  0.4598E-02  0.2327E+00  0.2327E+00
      3.974  0.3473E-02  0.3473E-02  0.2330E+00  0.2330E+00
      4.053  0.2722E-02  0.2722E-02  0.2332E+00  0.2332E+00
      4.133  0.1439E-02  0.1439E-02  0.2333E+00  0.2333E+00
      4.213  0.1814E-03  0.1814E-03  0.2334E+00  0.2334E+00
      4.293 -0.4746E-03 -0.4746E-03  0.2333E+00  0.2333E+00
      4.373 -0.4486E-03 -0.4486E-03  0.2333E+00  0.2333E+00
      4.453  0.7230E-03  0.7230E-03  0.2333E+00  0.2333E+00
      4.532  0.3421E-02  0.3421E-02  0.2336E+00  0.2336E+00
      4.612  0.6277E-02  0.6277E-02  0.2341E+00  0.2341E+00
      4.692  0.7086E-02  0.7086E-02  0.2347E+00  0.2347E+00
      4.772  0.5849E-02  0.5849E-02  0.2351E+00  0.2351E+00
      4.852  0.4278E-02  0.4278E-02  0.2355E+00  0.2355E+00
      4.932  0.2909E-02  0.2909E-02  0.2357E+00  0.2357E+00
      5.012  0.1396E-02  0.1396E-02  0.2358E+00  0.2358E+00
      5.091  0.6813E-04  0.6813E-04  0.2358E+00  0.2358E+00
      5.171 -0.4711E-03 -0.4711E-03  0.2358E+00  0.2358E+00
      5.251  0.2094E-03  0.2094E-03  0.2358E+00  0.2358E+00
      5.331  0.2393E-02  0.2393E-02  0.2360E+00  0.2360E+00
      5.411  0.5384E-02  0.5384E-02  0.2364E+00  0.2364E+00
      5.491  0.7505E-02  0.7505E-02  0.2370E+00  0.2370E+00
      5.570  0.8203E-02  0.8203E-02  0.2377E+00  0.2377E+00
      5.650  0.8676E-02  0.8676E-02  0.2384E+00  0.2384E+00
      5.730  0.9299E-02  0.9299E-02  0.2391E+00  0.2391E+00
      5.810  0.8903E-02  0.8903E-02  0.2398E+00  0.2398E+00
      5.890  0.7224E-02  0.7224E-02  0.2404E+00  0.2404E+00
      5.970  0.5247E-02  0.5247E-02  0.2408E+00  0.2408E+00
      6.050  0.3507E-02  0.3507E-02  0.2411E+00  0.2411E+00
      6.129  0.2216E-02  0.2216E-02  0.2413E+00  0.2413E+00
      6.209  0.2301E-02  0.2301E-02  0.2415E+00  0.2415E+00
      6.289  0.4754E-02  0.4754E-02  0.2419E+00  0.2419E+00
      6.369  0.8384E-02  0.8384E-02  0.2425E+00  0.2425E+00
      6.449  0.9980E-02  0.9980E-02  0.2433E+00  0.2433E+00
      6.529  0.8427E-02  0.8427E-02  0.2440E+00  0.2440E+00
      6.608  0.6000E-02  0.6000E-02  0.2445E+00  0.2445E+00
      6.688  0.4561E-02  0.4561E-02  0.2448E+00  0.2448E+00
      6.768  0.4164E-02  0.4164E-02  0.2452E+00  0.2452E+00
      6.848  0.4898E-02  0.4898E-02  0.2456E+00  0.2456E+00
      6.928  0.6383E-02  0.6383E-02  0.2461E+00  0.2461E+00
      7.008  0.7312E-02  0.7312E-02  0.2467E+00  0.2467E+00
      7.088  0.7771E-02  0.7771E-02  0.2473E+00  0.2473E+00
      7.167  0.8875E-02  0.8875E-02  0.2480E+00  0.2480E+00
      7.247  0.1019E-01  0.1019E-01  0.2488E+00  0.2488E+00
      7.327  0.1072E-01  0.1072E-01  0.2496E+00  0.2496E+00
      7.407  0.1034E-01  0.1034E-01  0.2505E+00  0.2505E+00
      7.487  0.8601E-02  0.8601E-02  0.2512E+00  0.2512E+00
      7.567  0.5493E-02  0.5493E-02  0.2516E+00  0.2516E+00
      7.646  0.3017E-02  0.3017E-02  0.2518E+00  0.2518E+00
      7.726  0.3146E-02  0.3146E-02  0.2521E+00  0.2521E+00
      7.806  0.5579E-02  0.5579E-02  0.2525E+00  0.2525E+00
      7.886  0.8628E-02  0.8628E-02  0.2532E+00  0.2532E+00
      7.966  0.1082E-01  0.1082E-01  0.2541E+00  0.2541E+00
      8.046  0.1108E-01  0.1108E-01  0.2550E+00  0.2550E+00
      8.126  0.9031E-02  0.9031E-02  0.2557E+00  0.2557E+00
      8.205  0.6121E-02  0.6121E-02  0.2562E+00  0.2562E+00
      8.285  0.4568E-02  0.4568E-02  0.2565E+00  0.2565E+00
      8.365  0.5066E-02  0.5066E-02  0.2570E+00  0.2570E+00
      8.445  0.7274E-02  0.7274E-02  0.2575E+00  0.2575E+00
      8.525  0.1053E-01  0.1053E-01  0.2584E+00  0.2584E+00
      8.605  0.1270E-01  0.1270E-01  0.2594E+00  0.2594E+00
      8.684  0.1148E-01  0.1148E-01  0.2603E+00  0.2603E+00
      8.764  0.7556E-02  0.7556E-02  0.2609E+00  0.2609E+00
      8.844  0.4075E-02  0.4075E-02  0.2612E+00  0.2612E+00
      8.924  0.3036E-02  0.3036E-02  0.2615E+00  0.2615E+00
      9.004  0.3933E-02  0.3934E-02  0.2618E+00  0.2618E+00
      9.084  0.5291E-02  0.5291E-02  0.2622E+00  0.2622E+00
      9.164  0.6507E-02  0.6507E-02  0.2627E+00  0.2627E+00
      9.243  0.8139E-02  0.8139E-02  0.2634E+00  0.2634E+00
      9.323  0.1038E-01  0.1038E-01  0.2642E+00  0.2642E+00
      9.403  0.1174E-01  0.1174E-01  0.2652E+00  0.2652E+00
      9.483  0.1048E-01  0.1048E-01  0.2660E+00  0.2660E+00
      9.563  0.7189E-02  0.7189E-02  0.2666E+00  0.2666E+00
      9.643  0.4578E-02  0.4578E-02  0.2669E+00  0.2669E+00
      9.722  0.4326E-02  0.4326E-02  0.2673E+00  0.2673E+00
      9.802  0.5445E-02  0.5445E-02  0.2677E+00  0.2677E+00
      9.882  0.6386E-02  0.6386E-02  0.2682E+00  0.2682E+00
      9.962  0.7671E-02  0.7671E-02  0.2688E+00  0.2688E+00
     10.042  0.1022E-01  0.1022E-01  0.2696E+00  0.2696E+00
     10.122  0.1212E-01  0.1212E-01  0.2706E+00  0.2706E+00
     10.202  0.1084E-01  0.1084E-01  0.2715E+00  0.2715E+00
     10.281  0.7584E-02  0.7584E-02  0.2721E+00  0.2721E+00
     10.361  0.5553E-02  0.5553E-02  0.2725E+00  0.2725E+00
     10.441  0.5752E-02  0.5752E-02  0.2730E+00  0.2730E+00
     10.521  0.7228E-02  0.7228E-02  0.2736E+00  0.2736E+00
     10.601  0.8922E-02  0.8922E-02  0.2743E+00  0.2743E+00
     10.681  0.9679E-02  0.9679E-02  0.2750E+00  0.2750E+00
     10.760  0.9159E-02  0.9159E-02  0.2758E+00  0.2758E+00
     10.840  0.9378E-02  0.9378E-02  0.2765E+00  0.2765E+00
     10.920  0.1173E-01  0.1173E-01  0.2775E+00  0.2775E+00
     11.000  0.1362E-01  0.1362E-01  0.2786E+00  0.2786E+00
     11.080  0.1233E-01  0.1233E-01  0.2795E+00  0.2795E+00
     11.160  0.9901E-02  0.9901E-02  0.2803E+00  0.2803E+00
     11.240  0.1039E-01  0.1039E-01  0.2812E+00  0.2812E+00
     11.319  0.1398E-01  0.1398E-01  0.2823E+00  0.2823E+00
     11.399  0.1604E-01  0.1604E-01  0.2836E+00  0.2836E+00
     11.479  0.1302E-01  0.1302E-01  0.2846E+00  0.2846E+00
     11.559  0.7304E-02  0.7304E-02  0.2852E+00  0.2852E+00
     11.639  0.3984E-02  0.3984E-02  0.2855E+00  0.2855E+00
     11.719  0.4794E-02  0.4794E-02  0.2859E+00  0.2859E+00
     11.798  0.7575E-02  0.7575E-02  0.2865E+00  0.2865E+00
     11.878  0.9299E-02  0.9299E-02  0.2872E+00  0.2872E+00
     11.958  0.8258E-02  0.8258E-02  0.2879E+00  0.2879E+00
     12.038  0.5189E-02  0.5189E-02  0.2883E+00  0.2883E+00
     12.118  0.2331E-02  0.2331E-02  0.2885E+00  0.2885E+00
     12.198  0.8479E-03  0.8479E-03  0.2886E+00  0.2886E+00
     12.278  0.4513E-03  0.4513E-03  0.2886E+00  0.2886E+00
     12.357  0.9732E-03  0.9731E-03  0.2887E+00  0.2887E+00
     12.437  0.2274E-02  0.2274E-02  0.2888E+00  0.2888E+00
     12.517  0.3218E-02  0.3218E-02  0.2891E+00  0.2891E+00
     12.597  0.2779E-02  0.2779E-02  0.2893E+00  0.2893E+00
     12.677  0.1735E-02  0.1735E-02  0.2895E+00  0.2895E+00
     12.757  0.1525E-02  0.1525E-02  0.2896E+00  0.2896E+00
     12.836  0.2021E-02  0.2021E-02  0.2897E+00  0.2897E+00
     12.916  0.1989E-02  0.1989E-02  0.2899E+00  0.2899E+00
     12.996  0.1136E-02  0.1136E-02  0.2900E+00  0.2900E+00
     13.076  0.2645E-03  0.2644E-03  0.2900E+00  0.2900E+00
     13.156 -0.9496E-04 -0.9498E-04  0.2900E+00  0.2900E+00
     13.236 -0.1015E-03 -0.1015E-03  0.2900E+00  0.2900E+00
     13.316 -0.4039E-04 -0.4039E-04  0.2900E+00  0.2900E+00
     13.395 -0.9657E-05 -0.9655E-05  0.2900E+00  0.2900E+00
     13.475 -0.1530E-05 -0.1530E-05  0.2900E+00  0.2900E+00
     13.555 -0.1670E-06 -0.1669E-06  0.2900E+00  0.2900E+00
     13.635 -0.1278E-07 -0.1277E-07  0.2900E+00  0.2900E+00
     13.715 -0.6934E-09 -0.6931E-09  0.2900E+00  0.2900E+00
     13.795 -0.2686E-10 -0.2685E-10  0.2900E+00  0.2900E+00
     13.874 -0.7460E-12 -0.7455E-12  0.2900E+00  0.2900E+00
     13.954 -0.1490E-13 -0.1489E-13  0.2900E+00  0.2900E+00
     14.034 -0.2147E-15 -0.2140E-15  0.2900E+00  0.2900E+00
     14.114 -0.2317E-17 -0.2317E-17  0.2900E+00  0.2900E+00
     14.194  0.0000E+00  0.0000E+00  0.2900E+00  0.2900E+00
     14.274  0.0000E+00  0.0000E+00  0.2900E+00  0.2900E+00
     14.354  0.0000E+00  0.0000E+00  0.2900E+00  0.2900E+00
     14.433  0.0000E+00  0.0000E+00  0.2900E+00  0.2900E+00
     14.513  0.0000E+00  0.0000E+00  0.2900E+00  0.2900E+00
     14.593  0.0000E+00  0.0000E+00  0.2900E+00  0.2900E+00
     14.673  0.0000E+00  0.0000E+00  0.2900E+00  0.2900E+00
     14.753  0.0000E+00  0.0000E+00  0.2900E+00  0.2900E+00
     14.833  0.0000E+00  0.0000E+00  0.2900E+00  0.2900E+00
