   34   34  800    2
  0.1991679E+02  0.5133595E-09  0.5133595E-09  0.2967047E-08  0.5000000E-15
  1.000000000000000E-004
  CAR 
 unknown system                          
    354      3    232
 
  0.0000000E+00  0.0000000E+00  0.0000000E+00  0.1111111E+00
      1         -7.121183       -7.121183   1.000000   1.000000
      2         -6.718468       -6.718468   1.000000   1.000000
      3         -6.084909       -6.084909   1.000000   1.000000
      4         -5.247060       -5.247060   1.000000   1.000000
      5         -4.339745       -4.339745   1.000000   1.000000
      6         -3.669420       -3.669420   1.000000   1.000000
      7         -3.403009       -3.403009   1.000000   1.000000
      8         -3.014590       -3.014590   1.000000   1.000000
      9         -2.895735       -2.895735   1.000000   1.000000
     10         -2.895173       -2.895173   1.000000   1.000000
     11         -2.895163       -2.895163   1.000000   1.000000
     12         -2.888093       -2.888093   1.000000   1.000000
     13         -2.707856       -2.707856   1.000000   1.000000
     14         -2.707787       -2.707787   1.000000   1.000000
     15         -2.707781       -2.707781   1.000000   1.000000
     16         -2.686222       -2.686222   1.000000   1.000000
     17         -2.686167       -2.686167   1.000000   1.000000
     18         -2.686160       -2.686160   1.000000   1.000000
     19         -2.566069       -2.566069   1.000000   1.000000
     20         -2.566065       -2.566065   1.000000   1.000000
     21         -2.565993       -2.565993   1.000000   1.000000
     22         -2.427523       -2.427523   1.000000   1.000000
     23         -2.427514       -2.427514   1.000000   1.000000
     24         -2.427277       -2.427277   1.000000   1.000000
     25         -2.381311       -2.381311   1.000000   1.000000
     26         -2.380643       -2.380643   1.000000   1.000000
     27         -2.380638       -2.380638   1.000000   1.000000
     28         -2.237876       -2.237876   1.000000   1.000000
     29         -2.237579       -2.237579   1.000000   1.000000
     30         -2.237578       -2.237578   1.000000   1.000000
     31         -2.117577       -2.117577   1.000000   1.000000
     32         -2.116953       -2.116953   1.000000   1.000000
     33         -2.116952       -2.116952   1.000000   1.000000
     34         -2.110817       -2.110817   1.000000   1.000000
     35         -2.110526       -2.110526   1.000000   1.000000
     36         -2.110519       -2.110519   1.000000   1.000000
     37         -2.099860       -2.099860   1.000000   1.000000
     38         -2.099732       -2.099732   1.000000   1.000000
     39         -2.099727       -2.099727   1.000000   1.000000
     40         -1.927695       -1.927695   1.000000   1.000000
     41         -1.927692       -1.927692   1.000000   1.000000
     42         -1.927690       -1.927690   1.000000   1.000000
     43         -1.682102       -1.682102   1.000000   1.000000
     44         -1.681525       -1.681525   1.000000   1.000000
     45         -1.681522       -1.681522   1.000000   1.000000
     46         -1.369280       -1.369280   1.000000   1.000000
     47         -1.368642       -1.368642   1.000000   1.000000
     48         -1.368639       -1.368639   1.000000   1.000000
     49         -1.068111       -1.068111   1.000000   1.000000
     50         -1.068087       -1.068087   1.000000   1.000000
     51         -1.068085       -1.068085   1.000000   1.000000
     52         -0.965110       -0.965110   1.000000   1.000000
     53         -0.949693       -0.949693   1.000000   1.000000
     54         -0.928694       -0.928694   1.000000   1.000000
     55         -0.928068       -0.928068   1.000000   1.000000
     56         -0.928067       -0.928067   1.000000   1.000000
     57         -0.875872       -0.875872   1.000000   1.000000
     58         -0.875870       -0.875870   1.000000   1.000000
     59         -0.874727       -0.874727   1.000000   1.000000
     60         -0.874724       -0.874724   1.000000   1.000000
     61         -0.874518       -0.874518   1.000000   1.000000
     62         -0.871621       -0.871621   1.000000   1.000000
     63         -0.871618       -0.871618   1.000000   1.000000
     64         -0.812393       -0.812393   1.000000   1.000000
     65         -0.800538       -0.800538   1.000000   1.000000
     66         -0.799068       -0.799068   1.000000   1.000000
     67         -0.799065       -0.799065   1.000000   1.000000
     68         -0.781040       -0.781040   1.000000   1.000000
     69         -0.781036       -0.781036   1.000000   1.000000
     70         -0.780469       -0.780469   1.000000   1.000000
     71         -0.778380       -0.778380   1.000000   1.000000
     72         -0.778376       -0.778376   1.000000   1.000000
     73         -0.777403       -0.777403   1.000000   1.000000
     74         -0.776251       -0.776251   1.000000   1.000000
     75         -0.776250       -0.776250   1.000000   1.000000
     76         -0.775701       -0.775701   1.000000   1.000000
     77         -0.772886       -0.772886   1.000000   1.000000
     78         -0.772884       -0.772884   1.000000   1.000000
     79         -0.729581       -0.729581   1.000000   1.000000
     80         -0.729577       -0.729577   1.000000   1.000000
     81         -0.726254       -0.726254   1.000000   1.000000
     82         -0.689496       -0.689496   1.000000   1.000000
     83         -0.689492       -0.689492   1.000000   1.000000
     84         -0.679159       -0.679159   1.000000   1.000000
     85         -0.679154       -0.679154   1.000000   1.000000
     86         -0.679083       -0.679083   1.000000   1.000000
     87         -0.598194       -0.598194   1.000000   1.000000
     88         -0.598190       -0.598190   1.000000   1.000000
     89         -0.582157       -0.582157   1.000000   1.000000
     90         -0.582152       -0.582152   1.000000   1.000000
     91         -0.542280       -0.542280   1.000000   1.000000
     92         -0.540599       -0.540599   1.000000   1.000000
     93         -0.540598       -0.540598   1.000000   1.000000
     94         -0.457413       -0.457413   1.000000   1.000000
     95         -0.457410       -0.457410   1.000000   1.000000
     96         -0.454596       -0.454596   1.000000   1.000000
     97         -0.452225       -0.452225   1.000000   1.000000
     98         -0.249931       -0.249931   1.000000   1.000000
     99         -0.248832       -0.248832   1.000000   1.000000
    100         -0.248830       -0.248830   1.000000   1.000000
    101         -0.197693       -0.197693   1.000000   1.000000
    102         -0.197690       -0.197690   1.000000   1.000000
    103         -0.197140       -0.197140   1.000000   1.000000
    104         -0.021466       -0.021466   1.000000   1.000000
    105         -0.021466       -0.021466   1.000000   1.000000
    106         -0.013198       -0.013198   1.000000   1.000000
    107         -0.013196       -0.013196   1.000000   1.000000
    108          0.022523        0.022523   1.000000   1.000000
    109          0.022526        0.022526   1.000000   1.000000
    110          0.022928        0.022928   1.000000   1.000000
    111          0.022929        0.022929   1.000000   1.000000
    112          0.027117        0.027117   1.000000   1.000000
    113          0.032968        0.032968   1.000000   1.000000
    114          0.035311        0.035311   1.000000   1.000000
    115          0.035312        0.035312   1.000000   1.000000
    116          0.086575        0.086575   1.000000   1.000000
    117          0.086576        0.086576   1.000000   1.000000
    118          0.239076        0.239076   1.000000   1.000000
    119          0.239077        0.239077   1.000000   1.000000
    120          0.285347        0.285347   1.000000   1.000000
    121          0.286700        0.286700   1.000000   1.000000
    122          0.286701        0.286701   1.000000   1.000000
    123          0.317719        0.317719   1.000000   1.000000
    124          0.317721        0.317721   1.000000   1.000000
    125          0.318334        0.318334   1.000000   1.000000
    126          0.385968        0.385968   1.000000   1.000000
    127          0.391449        0.391449   1.000000   1.000000
    128          0.391450        0.391450   1.000000   1.000000
    129          0.480214        0.480214   1.000000   1.000000
    130          0.481754        0.481754   1.000000   1.000000
    131          0.481755        0.481755   1.000000   1.000000
    132          0.501418        0.501418   1.000000   1.000000
    133          0.501420        0.501420   1.000000   1.000000
    134          0.504551        0.504551   1.000000   1.000000
    135          0.526991        0.526991   1.000000   1.000000
    136          0.526991        0.526991   1.000000   1.000000
    137          0.548759        0.548759   1.000000   1.000000
    138          0.549403        0.549403   1.000000   1.000000
    139          0.549411        0.549411   1.000000   1.000000
    140          0.552982        0.552982   1.000000   1.000000
    141          0.554051        0.554051   1.000000   1.000000
    142          0.554057        0.554057   1.000000   1.000000
    143          0.580514        0.580514   1.000000   1.000000
    144          0.581069        0.581069   1.000000   1.000000
    145          0.581077        0.581077   1.000000   1.000000
    146          0.587237        0.587237   1.000000   1.000000
    147          0.589057        0.589057   1.000000   1.000000
    148          0.589064        0.589064   1.000000   1.000000
    149          0.606555        0.606555   1.000000   1.000000
    150          0.606950        0.606950   1.000000   1.000000
    151          0.606951        0.606951   1.000000   1.000000
    152          0.607327        0.607327   1.000000   1.000000
    153          0.607335        0.607335   1.000000   1.000000
    154          0.652172        0.652172   1.000000   1.000000
    155          0.652178        0.652178   1.000000   1.000000
    156          0.653815        0.653815   1.000000   1.000000
    157          0.661594        0.661594   1.000000   1.000000
    158          0.663358        0.663358   1.000000   1.000000
    159          0.663366        0.663366   1.000000   1.000000
    160          0.682427        0.682427   1.000000   1.000000
    161          0.684936        0.684936   1.000000   1.000000
    162          0.684945        0.684945   1.000000   1.000000
    163          0.706347        0.706347   1.000000   1.000000
    164          0.707510        0.707510   1.000000   1.000000
    165          0.707518        0.707518   1.000000   1.000000
    166          0.741479        0.741479   1.000000   1.000000
    167          0.742652        0.742652   1.000000   1.000000
    168          0.742658        0.742658   1.000000   1.000000
    169          1.483546        1.483546   1.000007   1.000007
    170          1.483564        1.483564   1.000007   1.000007
    171          1.484092        1.484092   1.000007   1.000007
    172          1.642483        1.642483   1.000613   1.000613
    173          1.983274        1.983274   1.016784   1.016784
    174          2.111962        2.111962   0.734422   0.734422
    175          2.111963        2.111963   0.734417   0.734417
    176          2.111983        2.111983   0.734342   0.734342
    177          2.649312        2.649312  -0.001815  -0.001815
    178          2.651279        2.651279  -0.001741  -0.001741
    179          2.651290        2.651290  -0.001740  -0.001740
    180          3.037352        3.037352  -0.000000  -0.000000
    181          3.039940        3.039940  -0.000000  -0.000000
    182          3.039947        3.039947  -0.000000  -0.000000
    183          3.296879        3.296879  -0.000000  -0.000000
    184          3.300291        3.300291  -0.000000  -0.000000
    185          3.300298        3.300298  -0.000000  -0.000000
    186          3.490550        3.490550  -0.000000  -0.000000
    187          3.493922        3.493922  -0.000000  -0.000000
    188          3.493930        3.493930  -0.000000  -0.000000
    189          3.650648        3.650648  -0.000000  -0.000000
    190          3.654462        3.654462  -0.000000  -0.000000
    191          3.654475        3.654475  -0.000000  -0.000000
    192          3.735455        3.735455  -0.000000  -0.000000
    193          3.738061        3.738061  -0.000000  -0.000000
    194          3.738078        3.738078  -0.000000  -0.000000
    195          6.112238        6.112238  -0.000000  -0.000000
    196          6.125992        6.125992  -0.000000  -0.000000
    197          6.126010        6.126010  -0.000000  -0.000000
    198          6.336260        6.336257  -0.000000  -0.000000
    199          6.529744        6.529744  -0.000000  -0.000000
    200          6.546058        6.546058  -0.000000  -0.000000
    201          6.546073        6.546073  -0.000000  -0.000000
    202          6.658005        6.658004  -0.000000  -0.000000
    203          7.091531        7.091531  -0.000000  -0.000000
    204          7.091543        7.091543  -0.000000  -0.000000
    205          7.123693        7.123692  -0.000000  -0.000000
    206          7.374985        7.374985  -0.000000  -0.000000
    207          7.669780        7.669780   0.000000   0.000000
    208          7.669792        7.669792   0.000000   0.000000
    209          7.680458        7.680456   0.000000   0.000000
    210          7.920249        7.920247   0.000000   0.000000
    211          8.405614        8.405614   0.000000   0.000000
    212          8.405622        8.405622   0.000000   0.000000
    213          8.477302        8.477302   0.000000   0.000000
    214          8.829689        8.829687   0.000000   0.000000
    215          9.341188        9.341186   0.000000   0.000000
    216          9.387342        9.387342   0.000000   0.000000
    217          9.387348        9.387348   0.000000   0.000000
    218          9.459854        9.459854   0.000000   0.000000
    219         10.084342       10.084342   0.000000   0.000000
    220         10.084355       10.084355   0.000000   0.000000
    221         10.118066       10.118066   0.000000   0.000000
    222         10.505534       10.505534   0.000000   0.000000
    223         10.653466       10.653466   0.000000   0.000000
    224         10.653469       10.653469   0.000000   0.000000
    225         10.850968       10.850968   0.000000   0.000000
    226         11.203222       11.203222   0.000000   0.000000
    227         11.203223       11.203223   0.000000   0.000000
    228         11.341855       11.341854   0.000000   0.000000
    229         11.468399       11.468398   0.000000   0.000000
    230         11.815467       11.815467   0.000000   0.000000
    231         11.815474       11.815474   0.000000   0.000000
    232         11.983259       11.983258   0.000000   0.000000
 
  0.3333333E+00  0.5551115E-16  0.0000000E+00  0.6666667E+00
      1         -6.251244       -6.251244   1.000000   1.000000
      2         -5.864369       -5.864369   1.000000   1.000000
      3         -5.258626       -5.258626   1.000000   1.000000
      4         -4.466776       -4.466776   1.000000   1.000000
      5         -4.028172       -4.028172   1.000000   1.000000
      6         -3.764923       -3.764923   1.000000   1.000000
      7         -3.689911       -3.689911   1.000000   1.000000
      8         -3.471171       -3.471171   1.000000   1.000000
      9         -3.377044       -3.377044   1.000000   1.000000
     10         -2.965925       -2.965925   1.000000   1.000000
     11         -2.849625       -2.849625   1.000000   1.000000
     12         -2.698676       -2.698676   1.000000   1.000000
     13         -2.698400       -2.698400   1.000000   1.000000
     14         -2.595465       -2.595465   1.000000   1.000000
     15         -2.544622       -2.544622   1.000000   1.000000
     16         -2.544276       -2.544276   1.000000   1.000000
     17         -2.480479       -2.480479   1.000000   1.000000
     18         -2.449592       -2.449592   1.000000   1.000000
     19         -2.449536       -2.449536   1.000000   1.000000
     20         -2.404696       -2.404696   1.000000   1.000000
     21         -2.394047       -2.394047   1.000000   1.000000
     22         -2.393883       -2.393883   1.000000   1.000000
     23         -2.281204       -2.281204   1.000000   1.000000
     24         -2.276740       -2.276740   1.000000   1.000000
     25         -2.276564       -2.276564   1.000000   1.000000
     26         -2.110686       -2.110686   1.000000   1.000000
     27         -2.110558       -2.110558   1.000000   1.000000
     28         -2.009240       -2.009240   1.000000   1.000000
     29         -2.008280       -2.008280   1.000000   1.000000
     30         -2.008249       -2.008249   1.000000   1.000000
     31         -2.003382       -2.003382   1.000000   1.000000
     32         -1.902373       -1.902373   1.000000   1.000000
     33         -1.902331       -1.902331   1.000000   1.000000
     34         -1.879005       -1.879005   1.000000   1.000000
     35         -1.878826       -1.878826   1.000000   1.000000
     36         -1.875657       -1.875657   1.000000   1.000000
     37         -1.848211       -1.848211   1.000000   1.000000
     38         -1.715529       -1.715529   1.000000   1.000000
     39         -1.715470       -1.715470   1.000000   1.000000
     40         -1.689590       -1.689590   1.000000   1.000000
     41         -1.683571       -1.683571   1.000000   1.000000
     42         -1.683151       -1.683151   1.000000   1.000000
     43         -1.518790       -1.518790   1.000000   1.000000
     44         -1.517841       -1.517841   1.000000   1.000000
     45         -1.512368       -1.512368   1.000000   1.000000
     46         -1.449473       -1.449473   1.000000   1.000000
     47         -1.448650       -1.448650   1.000000   1.000000
     48         -1.400454       -1.400454   1.000000   1.000000
     49         -1.330017       -1.330017   1.000000   1.000000
     50         -1.293743       -1.293743   1.000000   1.000000
     51         -1.293707       -1.293707   1.000000   1.000000
     52         -1.273197       -1.273197   1.000000   1.000000
     53         -1.243426       -1.243426   1.000000   1.000000
     54         -1.185023       -1.185023   1.000000   1.000000
     55         -1.183426       -1.183426   1.000000   1.000000
     56         -1.182387       -1.182387   1.000000   1.000000
     57         -1.155394       -1.155394   1.000000   1.000000
     58         -1.154275       -1.154275   1.000000   1.000000
     59         -1.118226       -1.118226   1.000000   1.000000
     60         -1.116138       -1.116138   1.000000   1.000000
     61         -1.097629       -1.097629   1.000000   1.000000
     62         -1.096963       -1.096963   1.000000   1.000000
     63         -1.089143       -1.089143   1.000000   1.000000
     64         -1.084848       -1.084848   1.000000   1.000000
     65         -1.033724       -1.033724   1.000000   1.000000
     66         -0.989234       -0.989234   1.000000   1.000000
     67         -0.988964       -0.988964   1.000000   1.000000
     68         -0.923344       -0.923344   1.000000   1.000000
     69         -0.885176       -0.885176   1.000000   1.000000
     70         -0.872837       -0.872837   1.000000   1.000000
     71         -0.852143       -0.852143   1.000000   1.000000
     72         -0.852011       -0.852011   1.000000   1.000000
     73         -0.835401       -0.835401   1.000000   1.000000
     74         -0.824793       -0.824793   1.000000   1.000000
     75         -0.806561       -0.806561   1.000000   1.000000
     76         -0.805601       -0.805601   1.000000   1.000000
     77         -0.768174       -0.768174   1.000000   1.000000
     78         -0.759086       -0.759086   1.000000   1.000000
     79         -0.716045       -0.716045   1.000000   1.000000
     80         -0.693310       -0.693310   1.000000   1.000000
     81         -0.689888       -0.689888   1.000000   1.000000
     82         -0.688652       -0.688652   1.000000   1.000000
     83         -0.661348       -0.661348   1.000000   1.000000
     84         -0.660758       -0.660758   1.000000   1.000000
     85         -0.657476       -0.657476   1.000000   1.000000
     86         -0.639953       -0.639953   1.000000   1.000000
     87         -0.638144       -0.638144   1.000000   1.000000
     88         -0.588995       -0.588995   1.000000   1.000000
     89         -0.588804       -0.588804   1.000000   1.000000
     90         -0.585728       -0.585728   1.000000   1.000000
     91         -0.583382       -0.583382   1.000000   1.000000
     92         -0.562799       -0.562799   1.000000   1.000000
     93         -0.520588       -0.520588   1.000000   1.000000
     94         -0.485027       -0.485027   1.000000   1.000000
     95         -0.476544       -0.476544   1.000000   1.000000
     96         -0.467541       -0.467541   1.000000   1.000000
     97         -0.467271       -0.467271   1.000000   1.000000
     98         -0.465987       -0.465987   1.000000   1.000000
     99         -0.459358       -0.459358   1.000000   1.000000
    100         -0.449594       -0.449594   1.000000   1.000000
    101         -0.438711       -0.438711   1.000000   1.000000
    102         -0.438395       -0.438395   1.000000   1.000000
    103         -0.360352       -0.360352   1.000000   1.000000
    104         -0.346366       -0.346366   1.000000   1.000000
    105         -0.345957       -0.345957   1.000000   1.000000
    106         -0.313820       -0.313820   1.000000   1.000000
    107         -0.288638       -0.288638   1.000000   1.000000
    108         -0.275121       -0.275121   1.000000   1.000000
    109         -0.265332       -0.265332   1.000000   1.000000
    110         -0.263000       -0.263000   1.000000   1.000000
    111         -0.253005       -0.253005   1.000000   1.000000
    112         -0.251892       -0.251892   1.000000   1.000000
    113         -0.246274       -0.246274   1.000000   1.000000
    114         -0.196116       -0.196116   1.000000   1.000000
    115         -0.180468       -0.180468   1.000000   1.000000
    116         -0.168108       -0.168108   1.000000   1.000000
    117         -0.126150       -0.126150   1.000000   1.000000
    118         -0.124132       -0.124132   1.000000   1.000000
    119         -0.080717       -0.080717   1.000000   1.000000
    120         -0.056401       -0.056401   1.000000   1.000000
    121         -0.049256       -0.049256   1.000000   1.000000
    122         -0.012642       -0.012642   1.000000   1.000000
    123          0.022239        0.022239   1.000000   1.000000
    124          0.024012        0.024012   1.000000   1.000000
    125          0.031264        0.031264   1.000000   1.000000
    126          0.077912        0.077912   1.000000   1.000000
    127          0.101675        0.101675   1.000000   1.000000
    128          0.155126        0.155126   1.000000   1.000000
    129          0.155908        0.155908   1.000000   1.000000
    130          0.163835        0.163835   1.000000   1.000000
    131          0.202985        0.202985   1.000000   1.000000
    132          0.215105        0.215105   1.000000   1.000000
    133          0.216058        0.216058   1.000000   1.000000
    134          0.225718        0.225718   1.000000   1.000000
    135          0.229800        0.229800   1.000000   1.000000
    136          0.231083        0.231083   1.000000   1.000000
    137          0.238973        0.238973   1.000000   1.000000
    138          0.247347        0.247347   1.000000   1.000000
    139          0.259545        0.259545   1.000000   1.000000
    140          0.261424        0.261424   1.000000   1.000000
    141          0.261704        0.261704   1.000000   1.000000
    142          0.284986        0.284986   1.000000   1.000000
    143          0.320493        0.320493   1.000000   1.000000
    144          0.322220        0.322220   1.000000   1.000000
    145          0.331600        0.331600   1.000000   1.000000
    146          0.346963        0.346963   1.000000   1.000000
    147          0.352529        0.352529   1.000000   1.000000
    148          0.377260        0.377260   1.000000   1.000000
    149          0.379234        0.379234   1.000000   1.000000
    150          0.404828        0.404828   1.000000   1.000000
    151          0.425438        0.425438   1.000000   1.000000
    152          0.438545        0.438545   1.000000   1.000000
    153          0.441336        0.441336   1.000000   1.000000
    154          0.458897        0.458897   1.000000   1.000000
    155          0.545771        0.545771   1.000000   1.000000
    156          0.546695        0.546695   1.000000   1.000000
    157          0.547849        0.547849   1.000000   1.000000
    158          0.577494        0.577494   1.000000   1.000000
    159          0.580043        0.580043   1.000000   1.000000
    160          0.589073        0.589073   1.000000   1.000000
    161          0.590625        0.590625   1.000000   1.000000
    162          0.611232        0.611232   1.000000   1.000000
    163          0.612524        0.612524   1.000000   1.000000
    164          0.632423        0.632423   1.000000   1.000000
    165          0.658077        0.658077   1.000000   1.000000
    166          0.659038        0.659038   1.000000   1.000000
    167          0.678839        0.678839   1.000000   1.000000
    168          0.679347        0.679347   1.000000   1.000000
    169          0.718970        0.718970   1.000000   1.000000
    170          0.720695        0.720695   1.000000   1.000000
    171          1.116436        1.116436   1.000000   1.000000
    172          1.489713        1.489713   1.000008   1.000008
    173          1.853433        1.853433   1.023865   1.023865
    174          1.854264        1.854264   1.024057   1.024057
    175          1.953935        1.953935   1.031575   1.031575
    176          2.010918        2.010918   0.988840   0.988840
    177          2.011785        2.011785   0.987704   0.987704
    178          2.271448        2.271448   0.125901   0.125901
    179          2.271716        2.271716   0.125176   0.125176
    180          2.598167        2.598167  -0.004939  -0.004939
    181          2.788928        2.788928  -0.000054  -0.000054
    182          2.789775        2.789775  -0.000053  -0.000053
    183          3.072581        3.072581  -0.000000  -0.000000
    184          3.587893        3.587893  -0.000000  -0.000000
    185          3.588147        3.588147  -0.000000  -0.000000
    186          3.727129        3.727129  -0.000000  -0.000000
    187          3.968587        3.968587  -0.000000  -0.000000
    188          4.615747        4.615747  -0.000000  -0.000000
    189          4.616791        4.616791  -0.000000  -0.000000
    190          5.477703        5.477703  -0.000000  -0.000000
    191          5.714976        5.714976  -0.000000  -0.000000
    192          5.716314        5.716314  -0.000000  -0.000000
    193          6.378263        6.378262  -0.000000  -0.000000
    194          6.381109        6.381109  -0.000000  -0.000000
    195          6.678302        6.678302  -0.000000  -0.000000
    196          6.926761        6.926761  -0.000000  -0.000000
    197          6.933554        6.933554  -0.000000  -0.000000
    198          7.163110        7.163107  -0.000000  -0.000000
    199          7.232904        7.232904  -0.000000  -0.000000
    200          7.421808        7.421808  -0.000000  -0.000000
    201          7.449282        7.449282  -0.000000  -0.000000
    202          7.845715        7.845715   0.000000   0.000000
    203          7.979374        7.979374   0.000000   0.000000
    204          8.045253        8.045252   0.000000   0.000000
    205          8.290623        8.290620   0.000000   0.000000
    206          8.536256        8.536256   0.000000   0.000000
    207          8.564868        8.564867   0.000000   0.000000
    208          8.634576        8.634576   0.000000   0.000000
    209          9.011045        9.011045   0.000000   0.000000
    210          9.142672        9.142669   0.000000   0.000000
    211          9.269085        9.269085   0.000000   0.000000
    212          9.391209        9.391209   0.000000   0.000000
    213          9.437935        9.437934   0.000000   0.000000
    214          9.769191        9.769189   0.000000   0.000000
    215         10.075266       10.075265   0.000000   0.000000
    216         10.086746       10.086746   0.000000   0.000000
    217         10.139846       10.139846   0.000000   0.000000
    218         10.313995       10.313992   0.000000   0.000000
    219         10.480195       10.480195   0.000000   0.000000
    220         10.654714       10.654714   0.000000   0.000000
    221         10.673828       10.673828   0.000000   0.000000
    222         10.907439       10.907439   0.000000   0.000000
    223         10.923761       10.923758   0.000000   0.000000
    224         10.981381       10.981381   0.000000   0.000000
    225         11.007733       11.007733   0.000000   0.000000
    226         11.106593       11.106592   0.000000   0.000000
    227         11.265557       11.265556   0.000000   0.000000
    228         11.370541       11.370539   0.000000   0.000000
    229         11.388283       11.388283   0.000000   0.000000
    230         11.726931       11.726931   0.000000   0.000000
    231         11.865667       11.865667   0.000000   0.000000