       N       E                     dE             d eps       ncg     rms          rms(c)
DAV:   1     0.345136467461E+04    0.34514E+04   -0.12530E+05  2784   0.193E+03
DAV:   2     0.484722664071E+03   -0.29666E+04   -0.28314E+04  2784   0.448E+02
DAV:   3    -0.927021501638E+02   -0.57742E+03   -0.52522E+03  2800   0.230E+02
DAV:   4    -0.137959385554E+03   -0.45257E+02   -0.43396E+02  3064   0.890E+01
DAV:   5    -0.139062130202E+03   -0.11027E+01   -0.10991E+01  3104   0.140E+01    0.526E+01
DAV:   6    -0.115310955403E+03    0.23751E+02   -0.30930E+02  3112   0.123E+02    0.272E+01
DAV:   7    -0.102748352405E+03    0.12563E+02   -0.78357E+01  3200   0.960E+01    0.165E+01
DAV:   8    -0.109257948643E+03   -0.65096E+01   -0.70043E+01  3624   0.129E+02    0.228E+01
DAV:   9    -0.992960685169E+02    0.99619E+01   -0.18079E+01  4040   0.653E+01    0.122E+01
DAV:  10    -0.100073215129E+03   -0.77715E+00   -0.60396E+00  3752   0.394E+01    0.113E+01
DAV:  11    -0.101741672672E+03   -0.16685E+01   -0.94290E+00  3344   0.427E+01    0.112E+01
DAV:  12    -0.101691747759E+03    0.49925E-01   -0.13369E+01  3400   0.588E+01    0.109E+01
DAV:  13    -0.102176421118E+03   -0.48467E+00   -0.50753E+00  4576   0.382E+01    0.787E+00
DAV:  14    -0.105009607234E+03   -0.28332E+01   -0.53226E+00  4496   0.335E+01    0.725E+00
DAV:  15    -0.109178544338E+03   -0.41689E+01   -0.33052E+00  3752   0.232E+01    0.432E+00
DAV:  16    -0.112328882834E+03   -0.31503E+01   -0.33315E+00  3536   0.218E+01    0.317E+00
DAV:  17    -0.113922948501E+03   -0.15941E+01   -0.17588E+00  3480   0.141E+01    0.244E+00
DAV:  18    -0.114862395246E+03   -0.93945E+00   -0.10349E+00  3328   0.101E+01    0.201E+00
DAV:  19    -0.115677432294E+03   -0.81504E+00   -0.58934E-01  3456   0.647E+00    0.181E+00
DAV:  20    -0.116649412964E+03   -0.97198E+00   -0.62484E-01  3616   0.628E+00    0.150E+00
DAV:  21    -0.117519313643E+03   -0.86990E+00   -0.66616E-01  3920   0.713E+00    0.154E+00
DAV:  22    -0.117780688154E+03   -0.26137E+00   -0.20022E-01  3624   0.583E+00    0.114E+00
DAV:  23    -0.118268730226E+03   -0.48804E+00   -0.21870E-01  3408   0.301E+00    0.978E-01
DAV:  24    -0.118819986031E+03   -0.55126E+00   -0.14835E-01  3392   0.380E+00    0.710E-01
DAV:  25    -0.119793811871E+03   -0.97383E+00   -0.10588E-01  3744   0.313E+00    0.567E-01
DAV:  26    -0.120615302168E+03   -0.82149E+00   -0.54010E-02  3320   0.221E+00    0.301E-01
DAV:  27    -0.120773924885E+03   -0.15862E+00   -0.14575E-02  3264   0.168E+00    0.222E-01
DAV:  28    -0.120815234808E+03   -0.41310E-01   -0.50713E-03  3328   0.886E-01    0.144E-01
DAV:  29    -0.120828242394E+03   -0.13008E-01   -0.34753E-03  2984   0.615E-01    0.936E-02
DAV:  30    -0.120833603549E+03   -0.53612E-02   -0.76004E-04  2808   0.385E-01    0.876E-02
DAV:  31    -0.120834417280E+03   -0.81373E-03   -0.56433E-04  2280   0.279E-01    0.663E-02
DAV:  32    -0.120834186317E+03    0.23096E-03   -0.56899E-04  2176   0.315E-01    0.416E-02
DAV:  33    -0.120834352470E+03   -0.16615E-03   -0.11245E-04  1864   0.974E-02
   1 F= -.13484660E+03 E0= -.13484002E+03  d E =-.134847E+03  mag=     0.0070
       N       E                     dE             d eps       ncg     rms          rms(c)
DAV:   1    -0.120814374381E+03    0.19812E-01   -0.96413E+00  2928   0.632E+00    0.671E-01
DAV:   2    -0.120833811766E+03   -0.19437E-01   -0.26009E-01  4032   0.268E+00    0.579E-01
DAV:   3    -0.120864822957E+03   -0.31011E-01   -0.18508E-01  3480   0.700E+00    0.114E+00
DAV:   4    -0.120834220206E+03    0.30603E-01   -0.19109E-01  3560   0.670E+00    0.461E-01
DAV:   5    -0.120836987600E+03   -0.27674E-02   -0.26667E-02  4288   0.404E+00    0.514E-01
DAV:   6    -0.120831417084E+03    0.55705E-02   -0.22914E-02  3976   0.384E+00    0.230E-01
DAV:   7    -0.120830385635E+03    0.10314E-02   -0.64173E-03  4632   0.166E+00    0.102E-01
DAV:   8    -0.120830426969E+03   -0.41334E-04   -0.26269E-03  3112   0.725E-01    0.503E-02
DAV:   9    -0.120830543399E+03   -0.11643E-03   -0.12127E-03  2672   0.311E-01
   2 F= -.13486268E+03 E0= -.13485556E+03  d E =-.160790E-01  mag=     0.0046
       N       E                     dE             d eps       ncg     rms          rms(c)
DAV:   1    -0.120854077787E+03   -0.23651E-01   -0.19570E+00  2912   0.286E+00    0.267E-01
DAV:   2    -0.120858935941E+03   -0.48582E-02   -0.56687E-02  4032   0.113E+00    0.264E-01
DAV:   3    -0.120861715565E+03   -0.27796E-02   -0.25943E-02  3448   0.257E+00    0.386E-01
DAV:   4    -0.120858356966E+03    0.33586E-02   -0.17130E-02  2944   0.202E+00    0.141E-01
DAV:   5    -0.120860107651E+03   -0.17507E-02   -0.59687E-03  2728   0.176E+00    0.275E-01
DAV:   6    -0.120858342314E+03    0.17653E-02   -0.47659E-03  3064   0.176E+00    0.100E-01
DAV:   7    -0.120858228033E+03    0.11428E-03   -0.10426E-03  2920   0.560E-01
   3 F= -.13487663E+03 E0= -.13486984E+03  d E =-.300369E-01  mag=     0.0033
       N       E                     dE             d eps       ncg     rms          rms(c)
DAV:   1    -0.120864177313E+03   -0.58350E-02   -0.74292E+00  3008   0.568E+00    0.224E-01
DAV:   2    -0.120879248099E+03   -0.15071E-01   -0.14872E-01  4080   0.195E+00    0.349E-01
DAV:   3    -0.120880181151E+03   -0.93305E-03   -0.34407E-02  3240   0.291E+00    0.376E-01
DAV:   4    -0.120879061865E+03    0.11193E-02   -0.19974E-02  3152   0.227E+00    0.270E-01
DAV:   5    -0.120878063754E+03    0.99811E-03   -0.50544E-03  2960   0.133E+00    0.171E-01
DAV:   6    -0.120877891367E+03    0.17239E-03   -0.21653E-03  3792   0.697E-01    0.139E-01
DAV:   7    -0.120877827006E+03    0.64361E-04   -0.21129E-03  2992   0.794E-01    0.987E-02
DAV:   8    -0.120877855900E+03   -0.28894E-04   -0.89047E-04  2816   0.481E-01
   4 F= -.13490144E+03 E0= -.13489402E+03  d E =-.248056E-01  mag=     0.0023
       N       E                     dE             d eps       ncg     rms          rms(c)
DAV:   1    -0.120858829610E+03    0.18997E-01   -0.13699E+01  3016   0.777E+00    0.316E-01
DAV:   2    -0.120888501541E+03   -0.29672E-01   -0.30037E-01  4096   0.274E+00    0.471E-01
DAV:   3    -0.120892607594E+03   -0.41061E-02   -0.78759E-02  3248   0.443E+00    0.595E-01
DAV:   4    -0.120887198157E+03    0.54094E-02   -0.40037E-02  3208   0.321E+00    0.319E-01
DAV:   5    -0.120886428018E+03    0.77014E-03   -0.70482E-03  4080   0.164E+00    0.240E-01
DAV:   6    -0.120886015740E+03    0.41228E-03   -0.39438E-03  4024   0.103E+00    0.196E-01
DAV:   7    -0.120885812028E+03    0.20371E-03   -0.36567E-03  3032   0.101E+00    0.134E-01
DAV:   8    -0.120885878555E+03   -0.66526E-04   -0.16985E-03  3312   0.739E-01
   5 F= -.13491666E+03 E0= -.13490873E+03  d E =-.400297E-01  mag=     0.0016
       N       E                     dE             d eps       ncg     rms          rms(c)
DAV:   1    -0.120887732003E+03   -0.19200E-02   -0.27811E+00  2848   0.366E+00    0.203E-01
DAV:   2    -0.120894933030E+03   -0.72010E-02   -0.74622E-02  4192   0.162E+00    0.310E-01
DAV:   3    -0.120895313668E+03   -0.38064E-03   -0.18699E-02  3528   0.215E+00    0.255E-01
DAV:   4    -0.120893937985E+03    0.13757E-02   -0.75414E-03  2928   0.139E+00    0.161E-01
DAV:   5    -0.120893884683E+03    0.53302E-04   -0.13752E-03  3120   0.823E-01
   6 F= -.13493002E+03 E0= -.13492192E+03  d E =-.133570E-01  mag=     0.0012
       N       E                     dE             d eps       ncg     rms          rms(c)
DAV:   1    -0.120889519697E+03    0.44183E-02   -0.12810E+00  2920   0.263E+00    0.172E-01
DAV:   2    -0.120908330802E+03   -0.18811E-01   -0.79349E-02  5008   0.450E+00    0.785E-01
DAV:   3    -0.120893339099E+03    0.14992E-01   -0.81022E-02  5136   0.421E+00    0.252E-01
DAV:   4    -0.120892166357E+03    0.11727E-02   -0.85392E-03  4216   0.154E+00    0.139E-01
DAV:   5    -0.120892181774E+03   -0.15417E-04   -0.27250E-03  3032   0.554E-01    0.925E-02
DAV:   6    -0.120892269293E+03   -0.87519E-04   -0.15070E-03  2992   0.673E-01
   7 F= -.13493248E+03 E0= -.13492457E+03  d E =-.158182E-01  mag=     0.0009
       N       E                     dE             d eps       ncg     rms          rms(c)
DAV:   1    -0.120894070720E+03   -0.18889E-02   -0.31322E-01  3008   0.133E+00    0.650E-02
DAV:   2    -0.120897585555E+03   -0.35148E-02   -0.18277E-02  4936   0.180E+00    0.319E-01
DAV:   3    -0.120894808942E+03    0.27766E-02   -0.12587E-02  3864   0.176E+00    0.752E-02
DAV:   4    -0.120894820117E+03   -0.11175E-04   -0.86809E-04  2384   0.452E-01
   8 F= -.13493731E+03 E0= -.13492948E+03  d E =-.482873E-02  mag=     0.0009
       N       E                     dE             d eps       ncg     rms          rms(c)
DAV:   1    -0.120894613056E+03    0.19589E-03   -0.28314E+00  2864   0.364E+00    0.197E-01
DAV:   2    -0.120901104786E+03   -0.64917E-02   -0.66926E-02  4040   0.145E+00    0.274E-01
DAV:   3    -0.120900723036E+03    0.38175E-03   -0.62147E-03  3096   0.133E+00    0.208E-01
DAV:   4    -0.120900527482E+03    0.19555E-03   -0.17499E-03  2992   0.744E-01
   9 F= -.13494990E+03 E0= -.13494208E+03  d E =-.174186E-01  mag=     0.0008
       N       E                     dE             d eps       ncg     rms          rms(c)
DAV:   1    -0.120879058337E+03    0.21665E-01   -0.11376E+01  2864   0.744E+00    0.512E-01
DAV:   2    -0.121219071159E+03   -0.34001E+00   -0.13781E+00  5072   0.196E+01    0.315E+00
DAV:   3    -0.120895566397E+03    0.32350E+00   -0.10454E+00  5088   0.154E+01    0.459E-01
DAV:   4    -0.120899656772E+03   -0.40904E-02   -0.55408E-02  4496   0.238E+00    0.401E-01
DAV:   5    -0.120899993637E+03   -0.33687E-03   -0.20970E-02  3264   0.250E+00    0.354E-01
DAV:   6    -0.120899492640E+03    0.50100E-03   -0.12810E-02  3184   0.230E+00    0.271E-01
DAV:   7    -0.120898612312E+03    0.88033E-03   -0.55794E-03  3920   0.138E+00    0.851E-02
DAV:   8    -0.120898681043E+03   -0.68731E-04   -0.21683E-03  3296   0.695E-01    0.650E-02
DAV:   9    -0.120898709821E+03   -0.28778E-04   -0.95356E-04  2696   0.397E-01
  10 F= -.13496213E+03 E0= -.13495449E+03  d E =-.296431E-01  mag=     0.0005
       N       E                     dE             d eps       ncg     rms          rms(c)
DAV:   1    -0.120892869343E+03    0.58117E-02   -0.10579E+00  2848   0.221E+00    0.106E-01
DAV:   2    -0.120895583601E+03   -0.27143E-02   -0.25619E-02  4328   0.102E+00    0.186E-01
DAV:   3    -0.120895337077E+03    0.24652E-03   -0.58726E-03  3184   0.121E+00    0.129E-01
DAV:   4    -0.120895145549E+03    0.19153E-03   -0.14081E-03  2336   0.647E-01
  11 F= -.13496294E+03 E0= -.13495544E+03  d E =-.304626E-01  mag=     0.0005
       N       E                     dE             d eps       ncg     rms          rms(c)
DAV:   1    -0.120900860463E+03   -0.55234E-02   -0.72376E-01  2848   0.194E+00    0.172E-01
DAV:   2    -0.120905527498E+03   -0.46670E-02   -0.23260E-02  4880   0.232E+00    0.385E-01
DAV:   3    -0.120902104938E+03    0.34226E-02   -0.71439E-03  4472   0.207E+00    0.131E-01
DAV:   4    -0.120902704417E+03   -0.59948E-03   -0.36017E-03  2488   0.952E-01    0.174E-01
DAV:   5    -0.120902408052E+03    0.29636E-03   -0.84203E-03  3024   0.157E+00    0.130E-01
DAV:   6    -0.120902061143E+03    0.34691E-03   -0.19154E-03  2112   0.749E-01    0.570E-02
DAV:   7    -0.120902049086E+03    0.12057E-04   -0.43887E-04  1960   0.341E-01
  12 F= -.13497261E+03 E0= -.13496494E+03  d E =-.966411E-02  mag=     0.0003
       N       E                     dE             d eps       ncg     rms          rms(c)
DAV:   1    -0.120900003303E+03    0.20578E-02   -0.64989E+00  2832   0.551E+00    0.322E-01
DAV:   2    -0.120916894333E+03   -0.16891E-01   -0.18154E-01  3920   0.188E+00    0.404E-01
DAV:   3    -0.120917605007E+03   -0.71067E-03   -0.21364E-02  3304   0.254E+00    0.408E-01
DAV:   4    -0.120916303790E+03    0.13012E-02   -0.14665E-02  3192   0.205E+00    0.296E-01
DAV:   5    -0.120916314904E+03   -0.11115E-04   -0.79924E-03  2736   0.183E+00    0.303E-01
DAV:   6    -0.120915346759E+03    0.96815E-03   -0.58928E-03  4040   0.175E+00    0.174E-01
DAV:   7    -0.120914720086E+03    0.62667E-03   -0.32279E-03  3608   0.122E+00    0.744E-02
DAV:   8    -0.120914755197E+03   -0.35112E-04   -0.96253E-04  2664   0.320E-01
  13 F= -.13499403E+03 E0= -.13498597E+03  d E =-.310884E-01  mag=     0.0002
       N       E                     dE             d eps       ncg     rms          rms(c)
DAV:   1    -0.120836070410E+03    0.78650E-01   -0.25928E+01  2824   0.111E+01    0.600E-01
DAV:   2    -0.120912245822E+03   -0.76175E-01   -0.82510E-01  3872   0.347E+00    0.773E-01
DAV:   3    -0.120910371986E+03    0.18738E-02   -0.28971E-02  3208   0.270E+00    0.627E-01
DAV:   4    -0.120909418581E+03    0.95340E-03   -0.99222E-03  3552   0.234E+00    0.596E-01
DAV:   5    -0.120931708551E+03   -0.22290E-01   -0.86913E-02  3488   0.562E+00    0.945E-01
DAV:   6    -0.120908658987E+03    0.23050E-01   -0.10468E-01  4824   0.591E+00    0.434E-01
DAV:   7    -0.120903949744E+03    0.47092E-02   -0.16695E-02  4928   0.278E+00    0.178E-01
DAV:   8    -0.120903878727E+03    0.71017E-04   -0.36360E-03  3992   0.759E-01    0.139E-01
DAV:   9    -0.120903789424E+03    0.89304E-04   -0.18605E-03  3008   0.665E-01
  14 F= -.13500344E+03 E0= -.13499479E+03  d E =-.404923E-01  mag=     0.0002
       N       E                     dE             d eps       ncg     rms          rms(c)
DAV:   1    -0.120906807722E+03   -0.29290E-02   -0.25766E+00  2800   0.348E+00    0.187E-01
DAV:   2    -0.120913215714E+03   -0.64080E-02   -0.68544E-02  3936   0.114E+00    0.245E-01
DAV:   3    -0.120913190316E+03    0.25397E-04   -0.62054E-03  3184   0.126E+00    0.208E-01
DAV:   4    -0.120912856124E+03    0.33419E-03   -0.26822E-03  2064   0.887E-01    0.176E-01
DAV:   5    -0.120913454563E+03   -0.59844E-03   -0.21586E-03  2000   0.120E+00    0.226E-01
DAV:   6    -0.120912518790E+03    0.93577E-03   -0.22274E-03  2288   0.121E+00    0.863E-02
DAV:   7    -0.120912320649E+03    0.19814E-03   -0.82631E-04  2272   0.544E-01
  15 F= -.13500503E+03 E0= -.13499650E+03  d E =-.420807E-01  mag=     0.0001
       N       E                     dE             d eps       ncg     rms          rms(c)
DAV:   1    -0.120919206581E+03   -0.66878E-02   -0.56216E-01  2792   0.162E+00    0.107E-01
DAV:   2    -0.120920682816E+03   -0.14762E-02   -0.16360E-02  4104   0.755E-01    0.146E-01
DAV:   3    -0.120920684075E+03   -0.12589E-05   -0.21899E-03  2752   0.869E-01    0.118E-01
DAV:   4    -0.120920573015E+03    0.11106E-03   -0.18172E-03  1936   0.735E-01
  16 F= -.13501456E+03 E0= -.13500580E+03  d E =-.953014E-02  mag=     0.0001
       N       E                     dE             d eps       ncg     rms          rms(c)
DAV:   1    -0.120925457800E+03   -0.47737E-02   -0.51011E+00  2800   0.489E+00    0.353E-01
DAV:   2    -0.120938768756E+03   -0.13311E-01   -0.14485E-01  4072   0.196E+00    0.433E-01
DAV:   3    -0.120938856606E+03   -0.87850E-04   -0.27165E-02  3416   0.287E+00    0.410E-01
DAV:   4    -0.120938350111E+03    0.50650E-03   -0.18131E-02  3280   0.239E+00    0.361E-01
DAV:   5    -0.120936660654E+03    0.16895E-02   -0.95308E-03  3424   0.206E+00    0.238E-01
DAV:   6    -0.120936280423E+03    0.38023E-03   -0.40548E-03  4032   0.146E+00    0.189E-01
DAV:   7    -0.120935793893E+03    0.48653E-03   -0.22258E-03  3344   0.110E+00    0.364E-02
DAV:   8    -0.120935869776E+03   -0.75883E-04   -0.92970E-04  2552   0.275E-01
  17 F= -.13503503E+03 E0= -.13502614E+03  d E =-.300078E-01  mag=     0.0001
       N       E                     dE             d eps       ncg     rms          rms(c)
DAV:   1    -0.120876860711E+03    0.58933E-01   -0.20494E+01  2800   0.973E+00    0.655E-01
DAV:   2    -0.120933029246E+03   -0.56169E-01   -0.61398E-01  3936   0.377E+00    0.835E-01
DAV:   3    -0.120932630148E+03    0.39910E-03   -0.59056E-02  3344   0.467E+00    0.762E-01
DAV:   4    -0.120931240989E+03    0.13892E-02   -0.54232E-02  3304   0.413E+00    0.634E-01
DAV:   5    -0.120929079620E+03    0.21614E-02   -0.44013E-02  4088   0.400E+00    0.579E-01
DAV:   6    -0.120925237025E+03    0.38426E-02   -0.19392E-02  4608   0.342E+00    0.357E-01
DAV:   7    -0.120922567465E+03    0.26696E-02   -0.95386E-03  3768   0.246E+00    0.132E-01
DAV:   8    -0.120922712802E+03   -0.14534E-03   -0.38236E-03  3504   0.617E-01    0.988E-02
DAV:   9    -0.120922689201E+03    0.23601E-04   -0.13803E-03  2928   0.454E-01
  18 F= -.13503499E+03 E0= -.13502609E+03  d E =-.299615E-01  mag=     0.0001
       N       E                     dE             d eps       ncg     rms          rms(c)
DAV:   1    -0.120926937560E+03   -0.42248E-02   -0.60717E+00  2800   0.525E+00    0.402E-01
DAV:   2    -0.120939873258E+03   -0.12936E-01   -0.16008E-01  3792   0.166E+00    0.396E-01
DAV:   3    -0.120945516623E+03   -0.56434E-02   -0.41325E-02  3344   0.357E+00    0.561E-01
DAV:   4    -0.120940070274E+03    0.54463E-02   -0.38022E-02  3584   0.354E+00    0.318E-01
DAV:   5    -0.120941060063E+03   -0.98979E-03   -0.11239E-02  3464   0.299E+00    0.358E-01
DAV:   6    -0.120938273420E+03    0.27866E-02   -0.79797E-03  3536   0.247E+00    0.174E-01
DAV:   7    -0.120937713922E+03    0.55950E-03   -0.26043E-03  3744   0.108E+00    0.404E-02
DAV:   8    -0.120937779071E+03   -0.65149E-04   -0.11135E-03  2752   0.318E-01
  19 F= -.13504271E+03 E0= -.13503374E+03  d E =-.376846E-01  mag=     0.0000
       N       E                     dE             d eps       ncg     rms          rms(c)
DAV:   1    -0.120942764289E+03   -0.50504E-02   -0.82718E-01  2800   0.195E+00    0.119E-01
DAV:   2    -0.120946361408E+03   -0.35971E-02   -0.25683E-02  4784   0.166E+00    0.289E-01
DAV:   3    -0.120944615408E+03    0.17460E-02   -0.10094E-02  4032   0.174E+00    0.129E-01
DAV:   4    -0.120944551140E+03    0.64268E-04   -0.10738E-03  2432   0.595E-01
  20 F= -.13505165E+03 E0= -.13504257E+03  d E =-.894015E-02  mag=     0.0000
       N       E                     dE             d eps       ncg     rms          rms(c)
DAV:   1    -0.120943535066E+03    0.10803E-02   -0.74431E+00  2800   0.586E+00    0.401E-01
DAV:   2    -0.120960189515E+03   -0.16654E-01   -0.19589E-01  3824   0.184E+00    0.419E-01
DAV:   3    -0.120960546132E+03   -0.35662E-03   -0.14666E-02  3200   0.230E+00    0.408E-01
DAV:   4    -0.120960594771E+03   -0.48639E-04   -0.15165E-02  3328   0.252E+00    0.359E-01
DAV:   5    -0.120964134127E+03   -0.35394E-02   -0.42790E-02  3248   0.366E+00    0.488E-01
DAV:   6    -0.120958657659E+03    0.54765E-02   -0.25451E-02  3672   0.292E+00    0.237E-01
DAV:   7    -0.120957621475E+03    0.10362E-02   -0.21054E-03  4080   0.131E+00    0.545E-02
DAV:   8    -0.120957630699E+03   -0.92240E-05   -0.11860E-03  2864   0.460E-01
  21 F= -.13507118E+03 E0= -.13506204E+03  d E =-.284684E-01  mag=     0.0000
       N       E                     dE             d eps       ncg     rms          rms(c)
DAV:   1    -0.120887335680E+03    0.70286E-01   -0.29881E+01  2816   0.118E+01    0.695E-01
DAV:   2    -0.120964858410E+03   -0.77523E-01   -0.83993E-01  3904   0.439E+00    0.889E-01
DAV:   3    -0.120962148353E+03    0.27101E-02   -0.51883E-02  3264   0.438E+00    0.703E-01
DAV:   4    -0.120963305487E+03   -0.11571E-02   -0.48462E-02  3424   0.377E+00    0.703E-01
DAV:   5    -0.120965989973E+03   -0.26845E-02   -0.84035E-02  3560   0.484E+00    0.714E-01
DAV:   6    -0.120957426088E+03    0.85639E-02   -0.41837E-02  5064   0.435E+00    0.395E-01
DAV:   7    -0.120954065879E+03    0.33602E-02   -0.10325E-02  4200   0.283E+00    0.193E-01
DAV:   8    -0.120954199086E+03   -0.13321E-03   -0.48806E-03  3520   0.848E-01    0.143E-01
DAV:   9    -0.120954068461E+03    0.13062E-03   -0.22519E-03  2928   0.620E-01    0.430E-02
DAV:  10    -0.120954062698E+03    0.57631E-05   -0.33017E-04  1904   0.222E-01
  22 F= -.13507992E+03 E0= -.13507061E+03  d E =-.372065E-01  mag=     0.0000
       N       E                     dE             d eps       ncg     rms          rms(c)
DAV:   1    -0.120953393968E+03    0.67449E-03   -0.32551E+00  2800   0.387E+00    0.236E-01
DAV:   2    -0.120960782068E+03   -0.73881E-02   -0.82505E-02  3872   0.130E+00    0.276E-01
DAV:   3    -0.120961216880E+03   -0.43481E-03   -0.99190E-03  3264   0.168E+00    0.267E-01
DAV:   4    -0.120960897593E+03    0.31929E-03   -0.99434E-03  3200   0.176E+00    0.236E-01
DAV:   5    -0.120960586495E+03    0.31110E-03   -0.49443E-03  2080   0.156E+00    0.198E-01
DAV:   6    -0.120960140078E+03    0.44642E-03   -0.29162E-03  2688   0.138E+00    0.137E-01
DAV:   7    -0.120959726870E+03    0.41321E-03   -0.13524E-03  2856   0.877E-01    0.336E-02
DAV:   8    -0.120959762467E+03   -0.35598E-04   -0.47592E-04  1992   0.188E-01
  23 F= -.13508167E+03 E0= -.13507242E+03  d E =-.389590E-01  mag=     0.0000
       N       E                     dE             d eps       ncg     rms          rms(c)
DAV:   1    -0.120961759630E+03   -0.20328E-02   -0.20260E+00  2816   0.303E+00    0.261E-01
DAV:   2    -0.120969439260E+03   -0.76796E-02   -0.64986E-02  4768   0.242E+00    0.426E-01
DAV:   3    -0.120966757004E+03    0.26823E-02   -0.24933E-02  4672   0.273E+00    0.267E-01
DAV:   4    -0.120966765139E+03   -0.81356E-05   -0.86959E-03  3240   0.188E+00    0.263E-01
DAV:   5    -0.120965522515E+03    0.12426E-02   -0.42433E-03  3104   0.150E+00    0.124E-01
DAV:   6    -0.120965436473E+03    0.86041E-04   -0.19323E-03  3312   0.747E-01
  24 F= -.13508964E+03 E0= -.13508050E+03  d E =-.796963E-02  mag=     0.0000
       N       E                     dE             d eps       ncg     rms          rms(c)
DAV:   1    -0.120965268108E+03    0.25441E-03   -0.65011E-03  4016   0.501E-01    0.259E-02
DAV:   2    -0.120965989033E+03   -0.72093E-03   -0.27700E-03  2080   0.933E-01    0.156E-01
DAV:   3    -0.120965280695E+03    0.70834E-03   -0.25482E-03  1864   0.883E-01    0.230E-02
DAV:   4    -0.120965299333E+03   -0.18638E-04   -0.11443E-04  1680   0.148E-01
  25 F= -.13508965E+03 E0= -.13508049E+03  d E =-.798355E-02  mag=     0.0000
       N       E                     dE             d eps       ncg     rms          rms(c)
DAV:   1    -0.120970390198E+03   -0.51095E-02   -0.29372E+00  2800   0.369E+00    0.207E-01
DAV:   2    -0.120978174561E+03   -0.77844E-02   -0.78027E-02  4320   0.178E+00    0.331E-01
DAV:   3    -0.120977331427E+03    0.84313E-03   -0.16169E-02  3464   0.201E+00    0.235E-01
DAV:   4    -0.120976815334E+03    0.51609E-03   -0.38370E-03  3008   0.948E-01    0.170E-01
DAV:   5    -0.120977279901E+03   -0.46457E-03   -0.23157E-03  3120   0.109E+00    0.207E-01
DAV:   6    -0.120977195006E+03    0.84894E-04   -0.39866E-03  3168   0.164E+00    0.176E-01
DAV:   7    -0.120976502517E+03    0.69249E-03   -0.14736E-03  2904   0.951E-01    0.375E-02
DAV:   8    -0.120976540103E+03   -0.37586E-04   -0.49894E-04  2048   0.228E-01
  26 F= -.13509966E+03 E0= -.13509095E+03  d E =-.100078E-01  mag=     0.0000
       N       E                     dE             d eps       ncg     rms          rms(c)
DAV:   1    -0.120971983388E+03    0.45191E-02   -0.54308E+00  2816   0.504E+00    0.279E-01
DAV:   2    -0.120993018372E+03   -0.21035E-01   -0.16917E-01  4720   0.381E+00    0.654E-01
DAV:   3    -0.120984523070E+03    0.84953E-02   -0.58543E-02  4704   0.368E+00    0.295E-01
DAV:   4    -0.120984348171E+03    0.17490E-03   -0.73816E-03  3088   0.119E+00    0.256E-01
DAV:   5    -0.120984761533E+03   -0.41336E-03   -0.50827E-03  3216   0.148E+00    0.260E-01
DAV:   6    -0.120984232120E+03    0.52941E-03   -0.41248E-03  3328   0.149E+00    0.186E-01
DAV:   7    -0.120983724700E+03    0.50742E-03   -0.26341E-03  3440   0.962E-01    0.740E-02
DAV:   8    -0.120983766522E+03   -0.41822E-04   -0.79359E-04  2320   0.218E-01
  27 F= -.13510515E+03 E0= -.13509703E+03  d E =-.154966E-01  mag=     0.0000
       N       E                     dE             d eps       ncg     rms          rms(c)
DAV:   1    -0.120989408683E+03   -0.56840E-02   -0.71615E-01  2784   0.179E+00    0.159E-01
DAV:   2    -0.120995262802E+03   -0.58541E-02   -0.35218E-02  5000   0.245E+00    0.415E-01
DAV:   3    -0.120991140597E+03    0.41222E-02   -0.22972E-02  4856   0.232E+00    0.156E-01
DAV:   4    -0.120991162551E+03   -0.21954E-04   -0.26539E-03  2640   0.995E-01    0.150E-01
DAV:   5    -0.120990847084E+03    0.31547E-03   -0.14397E-03  2760   0.788E-01    0.793E-02
DAV:   6    -0.120990857212E+03   -0.10129E-04   -0.91724E-04  2800   0.524E-01
  28 F= -.13510844E+03 E0= -.13510049E+03  d E =-.329065E-02  mag=     0.0000
       N       E                     dE             d eps       ncg     rms          rms(c)
DAV:   1    -0.120990413982E+03    0.43310E-03   -0.19799E-02  3968   0.503E-01    0.384E-02
DAV:   2    -0.120991724451E+03   -0.13105E-02   -0.54972E-03  2192   0.130E+00    0.208E-01
DAV:   3    -0.120990392003E+03    0.13324E-02   -0.50471E-03  1968   0.117E+00    0.321E-02
DAV:   4    -0.120990421619E+03   -0.29616E-04   -0.15213E-04  1776   0.262E-01
  29 F= -.13510859E+03 E0= -.13510055E+03  d E =-.343627E-02  mag=     0.0000
       N       E                     dE             d eps       ncg     rms          rms(c)
DAV:   1    -0.120996068165E+03   -0.56762E-02   -0.84445E-01  2848   0.201E+00    0.853E-02
DAV:   2    -0.120998411676E+03   -0.23435E-02   -0.19204E-02  4720   0.121E+00    0.186E-01
DAV:   3    -0.120997792891E+03    0.61879E-03   -0.31953E-03  3136   0.108E+00    0.889E-02
DAV:   4    -0.120997834149E+03   -0.41257E-04   -0.10718E-03  2816   0.338E-01
  30 F= -.13511247E+03 E0= -.13510443E+03  d E =-.388275E-02  mag=     0.0000
       N       E                     dE             d eps       ncg     rms          rms(c)
DAV:   1    -0.121001420832E+03   -0.36279E-02   -0.42772E+00  2832   0.448E+00    0.236E-01
DAV:   2    -0.121024663642E+03   -0.23243E-01   -0.14250E-01  5136   0.454E+00    0.768E-01
DAV:   3    -0.121009384164E+03    0.15279E-01   -0.88663E-02  4896   0.429E+00    0.252E-01
DAV:   4    -0.121009633788E+03   -0.24962E-03   -0.74459E-03  3360   0.980E-01    0.218E-01
DAV:   5    -0.121009829285E+03   -0.19550E-03   -0.51096E-03  3216   0.120E+00    0.206E-01
DAV:   6    -0.121009589560E+03    0.23972E-03   -0.22432E-03  3120   0.904E-01    0.159E-01
DAV:   7    -0.121009251773E+03    0.33779E-03   -0.15105E-03  3104   0.867E-01    0.566E-02
DAV:   8    -0.121009206909E+03    0.44864E-04   -0.41040E-04  1808   0.269E-01
  31 F= -.13511589E+03 E0= -.13510782E+03  d E =-.730790E-02  mag=     0.0000
       N       E                     dE             d eps       ncg     rms          rms(c)
DAV:   1    -0.121014938933E+03   -0.56872E-02   -0.63542E-01  2832   0.172E+00    0.990E-02
DAV:   2    -0.121016634473E+03   -0.16955E-02   -0.15544E-02  4736   0.965E-01    0.168E-01
DAV:   3    -0.121016381111E+03    0.25336E-03   -0.55955E-03  3040   0.119E+00    0.114E-01
DAV:   4    -0.121016222691E+03    0.15842E-03   -0.12238E-03  2000   0.554E-01
  32 F= -.13511874E+03 E0= -.13511090E+03  d E =-.284507E-02  mag=     0.0000
       N       E                     dE             d eps       ncg     rms          rms(c)
DAV:   1    -0.121018469926E+03   -0.20888E-02   -0.15064E-01  3872   0.100E+00    0.117E-01
DAV:   2    -0.121020959921E+03   -0.24900E-02   -0.71251E-03  3456   0.200E+00    0.323E-01
DAV:   3    -0.121018412782E+03    0.25471E-02   -0.51294E-03  2992   0.179E+00    0.713E-02
DAV:   4    -0.121019541788E+03   -0.11290E-02   -0.59354E-03  1936   0.125E+00    0.208E-01
DAV:   5    -0.121018320686E+03    0.12211E-02   -0.47197E-03  1960   0.111E+00    0.243E-02
DAV:   6    -0.121018345782E+03   -0.25095E-04   -0.33273E-04  1888   0.211E-01
  33 F= -.13511891E+03 E0= -.13511103E+03  d E =-.301646E-02  mag=     0.0000
       N       E                     dE             d eps       ncg     rms          rms(c)
DAV:   1    -0.121022536381E+03   -0.42157E-02   -0.24047E-01  2848   0.107E+00    0.395E-02
DAV:   2    -0.121023112230E+03   -0.57585E-03   -0.56985E-03  4048   0.386E-01    0.695E-02
DAV:   3    -0.121023079722E+03    0.32508E-04   -0.83267E-04  1920   0.451E-01
  34 F= -.13512081E+03 E0= -.13511299E+03  d E =-.189699E-02  mag=     0.0000
       N       E                     dE             d eps       ncg     rms          rms(c)
DAV:   1    -0.121031120957E+03   -0.80087E-02   -0.21713E+00  2848   0.319E+00    0.145E-01
DAV:   2    -0.121035940189E+03   -0.48192E-02   -0.47800E-02  4248   0.131E+00    0.240E-01
DAV:   3    -0.121035474136E+03    0.46605E-03   -0.56103E-03  3200   0.116E+00    0.162E-01
DAV:   4    -0.121035518133E+03   -0.43997E-04   -0.24490E-03  2752   0.742E-01    0.162E-01
DAV:   5    -0.121035390660E+03    0.12747E-03   -0.15468E-03  2256   0.640E-01
  35 F= -.13512462E+03 E0= -.13511708E+03  d E =-.570580E-02  mag=     0.0000
       N       E                     dE             d eps       ncg     rms          rms(c)
DAV:   1    -0.121034136929E+03    0.13812E-02   -0.86670E+00  2864   0.638E+00    0.261E-01
DAV:   2    -0.121052547589E+03   -0.18411E-01   -0.19224E-01  3920   0.190E+00    0.356E-01
DAV:   3    -0.121053270839E+03   -0.72325E-03   -0.22564E-02  3200   0.231E+00    0.348E-01
DAV:   4    -0.121051873589E+03    0.13972E-02   -0.10087E-02  3248   0.157E+00    0.251E-01
DAV:   5    -0.121052366334E+03   -0.49274E-03   -0.41252E-03  2896   0.135E+00    0.281E-01
DAV:   6    -0.121051321719E+03    0.10446E-02   -0.45061E-03  4128   0.130E+00    0.141E-01
DAV:   7    -0.121050811501E+03    0.51022E-03   -0.30528E-03  3248   0.109E+00    0.855E-02
DAV:   8    -0.121050854037E+03   -0.42536E-04   -0.94939E-04  2608   0.315E-01
  36 F= -.13512310E+03 E0= -.13511625E+03  d E =-.419081E-02  mag=     0.0000
       N       E                     dE             d eps       ncg     rms          rms(c)
DAV:   1    -0.121035498372E+03    0.15313E-01   -0.35425E+00  2848   0.407E+00    0.168E-01
DAV:   2    -0.121047674089E+03   -0.12176E-01   -0.92851E-02  4976   0.305E+00    0.499E-01
DAV:   3    -0.121042490650E+03    0.51834E-02   -0.36716E-02  4920   0.285E+00    0.201E-01
DAV:   4    -0.121042401690E+03    0.88960E-04   -0.40642E-03  3104   0.810E-01    0.178E-01
DAV:   5    -0.121042457059E+03   -0.55370E-04   -0.20657E-03  3000   0.660E-01    0.165E-01
DAV:   6    -0.121042328934E+03    0.12813E-03   -0.14556E-03  2976   0.535E-01
  37 F= -.13512543E+03 E0= -.13511837E+03  d E =-.652442E-02  mag=     0.0000
       N       E                     dE             d eps       ncg     rms          rms(c)
DAV:   1    -0.121046721912E+03   -0.42649E-02   -0.22526E-01  3680   0.122E+00    0.948E-02
DAV:   2    -0.121053204793E+03   -0.64829E-02   -0.26738E-02  3904   0.293E+00    0.481E-01
DAV:   3    -0.121047249464E+03    0.59553E-02   -0.33605E-02  2720   0.279E+00    0.137E-01
DAV:   4    -0.121046805731E+03    0.44373E-03   -0.19992E-03  2312   0.782E-01    0.552E-02
DAV:   5    -0.121046797944E+03    0.77865E-05   -0.64742E-04  2320   0.254E-01
  38 F= -.13512699E+03 E0= -.13511983E+03  d E =-.156064E-02  mag=     0.0000
       N       E                     dE             d eps       ncg     rms          rms(c)
DAV:   1    -0.121052970020E+03   -0.61643E-02   -0.19803E+00  2864   0.302E+00    0.158E-01
DAV:   2    -0.121057547880E+03   -0.45779E-02   -0.45463E-02  4512   0.136E+00    0.243E-01
DAV:   3    -0.121057081235E+03    0.46664E-03   -0.93606E-03  3496   0.146E+00    0.181E-01
DAV:   4    -0.121056931500E+03    0.14973E-03   -0.30094E-03  2936   0.816E-01    0.156E-01
DAV:   5    -0.121056877926E+03    0.53575E-04   -0.12869E-03  2528   0.732E-01
  39 F= -.13512849E+03 E0= -.13512145E+03  d E =-.305347E-02  mag=     0.0000
       N       E                     dE             d eps       ncg     rms          rms(c)
DAV:   1    -0.121054957038E+03    0.19745E-02   -0.12111E-01  3968   0.111E+00    0.114E-01
DAV:   2    -0.121059289128E+03   -0.43321E-02   -0.18433E-02  3488   0.302E+00    0.389E-01
DAV:   3    -0.121056355633E+03    0.29335E-02   -0.33061E-02  3168   0.292E+00    0.253E-01
DAV:   4    -0.121054808555E+03    0.15471E-02   -0.61053E-03  1944   0.131E+00    0.476E-02
DAV:   5    -0.121054831662E+03   -0.23107E-04   -0.48309E-04  2032   0.297E-01
  40 F= -.13512852E+03 E0= -.13512150E+03  d E =-.308742E-02  mag=     0.0000
       N       E                     dE             d eps       ncg     rms          rms(c)
DAV:   1    -0.121057213379E+03   -0.24048E-02   -0.77093E-02  2976   0.629E-01    0.285E-02
DAV:   2    -0.121057337840E+03   -0.12446E-03   -0.11356E-03  2688   0.295E-01
  41 F= -.13512943E+03 E0= -.13512246E+03  d E =-.905247E-03  mag=     0.0000
       N       E                     dE             d eps       ncg     rms          rms(c)
DAV:   1    -0.121060875779E+03   -0.36624E-02   -0.21218E-01  3000   0.107E+00    0.597E-02
DAV:   2    -0.121062060971E+03   -0.11852E-02   -0.66268E-03  3912   0.114E+00    0.179E-01
DAV:   3    -0.121061356716E+03    0.70426E-03   -0.46118E-03  2520   0.113E+00    0.908E-02
DAV:   4    -0.121061239085E+03    0.11763E-03   -0.99399E-04  1920   0.473E-01
  42 F= -.13513071E+03 E0= -.13512383E+03  d E =-.218819E-02  mag=     0.0000
       N       E                     dE             d eps       ncg     rms          rms(c)
DAV:   1    -0.121066918339E+03   -0.55616E-02   -0.83530E-01  2896   0.196E+00    0.102E-01
DAV:   2    -0.121068599718E+03   -0.16814E-02   -0.17711E-02  4080   0.689E-01    0.140E-01
DAV:   3    -0.121068459899E+03    0.13982E-03   -0.15788E-03  2960   0.635E-01
  43 F= -.13513270E+03 E0= -.13512590E+03  d E =-.417439E-02  mag=     0.0000
       N       E                     dE             d eps       ncg     rms          rms(c)
DAV:   1    -0.121073995601E+03   -0.53959E-02   -0.33358E+00  2896   0.390E+00    0.209E-01
DAV:   2    -0.121080311349E+03   -0.63157E-02   -0.71314E-02  3840   0.101E+00    0.224E-01
DAV:   3    -0.121080527138E+03   -0.21579E-03   -0.51137E-03  3184   0.113E+00    0.236E-01
DAV:   4    -0.121080123801E+03    0.40334E-03   -0.54556E-03  1968   0.119E+00    0.188E-01
DAV:   5    -0.121081326344E+03   -0.12025E-02   -0.63648E-03  2064   0.162E+00    0.270E-01
DAV:   6    -0.121079666166E+03    0.16602E-02   -0.33305E-03  2256   0.142E+00    0.857E-02
DAV:   7    -0.121079458809E+03    0.20736E-03   -0.15376E-03  2496   0.590E-01    0.603E-02
DAV:   8    -0.121079499491E+03   -0.40681E-04   -0.61718E-04  2208   0.161E-01
  44 F= -.13513328E+03 E0= -.13512664E+03  d E =-.475620E-02  mag=     0.0000
       N       E                     dE             d eps       ncg     rms          rms(c)
DAV:   1    -0.121073437529E+03    0.60213E-02   -0.72667E-01  2896   0.183E+00    0.816E-02
DAV:   2    -0.121075374205E+03   -0.19367E-02   -0.16709E-02  4608   0.113E+00    0.186E-01
DAV:   3    -0.121074961281E+03    0.41292E-03   -0.48101E-03  3232   0.115E+00    0.107E-01
DAV:   4    -0.121074826781E+03    0.13450E-03   -0.12834E-03  2408   0.528E-01
  45 F= -.13513350E+03 E0= -.13512670E+03  d E =-.497644E-02  mag=     0.0000
       N       E                     dE             d eps       ncg     rms          rms(c)
DAV:   1    -0.121076820978E+03   -0.18597E-02   -0.52360E-02  3328   0.556E-01    0.718E-02
DAV:   2    -0.121077187030E+03   -0.36605E-03   -0.19096E-03  2816   0.744E-01    0.118E-01
DAV:   3    -0.121077019871E+03    0.16716E-03   -0.23606E-03  1960   0.933E-01    0.846E-02
DAV:   4    -0.121077155621E+03   -0.13575E-03   -0.26718E-03  1856   0.839E-01    0.999E-02
DAV:   5    -0.121076877379E+03    0.27824E-03   -0.14471E-03  1872   0.654E-01    0.318E-02
DAV:   6    -0.121076878629E+03   -0.12503E-05   -0.18178E-04  1712   0.196E-01
  46 F= -.13513448E+03 E0= -.13512775E+03  d E =-.978998E-03  mag=     0.0000
       N       E                     dE             d eps       ncg     rms          rms(c)
DAV:   1    -0.121079360019E+03   -0.24826E-02   -0.15094E-01  2992   0.852E-01    0.448E-02
DAV:   2    -0.121079745108E+03   -0.38509E-03   -0.37654E-03  4032   0.424E-01    0.757E-02
DAV:   3    -0.121079684681E+03    0.60427E-04   -0.94182E-04  1888   0.480E-01
  47 F= -.13513550E+03 E0= -.13512868E+03  d E =-.200336E-02  mag=     0.0000
       N       E                     dE             d eps       ncg     rms          rms(c)
DAV:   1    -0.121080455928E+03   -0.71082E-03   -0.24284E-02  3504   0.382E-01    0.494E-02
DAV:   2    -0.121080457452E+03   -0.15243E-05   -0.38444E-04  1968   0.207E-01
  48 F= -.13513558E+03 E0= -.13512879E+03  d E =-.208591E-02  mag=     0.0000
       N       E                     dE             d eps       ncg     rms          rms(c)
DAV:   1    -0.121083215433E+03   -0.27595E-02   -0.12450E-01  3280   0.861E-01    0.561E-02
DAV:   2    -0.121089338893E+03   -0.61235E-02   -0.27506E-02  3264   0.268E+00    0.443E-01
DAV:   3    -0.121083262562E+03    0.60763E-02   -0.24169E-02  2216   0.237E+00    0.549E-02
DAV:   4    -0.121083334986E+03   -0.72424E-04   -0.89816E-04  2512   0.406E-01
  49 F= -.13513654E+03 E0= -.13512978E+03  d E =-.956008E-03  mag=     0.0000
       N       E                     dE             d eps       ncg     rms          rms(c)
DAV:   1    -0.121086259428E+03   -0.29969E-02   -0.21128E-01  2992   0.104E+00    0.575E-02
DAV:   2    -0.121086790857E+03   -0.53143E-03   -0.50799E-03  4208   0.645E-01    0.101E-01
DAV:   3    -0.121086768968E+03    0.21889E-04   -0.14889E-03  2048   0.671E-01
  50 F= -.13513749E+03 E0= -.13513069E+03  d E =-.190286E-02  mag=     0.0000
       N       E                     dE             d eps       ncg     rms          rms(c)
DAV:   1    -0.121089744846E+03   -0.29540E-02   -0.83576E-01  2960   0.202E+00    0.103E-01
DAV:   2    -0.121092196100E+03   -0.24513E-02   -0.20674E-02  4816   0.125E+00    0.213E-01
DAV:   3    -0.121091456054E+03    0.74005E-03   -0.73266E-03  3464   0.131E+00    0.123E-01
DAV:   4    -0.121091415189E+03    0.40865E-04   -0.14881E-03  2736   0.575E-01
  51 F= -.13513719E+03 E0= -.13513018E+03  d E =-.160092E-02  mag=     0.0000
       N       E                     dE             d eps       ncg     rms          rms(c)
DAV:   1    -0.121087916262E+03    0.35398E-02   -0.33589E-01  2968   0.131E+00    0.669E-02
DAV:   2    -0.121089023253E+03   -0.11070E-02   -0.59901E-03  3280   0.975E-01    0.160E-01
DAV:   3    -0.121088753564E+03    0.26969E-03   -0.77358E-03  3960   0.123E+00    0.969E-02
DAV:   4    -0.121088818756E+03   -0.65193E-04   -0.31859E-03  2224   0.956E-01    0.991E-02
DAV:   5    -0.121088585487E+03    0.23327E-03   -0.97886E-04  1856   0.540E-01    0.208E-02
DAV:   6    -0.121088623625E+03   -0.38138E-04   -0.40845E-04  1776   0.155E-01
  52 F= -.13513753E+03 E0= -.13513062E+03  d E =-.194959E-02  mag=     0.0000
       N       E                     dE             d eps       ncg     rms          rms(c)
DAV:   1    -0.121090316062E+03   -0.17306E-02   -0.37564E-02  2896   0.413E-01    0.199E-02
DAV:   2    -0.121090387587E+03   -0.71525E-04   -0.58179E-04  2048   0.295E-01
  53 F= -.13513794E+03 E0= -.13513105E+03  d E =-.405369E-03  mag=     0.0000
       N       E                     dE             d eps       ncg     rms          rms(c)
DAV:   1    -0.121094211487E+03   -0.38954E-02   -0.23155E-01  2920   0.108E+00    0.562E-02
DAV:   2    -0.121096198426E+03   -0.19869E-02   -0.10533E-02  3048   0.142E+00    0.248E-01
DAV:   3    -0.121094492918E+03    0.17055E-02   -0.82769E-03  3440   0.133E+00    0.536E-02
DAV:   4    -0.121094636989E+03   -0.14407E-03   -0.15479E-03  3040   0.175E-01
  54 F= -.13513882E+03 E0= -.13513188E+03  d E =-.128961E-02  mag=     0.0000
       N       E                     dE             d eps       ncg     rms          rms(c)
DAV:   1    -0.121101056815E+03   -0.65639E-02   -0.91398E-01  2880   0.204E+00    0.103E-01
DAV:   2    -0.121103321412E+03   -0.22646E-02   -0.20180E-02  4552   0.122E+00    0.188E-01
DAV:   3    -0.121102885343E+03    0.43607E-03   -0.50078E-03  3392   0.117E+00    0.136E-01
DAV:   4    -0.121102766986E+03    0.11836E-03   -0.21230E-03  2784   0.683E-01    0.112E-01
DAV:   5    -0.121102719679E+03    0.47307E-04   -0.62833E-04  2080   0.375E-01
  55 F= -.13514018E+03 E0= -.13513312E+03  d E =-.264430E-02  mag=     0.0000
       N       E                     dE             d eps       ncg     rms          rms(c)
DAV:   1    -0.121110572261E+03   -0.78053E-02   -0.36513E+00  2848   0.403E+00    0.201E-01
DAV:   2    -0.121117684189E+03   -0.71119E-02   -0.78252E-02  3792   0.100E+00    0.224E-01
DAV:   3    -0.121117414340E+03    0.26985E-03   -0.23031E-03  3088   0.588E-01    0.191E-01
DAV:   4    -0.121117756389E+03   -0.34205E-03   -0.31237E-03  2048   0.102E+00    0.207E-01
DAV:   5    -0.121118055963E+03   -0.29957E-03   -0.10405E-02  2016   0.156E+00    0.227E-01
DAV:   6    -0.121117975568E+03    0.80395E-04   -0.93704E-03  2160   0.174E+00    0.207E-01
DAV:   7    -0.121116936348E+03    0.10392E-02   -0.31476E-03  2032   0.136E+00    0.706E-02
DAV:   8    -0.121116805863E+03    0.13049E-03   -0.55649E-04  2024   0.370E-01
  56 F= -.13514082E+03 E0= -.13513362E+03  d E =-.328646E-02  mag=     0.0000
       N       E                     dE             d eps       ncg     rms          rms(c)
DAV:   1    -0.121111242370E+03    0.56940E-02   -0.46904E-01  2848   0.145E+00    0.676E-02
DAV:   2    -0.121112158311E+03   -0.91594E-03   -0.99675E-03  3888   0.420E-01    0.874E-02
DAV:   3    -0.121112127566E+03    0.30745E-04   -0.56214E-04  2176   0.381E-01
  57 F= -.13514097E+03 E0= -.13513380E+03  d E =-.343869E-02  mag=     0.0000
       N       E                     dE             d eps       ncg     rms          rms(c)
DAV:   1    -0.121113346871E+03   -0.11886E-02   -0.19816E-02  3952   0.399E-01    0.564E-02
DAV:   2    -0.121115356138E+03   -0.20093E-02   -0.92065E-03  2072   0.150E+00    0.261E-01
DAV:   3    -0.121113315953E+03    0.20402E-02   -0.85862E-03  1936   0.142E+00    0.311E-02
DAV:   4    -0.121113478565E+03   -0.16261E-03   -0.42042E-04  1824   0.481E-01
  58 F= -.13514134E+03 E0= -.13513435E+03  d E =-.369084E-03  mag=     0.0000
       N       E                     dE             d eps       ncg     rms          rms(c)
DAV:   1    -0.121115879083E+03   -0.25631E-02   -0.98802E-02  3344   0.774E-01    0.365E-02
DAV:   2    -0.121116096520E+03   -0.21744E-03   -0.21308E-03  3216   0.378E-01    0.633E-02
DAV:   3    -0.121116101253E+03   -0.47329E-05   -0.80354E-04  1840   0.461E-01
  59 F= -.13514180E+03 E0= -.13513472E+03  d E =-.832422E-03  mag=     0.0000
       N       E                     dE             d eps       ncg     rms          rms(c)
DAV:   1    -0.121120317435E+03   -0.42209E-02   -0.39250E-01  2896   0.134E+00    0.840E-02
DAV:   2    -0.121121239368E+03   -0.92193E-03   -0.90498E-03  4304   0.636E-01    0.122E-01
DAV:   3    -0.121121074577E+03    0.16479E-03   -0.19870E-03  2688   0.709E-01
  60 F= -.13514248E+03 E0= -.13513528E+03  d E =-.151072E-02  mag=     0.0000
       N       E                     dE             d eps       ncg     rms          rms(c)
DAV:   1    -0.121126254227E+03   -0.50149E-02   -0.15661E+00  2912   0.269E+00    0.181E-01
DAV:   2    -0.121134532887E+03   -0.82787E-02   -0.53455E-02  4960   0.277E+00    0.476E-01
DAV:   3    -0.121129045002E+03    0.54879E-02   -0.32327E-02  4768   0.262E+00    0.194E-01
DAV:   4    -0.121128907024E+03    0.13798E-03   -0.32106E-03  3280   0.963E-01    0.169E-01
DAV:   5    -0.121128687101E+03    0.21992E-03   -0.21497E-03  3040   0.749E-01    0.107E-01
DAV:   6    -0.121128797853E+03   -0.11075E-03   -0.10989E-03  2976   0.713E-01
  61 F= -.13514173E+03 E0= -.13513470E+03  d E =-.753746E-03  mag=     0.0000
       N       E                     dE             d eps       ncg     rms          rms(c)
DAV:   1    -0.121122104804E+03    0.65823E-02   -0.79032E-01  2928   0.193E+00    0.968E-02
DAV:   2    -0.121124426217E+03   -0.23214E-02   -0.18681E-02  4800   0.130E+00    0.212E-01
DAV:   3    -0.121123597541E+03    0.82868E-03   -0.30837E-03  3664   0.110E+00    0.102E-01
DAV:   4    -0.121123561368E+03    0.36173E-04   -0.43770E-04  2128   0.284E-01
  62 F= -.13514249E+03 E0= -.13513535E+03  d E =-.151741E-02  mag=     0.0000
       N       E                     dE             d eps       ncg     rms          rms(c)
DAV:   1    -0.121122282604E+03    0.13149E-02   -0.49644E-02  4072   0.746E-01    0.123E-01
DAV:   2    -0.121156416196E+03   -0.34134E-01   -0.14858E-01  3360   0.618E+00    0.107E+00
DAV:   3    -0.121121955285E+03    0.34461E-01   -0.13171E-01  2960   0.527E+00    0.755E-02
DAV:   4    -0.121122112686E+03   -0.15740E-03   -0.95680E-04  1936   0.717E-01
  63 F= -.13514255E+03 E0= -.13513549E+03  d E =-.157485E-02  mag=     0.0000
       N       E                     dE             d eps       ncg     rms          rms(c)
DAV:   1    -0.121122747624E+03   -0.79234E-03   -0.12564E-02  4336   0.701E-01    0.668E-02
DAV:   2    -0.121123911530E+03   -0.11639E-02   -0.27013E-03  2944   0.141E+00    0.226E-01
DAV:   3    -0.121122915434E+03    0.99610E-03   -0.37116E-03  2096   0.135E+00    0.879E-02
DAV:   4    -0.121122812533E+03    0.10290E-03   -0.16337E-03  1808   0.638E-01
  64 F= -.13514249E+03 E0= -.13513530E+03  d E =-.152109E-02  mag=     0.0000
       N       E                     dE             d eps       ncg     rms          rms(c)
DAV:   1    -0.121122213211E+03    0.70222E-03   -0.52561E-03  3856   0.403E-01    0.120E-02
DAV:   2    -0.121122361069E+03   -0.14786E-03   -0.72276E-04  1920   0.421E-01
  65 F= -.13514254E+03 E0= -.13513532E+03  d E =-.156644E-02  mag=     0.0000
       N       E                     dE             d eps       ncg     rms          rms(c)
DAV:   1    -0.121122402628E+03   -0.18942E-03   -0.97890E-04  2128   0.398E-01    0.194E-02
DAV:   2    -0.121122555062E+03   -0.15243E-03   -0.12556E-03  2768   0.300E-01
  66 F= -.13514244E+03 E0= -.13513528E+03  d E =-.146359E-02  mag=     0.0000
       N       E                     dE             d eps       ncg     rms          rms(c)
DAV:   1    -0.121122310955E+03    0.91673E-04   -0.56581E-04  1904   0.367E-01    0.308E-02
DAV:   2    -0.121125853707E+03   -0.35428E-02   -0.16009E-02  1976   0.201E+00    0.347E-01
DAV:   3    -0.121122270919E+03    0.35828E-02   -0.13430E-02  1808   0.177E+00    0.137E-02
DAV:   4    -0.121122312293E+03   -0.41373E-04   -0.17369E-04  1808   0.112E-01
  67 F= -.13514239E+03 E0= -.13513521E+03  d E =-.142067E-02  mag=     0.0000
       N       E                     dE             d eps       ncg     rms          rms(c)
DAV:   1    -0.121122448737E+03   -0.17782E-03   -0.17554E-04  1832   0.141E-01    0.150E-02
DAV:   2    -0.121122651196E+03   -0.20246E-03   -0.82284E-04  1808   0.501E-01    0.859E-02
DAV:   3    -0.121122465429E+03    0.18577E-03   -0.96690E-04  1824   0.506E-01
  68 F= -.13514244E+03 E0= -.13513530E+03  d E =-.146301E-02  mag=     0.0000
       N       E                     dE             d eps       ncg     rms          rms(c)
DAV:   1    -0.121122422176E+03    0.22902E-03   -0.86431E-05  1712   0.174E-01    0.746E-03
DAV:   2    -0.121122560217E+03   -0.13804E-03   -0.54274E-04  1808   0.404E-01
  69 F= -.13514256E+03 E0= -.13513543E+03  d E =-.158733E-02  mag=     0.0000
       N       E                     dE             d eps       ncg     rms          rms(c)
DAV:   1    -0.121122440630E+03   -0.18454E-04   -0.56811E-04  1808   0.391E-01    0.202E-02
DAV:   2    -0.121123237337E+03   -0.79671E-03   -0.31098E-03  1920   0.975E-01    0.164E-01
DAV:   3    -0.121122484424E+03    0.75291E-03   -0.35387E-03  1792   0.942E-01    0.457E-02
DAV:   4    -0.121122430840E+03    0.53584E-04   -0.16770E-04  1720   0.250E-01
  70 F= -.13514242E+03 E0= -.13513526E+03  d E =-.144833E-02  mag=     0.0000
       N       E                     dE             d eps       ncg     rms          rms(c)
DAV:   1    -0.121124333150E+03   -0.18487E-02   -0.53175E-02  2864   0.493E-01    0.212E-02
DAV:   2    -0.121124404410E+03   -0.71259E-04   -0.75198E-04  2336   0.176E-01
  71 F= -.13514279E+03 E0= -.13513562E+03  d E =-.364689E-03  mag=     0.0000
       N       E                     dE             d eps       ncg     rms          rms(c)
DAV:   1    -0.121128078563E+03   -0.37454E-02   -0.22739E-01  2864   0.105E+00    0.594E-02
DAV:   2    -0.121128675104E+03   -0.59654E-03   -0.54300E-03  3984   0.568E-01    0.106E-01
DAV:   3    -0.121128474777E+03    0.20033E-03   -0.16195E-03  2144   0.593E-01    0.655E-02
DAV:   4    -0.121128469037E+03    0.57402E-05   -0.30056E-04  1728   0.192E-01
  72 F= -.13514354E+03 E0= -.13513651E+03  d E =-.112292E-02  mag=     0.0000
       N       E                     dE             d eps       ncg     rms          rms(c)
DAV:   1    -0.121134827897E+03   -0.63531E-02   -0.89834E-01  2848   0.204E+00    0.116E-01
DAV:   2    -0.121136701816E+03   -0.18739E-02   -0.18486E-02  4544   0.869E-01    0.170E-01
DAV:   3    -0.121136490074E+03    0.21174E-03   -0.38966E-03  3008   0.101E+00    0.139E-01
DAV:   4    -0.121136397185E+03    0.92889E-04   -0.17720E-03  2320   0.667E-01
  73 F= -.13514486E+03 E0= -.13513791E+03  d E =-.243774E-02  mag=     0.0000
       N       E                     dE             d eps       ncg     rms          rms(c)
DAV:   1    -0.121144571202E+03   -0.80811E-02   -0.35853E+00  2848   0.409E+00    0.227E-01
DAV:   2    -0.121153643870E+03   -0.90727E-02   -0.82813E-02  4688   0.211E+00    0.389E-01
DAV:   3    -0.121151600834E+03    0.20430E-02   -0.20449E-02  3536   0.214E+00    0.275E-01
DAV:   4    -0.121151238979E+03    0.36186E-03   -0.58768E-03  3120   0.117E+00    0.223E-01
DAV:   5    -0.121151034559E+03    0.20442E-03   -0.29637E-03  3088   0.853E-01    0.187E-01
DAV:   6    -0.121150844956E+03    0.18960E-03   -0.25709E-03  3352   0.723E-01    0.120E-01
DAV:   7    -0.121150639302E+03    0.20565E-03   -0.13519E-03  2928   0.722E-01    0.404E-02
DAV:   8    -0.121150590607E+03    0.48696E-04   -0.32691E-04  1872   0.316E-01
  74 F= -.13514582E+03 E0= -.13513923E+03  d E =-.340371E-02  mag=     0.0000
       N       E                     dE             d eps       ncg     rms          rms(c)
DAV:   1    -0.121154473038E+03   -0.38337E-02   -0.25740E-01  2848   0.109E+00    0.735E-02
DAV:   2    -0.121155508351E+03   -0.10353E-02   -0.77321E-03  4304   0.900E-01    0.155E-01
DAV:   3    -0.121155104588E+03    0.40376E-03   -0.30216E-03  2224   0.908E-01    0.886E-02
DAV:   4    -0.121155043795E+03    0.60793E-04   -0.10981E-03  1944   0.548E-01
  75 F= -.13514664E+03 E0= -.13514019E+03  d E =-.820071E-03  mag=     0.0000
       N       E                     dE             d eps       ncg     rms          rms(c)
DAV:   1    -0.121154839897E+03    0.26469E-03   -0.46208E-04  1840   0.299E-01    0.444E-02
DAV:   2    -0.121154999069E+03   -0.15917E-03   -0.69826E-04  2048   0.530E-01
  76 F= -.13514673E+03 E0= -.13514035E+03  d E =-.900731E-03  mag=     0.0000
       N       E                     dE             d eps       ncg     rms          rms(c)
DAV:   1    -0.121155031517E+03   -0.19162E-03   -0.91735E-04  1968   0.597E-01    0.447E-02
DAV:   2    -0.121162187601E+03   -0.71561E-02   -0.32283E-02  1968   0.287E+00    0.487E-01
DAV:   3    -0.121155015149E+03    0.71725E-02   -0.26920E-02  1904   0.250E+00    0.497E-02
DAV:   4    -0.121154974936E+03    0.40213E-04   -0.19439E-04  1744   0.305E-01
  77 F= -.13514658E+03 E0= -.13514006E+03  d E =-.756684E-03  mag=     0.0000
       N       E                     dE             d eps       ncg     rms          rms(c)
DAV:   1    -0.121154926179E+03    0.88971E-04   -0.14288E-04  1776   0.923E-02    0.138E-02
DAV:   2    -0.121155058306E+03   -0.13213E-03   -0.59032E-04  1792   0.381E-01
  78 F= -.13514672E+03 E0= -.13514028E+03  d E =-.899999E-03  mag=     0.0000
       N       E                     dE             d eps       ncg     rms          rms(c)
DAV:   1    -0.121154961936E+03   -0.35757E-04   -0.68498E-04  1792   0.418E-01    0.218E-02
DAV:   2    -0.121155573649E+03   -0.61171E-03   -0.25231E-03  1936   0.903E-01    0.146E-01
DAV:   3    -0.121154983872E+03    0.58978E-03   -0.29468E-03  1808   0.856E-01    0.362E-02
DAV:   4    -0.121154959547E+03    0.24325E-04   -0.11296E-04  1696   0.215E-01
  79 F= -.13514660E+03 E0= -.13514008E+03  d E =-.776774E-03  mag=     0.0000
       N       E                     dE             d eps       ncg     rms          rms(c)
DAV:   1    -0.121157627360E+03   -0.26435E-02   -0.23513E-01  2816   0.104E+00    0.459E-02
DAV:   2    -0.121158271651E+03   -0.64429E-03   -0.54145E-03  4048   0.583E-01    0.105E-01
DAV:   3    -0.121158107656E+03    0.16400E-03   -0.13954E-03  2272   0.572E-01
  80 F= -.13514729E+03 E0= -.13514077E+03  d E =-.692383E-03  mag=     0.0000
       N       E                     dE             d eps       ncg     rms          rms(c)
DAV:   1    -0.121161781488E+03   -0.35098E-02   -0.65039E-01  2832   0.177E+00    0.110E-01
DAV:   2    -0.121163783740E+03   -0.20023E-02   -0.16342E-02  4528   0.123E+00    0.212E-01
DAV:   3    -0.121163071894E+03    0.71185E-03   -0.41951E-03  3296   0.112E+00    0.125E-01
DAV:   4    -0.121163011750E+03    0.60144E-04   -0.16005E-03  2336   0.599E-01
  81 F= -.13514813E+03 E0= -.13514175E+03  d E =-.153149E-02  mag=     0.0000
       N       E                     dE             d eps       ncg     rms          rms(c)
DAV:   1    -0.121166720800E+03   -0.36489E-02   -0.25902E+00  2832   0.348E+00    0.194E-01
DAV:   2    -0.121172122463E+03   -0.54017E-02   -0.58167E-02  4000   0.121E+00    0.261E-01
DAV:   3    -0.121171783533E+03    0.33893E-03   -0.58123E-03  3296   0.113E+00    0.205E-01
DAV:   4    -0.121171984552E+03   -0.20102E-03   -0.45579E-03  2544   0.109E+00    0.215E-01
DAV:   5    -0.121171594031E+03    0.39052E-03   -0.40401E-03  2064   0.111E+00    0.176E-01
DAV:   6    -0.121171167745E+03    0.42629E-03   -0.17251E-03  2480   0.855E-01    0.115E-01
DAV:   7    -0.121171027788E+03    0.13996E-03   -0.10639E-03  2752   0.660E-01
  82 F= -.13514804E+03 E0= -.13514174E+03  d E =-.143702E-02  mag=     0.0000
       N       E                     dE             d eps       ncg     rms          rms(c)
DAV:   1    -0.121165778207E+03    0.53895E-02   -0.72564E-01  2816   0.184E+00    0.100E-01
DAV:   2    -0.121171092353E+03   -0.53141E-02   -0.28914E-02  4896   0.242E+00    0.397E-01
DAV:   3    -0.121167405027E+03    0.36873E-02   -0.20536E-02  4496   0.230E+00    0.156E-01
DAV:   4    -0.121166990693E+03    0.41433E-03   -0.21167E-03  2848   0.731E-01    0.898E-02
DAV:   5    -0.121167033601E+03   -0.42908E-04   -0.94382E-04  2624   0.217E-01
  83 F= -.13514834E+03 E0= -.13514200E+03  d E =-.173829E-02  mag=     0.0000
       N       E                     dE             d eps       ncg     rms          rms(c)
DAV:   1    -0.121169400336E+03   -0.24096E-02   -0.21146E-01  2848   0.103E+00    0.813E-02
DAV:   2    -0.121173292183E+03   -0.38918E-02   -0.16701E-02  4688   0.211E+00    0.361E-01
DAV:   3    -0.121170300560E+03    0.29916E-02   -0.18254E-02  2848   0.212E+00    0.151E-01
DAV:   4    -0.121169827695E+03    0.47287E-03   -0.31133E-03  1936   0.993E-01    0.676E-02
DAV:   5    -0.121169786261E+03    0.41434E-04   -0.66728E-04  1984   0.434E-01
  84 F= -.13514918E+03 E0= -.13514285E+03  d E =-.839680E-03  mag=     0.0000
       N       E                     dE             d eps       ncg     rms          rms(c)
DAV:   1    -0.121170650555E+03   -0.82286E-03   -0.38298E-02  3648   0.498E-01    0.460E-02
DAV:   2    -0.121170734989E+03   -0.84434E-04   -0.73324E-04  2016   0.399E-01
  85 F= -.13514934E+03 E0= -.13514302E+03  d E =-.100146E-02  mag=     0.0000
       N       E                     dE             d eps       ncg     rms          rms(c)
DAV:   1    -0.121170408141E+03    0.24241E-03   -0.14881E-03  2240   0.535E-01    0.567E-02
DAV:   2    -0.121176801635E+03   -0.63935E-02   -0.29176E-02  2592   0.268E+00    0.471E-01
DAV:   3    -0.121170361134E+03    0.64405E-02   -0.25717E-02  1856   0.242E+00    0.243E-02
DAV:   4    -0.121170408866E+03   -0.47732E-04   -0.33009E-04  1872   0.266E-01
  86 F= -.13514918E+03 E0= -.13514283E+03  d E =-.842727E-03  mag=     0.0000
       N       E                     dE             d eps       ncg     rms          rms(c)
DAV:   1    -0.121170648727E+03   -0.28759E-03   -0.53329E-04  2272   0.244E-01    0.293E-02
DAV:   2    -0.121171733223E+03   -0.10845E-02   -0.43682E-03  1872   0.118E+00    0.200E-01
DAV:   3    -0.121170714357E+03    0.10189E-02   -0.47817E-03  1840   0.109E+00    0.543E-02
DAV:   4    -0.121170643947E+03    0.70409E-04   -0.31249E-04  1744   0.326E-01
  87 F= -.13514926E+03 E0= -.13514300E+03  d E =-.917816E-03  mag=     0.0000
       N       E                     dE             d eps       ncg     rms          rms(c)
DAV:   1    -0.121170557575E+03    0.15678E-03   -0.10729E-04  1728   0.968E-02    0.134E-02
DAV:   2    -0.121170636802E+03   -0.79227E-04   -0.33718E-04  1760   0.317E-01
  88 F= -.13514933E+03 E0= -.13514310E+03  d E =-.990611E-03  mag=     0.0000
       N       E                     dE             d eps       ncg     rms          rms(c)
DAV:   1    -0.121170627761E+03   -0.70187E-04   -0.48649E-04  1808   0.366E-01    0.258E-02
DAV:   2    -0.121172172164E+03   -0.15444E-02   -0.67391E-03  1904   0.135E+00    0.228E-01
DAV:   3    -0.121170625740E+03    0.15464E-02   -0.65706E-03  1824   0.125E+00    0.278E-02
DAV:   4    -0.121170618227E+03    0.75132E-05   -0.71243E-05  1712   0.187E-01
  89 F= -.13514927E+03 E0= -.13514299E+03  d E =-.927773E-03  mag=     0.0000
       N       E                     dE             d eps       ncg     rms          rms(c)
DAV:   1    -0.121170607270E+03    0.18470E-04   -0.14838E-05  1712   0.744E-02    0.502E-03
DAV:   2    -0.121170609726E+03   -0.24553E-05   -0.11060E-05  1632   0.801E-02
  90 F= -.13514927E+03 E0= -.13514293E+03  d E =-.927793E-03  mag=     0.0000
       N       E                     dE             d eps       ncg     rms          rms(c)
DAV:   1    -0.121170610780E+03   -0.35091E-05   -0.13290E-05  1536   0.691E-02    0.606E-03
DAV:   2    -0.121170668796E+03   -0.58016E-04   -0.24155E-04  1680   0.272E-01
  91 F= -.13514932E+03 E0= -.13514300E+03  d E =-.984900E-03  mag=     0.0000
       N       E                     dE             d eps       ncg     rms          rms(c)
DAV:   1    -0.121171366490E+03   -0.75571E-03   -0.25442E-02  3808   0.442E-01    0.180E-02
DAV:   2    -0.121171640691E+03   -0.27420E-03   -0.12738E-03  1952   0.551E-01    0.964E-02
DAV:   3    -0.121171387777E+03    0.25291E-03   -0.10693E-03  1872   0.516E-01    0.245E-02
DAV:   4    -0.121171388530E+03   -0.75271E-06   -0.12856E-04  1728   0.183E-01
  92 F= -.13514943E+03 E0= -.13514314E+03  d E =-.108033E-03  mag=     0.0000
       N       E                     dE             d eps       ncg     rms          rms(c)
DAV:   1    -0.121172517888E+03   -0.11301E-02   -0.70190E-02  2864   0.578E-01    0.325E-02
DAV:   2    -0.121172656876E+03   -0.13899E-03   -0.13184E-03  2800   0.330E-01
  93 F= -.13514969E+03 E0= -.13514344E+03  d E =-.361229E-03  mag=     0.0000
       N       E                     dE             d eps       ncg     rms          rms(c)
DAV:   1    -0.121174422867E+03   -0.19050E-02   -0.28202E-01  2864   0.122E+00    0.759E-02
DAV:   2    -0.121176263958E+03   -0.18411E-02   -0.11658E-02  4016   0.132E+00    0.225E-01
DAV:   3    -0.121174905752E+03    0.13582E-02   -0.65671E-03  2848   0.122E+00    0.727E-02
DAV:   4    -0.121174968902E+03   -0.63150E-04   -0.89264E-04  2560   0.347E-01
  94 F= -.13514997E+03 E0= -.13514389E+03  d E =-.643725E-03  mag=     0.0000
       N       E                     dE             d eps       ncg     rms          rms(c)
DAV:   1    -0.121175879543E+03   -0.97379E-03   -0.40193E-02  3888   0.652E-01    0.752E-02
DAV:   2    -0.121178236829E+03   -0.23573E-02   -0.94512E-03  2432   0.176E+00    0.296E-01
DAV:   3    -0.121176103886E+03    0.21329E-02   -0.10514E-02  2144   0.171E+00    0.108E-01
DAV:   4    -0.121175865924E+03    0.23796E-03   -0.16020E-03  1824   0.724E-01    0.570E-02
DAV:   5    -0.121175831651E+03    0.34273E-04   -0.37297E-04  1952   0.348E-01
  95 F= -.13515015E+03 E0= -.13514399E+03  d E =-.180610E-03  mag=     0.0000
       N       E                     dE             d eps       ncg     rms          rms(c)
DAV:   1    -0.121175736502E+03    0.12942E-03   -0.39575E-04  1840   0.237E-01    0.269E-02
DAV:   2    -0.121176258140E+03   -0.52164E-03   -0.24054E-03  1824   0.813E-01    0.143E-01
DAV:   3    -0.121175761389E+03    0.49675E-03   -0.27789E-03  1824   0.827E-01    0.320E-02
DAV:   4    -0.121175746549E+03    0.14840E-04   -0.12552E-04  1744   0.220E-01
  96 F= -.13515013E+03 E0= -.13514403E+03  d E =-.165973E-03  mag=     0.0000
       N       E                     dE             d eps       ncg     rms          rms(c)
DAV:   1    -0.121175821719E+03   -0.60330E-04   -0.12880E-04  1728   0.133E-01    0.120E-02
DAV:   2    -0.121175884407E+03   -0.62688E-04   -0.20927E-04  1776   0.324E-01
  97 F= -.13515021E+03 E0= -.13514414E+03  d E =-.241220E-03  mag=     0.0000
       N       E                     dE             d eps       ncg     rms          rms(c)
DAV:   1    -0.121175796877E+03    0.24842E-04   -0.17857E-04  1776   0.277E-01    0.140E-02
DAV:   2    -0.121176468714E+03   -0.67184E-03   -0.30531E-03  1840   0.862E-01    0.152E-01
DAV:   3    -0.121175789470E+03    0.67924E-03   -0.26139E-03  1792   0.795E-01    0.718E-03
DAV:   4    -0.121175795395E+03   -0.59252E-05   -0.24811E-05  1712   0.673E-02
  98 F= -.13515015E+03 E0= -.13514400E+03  d E =-.183488E-03  mag=     0.0000
       N       E                     dE             d eps       ncg     rms          rms(c)
DAV:   1    -0.121175814222E+03   -0.24751E-04   -0.25019E-05  1584   0.461E-02    0.451E-03
DAV:   2    -0.121175830577E+03   -0.16355E-04   -0.70147E-05  1488   0.151E-01
  99 F= -.13515017E+03 E0= -.13514402E+03  d E =-.203269E-03  mag=     0.0000
       N       E                     dE             d eps       ncg     rms          rms(c)
DAV:   1    -0.121176205242E+03   -0.39102E-03   -0.56441E-02  2848   0.539E-01    0.278E-02
DAV:   2    -0.121176660835E+03   -0.45559E-03   -0.22848E-03  2016   0.700E-01    0.126E-01
DAV:   3    -0.121176267423E+03    0.39341E-03   -0.17844E-03  1968   0.668E-01    0.370E-02
DAV:   4    -0.121176276987E+03   -0.95645E-05   -0.31129E-04  1776   0.225E-01
 100 F= -.13515037E+03 E0= -.13514421E+03  d E =-.195189E-03  mag=     0.0000
       N       E                     dE             d eps       ncg     rms          rms(c)
DAV:   1    -0.121176545212E+03   -0.27779E-03   -0.14381E-02  3152   0.294E-01    0.301E-02
DAV:   2    -0.121176588546E+03   -0.43334E-04   -0.36582E-04  1808   0.278E-01
 101 F= -.13515056E+03 E0= -.13514445E+03  d E =-.386729E-03  mag=     0.0000
       N       E                     dE             d eps       ncg     rms          rms(c)
DAV:   1    -0.121176959307E+03   -0.41409E-03   -0.52541E-02  3872   0.625E-01    0.496E-02
DAV:   2    -0.121180171631E+03   -0.32123E-02   -0.14959E-02  1952   0.191E+00    0.330E-01
DAV:   3    -0.121176922780E+03    0.32489E-02   -0.11738E-02  1968   0.165E+00    0.348E-02
DAV:   4    -0.121176979227E+03   -0.56447E-04   -0.23774E-04  1856   0.292E-01
 102 F= -.13515071E+03 E0= -.13514443E+03  d E =-.537646E-03  mag=     0.0000
       N       E                     dE             d eps       ncg     rms          rms(c)
DAV:   1    -0.121177191365E+03   -0.26859E-03   -0.20645E-01  2832   0.103E+00    0.575E-02
DAV:   2    -0.121179699687E+03   -0.25083E-02   -0.13206E-02  4048   0.169E+00    0.282E-01
DAV:   3    -0.121177536302E+03    0.21634E-02   -0.10227E-02  2672   0.153E+00    0.591E-02
DAV:   4    -0.121177629746E+03   -0.93444E-04   -0.12743E-03  3072   0.287E-01
 103 F= -.13515088E+03 E0= -.13514480E+03  d E =-.709900E-03  mag=     0.0000
       N       E                     dE             d eps       ncg     rms          rms(c)
DAV:   1    -0.121176927461E+03    0.60884E-03   -0.82603E-01  2848   0.199E+00    0.127E-01
DAV:   2    -0.121179670557E+03   -0.27431E-02   -0.23603E-02  4624   0.133E+00    0.246E-01
DAV:   3    -0.121178615739E+03    0.10548E-02   -0.72244E-03  3664   0.128E+00    0.139E-01
DAV:   4    -0.121178583431E+03    0.32308E-04   -0.14333E-03  2800   0.592E-01
 104 F= -.13515088E+03 E0= -.13514472E+03  d E =-.712745E-03  mag=     0.0000
       N       E                     dE             d eps       ncg     rms          rms(c)
DAV:   1    -0.121179148424E+03   -0.53268E-03   -0.48420E-02  3904   0.724E-01    0.118E-01
DAV:   2    -0.121180411174E+03   -0.12627E-02   -0.40868E-03  2912   0.147E+00    0.238E-01
DAV:   3    -0.121179063544E+03    0.13476E-02   -0.37711E-03  2064   0.144E+00    0.891E-02
DAV:   4    -0.121180292404E+03   -0.12289E-02   -0.74316E-03  1888   0.137E+00    0.222E-01
DAV:   5    -0.121178968423E+03    0.13240E-02   -0.55683E-03  1936   0.121E+00    0.459E-02
DAV:   6    -0.121178947663E+03    0.20760E-04   -0.23505E-04  1904   0.323E-01
 105 F= -.13515083E+03 E0= -.13514470E+03  d E =0.575805E-04  mag=     0.0000
       N       E                     dE             d eps       ncg     rms          rms(c)
DAV:   1    -0.121179086582E+03   -0.11816E-03   -0.29862E-03  3872   0.162E-01    0.124E-02
DAV:   2    -0.121179110933E+03   -0.24351E-04   -0.16325E-04  1824   0.165E-01
 106 F= -.13515089E+03 E0= -.13514473E+03  d E =-.755450E-05  mag=     0.0000
       N       E                     dE             d eps       ncg     rms          rms(c)
DAV:   1    -0.121179311272E+03   -0.22469E-03   -0.10646E-02  3888   0.311E-01    0.256E-02
DAV:   2    -0.121180151591E+03   -0.84032E-03   -0.39016E-03  2000   0.100E+00    0.168E-01
DAV:   3    -0.121179311698E+03    0.83989E-03   -0.33739E-03  1824   0.902E-01    0.217E-02
DAV:   4    -0.121179320547E+03   -0.88494E-05   -0.60807E-05  1696   0.145E-01
 107 F= -.13515091E+03 E0= -.13514471E+03  d E =-.213828E-04  mag=     0.0000
       N       E                     dE             d eps       ncg     rms          rms(c)
DAV:   1    -0.121179849000E+03   -0.53730E-03   -0.38632E-02  2960   0.450E-01    0.238E-02
DAV:   2    -0.121179924525E+03   -0.75525E-04   -0.45381E-04  1968   0.335E-01
 108 F= -.13515124E+03 E0= -.13514499E+03  d E =-.332329E-03  mag=     0.0000
