<?xml version="1.0" encoding="ISO-8859-1"?>
<modeling>
 <generator>
  <i name="program" type="string">vasp </i>
  <i name="version" type="string">6.3.2  </i>
  <i name="subversion" type="string">27Jun22 (build Aug 17 2022 15:43:34) complex                          parallel </i>
  <i name="platform" type="string">tv2STDVTST </i>
  <i name="date" type="string">2025 02 17 </i>
  <i name="time" type="string">21:17:31 </i>
 </generator>
 <incar>
  <i type="int" name="ISTART">     0</i>
  <i type="string" name="PREC">Normal</i>
  <i type="int" name="ISPIN">     2</i>
  <i type="int" name="ICHARG">     2</i>
  <i type="int" name="IBRION">     2</i>
  <i name="EDIFF">      0.00020000</i>
  <i name="EDIFFG">     -0.03000000</i>
  <i type="int" name="NSW">   800</i>
  <i type="int" name="ISIF">     2</i>
  <i type="int" name="ISYM">     1</i>
  <i name="ENCUT">    400.00000000</i>
  <i name="POTIM">      0.50000000</i>
  <i type="logical" name="LREAL"> F  </i>
  <i type="int" name="ISMEAR">     1</i>
  <i name="SIGMA">      0.20000000</i>
  <i type="logical" name="LWAVE"> F  </i>
  <i type="logical" name="LCHARG"> F  </i>
  <i type="string" name="GGA">PE</i>
  <i type="int" name="IVDW">    11</i>
 </incar>
 <primitive_cell>
  <structure name="primitive_cell" >
   <crystal>
    <varray name="basis" >
     <v>       5.13359547       0.00000000       0.00000000 </v>
     <v>       2.56679773       4.44582409       0.00000000 </v>
     <v>       0.00000000       0.00000000      29.67047119 </v>
    </varray>
    <i name="volume">    677.17101477 </i>
    <varray name="rec_basis" >
     <v>       0.19479525      -0.11246509       0.00000000 </v>
     <v>       0.00000000       0.22493018       0.00000000 </v>
     <v>       0.00000000       0.00000000       0.03370354 </v>
    </varray>
   </crystal>
   <varray name="positions" >
    <v>       0.00000000       0.00000000       0.00000000 </v>
    <v>       1.00000000       0.50000000       0.00000000 </v>
    <v>       0.50000000       0.00000000       0.00000000 </v>
    <v>       0.50000000       0.50000000       0.00000000 </v>
    <v>       0.16666667       0.16666667       0.07063526 </v>
    <v>       0.16666667       0.66666667       0.07063526 </v>
    <v>       0.66666667       0.16666667       0.07063526 </v>
    <v>       0.66666667       0.66666667       0.07063526 </v>
    <v>       0.33333333       0.33333333       0.13847021 </v>
    <v>       0.33333333       0.83333333       0.13847021 </v>
    <v>       0.83333333       0.33333333       0.13847021 </v>
    <v>       0.83333333       0.83333333       0.13847021 </v>
    <v>       0.00000000       0.00000000       0.20667428 </v>
    <v>       1.00000000       0.50000000       0.20667428 </v>
    <v>       0.50000000       0.00000000       0.20667428 </v>
    <v>       0.50000000       0.50000000       0.20667428 </v>
    <v>       0.16666667       0.16666667       0.27488859 </v>
    <v>       0.16666667       0.66666667       0.27488859 </v>
    <v>       0.66666667       0.16666667       0.27488859 </v>
    <v>       0.66666667       0.66666667       0.27488859 </v>
    <v>       0.33333333       0.33333333       0.34319917 </v>
    <v>       0.33333333       0.83333333       0.34319917 </v>
    <v>       0.83333333       0.33333333       0.34319917 </v>
    <v>       0.83333333       0.83333333       0.34319917 </v>
    <v>       0.00000000       0.00000000       0.41105828 </v>
    <v>       1.00000000       0.50000000       0.41105828 </v>
    <v>       0.50000000       0.00000000       0.41105828 </v>
    <v>       0.50000000       0.50000000       0.41105828 </v>
    <v>       0.16666667       0.16666667       0.48054462 </v>
    <v>       0.16666667       0.66666667       0.48054462 </v>
    <v>       0.66666667       0.16666667       0.48054462 </v>
    <v>       0.66666667       0.66666667       0.48054462 </v>
    <v>       0.33333333       0.83333333       0.53425930 </v>
    <v>       0.33333333       0.83333333       0.55940215 </v>
   </varray>
  </structure>
  <varray name="primitive_index" >
   <v type="int" >        1 </v>
   <v type="int" >        2 </v>
   <v type="int" >        3 </v>
   <v type="int" >        4 </v>
   <v type="int" >        5 </v>
   <v type="int" >        6 </v>
   <v type="int" >        7 </v>
   <v type="int" >        8 </v>
   <v type="int" >        9 </v>
   <v type="int" >       10 </v>
   <v type="int" >       11 </v>
   <v type="int" >       12 </v>
   <v type="int" >       13 </v>
   <v type="int" >       14 </v>
   <v type="int" >       15 </v>
   <v type="int" >       16 </v>
   <v type="int" >       17 </v>
   <v type="int" >       18 </v>
   <v type="int" >       19 </v>
   <v type="int" >       20 </v>
   <v type="int" >       21 </v>
   <v type="int" >       22 </v>
   <v type="int" >       23 </v>
   <v type="int" >       24 </v>
   <v type="int" >       25 </v>
   <v type="int" >       26 </v>
   <v type="int" >       27 </v>
   <v type="int" >       28 </v>
   <v type="int" >       29 </v>
   <v type="int" >       30 </v>
   <v type="int" >       31 </v>
   <v type="int" >       32 </v>
   <v type="int" >       33 </v>
   <v type="int" >       34 </v>
  </varray>
 </primitive_cell>
 <kpoints>
  <generation param="Monkhorst-Pack">
   <v type="int" name="divisions">       3        3        1 </v>
   <v name="usershift">      0.00000000       0.00000000       0.00000000 </v>
   <v name="genvec1">      0.33333333       0.00000000       0.00000000 </v>
   <v name="genvec2">      0.00000000       0.33333333       0.00000000 </v>
   <v name="genvec3">      0.00000000       0.00000000       1.00000000 </v>
   <v name="shift">      0.00000000       0.00000000       0.00000000 </v>
  </generation>
  <varray name="kpointlist" >
   <v>       0.00000000       0.00000000       0.00000000 </v>
   <v>       0.33333333       0.00000000       0.00000000 </v>
   <v>      -0.33333333       0.33333333       0.00000000 </v>
  </varray>
  <varray name="weights" >
   <v>       0.11111111 </v>
   <v>       0.66666667 </v>
   <v>       0.22222222 </v>
  </varray>
 </kpoints>
 <parameters>
  <separator name="general" >
   <i type="string" name="SYSTEM">unknown system</i>
   <i type="logical" name="LCOMPAT"> F  </i>
  </separator>
  <separator name="electronic" >
   <i type="string" name="PREC">normal</i>
   <i name="ENMAX">    400.00000000</i>
   <i name="ENAUG">    586.98000000</i>
   <i name="EDIFF">      0.00020000</i>
   <i type="int" name="IALGO">    38</i>
   <i type="int" name="IWAVPR">    11</i>
   <i type="int" name="NBANDS">   232</i>
   <i type="int" name="NBANDSLOW">    -1</i>
   <i type="int" name="NBANDSHIGH">    -1</i>
   <i name="NELECT">    354.00000000</i>
   <i type="int" name="TURBO">     0</i>
   <i type="int" name="IRESTART">     0</i>
   <i type="int" name="NREBOOT">     0</i>
   <i type="int" name="NMIN">     0</i>
   <i name="EREF">      0.00000000</i>
   <separator name="electronic smearing" >
    <i type="int" name="ISMEAR">     1</i>
    <i name="SIGMA">      0.20000000</i>
    <i name="KSPACING">      0.50000000</i>
    <i type="logical" name="KGAMMA"> T  </i>
    <i type="logical" name="KBLOWUP"> T  </i>
   </separator>
   <separator name="electronic projectors" >
    <i type="logical" name="LREAL"> F  </i>
    <v name="ROPT">      0.00000000      0.00000000</v>
    <i type="int" name="LMAXPAW">  -100</i>
    <i type="int" name="LMAXMIX">     2</i>
    <i type="logical" name="NLSPLINE"> F  </i>
   </separator>
   <separator name="electronic startup" >
    <i type="int" name="ISTART">     0</i>
    <i type="int" name="ICHARG">     2</i>
    <i type="int" name="INIWAV">     1</i>
   </separator>
   <separator name="electronic spin" >
    <i type="int" name="ISPIN">     2</i>
    <i type="logical" name="LNONCOLLINEAR"> F  </i>
    <v name="MAGMOM">      1.00000000      1.00000000      1.00000000      1.00000000      1.00000000      1.00000000      1.00000000      1.00000000      1.00000000      1.00000000      1.00000000      1.00000000      1.00000000      1.00000000      1.00000000      1.00000000      1.00000000      1.00000000      1.00000000      1.00000000
      1.00000000      1.00000000      1.00000000      1.00000000      1.00000000      1.00000000      1.00000000      1.00000000      1.00000000      1.00000000      1.00000000      1.00000000      1.00000000      1.00000000</v>
    <i name="NUPDOWN">     -1.00000000</i>
    <i type="logical" name="LSORBIT"> F  </i>
    <v name="SAXIS">      0.00000000      0.00000000      1.00000000</v>
    <i type="logical" name="LSPIRAL"> F  </i>
    <v name="QSPIRAL">      0.00000000      0.00000000      0.00000000</v>
    <i type="logical" name="LZEROZ"> F  </i>
   </separator>
   <separator name="electronic exchange-correlation" >
    <i type="logical" name="LASPH"> F  </i>
    <i type="logical" name="LMETAGGA"> F  </i>
   </separator>
   <separator name="electronic convergence" >
    <i type="int" name="NELM">    60</i>
    <i type="int" name="NELMDL">    -5</i>
    <i type="int" name="NELMIN">     2</i>
    <i name="ENINI">    400.00000000</i>
    <separator name="electronic convergence detail" >
     <i type="logical" name="LDIAG"> T  </i>
     <i type="logical" name="LSUBROT"> F  </i>
     <i name="WEIMIN">      0.00100000</i>
     <i name="EBREAK">      0.00000022</i>
     <i name="DEPER">      0.30000000</i>
     <i type="int" name="NRMM">     4</i>
     <i name="TIME">      0.40000000</i>
    </separator>
   </separator>
   <separator name="electronic mixer" >
    <i name="AMIX">      0.40000000</i>
    <i name="BMIX">      1.00000000</i>
    <i name="AMIN">      0.10000000</i>
    <i name="AMIX_MAG">      1.60000000</i>
    <i name="BMIX_MAG">      1.00000000</i>
    <separator name="electronic mixer details" >
     <i type="int" name="IMIX">     4</i>
     <i type="logical" name="MIXFIRST"> F  </i>
     <i type="int" name="MAXMIX">   -45</i>
     <i name="WC">    100.00000000</i>
     <i type="int" name="INIMIX">     1</i>
     <i type="int" name="MIXPRE">     1</i>
     <i type="int" name="MREMOVE">     5</i>
    </separator>
   </separator>
   <separator name="electronic dipolcorrection" >
    <i type="logical" name="LDIPOL"> F  </i>
    <i type="logical" name="LMONO"> F  </i>
    <i type="int" name="IDIPOL">     0</i>
    <i name="EPSILON">      1.00000000</i>
    <v name="DIPOL">   -100.00000000   -100.00000000   -100.00000000</v>
    <i name="EFIELD">      0.00000000</i>
   </separator>
  </separator>
  <separator name="grids" >
   <i type="int" name="NGX">    28</i>
   <i type="int" name="NGY">    28</i>
   <i type="int" name="NGZ">   150</i>
   <i type="int" name="NGXF">    56</i>
   <i type="int" name="NGYF">    56</i>
   <i type="int" name="NGZF">   300</i>
   <i type="logical" name="ADDGRID"> F  </i>
  </separator>
  <separator name="ionic" >
   <i type="int" name="NSW">   800</i>
   <i type="int" name="IBRION">     2</i>
   <i type="int" name="MDALGO">     0</i>
   <i type="int" name="ISIF">     2</i>
   <i name="PSTRESS">      0.00000000</i>
   <i name="EDIFFG">     -0.03000000</i>
   <i type="int" name="NFREE">     1</i>
   <i name="POTIM">      0.50000000</i>
   <i name="SMASS">     -3.00000000</i>
   <i name="SCALEE">      1.00000000</i>
  </separator>
  <separator name="ionic md" >
   <i name="TEBEG">      0.00010000</i>
   <i name="TEEND">      0.00010000</i>
   <i type="int" name="NBLOCK">     1</i>
   <i type="int" name="KBLOCK">   800</i>
   <i type="int" name="NPACO">   256</i>
   <i name="APACO">     10.00000000</i>
  </separator>
  <separator name="symmetry" >
   <i type="int" name="ISYM">     1</i>
   <i name="SYMPREC">      0.00001000</i>
  </separator>
  <separator name="dos" >
   <i type="int" name="LORBIT">     0</i>
   <v name="RWIGS">     -1.00000000     -1.00000000</v>
   <i type="int" name="NEDOS">   301</i>
   <i name="EMIN">     10.00000000</i>
   <i name="EMAX">    -10.00000000</i>
   <i name="EFERMI">      0.00000000</i>
  </separator>
  <separator name="writing" >
   <i type="int" name="NWRITE">     2</i>
   <i type="logical" name="LWAVE"> F  </i>
   <i type="logical" name="LDOWNSAMPLE"> F  </i>
   <i type="logical" name="LCHARG"> F  </i>
   <i type="logical" name="LPARD"> F  </i>
   <i type="logical" name="LVTOT"> F  </i>
   <i type="logical" name="LVHAR"> F  </i>
   <i type="logical" name="LELF"> F  </i>
   <i type="logical" name="LOPTICS"> F  </i>
   <v name="STM">      0.00000000      0.00000000      0.00000000      0.00000000      0.00000000      0.00000000      0.00000000</v>
  </separator>
  <separator name="performance" >
   <i type="int" name="NPAR">     4</i>
   <i type="int" name="NSIM">     4</i>
   <i type="int" name="NBLK">    -1</i>
   <i type="logical" name="LPLANE"> T  </i>
   <i type="logical" name="LSCALAPACK"> T  </i>
   <i type="logical" name="LSCAAWARE"> F  </i>
   <i type="logical" name="LSCALU"> F  </i>
   <i type="logical" name="LASYNC"> F  </i>
   <i type="logical" name="LORBITALREAL"> F  </i>
  </separator>
  <separator name="miscellaneous" >
   <i type="int" name="IDIOT">     3</i>
   <i type="int" name="PHON_NSTRUCT">    -1</i>
   <i type="logical" name="LMUSIC"> F  </i>
   <v name="POMASS">     63.54600000      1.00000000</v>
   <v name="DARWINR">      0.00000000      0.00000000</v>
   <v name="DARWINV">      1.00000000      1.00000000</v>
   <i type="logical" name="LCORR"> T  </i>
  </separator>
  <i type="logical" name="GGA_COMPAT"> T  </i>
  <i type="logical" name="LBERRY"> F  </i>
  <i type="int" name="ICORELEVEL">     0</i>
  <i type="logical" name="LDAU"> F  </i>
  <i type="int" name="I_CONSTRAINED_M">     0</i>
  <separator name="electronic exchange-correlation" >
   <i type="string" name="GGA">PE</i>
   <i type="int" name="VOSKOWN">     0</i>
   <i type="logical" name="LHFCALC"> F  </i>
   <i type="string" name="PRECFOCK"></i>
   <i type="logical" name="LSYMGRAD"> F  </i>
   <i type="logical" name="LHFONE"> F  </i>
   <i type="logical" name="LRHFCALC"> F  </i>
   <i type="logical" name="LTHOMAS"> F  </i>
   <i type="logical" name="LMODELHF"> F  </i>
   <i type="logical" name="LFOCKACE"> F  </i>
   <i name="ENCUT4O">     -1.00000000</i>
   <i type="int" name="EXXOEP">     0</i>
   <i type="int" name="FOURORBIT">     0</i>
   <i name="AEXX">      0.00000000</i>
   <i name="HFALPHA">      0.00000000</i>
   <i name="MCALPHA">      0.00000000</i>
   <i name="ALDAX">      1.00000000</i>
   <i name="AGGAX">      1.00000000</i>
   <i name="ALDAC">      1.00000000</i>
   <i name="AGGAC">      1.00000000</i>
   <i type="int" name="NKREDX">     1</i>
   <i type="int" name="NKREDY">     1</i>
   <i type="int" name="NKREDZ">     1</i>
   <i type="logical" name="SHIFTRED"> F  </i>
   <i type="logical" name="ODDONLY"> F  </i>
   <i type="logical" name="EVENONLY"> F  </i>
   <i type="int" name="LMAXFOCK">     0</i>
   <i type="int" name="NMAXFOCKAE">     0</i>
   <i type="logical" name="LFOCKAEDFT"> F  </i>
   <i name="HFSCREEN">      0.00000000</i>
   <i name="HFSCREENC">      0.00000000</i>
   <i type="int" name="NBANDSGWLOW">     0</i>
  </separator>
  <separator name="vdW DFT" >
   <i type="logical" name="LUSE_VDW"> F  </i>
   <i name="Zab_VDW">     -0.84910000</i>
   <i name="PARAM1">      0.12340000</i>
   <i name="PARAM2">      1.00000000</i>
   <i name="PARAM3">      0.00000000</i>
  </separator>
  <separator name="model GW" >
   <i type="int" name="MODEL_GW">     0</i>
   <i name="MODEL_EPS0">     11.95007673</i>
   <i name="MODEL_ALPHA">      1.00000000</i>
  </separator>
  <separator name="linear response parameters" >
   <i type="logical" name="LEPSILON"> F  </i>
   <i type="logical" name="LRPA"> F  </i>
   <i type="logical" name="LNABLA"> F  </i>
   <i type="logical" name="LVEL"> F  </i>
   <i name="CSHIFT">      0.10000000</i>
   <i name="OMEGAMAX">     -1.00000000</i>
   <i name="DEG_THRESHOLD">      0.00200000</i>
   <i name="RTIME">     -0.10000000</i>
   <i name="WPLASMAI">      0.00000000</i>
   <v name="DFIELD">      0.00000000      0.00000000      0.00000000</v>
   <v name="WPLASMA">      0.00000000      0.00000000      0.00000000      0.00000000      0.00000000      0.00000000      0.00000000      0.00000000      0.00000000</v>
  </separator>
  <separator name="orbital magnetization" >
   <i type="logical" name="NUCIND"> F  </i>
   <v name="MAGPOS">      0.00000000      0.00000000      0.00000000</v>
   <i type="logical" name="LNICSALL"> T  </i>
   <i type="logical" name="ORBITALMAG"> F  </i>
   <i type="logical" name="LMAGBLOCH"> F  </i>
   <i type="logical" name="LCHIMAG"> F  </i>
   <i type="logical" name="LGAUGE"> T  </i>
   <i type="int" name="MAGATOM">     0</i>
   <v name="MAGDIPOL">      0.00000000      0.00000000      0.00000000</v>
   <v name="AVECCONST">      0.00000000      0.00000000      0.00000000</v>
  </separator>
  <separator name="response functions" >
   <i type="logical" name="LFINITE_TEMPERATURE"> F  </i>
   <i type="logical" name="LADDER"> F  </i>
   <i type="logical" name="LRPAFORCE"> F  </i>
   <i type="logical" name="LFXC"> F  </i>
   <i type="logical" name="LHARTREE"> T  </i>
   <i type="int" name="IBSE">     0</i>
   <v type="int" name="KPOINT">    -1     0     0     0</v>
   <i type="logical" name="LTCTC"> F  </i>
   <i type="logical" name="LTCTE"> F  </i>
   <i type="logical" name="LTETE"> F  </i>
   <i type="logical" name="LTRIPLET"> F  </i>
   <i type="logical" name="LFXCEPS"> F  </i>
   <i type="logical" name="LFXHEG"> F  </i>
   <i type="int" name="NATURALO">     2</i>
   <i type="logical" name="LHOLEGF"> F  </i>
   <i type="logical" name="L2ORDER"> F  </i>
   <i type="logical" name="LDMP1"> F  </i>
   <i type="logical" name="LMP2LT"> F  </i>
   <i type="logical" name="LSMP2LT"> F  </i>
   <i type="logical" name="LGWLF"> F  </i>
   <i name="ENCUTGW">     -2.00000000</i>
   <i name="ENCUTGWSOFT">     -2.00000000</i>
   <i name="ENCUTLF">     -1.00000000</i>
   <i type="logical" name="LESF_SPLINES"> F  </i>
   <i type="int" name="LMAXMP2">    -1</i>
   <i name="SCISSOR">      0.00000000</i>
   <i type="int" name="NOMEGA">     0</i>
   <i type="int" name="NOMEGAR">     0</i>
   <i type="int" name="NBANDSGW">    -1</i>
   <i type="int" name="NBANDSO">    -1</i>
   <i type="int" name="NBANDSV">    -1</i>
   <i type="int" name="NELMGW">     1</i>
   <i type="int" name="NELMHF">     1</i>
   <i type="int" name="DIM">     3</i>
   <i type="int" name="IESPILON">     4</i>
   <i type="int" name="ANTIRES">     0</i>
   <i name="OMEGAMAX">    -30.00000000</i>
   <i name="OMEGAMIN">    -30.00000000</i>
   <i name="OMEGATL">   -200.00000000</i>
   <i type="int" name="OMEGAGRID">     0</i>
   <i name="CSHIFT">     -0.10000000</i>
   <i type="logical" name="LSELFENERGY"> F  </i>
   <i type="logical" name="LSPECTRAL"> F  </i>
   <i type="logical" name="LSPECTRALGW"> F  </i>
   <i type="logical" name="LSINGLES"> F  </i>
   <i type="logical" name="LFERMIGW"> F  </i>
   <i type="logical" name="ODDONLYGW"> F  </i>
   <i type="logical" name="EVENONLYGW"> F  </i>
   <i type="int" name="NKREDLFX">     1</i>
   <i type="int" name="NKREDLFY">     1</i>
   <i type="int" name="NKREDLFZ">     1</i>
   <i type="int" name="MAXMEM">  2800</i>
   <i type="int" name="TELESCOPE">     0</i>
   <i type="int" name="NTAUPAR">    -1</i>
   <i type="int" name="NOMEGAPAR">    -1</i>
   <i name="DAMP_NEWTON">      0.80000001</i>
   <i name="LAMBDA">      1.00000000</i>
  </separator>
  <separator name="External order field" >
   <i name="OFIELD_KAPPA">      0.00000000</i>
   <v name="OFIELD_K">      0.00000000      0.00000000      0.00000000</v>
   <i name="OFIELD_Q6_NEAR">      0.00000000</i>
   <i name="OFIELD_Q6_FAR">      0.00000000</i>
   <i name="OFIELD_A">      0.00000000</i>
  </separator>
  <separator name="optional k-points parameters" >
   <i type="int" name="KPOINTS_OPT_MODE">     1</i>
   <i type="logical" name="LKPOINTS_OPT"> F  </i>
  </separator>
 </parameters>
 <atominfo>
  <atoms>      34 </atoms>
  <types>       2 </types>
  <array name="atoms" >
   <dimension dim="1">ion</dimension>
   <field type="string">element</field>
   <field type="int">atomtype</field>
   <set>
    <rc><c>Cu</c><c>   1</c></rc>
    <rc><c>Cu</c><c>   1</c></rc>
    <rc><c>Cu</c><c>   1</c></rc>
    <rc><c>Cu</c><c>   1</c></rc>
    <rc><c>Cu</c><c>   1</c></rc>
    <rc><c>Cu</c><c>   1</c></rc>
    <rc><c>Cu</c><c>   1</c></rc>
    <rc><c>Cu</c><c>   1</c></rc>
    <rc><c>Cu</c><c>   1</c></rc>
    <rc><c>Cu</c><c>   1</c></rc>
    <rc><c>Cu</c><c>   1</c></rc>
    <rc><c>Cu</c><c>   1</c></rc>
    <rc><c>Cu</c><c>   1</c></rc>
    <rc><c>Cu</c><c>   1</c></rc>
    <rc><c>Cu</c><c>   1</c></rc>
    <rc><c>Cu</c><c>   1</c></rc>
    <rc><c>Cu</c><c>   1</c></rc>
    <rc><c>Cu</c><c>   1</c></rc>
    <rc><c>Cu</c><c>   1</c></rc>
    <rc><c>Cu</c><c>   1</c></rc>
    <rc><c>Cu</c><c>   1</c></rc>
    <rc><c>Cu</c><c>   1</c></rc>
    <rc><c>Cu</c><c>   1</c></rc>
    <rc><c>Cu</c><c>   1</c></rc>
    <rc><c>Cu</c><c>   1</c></rc>
    <rc><c>Cu</c><c>   1</c></rc>
    <rc><c>Cu</c><c>   1</c></rc>
    <rc><c>Cu</c><c>   1</c></rc>
    <rc><c>Cu</c><c>   1</c></rc>
    <rc><c>Cu</c><c>   1</c></rc>
    <rc><c>Cu</c><c>   1</c></rc>
    <rc><c>Cu</c><c>   1</c></rc>
    <rc><c>H </c><c>   2</c></rc>
    <rc><c>H </c><c>   2</c></rc>
   </set>
  </array>
  <array name="atomtypes" >
   <dimension dim="1">type</dimension>
   <field type="int">atomspertype</field>
   <field type="string">element</field>
   <field>mass</field>
   <field>valence</field>
   <field type="string">pseudopotential</field>
   <set>
    <rc><c>  32</c><c>Cu</c><c>     63.54600000</c><c>     11.00000000</c><c>  PAW_PBE Cu 22Jun2005                  </c></rc>
    <rc><c>   2</c><c>H </c><c>      1.00000000</c><c>      1.00000000</c><c>  PAW_PBE H 15Jun2001                   </c></rc>
   </set>
  </array>
 </atominfo>
 <structure name="initialpos" >
  <crystal>
   <varray name="basis" >
    <v>       5.13359547       0.00000000       0.00000000 </v>
    <v>       2.56679773       4.44582409       0.00000000 </v>
    <v>       0.00000000       0.00000000      29.67047119 </v>
   </varray>
   <i name="volume">    677.17101477 </i>
   <varray name="rec_basis" >
    <v>       0.19479525      -0.11246509       0.00000000 </v>
    <v>       0.00000000       0.22493018       0.00000000 </v>
    <v>       0.00000000       0.00000000       0.03370354 </v>
   </varray>
  </crystal>
  <varray name="positions" >
   <v>       0.00000000       0.00000000       0.00000000 </v>
   <v>       1.00000000       0.50000000       0.00000000 </v>
   <v>       0.50000000       0.00000000       0.00000000 </v>
   <v>       0.50000000       0.50000000       0.00000000 </v>
   <v>       0.16666667       0.16666667       0.07063526 </v>
   <v>       0.16666667       0.66666667       0.07063526 </v>
   <v>       0.66666667       0.16666667       0.07063526 </v>
   <v>       0.66666667       0.66666667       0.07063526 </v>
   <v>       0.33333333       0.33333333       0.13847021 </v>
   <v>       0.33333333       0.83333333       0.13847021 </v>
   <v>       0.83333333       0.33333333       0.13847021 </v>
   <v>       0.83333333       0.83333333       0.13847021 </v>
   <v>       0.00000000       0.00000000       0.20667428 </v>
   <v>       1.00000000       0.50000000       0.20667428 </v>
   <v>       0.50000000       0.00000000       0.20667428 </v>
   <v>       0.50000000       0.50000000       0.20667428 </v>
   <v>       0.16666667       0.16666667       0.27488859 </v>
   <v>       0.16666667       0.66666667       0.27488859 </v>
   <v>       0.66666667       0.16666667       0.27488859 </v>
   <v>       0.66666667       0.66666667       0.27488859 </v>
   <v>       0.33333333       0.33333333       0.34319917 </v>
   <v>       0.33333333       0.83333333       0.34319917 </v>
   <v>       0.83333333       0.33333333       0.34319917 </v>
   <v>       0.83333333       0.83333333       0.34319917 </v>
   <v>       0.00000000       0.00000000       0.41105828 </v>
   <v>       1.00000000       0.50000000       0.41105828 </v>
   <v>       0.50000000       0.00000000       0.41105828 </v>
   <v>       0.50000000       0.50000000       0.41105828 </v>
   <v>       0.16666667       0.16666667       0.48054462 </v>
   <v>       0.16666667       0.66666667       0.48054462 </v>
   <v>       0.66666667       0.16666667       0.48054462 </v>
   <v>       0.66666667       0.66666667       0.48054462 </v>
   <v>       0.33333333       0.83333333       0.53425930 </v>
   <v>       0.33333333       0.83333333       0.55940215 </v>
  </varray>
 </structure>
 <calculation>
  <scstep>
   <time name="dav">    4.47    4.51</time>
   <time name="total">    4.55    4.59</time>
   <energy>
    <i name="alphaZ">   1114.72537883 </i>
    <i name="ewald"> 216164.90528379 </i>
    <i name="hartreedc">-260196.86482034 </i>
    <i name="XCdc">   1471.87413509 </i>
    <i name="pawpsdc">  39302.70853331 </i>
    <i name="pawaedc"> -42689.07521165 </i>
    <i name="eentropy">      0.00072150 </i>
    <i name="bandstr">   3747.48890236 </i>
    <i name="atom">  44535.60175172 </i>
    <i name="e_fr_energy">   3451.36467461 </i>
    <i name="e_wo_entrp">   3451.36395311 </i>
    <i name="e_0_energy">   3451.36443411 </i>
   </energy>
  </scstep>
  <scstep>
   <time name="dav">    4.45    4.49</time>
   <time name="total">    4.45    4.49</time>
   <energy>
    <i name="e_fr_energy">    484.72266407 </i>
    <i name="e_wo_entrp">    484.73357575 </i>
    <i name="e_0_energy">    484.72630130 </i>
   </energy>
  </scstep>
  <scstep>
   <time name="dav">    4.44    4.48</time>
   <time name="total">    4.45    4.48</time>
   <energy>
    <i name="e_fr_energy">    -92.70215016 </i>
    <i name="e_wo_entrp">    -92.70434336 </i>
    <i name="e_0_energy">    -92.70288123 </i>
   </energy>
  </scstep>
  <scstep>
   <time name="dav">    4.75    4.79</time>
   <time name="total">    4.75    4.79</time>
   <energy>
    <i name="e_fr_energy">   -137.95938555 </i>
    <i name="e_wo_entrp">   -137.98281211 </i>
    <i name="e_0_energy">   -137.96719440 </i>
   </energy>
  </scstep>
  <scstep>
   <time name="dav">    4.79    4.83</time>
   <time name="total">    5.13    5.17</time>
   <energy>
    <i name="e_fr_energy">   -139.06213020 </i>
    <i name="e_wo_entrp">   -139.08720868 </i>
    <i name="e_0_energy">   -139.07048969 </i>
   </energy>
  </scstep>
  <scstep>
   <time name="dav">    4.80    4.84</time>
   <time name="total">    5.22    5.26</time>
   <energy>
    <i name="e_fr_energy">   -115.31095540 </i>
    <i name="e_wo_entrp">   -115.26910675 </i>
    <i name="e_0_energy">   -115.29700585 </i>
   </energy>
  </scstep>
  <scstep>
   <time name="dav">    4.94    4.97</time>
   <time name="total">    5.35    5.39</time>
   <energy>
    <i name="e_fr_energy">   -102.74835241 </i>
    <i name="e_wo_entrp">   -102.73694282 </i>
    <i name="e_0_energy">   -102.74454921 </i>
   </energy>
  </scstep>
  <scstep>
   <time name="dav">    5.42    5.46</time>
   <time name="total">    5.83    5.88</time>
   <energy>
    <i name="e_fr_energy">   -109.25794864 </i>
    <i name="e_wo_entrp">   -109.29042858 </i>
    <i name="e_0_energy">   -109.26877529 </i>
   </energy>
  </scstep>
  <scstep>
   <time name="dav">    5.89    5.94</time>
   <time name="total">    6.30    6.35</time>
   <energy>
    <i name="e_fr_energy">    -99.29606852 </i>
    <i name="e_wo_entrp">    -99.24985059 </i>
    <i name="e_0_energy">    -99.28066254 </i>
   </energy>
  </scstep>
  <scstep>
   <time name="dav">    5.55    5.59</time>
   <time name="total">    5.95    6.00</time>
   <energy>
    <i name="e_fr_energy">   -100.07321513 </i>
    <i name="e_wo_entrp">   -100.08874363 </i>
    <i name="e_0_energy">   -100.07839130 </i>
   </energy>
  </scstep>
  <scstep>
   <time name="dav">    5.10    5.14</time>
   <time name="total">    5.50    5.55</time>
   <energy>
    <i name="e_fr_energy">   -101.74167267 </i>
    <i name="e_wo_entrp">   -101.80543843 </i>
    <i name="e_0_energy">   -101.76292793 </i>
   </energy>
  </scstep>
  <scstep>
   <time name="dav">    5.12    5.16</time>
   <time name="total">    5.54    5.58</time>
   <energy>
    <i name="e_fr_energy">   -101.69174776 </i>
    <i name="e_wo_entrp">   -101.67853117 </i>
    <i name="e_0_energy">   -101.68734223 </i>
   </energy>
  </scstep>
  <scstep>
   <time name="dav">    6.53    6.58</time>
   <time name="total">    6.95    7.00</time>
   <energy>
    <i name="e_fr_energy">   -102.17642112 </i>
    <i name="e_wo_entrp">   -102.21595133 </i>
    <i name="e_0_energy">   -102.18959786 </i>
   </energy>
  </scstep>
  <scstep>
   <time name="dav">    6.42    6.47</time>
   <time name="total">    6.83    6.88</time>
   <energy>
    <i name="e_fr_energy">   -105.00960723 </i>
    <i name="e_wo_entrp">   -105.00906542 </i>
    <i name="e_0_energy">   -105.00942663 </i>
   </energy>
  </scstep>
  <scstep>
   <time name="dav">    5.52    5.57</time>
   <time name="total">    5.92    5.97</time>
   <energy>
    <i name="e_fr_energy">   -109.17854434 </i>
    <i name="e_wo_entrp">   -109.18655246 </i>
    <i name="e_0_energy">   -109.18121371 </i>
   </energy>
  </scstep>
  <scstep>
   <time name="dav">    5.28    5.32</time>
   <time name="total">    5.68    5.72</time>
   <energy>
    <i name="e_fr_energy">   -112.32888283 </i>
    <i name="e_wo_entrp">   -112.33713578 </i>
    <i name="e_0_energy">   -112.33163382 </i>
   </energy>
  </scstep>
  <scstep>
   <time name="dav">    5.22    5.26</time>
   <time name="total">    5.62    5.66</time>
   <energy>
    <i name="e_fr_energy">   -113.92294850 </i>
    <i name="e_wo_entrp">   -113.90667889 </i>
    <i name="e_0_energy">   -113.91752530 </i>
   </energy>
  </scstep>
  <scstep>
   <time name="dav">    5.03    5.07</time>
   <time name="total">    5.43    5.49</time>
   <energy>
    <i name="e_fr_energy">   -114.86239525 </i>
    <i name="e_wo_entrp">   -114.84466200 </i>
    <i name="e_0_energy">   -114.85648416 </i>
   </energy>
  </scstep>
  <scstep>
   <time name="dav">    5.18    5.22</time>
   <time name="total">    5.58    5.63</time>
   <energy>
    <i name="e_fr_energy">   -115.67743229 </i>
    <i name="e_wo_entrp">   -115.65436742 </i>
    <i name="e_0_energy">   -115.66974400 </i>
   </energy>
  </scstep>
  <scstep>
   <time name="dav">    5.37    5.41</time>
   <time name="total">    5.77    5.82</time>
   <energy>
    <i name="e_fr_energy">   -116.64941296 </i>
    <i name="e_wo_entrp">   -116.61937564 </i>
    <i name="e_0_energy">   -116.63940052 </i>
   </energy>
  </scstep>
  <scstep>
   <time name="dav">    5.72    5.77</time>
   <time name="total">    6.13    6.18</time>
   <energy>
    <i name="e_fr_energy">   -117.51931364 </i>
    <i name="e_wo_entrp">   -117.49553518 </i>
    <i name="e_0_energy">   -117.51138749 </i>
   </energy>
  </scstep>
  <scstep>
   <time name="dav">    5.37    5.41</time>
   <time name="total">    5.77    5.82</time>
   <energy>
    <i name="e_fr_energy">   -117.78068815 </i>
    <i name="e_wo_entrp">   -117.75596438 </i>
    <i name="e_0_energy">   -117.77244689 </i>
   </energy>
  </scstep>
  <scstep>
   <time name="dav">    5.12    5.16</time>
   <time name="total">    5.52    5.57</time>
   <energy>
    <i name="e_fr_energy">   -118.26873023 </i>
    <i name="e_wo_entrp">   -118.24822744 </i>
    <i name="e_0_energy">   -118.26189596 </i>
   </energy>
  </scstep>
  <scstep>
   <time name="dav">    5.14    5.18</time>
   <time name="total">    5.55    5.60</time>
   <energy>
    <i name="e_fr_energy">   -118.81998603 </i>
    <i name="e_wo_entrp">   -118.79843877 </i>
    <i name="e_0_energy">   -118.81280361 </i>
   </energy>
  </scstep>
  <scstep>
   <time name="dav">    5.51    5.55</time>
   <time name="total">    5.92    5.97</time>
   <energy>
    <i name="e_fr_energy">   -119.79381187 </i>
    <i name="e_wo_entrp">   -119.77311369 </i>
    <i name="e_0_energy">   -119.78691248 </i>
   </energy>
  </scstep>
  <scstep>
   <time name="dav">    5.01    5.05</time>
   <time name="total">    5.42    5.46</time>
   <energy>
    <i name="e_fr_energy">   -120.61530217 </i>
    <i name="e_wo_entrp">   -120.59587497 </i>
    <i name="e_0_energy">   -120.60882644 </i>
   </energy>
  </scstep>
  <scstep>
   <time name="dav">    4.94    4.98</time>
   <time name="total">    5.34    5.39</time>
   <energy>
    <i name="e_fr_energy">   -120.77392488 </i>
    <i name="e_wo_entrp">   -120.75426432 </i>
    <i name="e_0_energy">   -120.76737136 </i>
   </energy>
  </scstep>
  <scstep>
   <time name="dav">    5.02    5.06</time>
   <time name="total">    5.42    5.47</time>
   <energy>
    <i name="e_fr_energy">   -120.81523481 </i>
    <i name="e_wo_entrp">   -120.79522049 </i>
    <i name="e_0_energy">   -120.80856337 </i>
   </energy>
  </scstep>
  <scstep>
   <time name="dav">    4.61    4.65</time>
   <time name="total">    5.01    5.05</time>
   <energy>
    <i name="e_fr_energy">   -120.82824239 </i>
    <i name="e_wo_entrp">   -120.80864896 </i>
    <i name="e_0_energy">   -120.82171125 </i>
   </energy>
  </scstep>
  <scstep>
   <time name="dav">    4.41    4.45</time>
   <time name="total">    4.82    4.86</time>
   <energy>
    <i name="e_fr_energy">   -120.83360355 </i>
    <i name="e_wo_entrp">   -120.81384971 </i>
    <i name="e_0_energy">   -120.82701894 </i>
   </energy>
  </scstep>
  <scstep>
   <time name="dav">    3.81    3.84</time>
   <time name="total">    4.21    4.25</time>
   <energy>
    <i name="e_fr_energy">   -120.83441728 </i>
    <i name="e_wo_entrp">   -120.81470653 </i>
    <i name="e_0_energy">   -120.82784703 </i>
   </energy>
  </scstep>
  <scstep>
   <time name="dav">    3.69    3.72</time>
   <time name="total">    4.10    4.13</time>
   <energy>
    <i name="e_fr_energy">   -120.83418632 </i>
    <i name="e_wo_entrp">   -120.81448781 </i>
    <i name="e_0_energy">   -120.82762015 </i>
   </energy>
  </scstep>
  <scstep>
   <time name="dav">    3.35    3.37</time>
   <time name="total">    3.42    3.45</time>
   <energy>
    <i name="alphaZ">   1114.72537883 </i>
    <i name="ewald"> 216164.90528379 </i>
    <i name="hartreedc">-259691.44871638 </i>
    <i name="XCdc">   1433.77122674 </i>
    <i name="pawpsdc">  42126.27244386 </i>
    <i name="pawaedc"> -45577.97042258 </i>
    <i name="eentropy">     -0.01974027 </i>
    <i name="bandstr">   -226.67155819 </i>
    <i name="atom">  44535.60175172 </i>
    <i name="e_fr_energy">   -120.83435247 </i>
    <i name="e_wo_entrp">   -120.81461220 </i>
    <i name="e_0_energy">   -120.82777238 </i>
   </energy>
  </scstep>
  <structure>
   <crystal>
    <varray name="basis" >
     <v>       5.13359547       0.00000000       0.00000000 </v>
     <v>       2.56679773       4.44582409       0.00000000 </v>
     <v>       0.00000000       0.00000000      29.67047119 </v>
    </varray>
    <i name="volume">    677.17101477 </i>
    <varray name="rec_basis" >
     <v>       0.19479525      -0.11246509       0.00000000 </v>
     <v>       0.00000000       0.22493018       0.00000000 </v>
     <v>       0.00000000       0.00000000       0.03370354 </v>
    </varray>
   </crystal>
   <varray name="positions" >
    <v>       0.00000000       0.00000000       0.00000000 </v>
    <v>       1.00000000       0.50000000       0.00000000 </v>
    <v>       0.50000000       0.00000000       0.00000000 </v>
    <v>       0.50000000       0.50000000       0.00000000 </v>
    <v>       0.16666667       0.16666667       0.07063526 </v>
    <v>       0.16666667       0.66666667       0.07063526 </v>
    <v>       0.66666667       0.16666667       0.07063526 </v>
    <v>       0.66666667       0.66666667       0.07063526 </v>
    <v>       0.33333333       0.33333333       0.13847021 </v>
    <v>       0.33333333       0.83333333       0.13847021 </v>
    <v>       0.83333333       0.33333333       0.13847021 </v>
    <v>       0.83333333       0.83333333       0.13847021 </v>
    <v>       0.00000000       0.00000000       0.20667428 </v>
    <v>       1.00000000       0.50000000       0.20667428 </v>
    <v>       0.50000000       0.00000000       0.20667428 </v>
    <v>       0.50000000       0.50000000       0.20667428 </v>
    <v>       0.16666667       0.16666667       0.27488859 </v>
    <v>       0.16666667       0.66666667       0.27488859 </v>
    <v>       0.66666667       0.16666667       0.27488859 </v>
    <v>       0.66666667       0.66666667       0.27488859 </v>
    <v>       0.33333333       0.33333333       0.34319917 </v>
    <v>       0.33333333       0.83333333       0.34319917 </v>
    <v>       0.83333333       0.33333333       0.34319917 </v>
    <v>       0.83333333       0.83333333       0.34319917 </v>
    <v>       0.00000000       0.00000000       0.41105828 </v>
    <v>       1.00000000       0.50000000       0.41105828 </v>
    <v>       0.50000000       0.00000000       0.41105828 </v>
    <v>       0.50000000       0.50000000       0.41105828 </v>
    <v>       0.16666667       0.16666667       0.48054462 </v>
    <v>       0.16666667       0.66666667       0.48054462 </v>
    <v>       0.66666667       0.16666667       0.48054462 </v>
    <v>       0.66666667       0.66666667       0.48054462 </v>
    <v>       0.33333333       0.83333333       0.53425930 </v>
    <v>       0.33333333       0.83333333       0.55940215 </v>
   </varray>
  </structure>
  <varray name="forces" >
   <v>      -0.01234739       0.00712877       0.14788610 </v>
   <v>      -0.00000000       0.00000000       0.14153273 </v>
   <v>       0.01234739       0.00712877       0.14788610 </v>
   <v>      -0.00000000      -0.01425753       0.14788610 </v>
   <v>       0.00000000       0.00539899      -0.13578084 </v>
   <v>      -0.00467566      -0.00269950      -0.13578084 </v>
   <v>      -0.00000000       0.00000000      -0.13567487 </v>
   <v>       0.00467566      -0.00269950      -0.13578084 </v>
   <v>       0.00082932      -0.00047881      -0.00943658 </v>
   <v>      -0.00000000       0.00000000      -0.02670173 </v>
   <v>      -0.00082932      -0.00047881      -0.00943658 </v>
   <v>       0.00000000       0.00095762      -0.00943658 </v>
   <v>      -0.01060346       0.00612191       0.01816870 </v>
   <v>       0.00000000       0.00000000      -0.02452398 </v>
   <v>       0.01060346       0.00612191       0.01816870 </v>
   <v>       0.00000000      -0.01224382       0.01816870 </v>
   <v>       0.00000000       0.03479042       0.01496915 </v>
   <v>      -0.03012939      -0.01739521       0.01496915 </v>
   <v>      -0.00000000       0.00000000      -0.02530534 </v>
   <v>       0.03012939      -0.01739521       0.01496915 </v>
   <v>      -0.00055946       0.00032300       0.03875261 </v>
   <v>       0.00000000       0.00000000      -0.04072449 </v>
   <v>       0.00055946       0.00032300       0.03875261 </v>
   <v>       0.00000000      -0.00064601       0.03875261 </v>
   <v>       0.02552687      -0.01473795       0.04739609 </v>
   <v>      -0.00000000       0.00000000       0.06839834 </v>
   <v>      -0.02552687      -0.01473795       0.04739609 </v>
   <v>       0.00000000       0.02947590       0.04739609 </v>
   <v>       0.00000000       0.23047160      -0.26908122 </v>
   <v>      -0.19959426      -0.11523580      -0.26908122 </v>
   <v>      -0.00000000      -0.00000000      -0.12999113 </v>
   <v>       0.19959426      -0.11523580      -0.26908122 </v>
   <v>       0.00000000       0.00000000      -0.61572304 </v>
   <v>       0.00000000      -0.00000000       1.23009150 </v>
  </varray>
  <varray name="stress" >
   <v>     -29.99108403       0.00000000       0.00000000 </v>
   <v>       0.00000000     -29.99108403       0.00000000 </v>
   <v>       0.00000000      -0.00000000      -3.45650599 </v>
  </varray>
  <energy>
   <i name="e_fr_energy">   -134.84659733 </i>
   <i name="e_wo_entrp">   -134.82685705 </i>
   <i name="e_0_energy">   -134.84001724 </i>
  </energy>
  <time name="totalsc">  186.30  187.79</time>
 </calculation>
 <calculation>
  <scstep>
   <time name="dav">    4.55    4.58</time>
   <time name="total">    4.96    4.99</time>
   <energy>
    <i name="alphaZ">   1114.72537883 </i>
    <i name="ewald"> 216415.97147637 </i>
    <i name="hartreedc">-259942.98716981 </i>
    <i name="XCdc">   1433.78952919 </i>
    <i name="pawpsdc">  42127.04949271 </i>
    <i name="pawaedc"> -45578.84745861 </i>
    <i name="eentropy">     -0.02071210 </i>
    <i name="bandstr">   -226.09666268 </i>
    <i name="atom">  44535.60175172 </i>
    <i name="e_fr_energy">   -120.81437438 </i>
    <i name="e_wo_entrp">   -120.79366228 </i>
    <i name="e_0_energy">   -120.80747035 </i>
   </energy>
  </scstep>
  <scstep>
   <time name="dav">    5.84    5.89</time>
   <time name="total">    6.25    6.29</time>
   <energy>
    <i name="e_fr_energy">   -120.83381177 </i>
    <i name="e_wo_entrp">   -120.81208228 </i>
    <i name="e_0_energy">   -120.82656861 </i>
   </energy>
  </scstep>
  <scstep>
   <time name="dav">    5.22    5.26</time>
   <time name="total">    5.61    5.66</time>
   <energy>
    <i name="e_fr_energy">   -120.86482296 </i>
    <i name="e_wo_entrp">   -120.84381833 </i>
    <i name="e_0_energy">   -120.85782141 </i>
   </energy>
  </scstep>
  <scstep>
   <time name="dav">    5.31    5.35</time>
   <time name="total">    5.72    5.76</time>
   <energy>
    <i name="e_fr_energy">   -120.83422021 </i>
    <i name="e_wo_entrp">   -120.81372654 </i>
    <i name="e_0_energy">   -120.82738898 </i>
   </energy>
  </scstep>
  <scstep>
   <time name="dav">    6.16    6.21</time>
   <time name="total">    6.56    6.62</time>
   <energy>
    <i name="e_fr_energy">   -120.83698760 </i>
    <i name="e_wo_entrp">   -120.81501847 </i>
    <i name="e_0_energy">   -120.82966456 </i>
   </energy>
  </scstep>
  <scstep>
   <time name="dav">    5.79    5.83</time>
   <time name="total">    6.19    6.24</time>
   <energy>
    <i name="e_fr_energy">   -120.83141708 </i>
    <i name="e_wo_entrp">   -120.81022275 </i>
    <i name="e_0_energy">   -120.82435230 </i>
   </energy>
  </scstep>
  <scstep>
   <time name="dav">    6.57    6.63</time>
   <time name="total">    6.97    7.03</time>
   <energy>
    <i name="e_fr_energy">   -120.83038563 </i>
    <i name="e_wo_entrp">   -120.80961164 </i>
    <i name="e_0_energy">   -120.82346097 </i>
   </energy>
  </scstep>
  <scstep>
   <time name="dav">    4.77    4.81</time>
   <time name="total">    5.17    5.21</time>
   <energy>
    <i name="e_fr_energy">   -120.83042697 </i>
    <i name="e_wo_entrp">   -120.80919936 </i>
    <i name="e_0_energy">   -120.82335110 </i>
   </energy>
  </scstep>
  <scstep>
   <time name="dav">    4.26    4.29</time>
   <time name="total">    4.33    4.37</time>
   <energy>
    <i name="alphaZ">   1114.72537883 </i>
    <i name="ewald"> 216415.97147637 </i>
    <i name="hartreedc">-259937.65031561 </i>
    <i name="XCdc">   1433.65381026 </i>
    <i name="pawpsdc">  42132.85300207 </i>
    <i name="pawaedc"> -45584.87810058 </i>
    <i name="eentropy">     -0.02134815 </i>
    <i name="bandstr">   -231.08619830 </i>
    <i name="atom">  44535.60175172 </i>
    <i name="e_fr_energy">   -120.83054340 </i>
    <i name="e_wo_entrp">   -120.80919525 </i>
    <i name="e_0_energy">   -120.82342735 </i>
   </energy>
  </scstep>
  <structure>
   <crystal>
    <varray name="basis" >
     <v>       5.13359547       0.00000000       0.00000000 </v>
     <v>       2.56679773       4.44582409       0.00000000 </v>
     <v>       0.00000000       0.00000000      29.67047119 </v>
    </varray>
    <i name="volume">    677.17101477 </i>
    <varray name="rec_basis" >
     <v>       0.19479525      -0.11246509       0.00000000 </v>
     <v>       0.00000000       0.22493018       0.00000000 </v>
     <v>       0.00000000       0.00000000       0.03370354 </v>
    </varray>
   </crystal>
   <varray name="positions" >
    <v>      -0.00015471       0.00007736       0.00024046 </v>
    <v>       1.00000000       0.50000000       0.00023012 </v>
    <v>       0.50007736       0.00007736       0.00024046 </v>
    <v>       0.50007736       0.49984529       0.00024046 </v>
    <v>       0.16663737       0.16672525       0.07041449 </v>
    <v>       0.16663737       0.66663737       0.07041449 </v>
    <v>       0.66666667       0.16666667       0.07041466 </v>
    <v>       0.66672525       0.66663737       0.07041449 </v>
    <v>       0.33334372       0.33332814       0.13845487 </v>
    <v>       0.33333333       0.83333333       0.13842680 </v>
    <v>       0.83332814       0.33332814       0.13845487 </v>
    <v>       0.83332814       0.83334372       0.13845487 </v>
    <v>      -0.00013286       0.00006643       0.20670382 </v>
    <v>       1.00000000       0.50000000       0.20663440 </v>
    <v>       0.50006643       0.00006643       0.20670382 </v>
    <v>       0.50006643       0.49986714       0.20670382 </v>
    <v>       0.16647791       0.16704419       0.27491293 </v>
    <v>       0.16647791       0.66647791       0.27491293 </v>
    <v>       0.66666667       0.16666667       0.27484744 </v>
    <v>       0.66704419       0.66647791       0.27491293 </v>
    <v>       0.33332632       0.33333684       0.34326218 </v>
    <v>       0.33333333       0.83333333       0.34313296 </v>
    <v>       0.83333684       0.33333684       0.34326218 </v>
    <v>       0.83333684       0.83332632       0.34326218 </v>
    <v>       0.00031985      -0.00015992       0.41113534 </v>
    <v>       1.00000000       0.50000000       0.41116949 </v>
    <v>       0.49984008      -0.00015992       0.41113534 </v>
    <v>       0.49984008       0.50031985       0.41113534 </v>
    <v>       0.16541622       0.16916757       0.48010711 </v>
    <v>       0.16541622       0.66541622       0.48010711 </v>
    <v>       0.66666667       0.16666667       0.48033326 </v>
    <v>       0.66916757       0.66541622       0.48010711 </v>
    <v>       0.33333333       0.83333333       0.53325817 </v>
    <v>       0.33333333       0.83333333       0.56140221 </v>
   </varray>
  </structure>
  <varray name="forces" >
   <v>      -0.00630119       0.00363800       0.09490570 </v>
   <v>       0.00000000       0.00000000       0.08912115 </v>
   <v>       0.00630119       0.00363800       0.09490570 </v>
   <v>       0.00000000      -0.00727599       0.09490570 </v>
   <v>       0.00000000       0.00245223      -0.06070543 </v>
   <v>      -0.00212369      -0.00122611      -0.06070543 </v>
   <v>       0.00000000       0.00000000      -0.05683559 </v>
   <v>       0.00212369      -0.00122611      -0.06070543 </v>
   <v>       0.00189082      -0.00109167      -0.03120034 </v>
   <v>       0.00000000       0.00000000      -0.03548085 </v>
   <v>      -0.00189082      -0.00109167      -0.03120034 </v>
   <v>      -0.00000000       0.00218333      -0.03120034 </v>
   <v>      -0.00001805       0.00001042       0.00807214 </v>
   <v>       0.00000000       0.00000000      -0.01687457 </v>
   <v>       0.00001805       0.00001042       0.00807214 </v>
   <v>       0.00000000      -0.00002084       0.00807214 </v>
   <v>       0.00000000       0.01707589       0.00555373 </v>
   <v>      -0.01478816      -0.00853795       0.00555373 </v>
   <v>       0.00000000       0.00000000      -0.00236904 </v>
   <v>       0.01478816      -0.00853795       0.00555373 </v>
   <v>       0.00088536      -0.00051116       0.03766161 </v>
   <v>       0.00000000      -0.00000000      -0.01124169 </v>
   <v>      -0.00088536      -0.00051116       0.03766161 </v>
   <v>       0.00000000       0.00102233       0.03766161 </v>
   <v>       0.01258080      -0.00726353      -0.00188916 </v>
   <v>       0.00000000       0.00000000      -0.02225329 </v>
   <v>      -0.01258080      -0.00726353      -0.00188916 </v>
   <v>       0.00000000       0.01452705      -0.00188916 </v>
   <v>       0.00000000       0.07019493      -0.15296158 </v>
   <v>      -0.06079059      -0.03509746      -0.15296158 </v>
   <v>       0.00000000       0.00000000      -0.10420457 </v>
   <v>       0.06079059      -0.03509746      -0.15296158 </v>
   <v>       0.00000000       0.00000000       1.07075457 </v>
   <v>       0.00000000       0.00000000      -0.60892614 </v>
  </varray>
  <varray name="stress" >
   <v>     -31.73930046      -0.00000000      -0.00000000 </v>
   <v>       0.00000000     -31.73930046      -0.00000000 </v>
   <v>       0.00000000      -0.00000000      -8.88889662 </v>
  </varray>
  <energy>
   <i name="e_fr_energy">   -134.86267637 </i>
   <i name="e_wo_entrp">   -134.84132822 </i>
   <i name="e_0_energy">   -134.85556032 </i>
  </energy>
  <time name="totalsc">   60.58   61.04</time>
 </calculation>
 <calculation>
  <scstep>
   <time name="dav">    4.53    4.57</time>
   <time name="total">    4.94    4.98</time>
   <energy>
    <i name="alphaZ">   1114.72537883 </i>
    <i name="ewald"> 216301.84521619 </i>
    <i name="hartreedc">-259823.20015265 </i>
    <i name="XCdc">   1433.64586571 </i>
    <i name="pawpsdc">  42132.97553299 </i>
    <i name="pawaedc"> -45584.99885613 </i>
    <i name="eentropy">     -0.02051248 </i>
    <i name="bandstr">   -231.42830196 </i>
    <i name="atom">  44535.60175172 </i>
    <i name="e_fr_energy">   -120.85407779 </i>
    <i name="e_wo_entrp">   -120.83356530 </i>
    <i name="e_0_energy">   -120.84724029 </i>
   </energy>
  </scstep>
  <scstep>
   <time name="dav">    5.86    5.91</time>
   <time name="total">    6.26    6.31</time>
   <energy>
    <i name="e_fr_energy">   -120.85893594 </i>
    <i name="e_wo_entrp">   -120.83825036 </i>
    <i name="e_0_energy">   -120.85204075 </i>
   </energy>
  </scstep>
  <scstep>
   <time name="dav">    5.16    5.20</time>
   <time name="total">    5.57    5.61</time>
   <energy>
    <i name="e_fr_energy">   -120.86171557 </i>
    <i name="e_wo_entrp">   -120.84022584 </i>
    <i name="e_0_energy">   -120.85455232 </i>
   </energy>
  </scstep>
  <scstep>
   <time name="dav">    4.59    4.62</time>
   <time name="total">    4.99    5.03</time>
   <energy>
    <i name="e_fr_energy">   -120.85835697 </i>
    <i name="e_wo_entrp">   -120.83826570 </i>
    <i name="e_0_energy">   -120.85165988 </i>
   </energy>
  </scstep>
  <scstep>
   <time name="dav">    4.34    4.37</time>
   <time name="total">    4.74    4.78</time>
   <energy>
    <i name="e_fr_energy">   -120.86010765 </i>
    <i name="e_wo_entrp">   -120.83996784 </i>
    <i name="e_0_energy">   -120.85339438 </i>
   </energy>
  </scstep>
  <scstep>
   <time name="dav">    4.72    4.76</time>
   <time name="total">    5.12    5.16</time>
   <energy>
    <i name="e_fr_energy">   -120.85834231 </i>
    <i name="e_wo_entrp">   -120.83706835 </i>
    <i name="e_0_energy">   -120.85125099 </i>
   </energy>
  </scstep>
  <scstep>
   <time name="dav">    4.55    4.58</time>
   <time name="total">    4.62    4.66</time>
   <energy>
    <i name="alphaZ">   1114.72537883 </i>
    <i name="ewald"> 216301.84521619 </i>
    <i name="hartreedc">-259823.52135208 </i>
    <i name="XCdc">   1433.70131136 </i>
    <i name="pawpsdc">  42130.63164327 </i>
    <i name="pawaedc"> -45582.58696288 </i>
    <i name="eentropy">     -0.02038080 </i>
    <i name="bandstr">   -231.23483365 </i>
    <i name="atom">  44535.60175172 </i>
    <i name="e_fr_energy">   -120.85822803 </i>
    <i name="e_wo_entrp">   -120.83784723 </i>
    <i name="e_0_energy">   -120.85143443 </i>
   </energy>
  </scstep>
  <structure>
   <crystal>
    <varray name="basis" >
     <v>       5.13359547       0.00000000       0.00000000 </v>
     <v>       2.56679773       4.44582409       0.00000000 </v>
     <v>       0.00000000       0.00000000      29.67047119 </v>
    </varray>
    <i name="volume">    677.17101477 </i>
    <varray name="rec_basis" >
     <v>       0.19479525      -0.11246509       0.00000000 </v>
     <v>       0.00000000       0.22493018       0.00000000 </v>
     <v>       0.00000000       0.00000000       0.03370354 </v>
    </varray>
   </crystal>
   <varray name="positions" >
    <v>      -0.00008455       0.00004228       0.00013141 </v>
    <v>       1.00000000       0.50000000       0.00012576 </v>
    <v>       0.50004228       0.00004228       0.00013141 </v>
    <v>       0.50004228       0.49991545       0.00013141 </v>
    <v>       0.16665066       0.16669868       0.07051461 </v>
    <v>       0.16665066       0.66665066       0.07051461 </v>
    <v>       0.66666667       0.16666667       0.07051470 </v>
    <v>       0.66669868       0.66665066       0.07051461 </v>
    <v>       0.33333901       0.33333049       0.13846183 </v>
    <v>       0.33333333       0.83333333       0.13844649 </v>
    <v>       0.83333049       0.33333049       0.13846183 </v>
    <v>       0.83333049       0.83333901       0.13846183 </v>
    <v>      -0.00007261       0.00003630       0.20669042 </v>
    <v>       1.00000000       0.50000000       0.20665249 </v>
    <v>       0.50003630       0.00003630       0.20669042 </v>
    <v>       0.50003630       0.49992739       0.20669042 </v>
    <v>       0.16656351       0.16687298       0.27490189 </v>
    <v>       0.16656351       0.66656351       0.27490189 </v>
    <v>       0.66666667       0.16666667       0.27486610 </v>
    <v>       0.66687298       0.66656351       0.27490189 </v>
    <v>       0.33332950       0.33333525       0.34323361 </v>
    <v>       0.33333333       0.83333333       0.34316298 </v>
    <v>       0.83333525       0.33333525       0.34323361 </v>
    <v>       0.83333525       0.83332950       0.34323361 </v>
    <v>       0.00017480      -0.00008740       0.41110039 </v>
    <v>       1.00000000       0.50000000       0.41111906 </v>
    <v>       0.49991260      -0.00008740       0.41110039 </v>
    <v>       0.49991260       0.50017480       0.41110039 </v>
    <v>       0.16598329       0.16803342       0.48030552 </v>
    <v>       0.16598329       0.66598329       0.48030552 </v>
    <v>       0.66666667       0.16666667       0.48042911 </v>
    <v>       0.66803342       0.66598329       0.48030552 </v>
    <v>       0.33333333       0.83333333       0.53371218 </v>
    <v>       0.33333333       0.83333333       0.56049519 </v>
   </varray>
  </structure>
  <varray name="forces" >
   <v>      -0.01032360       0.00596034       0.12896589 </v>
   <v>       0.00000000      -0.00000000       0.12238978 </v>
   <v>       0.01032360       0.00596034       0.12896589 </v>
   <v>       0.00000000      -0.01192067       0.12896589 </v>
   <v>       0.00000000       0.00432747      -0.11048154 </v>
   <v>      -0.00374770      -0.00216373      -0.11048154 </v>
   <v>       0.00000000      -0.00000000      -0.10857836 </v>
   <v>       0.00374770      -0.00216373      -0.11048154 </v>
   <v>       0.00165230      -0.00095395      -0.01990419 </v>
   <v>       0.00000000      -0.00000000      -0.03254100 </v>
   <v>      -0.00165230      -0.00095395      -0.01990419 </v>
   <v>       0.00000000       0.00190791      -0.01990419 </v>
   <v>      -0.00659113       0.00380539       0.01715031 </v>
   <v>       0.00000000      -0.00000000      -0.02124566 </v>
   <v>       0.00659113       0.00380539       0.01715031 </v>
   <v>       0.00000000      -0.00761079       0.01715031 </v>
   <v>       0.00000000       0.02967191       0.01105143 </v>
   <v>      -0.02569663      -0.01483596       0.01105143 </v>
   <v>       0.00000000      -0.00000000      -0.01721837 </v>
   <v>       0.02569663      -0.01483596       0.01105143 </v>
   <v>       0.00027931      -0.00016126       0.04528740 </v>
   <v>       0.00000000      -0.00000000      -0.02650804 </v>
   <v>      -0.00027931      -0.00016126       0.04528740 </v>
   <v>       0.00000000       0.00032252       0.04528740 </v>
   <v>       0.02063003      -0.01191075       0.02916786 </v>
   <v>       0.00000000      -0.00000000       0.03104888 </v>
   <v>      -0.02063003      -0.01191075       0.02916786 </v>
   <v>       0.00000000       0.02382150       0.02916786 </v>
   <v>      -0.00000000       0.15808995      -0.21897634 </v>
   <v>      -0.13690991      -0.07904497      -0.21897634 </v>
   <v>       0.00000000      -0.00000000      -0.12585659 </v>
   <v>       0.13690991      -0.07904497      -0.21897634 </v>
   <v>       0.00000000      -0.00000000       0.58737628 </v>
   <v>       0.00000000      -0.00000000      -0.05564942 </v>
  </varray>
  <varray name="stress" >
   <v>     -31.64249564       0.00000000       0.00000000 </v>
   <v>       0.00000000     -31.64249564       0.00000000 </v>
   <v>       0.00000000       0.00000000      -7.50897103 </v>
  </varray>
  <energy>
   <i name="e_fr_energy">   -134.87663426 </i>
   <i name="e_wo_entrp">   -134.85625345 </i>
   <i name="e_0_energy">   -134.86984066 </i>
  </energy>
  <time name="totalsc">   45.05   45.42</time>
 </calculation>
 <calculation>
  <scstep>
   <time name="dav">    4.64    4.68</time>
   <time name="total">    5.04    5.09</time>
   <energy>
    <i name="alphaZ">   1114.72537883 </i>
    <i name="ewald"> 216563.68963996 </i>
    <i name="hartreedc">-260084.91431278 </i>
    <i name="XCdc">   1433.78622161 </i>
    <i name="pawpsdc">  42130.63119561 </i>
    <i name="pawaedc"> -45582.58670405 </i>
    <i name="eentropy">     -0.02249387 </i>
    <i name="bandstr">   -231.77485435 </i>
    <i name="atom">  44535.60175172 </i>
    <i name="e_fr_energy">   -120.86417731 </i>
    <i name="e_wo_entrp">   -120.84168344 </i>
    <i name="e_0_energy">   -120.85667936 </i>
   </energy>
  </scstep>
  <scstep>
   <time name="dav">    5.89    5.94</time>
   <time name="total">    6.29    6.34</time>
   <energy>
    <i name="e_fr_energy">   -120.87924810 </i>
    <i name="e_wo_entrp">   -120.85674269 </i>
    <i name="e_0_energy">   -120.87174630 </i>
   </energy>
  </scstep>
  <scstep>
   <time name="dav">    4.91    4.95</time>
   <time name="total">    5.32    5.36</time>
   <energy>
    <i name="e_fr_energy">   -120.88018115 </i>
    <i name="e_wo_entrp">   -120.85762026 </i>
    <i name="e_0_energy">   -120.87266086 </i>
   </energy>
  </scstep>
  <scstep>
   <time name="dav">    4.80    4.84</time>
   <time name="total">    5.20    5.25</time>
   <energy>
    <i name="e_fr_energy">   -120.87906187 </i>
    <i name="e_wo_entrp">   -120.85764662 </i>
    <i name="e_0_energy">   -120.87192345 </i>
   </energy>
  </scstep>
  <scstep>
   <time name="dav">    4.60    4.63</time>
   <time name="total">    5.00    5.04</time>
   <energy>
    <i name="e_fr_energy">   -120.87806375 </i>
    <i name="e_wo_entrp">   -120.85588648 </i>
    <i name="e_0_energy">   -120.87067133 </i>
   </energy>
  </scstep>
  <scstep>
   <time name="dav">    5.55    5.60</time>
   <time name="total">    5.95    6.00</time>
   <energy>
    <i name="e_fr_energy">   -120.87789137 </i>
    <i name="e_wo_entrp">   -120.85567048 </i>
    <i name="e_0_energy">   -120.87048441 </i>
   </energy>
  </scstep>
  <scstep>
   <time name="dav">    4.63    4.67</time>
   <time name="total">    5.05    5.09</time>
   <energy>
    <i name="e_fr_energy">   -120.87782701 </i>
    <i name="e_wo_entrp">   -120.85610037 </i>
    <i name="e_0_energy">   -120.87058480 </i>
   </energy>
  </scstep>
  <scstep>
   <time name="dav">    4.41    4.45</time>
   <time name="total">    4.49    4.53</time>
   <energy>
    <i name="alphaZ">   1114.72537883 </i>
    <i name="ewald"> 216563.68963996 </i>
    <i name="hartreedc">-260082.75380896 </i>
    <i name="XCdc">   1433.77359608 </i>
    <i name="pawpsdc">  42141.47397406 </i>
    <i name="pawaedc"> -45593.73091653 </i>
    <i name="eentropy">     -0.02226701 </i>
    <i name="bandstr">   -233.63520405 </i>
    <i name="atom">  44535.60175172 </i>
    <i name="e_fr_energy">   -120.87785590 </i>
    <i name="e_wo_entrp">   -120.85558889 </i>
    <i name="e_0_energy">   -120.87043356 </i>
   </energy>
  </scstep>
  <structure>
   <crystal>
    <varray name="basis" >
     <v>       5.13359547       0.00000000       0.00000000 </v>
     <v>       2.56679773       4.44582409       0.00000000 </v>
     <v>       0.00000000       0.00000000      29.67047119 </v>
    </varray>
    <i name="volume">    677.17101477 </i>
    <varray name="rec_basis" >
     <v>       0.19479525      -0.11246509       0.00000000 </v>
     <v>       0.00000000       0.22493018       0.00000000 </v>
     <v>       0.00000000       0.00000000       0.03370354 </v>
    </varray>
   </crystal>
   <varray name="positions" >
    <v>      -0.00024122       0.00012061       0.00038276 </v>
    <v>       1.00000000       0.50000000       0.00036479 </v>
    <v>       0.50012061       0.00012061       0.00038276 </v>
    <v>       0.50012061       0.49975878       0.00038276 </v>
    <v>       0.16662192       0.16675617       0.07029555 </v>
    <v>       0.16662192       0.66662192       0.07029555 </v>
    <v>       0.66666667       0.16666667       0.07029850 </v>
    <v>       0.66675617       0.66662192       0.07029555 </v>
    <v>       0.33336046       0.33331977       0.13842853 </v>
    <v>       0.33333333       0.83333333       0.13838742 </v>
    <v>       0.83331977       0.33331977       0.13842853 </v>
    <v>       0.83331977       0.83336046       0.13842853 </v>
    <v>      -0.00018123       0.00009062       0.20672323 </v>
    <v>       1.00000000       0.50000000       0.20661101 </v>
    <v>       0.50009062       0.00009062       0.20672323 </v>
    <v>       0.50009062       0.49981877       0.20672323 </v>
    <v>       0.16636949       0.16726103       0.27492437 </v>
    <v>       0.16636949       0.66636949       0.27492437 </v>
    <v>       0.66666667       0.16666667       0.27483026 </v>
    <v>       0.66726103       0.66636949       0.27492437 </v>
    <v>       0.33333092       0.33333454       0.34331646 </v>
    <v>       0.33333333       0.83333333       0.34310708 </v>
    <v>       0.83333454       0.33333454       0.34331646 </v>
    <v>       0.83333454       0.83333092       0.34331646 </v>
    <v>       0.00049056      -0.00024528       0.41116297 </v>
    <v>       1.00000000       0.50000000       0.41119303 </v>
    <v>       0.49975472      -0.00024528       0.41116297 </v>
    <v>       0.49975472       0.50049056       0.41116297 </v>
    <v>       0.16488779       0.17022443       0.47987135 </v>
    <v>       0.16488779       0.66488779       0.47987135 </v>
    <v>       0.66666667       0.16666667       0.48018970 </v>
    <v>       0.67022443       0.66488779       0.47987135 </v>
    <v>       0.33333333       0.83333333       0.53432795 </v>
    <v>       0.33333333       0.83333333       0.56091765 </v>
   </varray>
  </structure>
  <varray name="forces" >
   <v>      -0.00334587       0.00193174       0.07009456 </v>
   <v>       0.00000000       0.00000000       0.06545701 </v>
   <v>       0.00334587       0.00193174       0.07009456 </v>
   <v>       0.00000000      -0.00386348       0.07009456 </v>
   <v>       0.00000000       0.00081113      -0.02484280 </v>
   <v>      -0.00070246      -0.00040557      -0.02484280 </v>
   <v>       0.00000000       0.00000000      -0.01993760 </v>
   <v>       0.00070246      -0.00040557      -0.02484280 </v>
   <v>       0.00213103      -0.00123035      -0.04164699 </v>
   <v>       0.00000000       0.00000000      -0.04122975 </v>
   <v>      -0.00213103      -0.00123035      -0.04164699 </v>
   <v>       0.00000000       0.00246070      -0.04164699 </v>
   <v>       0.00379894      -0.00219332       0.00209037 </v>
   <v>       0.00000000       0.00000000      -0.01497655 </v>
   <v>      -0.00379894      -0.00219332       0.00209037 </v>
   <v>       0.00000000       0.00438664       0.00209037 </v>
   <v>      -0.00000000       0.00840914       0.00847880 </v>
   <v>      -0.00728253      -0.00420457       0.00847880 </v>
   <v>       0.00000000       0.00000000       0.01360108 </v>
   <v>       0.00728253      -0.00420457       0.00847880 </v>
   <v>       0.00265420      -0.00153240       0.02667313 </v>
   <v>       0.00000000       0.00000000      -0.00706900 </v>
   <v>      -0.00265420      -0.00153240       0.02667313 </v>
   <v>       0.00000000       0.00306481       0.02667313 </v>
   <v>       0.00864320      -0.00499016      -0.02340645 </v>
   <v>       0.00000000       0.00000000      -0.07214697 </v>
   <v>      -0.00864320      -0.00499016      -0.02340645 </v>
   <v>       0.00000000       0.00998031      -0.02340645 </v>
   <v>      -0.00000000       0.02757767      -0.12892466 </v>
   <v>      -0.02388296      -0.01378883      -0.12892466 </v>
   <v>       0.00000000       0.00000000      -0.08076727 </v>
   <v>       0.02388296      -0.01378883      -0.12892466 </v>
   <v>       0.00000000       0.00000000       0.50145668 </v>
   <v>       0.00000000       0.00000000      -0.00993551 </v>
  </varray>
  <varray name="stress" >
   <v>     -31.98167385       0.00000000       0.00000000 </v>
   <v>       0.00000000     -31.98167385       0.00000000 </v>
   <v>      -0.00000000       0.00000000      -7.19686203 </v>
  </varray>
  <energy>
   <i name="e_fr_energy">   -134.90143990 </i>
   <i name="e_wo_entrp">   -134.87917289 </i>
   <i name="e_0_energy">   -134.89401757 </i>
  </energy>
  <time name="totalsc">   51.16   51.59</time>
 </calculation>
 <calculation>
  <scstep>
   <time name="dav">    4.65    4.69</time>
   <time name="total">    5.06    5.10</time>
   <energy>
    <i name="alphaZ">   1114.72537883 </i>
    <i name="ewald"> 216920.90523482 </i>
    <i name="hartreedc">-260439.17820040 </i>
    <i name="XCdc">   1433.89572842 </i>
    <i name="pawpsdc">  42141.70314151 </i>
    <i name="pawaedc"> -45593.92603092 </i>
    <i name="eentropy">     -0.02411206 </i>
    <i name="bandstr">   -234.56172153 </i>
    <i name="atom">  44535.60175172 </i>
    <i name="e_fr_energy">   -120.85882961 </i>
    <i name="e_wo_entrp">   -120.83471755 </i>
    <i name="e_0_energy">   -120.85079226 </i>
   </energy>
  </scstep>
  <scstep>
   <time name="dav">    5.90    5.95</time>
   <time name="total">    6.30    6.36</time>
   <energy>
    <i name="e_fr_energy">   -120.88850154 </i>
    <i name="e_wo_entrp">   -120.86481920 </i>
    <i name="e_0_energy">   -120.88060743 </i>
   </energy>
  </scstep>
  <scstep>
   <time name="dav">    4.92    4.96</time>
   <time name="total">    5.33    5.37</time>
   <energy>
    <i name="e_fr_energy">   -120.89260759 </i>
    <i name="e_wo_entrp">   -120.86790990 </i>
    <i name="e_0_energy">   -120.88437503 </i>
   </energy>
  </scstep>
  <scstep>
   <time name="dav">    4.86    4.90</time>
   <time name="total">    5.26    5.30</time>
   <energy>
    <i name="e_fr_energy">   -120.88719816 </i>
    <i name="e_wo_entrp">   -120.86448169 </i>
    <i name="e_0_energy">   -120.87962600 </i>
   </energy>
  </scstep>
  <scstep>
   <time name="dav">    5.90    5.94</time>
   <time name="total">    6.29    6.34</time>
   <energy>
    <i name="e_fr_energy">   -120.88642802 </i>
    <i name="e_wo_entrp">   -120.86252334 </i>
    <i name="e_0_energy">   -120.87845979 </i>
   </energy>
  </scstep>
  <scstep>
   <time name="dav">    5.83    5.88</time>
   <time name="total">    6.24    6.29</time>
   <energy>
    <i name="e_fr_energy">   -120.88601574 </i>
    <i name="e_wo_entrp">   -120.86244858 </i>
    <i name="e_0_energy">   -120.87816002 </i>
   </energy>
  </scstep>
  <scstep>
   <time name="dav">    4.65    4.69</time>
   <time name="total">    5.05    5.09</time>
   <energy>
    <i name="e_fr_energy">   -120.88581203 </i>
    <i name="e_wo_entrp">   -120.86265930 </i>
    <i name="e_0_energy">   -120.87809445 </i>
   </energy>
  </scstep>
  <scstep>
   <time name="dav">    4.98    5.02</time>
   <time name="total">    5.05    5.10</time>
   <energy>
    <i name="alphaZ">   1114.72537883 </i>
    <i name="ewald"> 216920.90523482 </i>
    <i name="hartreedc">-260437.21236788 </i>
    <i name="XCdc">   1433.87202280 </i>
    <i name="pawpsdc">  42158.86101791 </i>
    <i name="pawaedc"> -45611.41672764 </i>
    <i name="eentropy">     -0.02379357 </i>
    <i name="bandstr">   -236.19839554 </i>
    <i name="atom">  44535.60175172 </i>
    <i name="e_fr_energy">   -120.88587855 </i>
    <i name="e_wo_entrp">   -120.86208498 </i>
    <i name="e_0_energy">   -120.87794736 </i>
   </energy>
  </scstep>
  <structure>
   <crystal>
    <varray name="basis" >
     <v>       5.13359547       0.00000000       0.00000000 </v>
     <v>       2.56679773       4.44582409       0.00000000 </v>
     <v>       0.00000000       0.00000000      29.67047119 </v>
    </varray>
    <i name="volume">    677.17101477 </i>
    <varray name="rec_basis" >
     <v>       0.19479525      -0.11246509       0.00000000 </v>
     <v>       0.00000000       0.22493018       0.00000000 </v>
     <v>       0.00000000       0.00000000       0.03370354 </v>
    </varray>
   </crystal>
   <varray name="positions" >
    <v>      -0.00045370       0.00022685       0.00072368 </v>
    <v>       1.00000000       0.50000000       0.00068898 </v>
    <v>       0.50022685       0.00022685       0.00072368 </v>
    <v>       0.50022685       0.49954630       0.00072368 </v>
    <v>       0.16658293       0.16683413       0.06999844 </v>
    <v>       0.16658293       0.66658293       0.06999844 </v>
    <v>       0.66666667       0.16666667       0.07000527 </v>
    <v>       0.66683413       0.66658293       0.06999844 </v>
    <v>       0.33338955       0.33330523       0.13838336 </v>
    <v>       0.33333333       0.83333333       0.13830731 </v>
    <v>       0.83330523       0.33330523       0.13838336 </v>
    <v>       0.83330523       0.83338955       0.13838336 </v>
    <v>      -0.00032856       0.00016428       0.20676774 </v>
    <v>       1.00000000       0.50000000       0.20655476 </v>
    <v>       0.50016428       0.00016428       0.20676774 </v>
    <v>       0.50016428       0.49967144       0.20676774 </v>
    <v>       0.16610633       0.16778733       0.27495486 </v>
    <v>       0.16610633       0.66610633       0.27495486 </v>
    <v>       0.66666667       0.16666667       0.27478165 </v>
    <v>       0.66778733       0.66610633       0.27495486 </v>
    <v>       0.33333283       0.33333358       0.34342884 </v>
    <v>       0.33333333       0.83333333       0.34303126 </v>
    <v>       0.83333358       0.33333358       0.34342884 </v>
    <v>       0.83333358       0.83333283       0.34342884 </v>
    <v>       0.00091884      -0.00045942       0.41124783 </v>
    <v>       1.00000000       0.50000000       0.41129335 </v>
    <v>       0.49954058      -0.00045942       0.41124783 </v>
    <v>       0.49954058       0.50091884       0.41124783 </v>
    <v>       0.16340196       0.17319609       0.47928250 </v>
    <v>       0.16340196       0.66340195       0.47928250 </v>
    <v>       0.66666667       0.16666667       0.47986498 </v>
    <v>       0.67319609       0.66340195       0.47928250 </v>
    <v>       0.33333333       0.83333333       0.53516313 </v>
    <v>       0.33333333       0.83333333       0.56149064 </v>
   </varray>
  </structure>
  <varray name="forces" >
   <v>       0.00497283      -0.00287106       0.00203595 </v>
   <v>      -0.00000000       0.00000000      -0.00076742 </v>
   <v>      -0.00497283      -0.00287106       0.00203595 </v>
   <v>      -0.00000000       0.00574212       0.00203595 </v>
   <v>      -0.00000000      -0.00314103       0.07530266 </v>
   <v>       0.00272022       0.00157052       0.07530266 </v>
   <v>      -0.00000000       0.00000000       0.08486716 </v>
   <v>      -0.00272022       0.00157052       0.07530266 </v>
   <v>       0.00301622      -0.00174142      -0.06963763 </v>
   <v>      -0.00000000       0.00000000      -0.05482469 </v>
   <v>      -0.00301622      -0.00174142      -0.06963763 </v>
   <v>      -0.00000000       0.00348284      -0.06963763 </v>
   <v>       0.01556547      -0.00898673      -0.01195522 </v>
   <v>      -0.00000000       0.00000000      -0.00793578 </v>
   <v>      -0.01556547      -0.00898673      -0.01195522 </v>
   <v>      -0.00000000       0.01797345      -0.01195522 </v>
   <v>      -0.00000000      -0.01400853       0.00630612 </v>
   <v>       0.01213175       0.00700427       0.00630612 </v>
   <v>      -0.00000000       0.00000000       0.04804560 </v>
   <v>      -0.01213175       0.00700427       0.00630612 </v>
   <v>       0.00574586      -0.00331737       0.01119228 </v>
   <v>      -0.00000000       0.00000000       0.01401477 </v>
   <v>      -0.00574586      -0.00331737       0.01119228 </v>
   <v>      -0.00000000       0.00663475       0.01119228 </v>
   <v>      -0.00500308       0.00288853      -0.08547404 </v>
   <v>      -0.00000000       0.00000000      -0.21412862 </v>
   <v>       0.00500308       0.00288853      -0.08547404 </v>
   <v>      -0.00000000      -0.00577706      -0.08547404 </v>
   <v>      -0.00000000      -0.12980465      -0.02320088 </v>
   <v>       0.11241412       0.06490232      -0.02320088 </v>
   <v>      -0.00000000       0.00000000      -0.03614502 </v>
   <v>      -0.11241412       0.06490232      -0.02320088 </v>
   <v>      -0.00000000       0.00000000       0.37503583 </v>
   <v>      -0.00000000       0.00000000       0.07813040 </v>
  </varray>
  <varray name="stress" >
   <v>     -29.93388850       0.00000000      -0.00000000 </v>
   <v>       0.00000000     -29.93388850       0.00000000 </v>
   <v>       0.00000000      -0.00000000      -4.47587745 </v>
  </varray>
  <energy>
   <i name="e_fr_energy">   -134.91666392 </i>
   <i name="e_wo_entrp">   -134.89287035 </i>
   <i name="e_0_energy">   -134.90873273 </i>
  </energy>
  <time name="totalsc">   53.40   53.86</time>
 </calculation>
 <calculation>
  <scstep>
   <time name="dav">    4.44    4.47</time>
   <time name="total">    4.84    4.88</time>
   <energy>
    <i name="alphaZ">   1114.72537883 </i>
    <i name="ewald"> 217168.41864980 </i>
    <i name="hartreedc">-260684.62124675 </i>
    <i name="XCdc">   1433.91522961 </i>
    <i name="pawpsdc">  42159.28121051 </i>
    <i name="pawaedc"> -45611.84980087 </i>
    <i name="eentropy">     -0.02313568 </i>
    <i name="bandstr">   -236.33576918 </i>
    <i name="atom">  44535.60175172 </i>
    <i name="e_fr_energy">   -120.88773200 </i>
    <i name="e_wo_entrp">   -120.86459632 </i>
    <i name="e_0_energy">   -120.88002011 </i>
   </energy>
  </scstep>
  <scstep>
   <time name="dav">    6.03    6.08</time>
   <time name="total">    6.44    6.49</time>
   <energy>
    <i name="e_fr_energy">   -120.89493303 </i>
    <i name="e_wo_entrp">   -120.87053056 </i>
    <i name="e_0_energy">   -120.88679887 </i>
   </energy>
  </scstep>
  <scstep>
   <time name="dav">    5.23    5.28</time>
   <time name="total">    5.63    5.68</time>
   <energy>
    <i name="e_fr_energy">   -120.89531367 </i>
    <i name="e_wo_entrp">   -120.87192907 </i>
    <i name="e_0_energy">   -120.88751880 </i>
   </energy>
  </scstep>
  <scstep>
   <time name="dav">    4.54    4.58</time>
   <time name="total">    4.95    4.99</time>
   <energy>
    <i name="e_fr_energy">   -120.89393798 </i>
    <i name="e_wo_entrp">   -120.87052602 </i>
    <i name="e_0_energy">   -120.88613400 </i>
   </energy>
  </scstep>
  <scstep>
   <time name="dav">    4.76    4.80</time>
   <time name="total">    4.83    4.87</time>
   <energy>
    <i name="alphaZ">   1114.72537883 </i>
    <i name="ewald"> 217168.41864980 </i>
    <i name="hartreedc">-260683.85868382 </i>
    <i name="XCdc">   1433.92108776 </i>
    <i name="pawpsdc">  42163.01723123 </i>
    <i name="pawaedc"> -45615.55102258 </i>
    <i name="eentropy">     -0.02429699 </i>
    <i name="bandstr">   -237.14398064 </i>
    <i name="atom">  44535.60175172 </i>
    <i name="e_fr_energy">   -120.89388468 </i>
    <i name="e_wo_entrp">   -120.86958769 </i>
    <i name="e_0_energy">   -120.88578569 </i>
   </energy>
  </scstep>
  <structure>
   <crystal>
    <varray name="basis" >
     <v>       5.13359547       0.00000000       0.00000000 </v>
     <v>       2.56679773       4.44582409       0.00000000 </v>
     <v>       0.00000000       0.00000000      29.67047119 </v>
    </varray>
    <i name="volume">    677.17101477 </i>
    <varray name="rec_basis" >
     <v>       0.19479525      -0.11246509       0.00000000 </v>
     <v>       0.00000000       0.22493018       0.00000000 </v>
     <v>       0.00000000       0.00000000       0.03370354 </v>
    </varray>
   </crystal>
   <varray name="positions" >
    <v>      -0.00043313       0.00021657       0.00081007 </v>
    <v>       1.00000000       0.50000000       0.00076605 </v>
    <v>       0.50021657       0.00021657       0.00081007 </v>
    <v>       0.50021657       0.49956687       0.00081007 </v>
    <v>       0.16659319       0.16681362       0.07006802 </v>
    <v>       0.16659319       0.66659319       0.07006802 </v>
    <v>       0.66666667       0.16666667       0.07009376 </v>
    <v>       0.66681362       0.66659319       0.07006802 </v>
    <v>       0.33344028       0.33327986       0.13824154 </v>
    <v>       0.33333333       0.83333333       0.13818486 </v>
    <v>       0.83327986       0.33327986       0.13824154 </v>
    <v>       0.83327986       0.83344028       0.13824154 </v>
    <v>      -0.00013879       0.00006940       0.20675604 </v>
    <v>       1.00000000       0.50000000       0.20652622 </v>
    <v>       0.50006940       0.00006940       0.20675604 </v>
    <v>       0.50006940       0.49986121       0.20675604 </v>
    <v>       0.16613046       0.16773908       0.27497410 </v>
    <v>       0.16613046       0.66613046       0.27497410 </v>
    <v>       0.66666667       0.16666667       0.27486018 </v>
    <v>       0.66773908       0.66613046       0.27497410 </v>
    <v>       0.33341652       0.33329174       0.34347710 </v>
    <v>       0.33333333       0.83333333       0.34303924 </v>
    <v>       0.83329174       0.33329174       0.34347710 </v>
    <v>       0.83329174       0.83341652       0.34347710 </v>
    <v>       0.00095009      -0.00047505       0.41110773 </v>
    <v>       1.00000000       0.50000000       0.41091519 </v>
    <v>       0.49952495      -0.00047505       0.41110773 </v>
    <v>       0.49952495       0.50095009       0.41110773 </v>
    <v>       0.16385621       0.17228757       0.47909628 </v>
    <v>       0.16385621       0.66385621       0.47909628 </v>
    <v>       0.66666667       0.16666667       0.47971840 </v>
    <v>       0.67228757       0.66385621       0.47909628 </v>
    <v>       0.33333333       0.83333333       0.53607029 </v>
    <v>       0.33333333       0.83333333       0.56177625 </v>
   </varray>
  </structure>
  <varray name="forces" >
   <v>       0.00376936      -0.00217624      -0.00900583 </v>
   <v>       0.00000000       0.00000000      -0.00954364 </v>
   <v>      -0.00376936      -0.00217624      -0.00900583 </v>
   <v>       0.00000000       0.00435248      -0.00900583 </v>
   <v>       0.00000000      -0.00163183       0.03773113 </v>
   <v>       0.00141320       0.00081591       0.03773113 </v>
   <v>       0.00000000      -0.00000000       0.03923509 </v>
   <v>      -0.00141320       0.00081591       0.03773113 </v>
   <v>       0.00047469      -0.00027406      -0.00649167 </v>
   <v>       0.00000000       0.00000000      -0.00189833 </v>
   <v>      -0.00047469      -0.00027406      -0.00649167 </v>
   <v>       0.00000000       0.00054813      -0.00649167 </v>
   <v>       0.00088204      -0.00050925      -0.02312698 </v>
   <v>       0.00000000      -0.00000000      -0.01657327 </v>
   <v>      -0.00088204      -0.00050925      -0.02312698 </v>
   <v>       0.00000000       0.00101849      -0.02312698 </v>
[...]
       <r>    11.0799     9.8677   223.6306 </r>
       <r>    11.1597     7.9206   224.2630 </r>
       <r>    11.2396     8.3158   224.9270 </r>
       <r>    11.3194    11.1812   225.8198 </r>
       <r>    11.3993    12.8284   226.8441 </r>
       <r>    11.4791    10.4138   227.6756 </r>
       <r>    11.5589     5.8432   228.1422 </r>
       <r>    11.6388     3.1868   228.3966 </r>
       <r>    11.7186     3.8350   228.7028 </r>
       <r>    11.7985     6.0602   229.1867 </r>
       <r>    11.8783     7.4389   229.7807 </r>
       <r>    11.9582     6.6062   230.3082 </r>
       <r>    12.0380     4.1514   230.6396 </r>
       <r>    12.1179     1.8646   230.7885 </r>
       <r>    12.1977     0.6783   230.8427 </r>
       <r>    12.2776     0.3611   230.8715 </r>
       <r>    12.3574     0.7785   230.9337 </r>
       <r>    12.4373     1.8188   231.0789 </r>
       <r>    12.5171     2.5742   231.2844 </r>
       <r>    12.5969     2.2235   231.4620 </r>
       <r>    12.6768     1.3879   231.5728 </r>
       <r>    12.7566     1.2202   231.6702 </r>
       <r>    12.8365     1.6170   231.7993 </r>
       <r>    12.9163     1.5913   231.9264 </r>
       <r>    12.9962     0.9088   231.9990 </r>
       <r>    13.0760     0.2116   232.0159 </r>
       <r>    13.1559    -0.0760   232.0098 </r>
       <r>    13.2357    -0.0812   232.0033 </r>
       <r>    13.3156    -0.0323   232.0007 </r>
       <r>    13.3954    -0.0077   232.0001 </r>
       <r>    13.4753    -0.0012   232.0000 </r>
       <r>    13.5551    -0.0001   232.0000 </r>
       <r>    13.6349    -0.0000   232.0000 </r>
       <r>    13.7148    -0.0000   232.0000 </r>
       <r>    13.7946    -0.0000   232.0000 </r>
       <r>    13.8745    -0.0000   232.0000 </r>
       <r>    13.9543    -0.0000   232.0000 </r>
       <r>    14.0342    -0.0000   232.0000 </r>
       <r>    14.1140    -0.0000   232.0000 </r>
       <r>    14.1939     0.0000   232.0000 </r>
       <r>    14.2737     0.0000   232.0000 </r>
       <r>    14.3536     0.0000   232.0000 </r>
       <r>    14.4334     0.0000   232.0000 </r>
       <r>    14.5133     0.0000   232.0000 </r>
       <r>    14.5931     0.0000   232.0000 </r>
       <r>    14.6729     0.0000   232.0000 </r>
       <r>    14.7528     0.0000   232.0000 </r>
       <r>    14.8326     0.0000   232.0000 </r>
      </set>
      <set comment="spin 2">
       <r>    -9.1212     0.0000     0.0000 </r>
       <r>    -9.0413     0.0000     0.0000 </r>
       <r>    -8.9615     0.0000     0.0000 </r>
       <r>    -8.8816     0.0000     0.0000 </r>
       <r>    -8.8018     0.0000     0.0000 </r>
       <r>    -8.7220    -0.0000    -0.0000 </r>
       <r>    -8.6421    -0.0000    -0.0000 </r>
       <r>    -8.5623    -0.0000    -0.0000 </r>
       <r>    -8.4824    -0.0000    -0.0000 </r>
       <r>    -8.4026    -0.0000    -0.0000 </r>
       <r>    -8.3227    -0.0000    -0.0000 </r>
       <r>    -8.2429    -0.0000    -0.0000 </r>
       <r>    -8.1630    -0.0000    -0.0000 </r>
       <r>    -8.0832    -0.0000    -0.0000 </r>
       <r>    -8.0033    -0.0000    -0.0000 </r>
       <r>    -7.9235    -0.0000    -0.0000 </r>
       <r>    -7.8436    -0.0000    -0.0000 </r>
       <r>    -7.7638    -0.0000    -0.0000 </r>
       <r>    -7.6840    -0.0003    -0.0000 </r>
       <r>    -7.6041    -0.0020    -0.0002 </r>
       <r>    -7.5243    -0.0082    -0.0008 </r>
       <r>    -7.4444    -0.0205    -0.0025 </r>
       <r>    -7.3646    -0.0183    -0.0039 </r>
       <r>    -7.2847     0.0568     0.0006 </r>
       <r>    -7.2049     0.2380     0.0196 </r>
       <r>    -7.1250     0.4177     0.0529 </r>
       <r>    -7.0452     0.4164     0.0862 </r>
       <r>    -6.9653     0.2412     0.1055 </r>
       <r>    -6.8855     0.1215     0.1152 </r>
       <r>    -6.8056     0.2128     0.1321 </r>
       <r>    -6.7258     0.3844     0.1628 </r>
       <r>    -6.6460     0.3752     0.1928 </r>
       <r>    -6.5661     0.1357     0.2036 </r>
       <r>    -6.4863    -0.0226     0.2018 </r>
       <r>    -6.4064     0.3918     0.2331 </r>
       <r>    -6.3266     1.5167     0.3542 </r>
       <r>    -6.2467     2.6071     0.5624 </r>
       <r>    -6.1669     2.6509     0.7740 </r>
       <r>    -6.0870     1.8045     0.9181 </r>
       <r>    -6.0072     1.3421     1.0253 </r>
       <r>    -5.9273     1.9176     1.1784 </r>
       <r>    -5.8475     2.6450     1.3896 </r>
       <r>    -5.7676     2.3473     1.5770 </r>
       <r>    -5.6878     1.1601     1.6696 </r>
       <r>    -5.6080     0.0997     1.6776 </r>
       <r>    -5.5281    -0.2984     1.6538 </r>
       <r>    -5.4483     0.0191     1.6553 </r>
       <r>    -5.3684     1.1301     1.7455 </r>
       <r>    -5.2886     2.6003     1.9532 </r>
       <r>    -5.2087     3.2043     2.2090 </r>
       <r>    -5.1289     2.3174     2.3940 </r>
       <r>    -5.0490     0.8296     2.4603 </r>
       <r>    -4.9692    -0.1268     2.4502 </r>
       <r>    -4.8893    -0.2805     2.4278 </r>
       <r>    -4.8095     0.2806     2.4502 </r>
       <r>    -4.7296     1.4390     2.5651 </r>
       <r>    -4.6498     2.6786     2.7789 </r>
       <r>    -4.5700     3.5051     3.0588 </r>
       <r>    -4.4901     4.1353     3.3890 </r>
       <r>    -4.4103     4.7367     3.7672 </r>
       <r>    -4.3304     4.6413     4.1378 </r>
       <r>    -4.2506     3.4233     4.4111 </r>
       <r>    -4.1707     2.0383     4.5739 </r>
       <r>    -4.0909     1.7420     4.7130 </r>
       <r>    -4.0110     2.4940     4.9121 </r>
       <r>    -3.9312     3.6731     5.2054 </r>
       <r>    -3.8513     5.2598     5.6254 </r>
       <r>    -3.7715     6.8569     6.1729 </r>
       <r>    -3.6917     7.2256     6.7498 </r>
       <r>    -3.6118     6.2135     7.2459 </r>
       <r>    -3.5320     5.3558     7.6736 </r>
       <r>    -3.4521     5.5217     8.1145 </r>
       <r>    -3.3723     5.7334     8.5723 </r>
       <r>    -3.2924     5.0479     8.9753 </r>
       <r>    -3.2126     3.8428     9.2821 </r>
       <r>    -3.1327     2.9700     9.5193 </r>
       <r>    -3.0529     3.1210     9.7685 </r>
       <r>    -2.9730     4.4632    10.1249 </r>
       <r>    -2.8932     6.2510    10.6240 </r>
       <r>    -2.8133     8.0728    11.2686 </r>
       <r>    -2.7335    10.8873    12.1379 </r>
       <r>    -2.6537    15.3806    13.3659 </r>
       <r>    -2.5738    20.6127    15.0118 </r>
       <r>    -2.4940    24.8119    16.9929 </r>
       <r>    -2.4141    26.1305    19.0793 </r>
       <r>    -2.3343    23.7589    20.9764 </r>
       <r>    -2.2544    19.7503    22.5534 </r>
       <r>    -2.1746    18.0132    23.9917 </r>
       <r>    -2.0947    20.6178    25.6379 </r>
       <r>    -2.0149    26.4697    27.7514 </r>
       <r>    -1.9350    32.9293    30.3807 </r>
       <r>    -1.8552    37.2861    33.3578 </r>
       <r>    -1.7753    38.2010    36.4080 </r>
       <r>    -1.6955    36.1930    39.2979 </r>
       <r>    -1.6157    32.5375    41.8959 </r>
       <r>    -1.5358    29.2352    44.2302 </r>
       <r>    -1.4560    28.1979    46.4817 </r>
       <r>    -1.3761    29.8003    48.8611 </r>
       <r>    -1.2963    34.1359    51.5867 </r>
       <r>    -1.2164    40.9042    54.8528 </r>
       <r>    -1.1366    47.0467    58.6093 </r>
       <r>    -1.0567    49.2436    62.5412 </r>
       <r>    -0.9769    49.6802    66.5079 </r>
       <r>    -0.8970    53.5547    70.7841 </r>
       <r>    -0.8172    60.2264    75.5929 </r>
       <r>    -0.7373    63.9579    80.6997 </r>
       <r>    -0.6575    62.6986    85.7059 </r>
       <r>    -0.5777    59.4175    90.4502 </r>
       <r>    -0.4978    56.8069    94.9860 </r>
       <r>    -0.4180    55.2943    99.4010 </r>
       <r>    -0.3381    54.6905   103.7679 </r>
       <r>    -0.2583    54.2599   108.1003 </r>
       <r>    -0.1784    52.6172   112.3016 </r>
       <r>    -0.0986    50.3662   116.3231 </r>
       <r>    -0.0187    49.2714   120.2572 </r>
       <r>     0.0611    49.7624   124.2306 </r>
       <r>     0.1410    53.5062   128.5028 </r>
       <r>     0.2208    62.0111   133.4542 </r>
       <r>     0.3007    70.8653   139.1125 </r>
       <r>     0.3805    74.3538   145.0493 </r>
       <r>     0.4603    74.0092   150.9587 </r>
       <r>     0.5402    73.8688   156.8568 </r>
       <r>     0.6200    70.5885   162.4930 </r>
       <r>     0.6999    56.9445   167.0398 </r>
       <r>     0.7797    34.0047   169.7550 </r>
       <r>     0.8596    12.3577   170.7417 </r>
       <r>     0.9394     0.7265   170.7997 </r>
       <r>     1.0193    -1.2892   170.6968 </r>
       <r>     1.0991     0.7149   170.7538 </r>
       <r>     1.1790     2.4954   170.9531 </r>
       <r>     1.2588     3.2728   171.2144 </r>
       <r>     1.3387     3.9581   171.5304 </r>
       <r>     1.4185     4.8208   171.9154 </r>
       <r>     1.4983     4.9913   172.3139 </r>
       <r>     1.5782     3.7638   172.6144 </r>
       <r>     1.6580     2.0974   172.7819 </r>
       <r>     1.7379     2.1892   172.9567 </r>
       <r>     1.8177     5.0663   173.3612 </r>
       <r>     1.8976     9.1304   174.0902 </r>
       <r>     1.9774    11.5780   175.0147 </r>
       <r>     2.0573    11.2639   175.9141 </r>
       <r>     2.1371     9.8183   176.6980 </r>
       <r>     2.2170     9.0518   177.4208 </r>
       <r>     2.2968     8.0802   178.0660 </r>
       <r>     2.3766     5.4621   178.5021 </r>
       <r>     2.4565     2.6432   178.7131 </r>
       <r>     2.5363     2.1006   178.8809 </r>
       <r>     2.6162     3.8454   179.1879 </r>
       <r>     2.6960     5.9712   179.6647 </r>
       <r>     2.7759     6.8533   180.2119 </r>
       <r>     2.8557     6.0038   180.6913 </r>
       <r>     2.9356     4.4704   181.0482 </r>
       <r>     3.0154     3.7897   181.3508 </r>
       <r>     3.0953     3.7400   181.6494 </r>
       <r>     3.1751     3.1258   181.8990 </r>
       <r>     3.2550     2.3007   182.0827 </r>
       <r>     3.3348     2.5887   182.2894 </r>
       <r>     3.4146     4.3401   182.6360 </r>
       <r>     3.4945     6.9067   183.1874 </r>
       <r>     3.5743     9.2473   183.9258 </r>
       <r>     3.6542    10.0717   184.7300 </r>
       <r>     3.7340     8.6429   185.4201 </r>
       <r>     3.8139     5.8732   185.8890 </r>
       <r>     3.8937     3.6787   186.1827 </r>
       <r>     3.9736     2.7784   186.4046 </r>
       <r>     4.0534     2.1779   186.5785 </r>
       <r>     4.1333     1.1513   186.6704 </r>
       <r>     4.2131     0.1452   186.6820 </r>
       <r>     4.2930    -0.3797   186.6517 </r>
       <r>     4.3728    -0.3589   186.6230 </r>
       <r>     4.4526     0.5784   186.6692 </r>
       <r>     4.5325     2.7370   186.8878 </r>
       <r>     4.6123     5.0215   187.2887 </r>
       <r>     4.6922     5.6689   187.7413 </r>
       <r>     4.7720     4.6788   188.1149 </r>
       <r>     4.8519     3.4225   188.3882 </r>
       <r>     4.9317     2.3273   188.5740 </r>
       <r>     5.0116     1.1168   188.6632 </r>
       <r>     5.0914     0.0545   188.6676 </r>
       <r>     5.1713    -0.3769   188.6375 </r>
       <r>     5.2511     0.1675   188.6508 </r>
       <r>     5.3310     1.9142   188.8037 </r>
       <r>     5.4108     4.3073   189.1476 </r>
       <r>     5.4906     6.0038   189.6270 </r>
       <r>     5.5705     6.5625   190.1510 </r>
       <r>     5.6503     6.9409   190.7052 </r>
       <r>     5.7302     7.4391   191.2992 </r>
       <r>     5.8100     7.1224   191.8679 </r>
       <r>     5.8899     5.7794   192.3293 </r>
       <r>     5.9697     4.1974   192.6645 </r>
       <r>     6.0496     2.8053   192.8885 </r>
       <r>     6.1294     1.7725   193.0300 </r>
       <r>     6.2093     1.8406   193.1769 </r>
       <r>     6.2891     3.8031   193.4806 </r>
       <r>     6.3690     6.7073   194.0162 </r>
       <r>     6.4488     7.9836   194.6536 </r>
       <r>     6.5286     6.7414   195.1919 </r>
       <r>     6.6085     4.8003   195.5752 </r>
       <r>     6.6883     3.6490   195.8665 </r>
       <r>     6.7682     3.3310   196.1325 </r>
       <r>     6.8480     3.9188   196.4454 </r>
       <r>     6.9279     5.1061   196.8531 </r>
       <r>     7.0077     5.8499   197.3202 </r>
       <r>     7.0876     6.2171   197.8166 </r>
       <r>     7.1674     7.1000   198.3835 </r>
       <r>     7.2473     8.1504   199.0343 </r>
       <r>     7.3271     8.5754   199.7190 </r>
       <r>     7.4070     8.2724   200.3795 </r>
       <r>     7.4868     6.8808   200.9289 </r>
       <r>     7.5666     4.3943   201.2798 </r>
       <r>     7.6465     2.4137   201.4725 </r>
       <r>     7.7263     2.5168   201.6735 </r>
       <r>     7.8062     4.4634   202.0298 </r>
       <r>     7.8860     6.9026   202.5810 </r>
       <r>     7.9659     8.6578   203.2723 </r>
       <r>     8.0457     8.8668   203.9803 </r>
       <r>     8.1256     7.2249   204.5571 </r>
       <r>     8.2054     4.8971   204.9481 </r>
       <r>     8.2853     3.6548   205.2400 </r>
       <r>     8.3651     4.0531   205.5636 </r>
       <r>     8.4450     5.8194   206.0282 </r>
       <r>     8.5248     8.4210   206.7006 </r>
       <r>     8.6046    10.1617   207.5120 </r>
       <r>     8.6845     9.1845   208.2453 </r>
       <r>     8.7643     6.0449   208.7280 </r>
       <r>     8.8442     3.2597   208.9883 </r>
       <r>     8.9240     2.4288   209.1822 </r>
       <r>     9.0039     3.1468   209.4335 </r>
       <r>     9.0837     4.2331   209.7715 </r>
       <r>     9.1636     5.2053   210.1871 </r>
       <r>     9.2434     6.5110   210.7070 </r>
       <r>     9.3233     8.3029   211.3699 </r>
       <r>     9.4031     9.3959   212.1201 </r>
       <r>     9.4829     8.3838   212.7896 </r>
       <r>     9.5628     5.7511   213.2488 </r>
       <r>     9.6426     3.6625   213.5412 </r>
       <r>     9.7225     3.4610   213.8175 </r>
       <r>     9.8023     4.3559   214.1653 </r>
       <r>     9.8822     5.1089   214.5733 </r>
       <r>     9.9620     6.1365   215.0632 </r>
       <r>    10.0419     8.1787   215.7163 </r>
       <r>    10.1217     9.6997   216.4908 </r>
       <r>    10.2016     8.6727   217.1832 </r>
       <r>    10.2814     6.0674   217.6677 </r>
       <r>    10.3613     4.4422   218.0224 </r>
       <r>    10.4411     4.6014   218.3898 </r>
       <r>    10.5209     5.7820   218.8515 </r>
       <r>    10.6008     7.1373   219.4214 </r>
       <r>    10.6806     7.7432   220.0396 </r>
       <r>    10.7605     7.3271   220.6247 </r>
       <r>    10.8403     7.5021   221.2237 </r>
       <r>    10.9202     9.3832   221.9729 </r>
       <r>    11.0000    10.8940   222.8427 </r>
       <r>    11.0799     9.8676   223.6306 </r>
       <r>    11.1597     7.9206   224.2630 </r>
       <r>    11.2396     8.3158   224.9270 </r>
       <r>    11.3194    11.1813   225.8198 </r>
       <r>    11.3993    12.8284   226.8441 </r>
       <r>    11.4791    10.4137   227.6756 </r>
       <r>    11.5589     5.8432   228.1422 </r>
       <r>    11.6388     3.1868   228.3966 </r>
       <r>    11.7186     3.8350   228.7028 </r>
       <r>    11.7985     6.0603   229.1867 </r>
       <r>    11.8783     7.4390   229.7807 </r>
       <r>    11.9582     6.6062   230.3082 </r>
       <r>    12.0380     4.1514   230.6396 </r>
       <r>    12.1179     1.8646   230.7885 </r>
       <r>    12.1977     0.6783   230.8427 </r>
       <r>    12.2776     0.3611   230.8715 </r>
       <r>    12.3574     0.7785   230.9337 </r>
       <r>    12.4373     1.8188   231.0789 </r>
       <r>    12.5171     2.5742   231.2844 </r>
       <r>    12.5969     2.2236   231.4620 </r>
       <r>    12.6768     1.3880   231.5728 </r>
       <r>    12.7566     1.2203   231.6702 </r>
       <r>    12.8365     1.6171   231.7994 </r>
       <r>    12.9163     1.5912   231.9264 </r>
       <r>    12.9962     0.9087   231.9990 </r>
       <r>    13.0760     0.2115   232.0159 </r>
       <r>    13.1559    -0.0760   232.0098 </r>
       <r>    13.2357    -0.0812   232.0033 </r>
       <r>    13.3156    -0.0323   232.0007 </r>
       <r>    13.3954    -0.0077   232.0001 </r>
       <r>    13.4753    -0.0012   232.0000 </r>
       <r>    13.5551    -0.0001   232.0000 </r>
       <r>    13.6349    -0.0000   232.0000 </r>
       <r>    13.7148    -0.0000   232.0000 </r>
       <r>    13.7946    -0.0000   232.0000 </r>
       <r>    13.8745    -0.0000   232.0000 </r>
       <r>    13.9543    -0.0000   232.0000 </r>
       <r>    14.0342    -0.0000   232.0000 </r>
       <r>    14.1140    -0.0000   232.0000 </r>
       <r>    14.1939     0.0000   232.0000 </r>
       <r>    14.2737     0.0000   232.0000 </r>
       <r>    14.3536     0.0000   232.0000 </r>
       <r>    14.4334     0.0000   232.0000 </r>
       <r>    14.5133     0.0000   232.0000 </r>
       <r>    14.5931     0.0000   232.0000 </r>
       <r>    14.6729     0.0000   232.0000 </r>
       <r>    14.7528     0.0000   232.0000 </r>
       <r>    14.8326     0.0000   232.0000 </r>
      </set>
     </set>
    </array>
   </total>
  </dos>
 </calculation>
 <structure name="finalpos" >
  <crystal>
   <varray name="basis" >
    <v>       5.13359547       0.00000000       0.00000000 </v>
    <v>       2.56679773       4.44582409       0.00000000 </v>
    <v>       0.00000000       0.00000000      29.67047119 </v>
   </varray>
   <i name="volume">    677.17101477 </i>
   <varray name="rec_basis" >
    <v>       0.19479525      -0.11246509       0.00000000 </v>
    <v>       0.00000000       0.22493018       0.00000000 </v>
    <v>       0.00000000       0.00000000       0.03370354 </v>
   </varray>
  </crystal>
  <varray name="positions" >
   <v>      -0.00004423       0.00002211      -0.00070324 </v>
   <v>       1.00000000       0.50000000      -0.00071393 </v>
   <v>       0.50002211       0.00002211      -0.00070324 </v>
   <v>       0.50002211       0.49995577      -0.00070324 </v>
   <v>       0.16671445       0.16657110       0.06864181 </v>
   <v>       0.16671445       0.66671445       0.06864181 </v>
   <v>       0.66666667       0.16666667       0.06866621 </v>
   <v>       0.66657110       0.66671445       0.06864181 </v>
   <v>       0.33332186       0.33333907       0.13638738 </v>
   <v>       0.33333333       0.83333333       0.13636887 </v>
   <v>       0.83333907       0.33333907       0.13638738 </v>
   <v>       0.83333907       0.83332186       0.13638738 </v>
   <v>       0.00012530      -0.00006265       0.20466747 </v>
   <v>       1.00000000       0.50000000       0.20460622 </v>
   <v>       0.49993735      -0.00006265       0.20466747 </v>
   <v>       0.49993735       0.50012530       0.20466747 </v>
   <v>       0.16651509       0.16696982       0.27286549 </v>
   <v>       0.16651509       0.66651509       0.27286549 </v>
   <v>       0.66666667       0.16666667       0.27288677 </v>
   <v>       0.66696982       0.66651509       0.27286549 </v>
   <v>       0.33330945       0.33334527       0.34127503 </v>
   <v>       0.33333333       0.83333333       0.34111250 </v>
   <v>       0.83334527       0.33334527       0.34127503 </v>
   <v>       0.83334528       0.83330945       0.34127503 </v>
   <v>       0.00035334      -0.00017667       0.40916935 </v>
   <v>       1.00000000       0.50000000       0.40911255 </v>
   <v>       0.49982333      -0.00017667       0.40916935 </v>
   <v>       0.49982333       0.50035334       0.40916935 </v>
   <v>       0.16645718       0.16708565       0.47858250 </v>
   <v>       0.16645718       0.66645718       0.47858250 </v>
   <v>       0.66666667       0.16666667       0.47855581 </v>
   <v>       0.66708565       0.66645718       0.47858250 </v>
   <v>       0.33333333       0.83333333       0.56339009 </v>
   <v>       0.33333333       0.83333333       0.58890063 </v>
  </varray>
 </structure>
</modeling>
