unknown system                          
           1
     5.133595    0.000000    0.000000
     2.566798    4.445824    0.000000
     0.000000    0.000000   29.670471
   Cu   H 
    32     2
Direct configuration=     1
   0.00000000  0.00000000  0.00000000
   1.00000000  0.50000000  0.00000000
   0.50000000  0.00000000  0.00000000
   0.50000000  0.50000000  0.00000000
   0.16666667  0.16666667  0.07063526
   0.16666667  0.66666667  0.07063526
   0.66666667  0.16666667  0.07063526
   0.66666667  0.66666667  0.07063526
   0.33333333  0.33333333  0.13847021
   0.33333333  0.83333333  0.13847021
   0.83333333  0.33333333  0.13847021
   0.83333333  0.83333333  0.13847021
   0.00000000  0.00000000  0.20667428
   1.00000000  0.50000000  0.20667428
   0.50000000  0.00000000  0.20667428
   0.50000000  0.50000000  0.20667428
   0.16666667  0.16666667  0.27488859
   0.16666667  0.66666667  0.27488859
   0.66666667  0.16666667  0.27488859
   0.66666667  0.66666667  0.27488859
   0.33333333  0.33333333  0.34319917
   0.33333333  0.83333333  0.34319917
   0.83333333  0.33333333  0.34319917
   0.83333333  0.83333333  0.34319917
   0.00000000  0.00000000  0.41105828
   1.00000000  0.50000000  0.41105828
   0.50000000  0.00000000  0.41105828
   0.50000000  0.50000000  0.41105828
   0.16666667  0.16666667  0.48054462
   0.16666667  0.66666667  0.48054462
   0.66666667  0.16666667  0.48054462
   0.66666667  0.66666667  0.48054462
   0.33333333  0.83333333  0.53425930
   0.33333333  0.83333333  0.55940215
Direct configuration=     2
  -0.00015471  0.00007736  0.00024046
   1.00000000  0.50000000  0.00023012
   0.50007736  0.00007736  0.00024046
   0.50007736  0.49984529  0.00024046
   0.16663737  0.16672525  0.07041449
   0.16663737  0.66663737  0.07041449
   0.66666667  0.16666667  0.07041466
   0.66672525  0.66663737  0.07041449
   0.33334372  0.33332814  0.13845487
   0.33333333  0.83333333  0.13842680
   0.83332814  0.33332814  0.13845487
   0.83332814  0.83334372  0.13845487
  -0.00013286  0.00006643  0.20670382
   1.00000000  0.50000000  0.20663440
   0.50006643  0.00006643  0.20670382
   0.50006643  0.49986714  0.20670382
   0.16647791  0.16704419  0.27491293
   0.16647791  0.66647791  0.27491293
   0.66666667  0.16666667  0.27484744
   0.66704419  0.66647791  0.27491293
   0.33332632  0.33333684  0.34326218
   0.33333333  0.83333333  0.34313296
   0.83333684  0.33333684  0.34326218
   0.83333684  0.83332632  0.34326218
   0.00031985 -0.00015992  0.41113534
   1.00000000  0.50000000  0.41116949
   0.49984008 -0.00015992  0.41113534
   0.49984008  0.50031985  0.41113534
   0.16541622  0.16916757  0.48010711
   0.16541622  0.66541622  0.48010711
   0.66666667  0.16666667  0.48033326
   0.66916757  0.66541622  0.48010711
   0.33333333  0.83333333  0.53325817
   0.33333333  0.83333333  0.56140221
Direct configuration=     3
  -0.00008455  0.00004228  0.00013141
   1.00000000  0.50000000  0.00012576
   0.50004228  0.00004228  0.00013141
   0.50004228  0.49991545  0.00013141
   0.16665066  0.16669868  0.07051461
   0.16665066  0.66665066  0.07051461
   0.66666667  0.16666667  0.07051470
   0.66669868  0.66665066  0.07051461
   0.33333901  0.33333049  0.13846183
   0.33333333  0.83333333  0.13844649
   0.83333049  0.33333049  0.13846183
   0.83333049  0.83333901  0.13846183
  -0.00007261  0.00003630  0.20669042
   1.00000000  0.50000000  0.20665249
   0.50003630  0.00003630  0.20669042
   0.50003630  0.49992739  0.20669042
   0.16656351  0.16687298  0.27490189
   0.16656351  0.66656351  0.27490189
   0.66666667  0.16666667  0.27486610
   0.66687298  0.66656351  0.27490189
   0.33332950  0.33333525  0.34323361
   0.33333333  0.83333333  0.34316298
   0.83333525  0.33333525  0.34323361
   0.83333525  0.83332950  0.34323361
   0.00017480 -0.00008740  0.41110039
   1.00000000  0.50000000  0.41111906
   0.49991260 -0.00008740  0.41110039
   0.49991260  0.50017480  0.41110039
   0.16598329  0.16803342  0.48030552
   0.16598329  0.66598329  0.48030552
   0.66666667  0.16666667  0.48042911
   0.66803342  0.66598329  0.48030552
   0.33333333  0.83333333  0.53371218
   0.33333333  0.83333333  0.56049519
Direct configuration=     4
  -0.00024122  0.00012061  0.00038276
   1.00000000  0.50000000  0.00036479
   0.50012061  0.00012061  0.00038276
   0.50012061  0.49975878  0.00038276
   0.16662192  0.16675617  0.07029555
   0.16662192  0.66662192  0.07029555
   0.66666667  0.16666667  0.07029850
   0.66675617  0.66662192  0.07029555
   0.33336046  0.33331977  0.13842853
   0.33333333  0.83333333  0.13838742
   0.83331977  0.33331977  0.13842853
   0.83331977  0.83336046  0.13842853
  -0.00018123  0.00009062  0.20672323
   1.00000000  0.50000000  0.20661101
   0.50009062  0.00009062  0.20672323
   0.50009062  0.49981877  0.20672323
   0.16636949  0.16726103  0.27492437
   0.16636949  0.66636949  0.27492437
   0.66666667  0.16666667  0.27483026
   0.66726103  0.66636949  0.27492437
   0.33333092  0.33333454  0.34331646
   0.33333333  0.83333333  0.34310708
   0.83333454  0.33333454  0.34331646
   0.83333454  0.83333092  0.34331646
   0.00049056 -0.00024528  0.41116297
   1.00000000  0.50000000  0.41119303
   0.49975472 -0.00024528  0.41116297
   0.49975472  0.50049056  0.41116297
   0.16488779  0.17022443  0.47987135
   0.16488779  0.66488779  0.47987135
   0.66666667  0.16666667  0.48018970
   0.67022443  0.66488779  0.47987135
   0.33333333  0.83333333  0.53432795
   0.33333333  0.83333333  0.56091765
Direct configuration=     5
  -0.00045370  0.00022685  0.00072368
   1.00000000  0.50000000  0.00068898
   0.50022685  0.00022685  0.00072368
   0.50022685  0.49954630  0.00072368
   0.16658293  0.16683413  0.06999844
   0.16658293  0.66658293  0.06999844
   0.66666667  0.16666667  0.07000527
   0.66683413  0.66658293  0.06999844
   0.33338955  0.33330523  0.13838336
   0.33333333  0.83333333  0.13830731
   0.83330523  0.33330523  0.13838336
   0.83330523  0.83338955  0.13838336
  -0.00032856  0.00016428  0.20676774
   1.00000000  0.50000000  0.20655476
   0.50016428  0.00016428  0.20676774
   0.50016428  0.49967144  0.20676774
   0.16610633  0.16778733  0.27495486
   0.16610633  0.66610633  0.27495486
   0.66666667  0.16666667  0.27478165
   0.66778733  0.66610633  0.27495486
   0.33333283  0.33333358  0.34342884
   0.33333333  0.83333333  0.34303126
   0.83333358  0.33333358  0.34342884
   0.83333358  0.83333283  0.34342884
   0.00091884 -0.00045942  0.41124783
   1.00000000  0.50000000  0.41129335
   0.49954058 -0.00045942  0.41124783
   0.49954058  0.50091884  0.41124783
   0.16340196  0.17319609  0.47928250
   0.16340196  0.66340195  0.47928250
   0.66666667  0.16666667  0.47986498
   0.67319609  0.66340195  0.47928250
   0.33333333  0.83333333  0.53516313
   0.33333333  0.83333333  0.56149064
Direct configuration=     6
  -0.00043313  0.00021657  0.00081007
   1.00000000  0.50000000  0.00076605
   0.50021657  0.00021657  0.00081007
   0.50021657  0.49956687  0.00081007
   0.16659319  0.16681362  0.07006802
   0.16659319  0.66659319  0.07006802
   0.66666667  0.16666667  0.07009376
   0.66681362  0.66659319  0.07006802
   0.33344028  0.33327986  0.13824154
   0.33333333  0.83333333  0.13818486
   0.83327986  0.33327986  0.13824154
   0.83327986  0.83344028  0.13824154
  -0.00013879  0.00006940  0.20675604
   1.00000000  0.50000000  0.20652622
   0.50006940  0.00006940  0.20675604
   0.50006940  0.49986121  0.20675604
   0.16613046  0.16773908  0.27497410
   0.16613046  0.66613046  0.27497410
   0.66666667  0.16666667  0.27486018
   0.66773908  0.66613046  0.27497410
   0.33341652  0.33329174  0.34347710
   0.33333333  0.83333333  0.34303924
   0.83329174  0.33329174  0.34347710
   0.83329174  0.83341652  0.34347710
   0.00095009 -0.00047505  0.41110773
   1.00000000  0.50000000  0.41091519
   0.49952495 -0.00047505  0.41110773
   0.49952495  0.50095009  0.41110773
   0.16385621  0.17228757  0.47909628
   0.16385621  0.66385621  0.47909628
   0.66666667  0.16666667  0.47971840
   0.67228757  0.66385621  0.47909628
   0.33333333  0.83333333  0.53607029
   0.33333333  0.83333333  0.56177625
Direct configuration=     7
  -0.00041921  0.00020960  0.00086857
   1.00000000  0.50000000  0.00081824
   0.50020960  0.00020960  0.00086857
   0.50020960  0.49958079  0.00086857
   0.16660014  0.16679972  0.07011514
   0.16660014  0.66660014  0.07011514
   0.66666667  0.16666667  0.07015369
   0.66679972  0.66660014  0.07011514
   0.33347464  0.33326268  0.13814549
   0.33333333  0.83333333  0.13810194
   0.83326268  0.33326268  0.13814549
   0.83326268  0.83347464  0.13814549
  -0.00001027  0.00000514  0.20674813
   1.00000000  0.50000000  0.20650690
   0.50000514  0.00000514  0.20674813
   0.50000514  0.49998973  0.20674813
   0.16614680  0.16770640  0.27498713
   0.16614680  0.66614680  0.27498713
   0.66666667  0.16666667  0.27491336
   0.66770640  0.66614680  0.27498713
   0.33347319  0.33326340  0.34350977
   0.33333333  0.83333333  0.34304464
   0.83326340  0.33326340  0.34350977
   0.83326340  0.83347319  0.34350977
   0.00097126 -0.00048563  0.41101286
   1.00000000  0.50000000  0.41065909
   0.49951437 -0.00048563  0.41101286
   0.49951437  0.50097126  0.41101286
   0.16416385  0.17167231  0.47897017
   0.16416385  0.66416384  0.47897017
   0.66666667  0.16666667  0.47961913
   0.67167231  0.66416384  0.47897017
   0.33333333  0.83333333  0.53668463
   0.33333333  0.83333333  0.56196968
Direct configuration=     8
  -0.00040733  0.00020366  0.00089486
   1.00000000  0.50000000  0.00084165
   0.50020366  0.00020366  0.00089486
   0.50020366  0.49959267  0.00089486
   0.16660419  0.16679162  0.07014157
   0.16660419  0.66660419  0.07014157
   0.66666667  0.16666667  0.07018568
   0.66679162  0.66660419  0.07014157
   0.33348961  0.33325520  0.13810477
   0.33333333  0.83333333  0.13806735
   0.83325520  0.33325520  0.13810477
   0.83325520  0.83348961  0.13810477
   0.00004265 -0.00002133  0.20673979
   1.00000000  0.50000000  0.20649462
   0.49997867 -0.00002133  0.20673979
   0.49997867  0.50004265  0.20673979
   0.16615837  0.16768325  0.27499339
   0.16615838  0.66615837  0.27499339
   0.66666667  0.16666667  0.27493975
   0.66768325  0.66615837  0.27499339
   0.33351374  0.33324313  0.34351468
   0.33333333  0.83333333  0.34304356
   0.83324313  0.33324313  0.34351468
   0.83324313  0.83351374  0.34351468
   0.00096246 -0.00048123  0.41095973
   1.00000000  0.50000000  0.41053157
   0.49951877 -0.00048123  0.41095973
   0.49951877  0.50096246  0.41095973
   0.16432985  0.17134031  0.47890539
   0.16432985  0.66432985  0.47890539
   0.66666667  0.16666667  0.47956816
   0.67134031  0.66432985  0.47890539
   0.33333333  0.83333333  0.53688787
   0.33333333  0.83333333  0.56222033
Direct configuration=     9
  -0.00037169  0.00018585  0.00097371
   1.00000000  0.50000000  0.00091185
   0.50018585  0.00018585  0.00097371
   0.50018585  0.49962831  0.00097371
   0.16661634  0.16676732  0.07022088
   0.16661634  0.66661634  0.07022088
   0.66666667  0.16666667  0.07028165
   0.66676732  0.66661634  0.07022088
   0.33353451  0.33323274  0.13798259
   0.33333333  0.83333333  0.13796361
   0.83323274  0.33323274  0.13798259
   0.83323274  0.83353451  0.13798259
   0.00020143 -0.00010072  0.20671478
   1.00000000  0.50000000  0.20645780
   0.49989928 -0.00010072  0.20671478
   0.49989928  0.50020143  0.20671478
   0.16619310  0.16761380  0.27501219
   0.16619310  0.66619310  0.27501219
   0.66666667  0.16666667  0.27501893
   0.66761380  0.66619310  0.27501219
   0.33363539  0.33318230  0.34352940
   0.33333333  0.83333333  0.34304032
   0.83318230  0.33318230  0.34352940
   0.83318230  0.83363539  0.34352940
   0.00093607 -0.00046803  0.41080034
   1.00000000  0.50000000  0.41014902
   0.49953197 -0.00046803  0.41080034
   0.49953197  0.50093607  0.41080034
   0.16482785  0.17034430  0.47871104
   0.16482785  0.66482785  0.47871104
   0.66666667  0.16666667  0.47941525
   0.67034430  0.66482785  0.47871104
   0.33333333  0.83333333  0.53749759
   0.33333333  0.83333333  0.56297229
Direct configuration=    10
  -0.00030042  0.00015021  0.00113142
   1.00000000  0.50000000  0.00105226
   0.50015021  0.00015021  0.00113142
   0.50015021  0.49969958  0.00113142
   0.16664064  0.16671871  0.07037948
   0.16664064  0.66664064  0.07037948
   0.66666667  0.16666667  0.07047358
   0.66671871  0.66664064  0.07037948
   0.33362432  0.33318784  0.13773823
   0.33333333  0.83333333  0.13775611
   0.83318784  0.33318784  0.13773823
   0.83318784  0.83362432  0.13773823
   0.00051899 -0.00025950  0.20666477
   1.00000000  0.50000000  0.20638417
   0.49974050 -0.00025950  0.20666477
   0.49974050  0.50051899  0.20666477
   0.16626255  0.16747489  0.27504979
   0.16626255  0.66626255  0.27504979
   0.66666667  0.16666667  0.27517728
   0.66747489  0.66626255  0.27504979
   0.33387868  0.33306066  0.34355883
   0.33333333  0.83333333  0.34303383
   0.83306066  0.33306066  0.34355883
   0.83306066  0.83387868  0.34355883
   0.00088328 -0.00044164  0.41048156
   1.00000000  0.50000000  0.40938392
   0.49955836 -0.00044164  0.41048156
   0.49955836  0.50088328  0.41048156
   0.16582386  0.16835228  0.47832235
   0.16582386  0.66582386  0.47832235
   0.66666667  0.16666667  0.47910943
   0.66835228  0.66582386  0.47832235
   0.33333333  0.83333333  0.53871703
   0.33333333  0.83333333  0.56447620
Direct configuration=    11
  -0.00027862  0.00013931  0.00117965
   1.00000000  0.50000000  0.00109520
   0.50013931  0.00013931  0.00117965
   0.50013931  0.49972138  0.00117965
   0.16664808  0.16670385  0.07042799
   0.16664808  0.66664807  0.07042799
   0.66666667  0.16666667  0.07053227
   0.66670385  0.66664807  0.07042799
   0.33365179  0.33317410  0.13766350
   0.33333333  0.83333333  0.13769265
   0.83317410  0.33317410  0.13766350
   0.83317410  0.83365179  0.13766350
   0.00061611 -0.00030806  0.20664947
   1.00000000  0.50000000  0.20636165
   0.49969194 -0.00030806  0.20664947
   0.49969194  0.50061611  0.20664947
   0.16628379  0.16743241  0.27506129
   0.16628379  0.66628379  0.27506129
   0.66666667  0.16666667  0.27522570
   0.66743241  0.66628379  0.27506129
   0.33395309  0.33302345  0.34356783
   0.33333333  0.83333333  0.34303184
   0.83302345  0.33302345  0.34356783
   0.83302345  0.83395309  0.34356783
   0.00086714 -0.00043357  0.41038407
   1.00000000  0.50000000  0.40914993
   0.49956643 -0.00043357  0.41038407
   0.49956643  0.50086714  0.41038407
   0.16612847  0.16774306  0.47820348
   0.16612847  0.66612847  0.47820348
   0.66666667  0.16666667  0.47901589
   0.66774306  0.66612847  0.47820348
   0.33333333  0.83333333  0.53908997
   0.33333333  0.83333333  0.56493614
Direct configuration=    12
  -0.00026489  0.00013245  0.00122018
   1.00000000  0.50000000  0.00113426
   0.50013245  0.00013245  0.00122018
   0.50013245  0.49973511  0.00122018
   0.16664704  0.16670591  0.07041386
   0.16664704  0.66664704  0.07041386
   0.66666667  0.16666667  0.07050972
   0.66670591  0.66664704  0.07041386
   0.33363417  0.33318291  0.13771553
   0.33333333  0.83333333  0.13773800
   0.83318291  0.33318291  0.13771553
   0.83318291  0.83363417  0.13771553
   0.00050575 -0.00025287  0.20661312
   1.00000000  0.50000000  0.20632692
   0.49974713 -0.00025287  0.20661312
   0.49974713  0.50050575  0.20661312
   0.16628090  0.16743820  0.27504841
   0.16628090  0.66628090  0.27504841
   0.66666667  0.16666667  0.27520577
   0.66743820  0.66628090  0.27504841
   0.33409096  0.33295452  0.34345164
   0.33333333  0.83333333  0.34297108
   0.83295452  0.33295452  0.34345164
   0.83295452  0.83409096  0.34345164
   0.00073830 -0.00036915  0.41031889
   1.00000000  0.50000000  0.40915554
   0.49963085 -0.00036915  0.41031889
   0.49963085  0.50073830  0.41031889
   0.16609773  0.16780454  0.47808608
   0.16609773  0.66609773  0.47808608
   0.66666667  0.16666667  0.47892244
   0.66780454  0.66609773  0.47808608
   0.33333333  0.83333333  0.53949631
   0.33333333  0.83333333  0.56547992
Direct configuration=    13
  -0.00022371  0.00011185  0.00134177
   1.00000000  0.50000000  0.00125145
   0.50011185  0.00011185  0.00134177
   0.50011185  0.49977629  0.00134177
   0.16664395  0.16671210  0.07037149
   0.16664395  0.66664395  0.07037149
   0.66666667  0.16666667  0.07044208
   0.66671210  0.66664395  0.07037149
   0.33358132  0.33320934  0.13787161
   0.33333333  0.83333333  0.13787403
   0.83320934  0.33320934  0.13787161
   0.83320934  0.83358132  0.13787161
   0.00017465 -0.00008733  0.20650406
   1.00000000  0.50000000  0.20622272
   0.49991267 -0.00008733  0.20650406
   0.49991267  0.50017465  0.20650406
   0.16627222  0.16745556  0.27500974
   0.16627222  0.66627222  0.27500974
   0.66666667  0.16666667  0.27514595
   0.66745556  0.66627222  0.27500974
   0.33450456  0.33274772  0.34310307
   0.33333333  0.83333333  0.34278880
   0.83274772  0.33274772  0.34310307
   0.83274772  0.83450456  0.34310307
   0.00035178 -0.00017589  0.41012336
   1.00000000  0.50000000  0.40917235
   0.49982411 -0.00017589  0.41012336
   0.49982411  0.50035178  0.41012336
   0.16600552  0.16798897  0.47773390
   0.16600552  0.66600552  0.47773390
   0.66666667  0.16666667  0.47864209
   0.66798897  0.66600552  0.47773390
   0.33333333  0.83333333  0.54071534
   0.33333333  0.83333333  0.56711125
Direct configuration=    14
  -0.00014133  0.00007066  0.00158496
   1.00000000  0.50000000  0.00148583
   0.50007066  0.00007066  0.00158496
   0.50007066  0.49985867  0.00158496
   0.16663777  0.16672447  0.07028674
   0.16663777  0.66663777  0.07028674
   0.66666667  0.16666667  0.07030679
   0.66672447  0.66663777  0.07028674
   0.33347562  0.33326219  0.13818378
   0.33333333  0.83333333  0.13814608
   0.83326219  0.33326219  0.13818378
   0.83326219  0.83347562  0.13818378
  -0.00048754  0.00024377  0.20628594
   1.00000000  0.50000000  0.20601434
   0.50024377  0.00024377  0.20628594
   0.50024377  0.49951246  0.20628594
   0.16625485  0.16749029  0.27493241
   0.16625485  0.66625485  0.27493241
   0.66666667  0.16666667  0.27502632
   0.66749029  0.66625485  0.27493241
   0.33533177  0.33233412  0.34240593
   0.33333333  0.83333333  0.34242425
   0.83233412  0.33233412  0.34240593
   0.83233412  0.83533177  0.34240593
  -0.00042125  0.00021063  0.40973230
   1.00000000  0.50000000  0.40920597
   0.50021063  0.00021063  0.40973230
   0.50021063  0.49957875  0.40973230
   0.16582108  0.16835783  0.47702954
   0.16582109  0.66582108  0.47702954
   0.66666667  0.16666667  0.47808139
   0.66835783  0.66582108  0.47702954
   0.33333333  0.83333333  0.54315341
   0.33333333  0.83333333  0.57037390
Direct configuration=    15
  -0.00016728  0.00008364  0.00150834
   1.00000000  0.50000000  0.00141199
   0.50008364  0.00008364  0.00150834
   0.50008364  0.49983272  0.00150834
   0.16663972  0.16672057  0.07031344
   0.16663972  0.66663972  0.07031344
   0.66666667  0.16666667  0.07034941
   0.66672057  0.66663972  0.07031344
   0.33350892  0.33324554  0.13808544
   0.33333333  0.83333333  0.13806038
   0.83324554  0.33324554  0.13808544
   0.83324554  0.83350892  0.13808544
  -0.00027892  0.00013946  0.20635466
   1.00000000  0.50000000  0.20607999
   0.50013946  0.00013946  0.20635466
   0.50013946  0.49972108  0.20635466
   0.16626032  0.16747935  0.27495677
   0.16626032  0.66626032  0.27495677
   0.66666667  0.16666667  0.27506401
   0.66747935  0.66626032  0.27495677
   0.33507116  0.33246442  0.34262556
   0.33333333  0.83333333  0.34253910
   0.83246442  0.33246442  0.34262556
   0.83246442  0.83507116  0.34262556
  -0.00017772  0.00008886  0.40985550
   1.00000000  0.50000000  0.40919538
   0.50008886  0.00008886  0.40985550
   0.50008886  0.49982228  0.40985550
   0.16587919  0.16824162  0.47725144
   0.16587919  0.66587919  0.47725144
   0.66666667  0.16666667  0.47825803
   0.66824162  0.66587919  0.47725144
   0.33333333  0.83333333  0.54238532
   0.33333333  0.83333333  0.56934604
Direct configuration=    16
  -0.00015737  0.00007869  0.00153516
   1.00000000  0.50000000  0.00143953
   0.50007869  0.00007869  0.00153516
   0.50007869  0.49984263  0.00153516
   0.16663579  0.16672842  0.07030939
   0.16663579  0.66663579  0.07030939
   0.66666667  0.16666667  0.07033647
   0.66672842  0.66663579  0.07030939
   0.33349131  0.33325434  0.13813255
   0.33333333  0.83333333  0.13810411
   0.83325434  0.33325434  0.13813255
   0.83325434  0.83349131  0.13813255
  -0.00036898  0.00018449  0.20633929
   1.00000000  0.50000000  0.20607075
   0.50018449  0.00018449  0.20633929
   0.50018449  0.49963102  0.20633929
   0.16626645  0.16746710  0.27491322
   0.16626645  0.66626645  0.27491322
   0.66666667  0.16666667  0.27499911
   0.66746710  0.66626645  0.27491322
   0.33508819  0.33245590  0.34252131
   0.33333333  0.83333333  0.34248288
   0.83245590  0.33245590  0.34252131
   0.83245590  0.83508819  0.34252131
  -0.00028859  0.00014429  0.40978610
   1.00000000  0.50000000  0.40920314
   0.50014429  0.00014429  0.40978610
   0.50014429  0.49971141  0.40978610
   0.16581534  0.16836933  0.47716481
   0.16581534  0.66581534  0.47716481
   0.66666667  0.16666667  0.47818226
   0.66836933  0.66581534  0.47716481
   0.33333333  0.83333333  0.54294187
   0.33333333  0.83333333  0.56967753
Direct configuration=    17
  -0.00012764  0.00006382  0.00161559
   1.00000000  0.50000000  0.00152215
   0.50006382  0.00006382  0.00161559
   0.50006382  0.49987236  0.00161559
   0.16662401  0.16675197  0.07029723
   0.16662402  0.66662401  0.07029723
   0.66666667  0.16666667  0.07029767
   0.66675197  0.66662401  0.07029723
   0.33343850  0.33328075  0.13827388
   0.33333333  0.83333333  0.13823530
   0.83328075  0.33328075  0.13827388
   0.83328075  0.83343850  0.13827388
  -0.00063916  0.00031958  0.20629320
   1.00000000  0.50000000  0.20604305
   0.50031958  0.00031958  0.20629320
   0.50031958  0.49936084  0.20629320
   0.16628484  0.16743032  0.27478254
   0.16628484  0.66628484  0.27478254
   0.66666667  0.16666667  0.27480441
   0.66743032  0.66628484  0.27478254
   0.33513929  0.33243036  0.34220857
   0.33333333  0.83333333  0.34231424
   0.83243036  0.33243036  0.34220857
   0.83243036  0.83513929  0.34220857
  -0.00062120  0.00031060  0.40957791
   1.00000000  0.50000000  0.40922641
   0.50031060  0.00031060  0.40957791
   0.50031060  0.49937880  0.40957791
   0.16562378  0.16875244  0.47690490
   0.16562378  0.66562378  0.47690490
   0.66666667  0.16666667  0.47795493
   0.66875244  0.66562378  0.47690490
   0.33333333  0.83333333  0.54461149
   0.33333333  0.83333333  0.57067200
Direct configuration=    18
  -0.00006819  0.00003410  0.00177645
   1.00000000  0.50000000  0.00168738
   0.50003410  0.00003410  0.00177645
   0.50003410  0.49993181  0.00177645
   0.16660046  0.16679907  0.07027292
   0.16660046  0.66660046  0.07027292
   0.66666667  0.16666667  0.07022006
   0.66679907  0.66660046  0.07027292
   0.33333289  0.33333356  0.13855654
   0.33333333  0.83333333  0.13849768
   0.83333356  0.33333356  0.13855654
   0.83333356  0.83333289  0.13855654
  -0.00117952  0.00058976  0.20620102
   1.00000000  0.50000000  0.20598764
   0.50058976  0.00058976  0.20620102
   0.50058976  0.49882048  0.20620102
   0.16632161  0.16735677  0.27452119
   0.16632161  0.66632161  0.27452119
   0.66666667  0.16666667  0.27441500
   0.66735677  0.66632161  0.27452119
   0.33524147  0.33237926  0.34158309
   0.33333333  0.83333333  0.34197696
   0.83237926  0.33237926  0.34158309
   0.83237926  0.83524147  0.34158309
  -0.00128642  0.00064321  0.40916153
   1.00000000  0.50000000  0.40927296
   0.50064321  0.00064321  0.40916153
   0.50064321  0.49871358  0.40916153
   0.16524067  0.16951866  0.47638508
   0.16524067  0.66524067  0.47638508
   0.66666667  0.16666667  0.47750029
   0.66951866  0.66524067  0.47638508
   0.33333333  0.83333333  0.54795075
   0.33333333  0.83333333  0.57266095
Direct configuration=    19
  -0.00010056  0.00005028  0.00168888
   1.00000000  0.50000000  0.00159743
   0.50005028  0.00005028  0.00168888
   0.50005028  0.49989944  0.00168888
   0.16661328  0.16677343  0.07028615
   0.16661328  0.66661328  0.07028615
   0.66666667  0.16666667  0.07026231
   0.66677343  0.66661328  0.07028615
   0.33339038  0.33330481  0.13840266
   0.33333333  0.83333333  0.13835485
   0.83330481  0.33330481  0.13840266
   0.83330481  0.83339038  0.13840266
  -0.00088536  0.00044268  0.20625120
   1.00000000  0.50000000  0.20601780
   0.50044268  0.00044268  0.20625120
   0.50044268  0.49911464  0.20625120
   0.16630159  0.16739681  0.27466346
   0.16630159  0.66630159  0.27466346
   0.66666667  0.16666667  0.27462698
   0.66739681  0.66630159  0.27466346
   0.33518584  0.33240708  0.34192359
   0.33333333  0.83333333  0.34216057
   0.83240708  0.33240708  0.34192359
   0.83240708  0.83518584  0.34192359
  -0.00092428  0.00046214  0.40938820
   1.00000000  0.50000000  0.40924762
   0.50046214  0.00046214  0.40938820
   0.50046214  0.49907572  0.40938820
   0.16544923  0.16910155  0.47666806
   0.16544923  0.66544923  0.47666806
   0.66666667  0.16666667  0.47774779
   0.66910155  0.66544923  0.47666806
   0.33333333  0.83333333  0.54613291
   0.33333333  0.83333333  0.57157820
Direct configuration=    20
  -0.00009441  0.00004721  0.00168200
   1.00000000  0.50000000  0.00159629
   0.50004721  0.00004721  0.00168200
   0.50004721  0.49990559  0.00168200
   0.16660763  0.16678474  0.07033459
   0.16660763  0.66660763  0.07033459
   0.66666667  0.16666667  0.07030703
   0.66678474  0.66660763  0.07033459
   0.33338677  0.33330662  0.13839453
   0.33333333  0.83333333  0.13835941
   0.83330662  0.33330662  0.13839453
   0.83330662  0.83338677  0.13839453
  -0.00082968  0.00041484  0.20628352
   1.00000000  0.50000000  0.20606932
   0.50041484  0.00041484  0.20628352
   0.50041484  0.49917032  0.20628352
   0.16634666  0.16730669  0.27453851
   0.16634666  0.66634666  0.27453851
   0.66666667  0.16666667  0.27446310
   0.66730669  0.66634666  0.27453851
   0.33488555  0.33255723  0.34186879
   0.33333333  0.83333333  0.34211353
   0.83255723  0.33255723  0.34186879
   0.83255723  0.83488555  0.34186879
  -0.00093742  0.00046871  0.40927818
   1.00000000  0.50000000  0.40915476
   0.50046871  0.00046871  0.40927818
   0.50046871  0.49906258  0.40927818
   0.16542769  0.16914462  0.47664419
   0.16542769  0.66542769  0.47664419
   0.66666667  0.16666667  0.47770433
   0.66914462  0.66542769  0.47664419
   0.33333333  0.83333333  0.54664102
   0.33333333  0.83333333  0.57206141
Direct configuration=    21
  -0.00007599  0.00003799  0.00166134
   1.00000000  0.50000000  0.00159287
   0.50003799  0.00003799  0.00166134
   0.50003799  0.49992401  0.00166134
   0.16659068  0.16681865  0.07047989
   0.16659068  0.66659067  0.07047989
   0.66666667  0.16666667  0.07044120
   0.66681865  0.66659067  0.07047989
   0.33337591  0.33331204  0.13837013
   0.33333333  0.83333333  0.13837310
   0.83331204  0.33331204  0.13837013
   0.83331204  0.83337591  0.13837013
  -0.00066266  0.00033133  0.20638047
   1.00000000  0.50000000  0.20622388
   0.50033133  0.00033133  0.20638047
   0.50033133  0.49933734  0.20638047
   0.16648184  0.16703631  0.27416366
   0.16648184  0.66648184  0.27416366
   0.66666667  0.16666667  0.27397143
   0.66703631  0.66648184  0.27416366
   0.33398467  0.33300767  0.34170440
   0.33333333  0.83333333  0.34197240
   0.83300767  0.33300767  0.34170440
   0.83300767  0.83398467  0.34170440
  -0.00097685  0.00048843  0.40894810
   1.00000000  0.50000000  0.40887618
   0.50048843  0.00048843  0.40894810
   0.50048843  0.49902315  0.40894810
   0.16536308  0.16927385  0.47657257
   0.16536308  0.66536308  0.47657257
   0.66666667  0.16666667  0.47757394
   0.66927385  0.66536308  0.47657257
   0.33333333  0.83333333  0.54816535
   0.33333333  0.83333333  0.57351103
Direct configuration=    22
  -0.00003913  0.00001957  0.00162004
   1.00000000  0.50000000  0.00158604
   0.50001957  0.00001957  0.00162004
   0.50001957  0.49996087  0.00162004
   0.16655676  0.16688648  0.07077048
   0.16655676  0.66655676  0.07077048
   0.66666667  0.16666667  0.07070955
   0.66688648  0.66655676  0.07077048
   0.33335421  0.33332290  0.13832134
   0.33333333  0.83333333  0.13840048
   0.83332290  0.33332290  0.13832134
   0.83332290  0.83335421  0.13832134
  -0.00032860  0.00016430  0.20657438
   1.00000000  0.50000000  0.20653298
   0.50016430  0.00016430  0.20657438
   0.50016430  0.49967140  0.20657438
   0.16675222  0.16649556  0.27341395
   0.16675222  0.66675222  0.27341395
   0.66666667  0.16666667  0.27298811
   0.66649556  0.66675222  0.27341395
   0.33218290  0.33390855  0.34137561
   0.33333333  0.83333333  0.34169015
   0.83390855  0.33390855  0.34137561
   0.83390855  0.83218290  0.34137561
  -0.00105571  0.00052786  0.40828795
   1.00000000  0.50000000  0.40831903
   0.50052786  0.00052786  0.40828795
   0.50052786  0.49894429  0.40828795
   0.16523385  0.16953230  0.47642934
   0.16523385  0.66523385  0.47642934
   0.66666667  0.16666667  0.47731318
   0.66953230  0.66523385  0.47642934
   0.33333333  0.83333333  0.55121400
   0.33333333  0.83333333  0.57641027
Direct configuration=    23
  -0.00005131  0.00002565  0.00163369
   1.00000000  0.50000000  0.00158830
   0.50002565  0.00002565  0.00163369
   0.50002565  0.49994869  0.00163369
   0.16656797  0.16686407  0.07067448
   0.16656797  0.66656797  0.07067448
   0.66666667  0.16666667  0.07062090
   0.66686407  0.66656797  0.07067448
   0.33336138  0.33331931  0.13833746
   0.33333333  0.83333333  0.13839143
   0.83331931  0.33331931  0.13833746
   0.83331931  0.83336138  0.13833746
  -0.00043896  0.00021948  0.20651032
   1.00000000  0.50000000  0.20643086
   0.50021948  0.00021948  0.20651032
   0.50021948  0.49956104  0.20651032
   0.16666289  0.16667421  0.27366164
   0.16666289  0.66666289  0.27366164
   0.66666667  0.16666667  0.27331297