  63  63   0   0
  0.3021577E+02  0.1089000E-08  0.7700393E-09  0.2270039E-08  0.5000000E-15
  1.000000000000000E-004
  CAR 
 unknown system                          
     10.78135548    -10.63907534  301      0.38424880      1.00000000
    -10.639  0.0000E+00  0.0000E+00  0.0000E+00  0.0000E+00
    -10.568  0.0000E+00  0.0000E+00  0.0000E+00  0.0000E+00
    -10.496  0.0000E+00  0.0000E+00  0.0000E+00  0.0000E+00
    -10.425  0.0000E+00  0.0000E+00  0.0000E+00  0.0000E+00
    -10.353  0.0000E+00  0.0000E+00  0.0000E+00  0.0000E+00
    -10.282 -0.2215E-31 -0.2215E-31 -0.1581E-32 -0.1581E-32
    -10.211 -0.6556E-29 -0.6555E-29 -0.4697E-30 -0.4697E-30
    -10.139 -0.1504E-26 -0.1504E-26 -0.1079E-27 -0.1079E-27
    -10.068 -0.2668E-24 -0.2668E-24 -0.1916E-25 -0.1916E-25
     -9.996 -0.3658E-22 -0.3658E-22 -0.2631E-23 -0.2631E-23
     -9.925 -0.3873E-20 -0.3873E-20 -0.2792E-21 -0.2792E-21
     -9.854 -0.3166E-18 -0.3166E-18 -0.2289E-19 -0.2289E-19
     -9.782 -0.1933E-16 -0.1933E-16 -0.1403E-17 -0.1403E-17
     -9.711 -0.9386E-15 -0.9386E-15 -0.6842E-16 -0.6842E-16
     -9.639 -0.3501E-13 -0.3501E-13 -0.2568E-14 -0.2568E-14
     -9.568 -0.1004E-11 -0.1004E-11 -0.7424E-13 -0.7424E-13
     -9.497 -0.2209E-10 -0.2209E-10 -0.1651E-11 -0.1651E-11
     -9.425 -0.3722E-09 -0.3722E-09 -0.2823E-10 -0.2823E-10
     -9.354 -0.4789E-08 -0.4789E-08 -0.3702E-09 -0.3702E-09
     -9.282 -0.4685E-07 -0.4685E-07 -0.3715E-08 -0.3715E-08
     -9.211 -0.3464E-06 -0.3464E-06 -0.2845E-07 -0.2845E-07
     -9.140 -0.1919E-05 -0.1919E-05 -0.1654E-06 -0.1654E-06
     -9.068 -0.7841E-05 -0.7841E-05 -0.7253E-06 -0.7253E-06
     -8.997 -0.2296E-04 -0.2296E-04 -0.2364E-05 -0.2364E-05
     -8.925 -0.4471E-04 -0.4471E-04 -0.5556E-05 -0.5556E-05
     -8.854 -0.4216E-04 -0.4216E-04 -0.8567E-05 -0.8566E-05
     -8.783  0.5223E-04  0.5223E-04 -0.4837E-05 -0.4837E-05
     -8.711  0.3015E-03  0.3015E-03  0.1669E-04  0.1669E-04
     -8.640  0.6968E-03  0.6968E-03  0.6645E-04  0.6645E-04
     -8.568  0.1142E-02  0.1142E-02  0.1480E-03  0.1480E-03
     -8.497  0.1525E-02  0.1525E-02  0.2569E-03  0.2569E-03
     -8.426  0.1829E-02  0.1829E-02  0.3875E-03  0.3875E-03
     -8.354  0.2173E-02  0.2173E-02  0.5426E-03  0.5426E-03
     -8.283  0.2648E-02  0.2648E-02  0.7317E-03  0.7317E-03
     -8.211  0.3070E-02  0.3070E-02  0.9509E-03  0.9509E-03
     -8.140  0.3057E-02  0.3057E-02  0.1169E-02  0.1169E-02
     -8.069  0.2459E-02  0.2459E-02  0.1345E-02  0.1345E-02
     -7.997  0.1629E-02  0.1629E-02  0.1461E-02  0.1461E-02
     -7.926  0.1196E-02  0.1196E-02  0.1546E-02  0.1546E-02
     -7.854  0.1455E-02  0.1455E-02  0.1650E-02  0.1650E-02
     -7.783  0.1957E-02  0.1957E-02  0.1790E-02  0.1790E-02
     -7.712  0.1972E-02  0.1972E-02  0.1931E-02  0.1931E-02
     -7.640  0.1476E-02  0.1476E-02  0.2036E-02  0.2036E-02
     -7.569  0.1293E-02  0.1293E-02  0.2129E-02  0.2129E-02
     -7.497  0.2107E-02  0.2107E-02  0.2279E-02  0.2279E-02
     -7.426  0.3596E-02  0.3596E-02  0.2536E-02  0.2536E-02
     -7.355  0.4693E-02  0.4693E-02  0.2871E-02  0.2871E-02
     -7.283  0.4757E-02  0.4757E-02  0.3211E-02  0.3211E-02
     -7.212  0.4375E-02  0.4375E-02  0.3523E-02  0.3523E-02
     -7.140  0.4664E-02  0.4664E-02  0.3856E-02  0.3856E-02
     -7.069  0.5838E-02  0.5838E-02  0.4273E-02  0.4273E-02
     -6.998  0.6877E-02  0.6877E-02  0.4764E-02  0.4764E-02
     -6.926  0.6605E-02  0.6605E-02  0.5235E-02  0.5235E-02
     -6.855  0.4863E-02  0.4863E-02  0.5583E-02  0.5583E-02
     -6.783  0.2679E-02  0.2679E-02  0.5774E-02  0.5774E-02
     -6.712  0.1349E-02  0.1349E-02  0.5870E-02  0.5870E-02
     -6.641  0.1355E-02  0.1355E-02  0.5967E-02  0.5967E-02
     -6.569  0.2150E-02  0.2150E-02  0.6120E-02  0.6120E-02
     -6.498  0.3024E-02  0.3024E-02  0.6336E-02  0.6336E-02
     -6.426  0.4030E-02  0.4030E-02  0.6624E-02  0.6624E-02
     -6.355  0.5734E-02  0.5734E-02  0.7033E-02  0.7033E-02
     -6.284  0.8048E-02  0.8048E-02  0.7608E-02  0.7608E-02
     -6.212  0.9746E-02  0.9746E-02  0.8304E-02  0.8304E-02
     -6.141  0.9548E-02  0.9548E-02  0.8986E-02  0.8986E-02
     -6.069  0.7639E-02  0.7639E-02  0.9531E-02  0.9531E-02
     -5.998  0.5620E-02  0.5620E-02  0.9932E-02  0.9932E-02
     -5.927  0.4800E-02  0.4800E-02  0.1028E-01  0.1028E-01
     -5.855  0.4955E-02  0.4955E-02  0.1063E-01  0.1063E-01
     -5.784  0.4980E-02  0.4980E-02  0.1098E-01  0.1098E-01
     -5.712  0.4498E-02  0.4498E-02  0.1131E-01  0.1131E-01
     -5.641  0.4287E-02  0.4287E-02  0.1161E-01  0.1161E-01
     -5.570  0.5117E-02  0.5117E-02  0.1198E-01  0.1198E-01
     -5.498  0.7005E-02  0.7005E-02  0.1248E-01  0.1248E-01
     -5.427  0.9706E-02  0.9706E-02  0.1317E-01  0.1317E-01
     -5.355  0.1271E-01  0.1271E-01  0.1408E-01  0.1408E-01
     -5.284  0.1460E-01  0.1460E-01  0.1512E-01  0.1512E-01
     -5.213  0.1385E-01  0.1385E-01  0.1611E-01  0.1611E-01
     -5.141  0.1064E-01  0.1064E-01  0.1687E-01  0.1687E-01
     -5.070  0.7157E-02  0.7157E-02  0.1738E-01  0.1738E-01
     -4.998  0.6176E-02  0.6176E-02  0.1782E-01  0.1782E-01
     -4.927  0.9141E-02  0.9141E-02  0.1847E-01  0.1847E-01
     -4.856  0.1482E-01  0.1482E-01  0.1953E-01  0.1953E-01
     -4.784  0.1994E-01  0.1994E-01  0.2096E-01  0.2096E-01
     -4.713  0.2237E-01  0.2237E-01  0.2255E-01  0.2255E-01
     -4.641  0.2324E-01  0.2324E-01  0.2421E-01  0.2421E-01
     -4.570  0.2470E-01  0.2470E-01  0.2598E-01  0.2598E-01
     -4.499  0.2662E-01  0.2662E-01  0.2788E-01  0.2788E-01
     -4.427  0.2740E-01  0.2740E-01  0.2983E-01  0.2983E-01
     -4.356  0.2726E-01  0.2726E-01  0.3178E-01  0.3178E-01
     -4.284  0.2857E-01  0.2857E-01  0.3382E-01  0.3382E-01
     -4.213  0.3302E-01  0.3302E-01  0.3618E-01  0.3618E-01
     -4.142  0.4017E-01  0.4017E-01  0.3905E-01  0.3905E-01
     -4.070  0.4903E-01  0.4903E-01  0.4255E-01  0.4255E-01
     -3.999  0.5892E-01  0.5892E-01  0.4675E-01  0.4675E-01
     -3.927  0.6804E-01  0.6804E-01  0.5161E-01  0.5161E-01
     -3.856  0.7346E-01  0.7346E-01  0.5686E-01  0.5686E-01
     -3.785  0.7453E-01  0.7453E-01  0.6218E-01  0.6218E-01
     -3.713  0.7443E-01  0.7443E-01  0.6749E-01  0.6749E-01
     -3.642  0.7590E-01  0.7590E-01  0.7291E-01  0.7291E-01
     -3.570  0.7699E-01  0.7699E-01  0.7841E-01  0.7841E-01
     -3.499  0.7374E-01  0.7374E-01  0.8367E-01  0.8367E-01
     -3.428  0.6656E-01  0.6656E-01  0.8843E-01  0.8843E-01
     -3.356  0.6141E-01  0.6141E-01  0.9281E-01  0.9281E-01
     -3.285  0.6441E-01  0.6441E-01  0.9741E-01  0.9741E-01
     -3.213  0.7674E-01  0.7674E-01  0.1029E+00  0.1029E+00
     -3.142  0.9400E-01  0.9400E-01  0.1096E+00  0.1096E+00
     -3.071  0.1087E+00  0.1087E+00  0.1174E+00  0.1174E+00
     -2.999  0.1147E+00  0.1147E+00  0.1255E+00  0.1255E+00
     -2.928  0.1122E+00  0.1122E+00  0.1336E+00  0.1336E+00
     -2.856  0.1078E+00  0.1078E+00  0.1413E+00  0.1413E+00
     -2.785  0.1096E+00  0.1096E+00  0.1491E+00  0.1491E+00
     -2.714  0.1219E+00  0.1219E+00  0.1578E+00  0.1578E+00
     -2.642  0.1414E+00  0.1414E+00  0.1679E+00  0.1679E+00
     -2.571  0.1590E+00  0.1590E+00  0.1792E+00  0.1792E+00
     -2.499  0.1651E+00  0.1651E+00  0.1910E+00  0.1910E+00
     -2.428  0.1572E+00  0.1572E+00  0.2023E+00  0.2023E+00
     -2.357  0.1402E+00  0.1402E+00  0.2123E+00  0.2123E+00
     -2.285  0.1219E+00  0.1219E+00  0.2210E+00  0.2210E+00
     -2.214  0.1091E+00  0.1091E+00  0.2288E+00  0.2288E+00
     -2.142  0.1060E+00  0.1060E+00  0.2363E+00  0.2363E+00
     -2.071  0.1126E+00  0.1126E+00  0.2444E+00  0.2444E+00
     -2.000  0.1255E+00  0.1255E+00  0.2533E+00  0.2533E+00
     -1.928  0.1400E+00  0.1400E+00  0.2633E+00  0.2633E+00
     -1.857  0.1518E+00  0.1518E+00  0.2742E+00  0.2742E+00
     -1.785  0.1565E+00  0.1565E+00  0.2854E+00  0.2854E+00
     -1.714  0.1521E+00  0.1521E+00  0.2962E+00  0.2962E+00
     -1.642  0.1431E+00  0.1431E+00  0.3064E+00  0.3064E+00
     -1.571  0.1394E+00  0.1394E+00  0.3164E+00  0.3164E+00
     -1.500  0.1489E+00  0.1489E+00  0.3270E+00  0.3270E+00
     -1.428  0.1705E+00  0.1705E+00  0.3392E+00  0.3392E+00
     -1.357  0.1953E+00  0.1953E+00  0.3531E+00  0.3531E+00
     -1.285  0.2127E+00  0.2127E+00  0.3683E+00  0.3683E+00
     -1.214  0.2131E+00  0.2131E+00  0.3835E+00  0.3835E+00
     -1.143  0.1886E+00  0.1886E+00  0.3970E+00  0.3970E+00
     -1.071  0.1405E+00  0.1405E+00  0.4070E+00  0.4070E+00
     -1.000  0.8370E-01  0.8370E-01  0.4130E+00  0.4130E+00
     -0.928  0.3728E-01  0.3728E-01  0.4157E+00  0.4157E+00
     -0.857  0.1094E-01  0.1094E-01  0.4165E+00  0.4165E+00
     -0.786  0.2766E-02  0.2766E-02  0.4167E+00  0.4167E+00
     -0.714  0.6289E-02  0.6289E-02  0.4171E+00  0.4171E+00
     -0.643  0.1511E-01  0.1511E-01  0.4182E+00  0.4182E+00
     -0.571  0.2290E-01  0.2290E-01  0.4198E+00  0.4198E+00
     -0.500  0.2487E-01  0.2487E-01  0.4216E+00  0.4216E+00
     -0.429  0.2100E-01  0.2100E-01  0.4231E+00  0.4231E+00
     -0.357  0.1541E-01  0.1541E-01  0.4242E+00  0.4242E+00
     -0.286  0.1184E-01  0.1184E-01  0.4250E+00  0.4250E+00
     -0.214  0.1083E-01  0.1083E-01  0.4258E+00  0.4258E+00
     -0.143  0.1144E-01  0.1144E-01  0.4266E+00  0.4266E+00
     -0.072  0.1311E-01  0.1311E-01  0.4276E+00  0.4276E+00
     -0.000  0.1494E-01  0.1494E-01  0.4286E+00  0.4286E+00
      0.071  0.1518E-01  0.1518E-01  0.4297E+00  0.4297E+00
      0.143  0.1306E-01  0.1306E-01  0.4306E+00  0.4306E+00
      0.214  0.1015E-01  0.1015E-01  0.4314E+00  0.4314E+00
      0.285  0.9067E-02  0.9067E-02  0.4320E+00  0.4320E+00
      0.357  0.1067E-01  0.1067E-01  0.4328E+00  0.4328E+00
      0.428  0.1318E-01  0.1318E-01  0.4337E+00  0.4337E+00
      0.500  0.1432E-01  0.1432E-01  0.4347E+00  0.4347E+00
      0.571  0.1364E-01  0.1364E-01  0.4357E+00  0.4357E+00
      0.642  0.1206E-01  0.1206E-01  0.4366E+00  0.4366E+00
      0.714  0.1021E-01  0.1021E-01  0.4373E+00  0.4373E+00
      0.785  0.8557E-02  0.8557E-02  0.4379E+00  0.4379E+00
      0.857  0.7928E-02  0.7928E-02  0.4385E+00  0.4385E+00
      0.928  0.8868E-02  0.8868E-02  0.4391E+00  0.4391E+00
      0.999  0.1112E-01  0.1112E-01  0.4399E+00  0.4399E+00
      1.071  0.1399E-01  0.1399E-01  0.4409E+00  0.4409E+00
      1.142  0.1650E-01  0.1650E-01  0.4421E+00  0.4421E+00
      1.214  0.1745E-01  0.1745E-01  0.4433E+00  0.4433E+00
      1.285  0.1648E-01  0.1648E-01  0.4445E+00  0.4445E+00
      1.356  0.1480E-01  0.1480E-01  0.4456E+00  0.4456E+00
      1.428  0.1370E-01  0.1370E-01  0.4465E+00  0.4465E+00
      1.499  0.1270E-01  0.1270E-01  0.4475E+00  0.4475E+00
      1.571  0.1072E-01  0.1072E-01  0.4482E+00  0.4482E+00
      1.642  0.8212E-02  0.8212E-02  0.4488E+00  0.4488E+00
      1.713  0.6855E-02  0.6855E-02  0.4493E+00  0.4493E+00
      1.785  0.7782E-02  0.7782E-02  0.4499E+00  0.4499E+00
      1.856  0.1093E-01  0.1093E-01  0.4506E+00  0.4506E+00
      1.928  0.1510E-01  0.1510E-01  0.4517E+00  0.4517E+00
      1.999  0.1836E-01  0.1836E-01  0.4530E+00  0.4530E+00
      2.070  0.1936E-01  0.1936E-01  0.4544E+00  0.4544E+00
      2.142  0.1804E-01  0.1804E-01  0.4557E+00  0.4557E+00
      2.213  0.1511E-01  0.1511E-01  0.4568E+00  0.4568E+00
      2.285  0.1168E-01  0.1168E-01  0.4576E+00  0.4576E+00
      2.356  0.8961E-02  0.8961E-02  0.4582E+00  0.4582E+00
      2.427  0.7484E-02  0.7484E-02  0.4588E+00  0.4588E+00
      2.499  0.6998E-02  0.6998E-02  0.4593E+00  0.4593E+00
      2.570  0.7592E-02  0.7592E-02  0.4598E+00  0.4598E+00
      2.642  0.9620E-02  0.9620E-02  0.4605E+00  0.4605E+00
      2.713  0.1238E-01  0.1238E-01  0.4614E+00  0.4614E+00
      2.784  0.1456E-01  0.1456E-01  0.4624E+00  0.4624E+00
      2.856  0.1601E-01  0.1601E-01  0.4636E+00  0.4636E+00
      2.927  0.1715E-01  0.1715E-01  0.4648E+00  0.4648E+00
      2.999  0.1718E-01  0.1718E-01  0.4660E+00  0.4660E+00
      3.070  0.1502E-01  0.1502E-01  0.4671E+00  0.4671E+00
      3.141  0.1157E-01  0.1157E-01  0.4679E+00  0.4679E+00
      3.213  0.9322E-02  0.9322E-02  0.4686E+00  0.4686E+00
      3.284  0.9626E-02  0.9626E-02  0.4693E+00  0.4693E+00
      3.356  0.1154E-01  0.1154E-01  0.4701E+00  0.4701E+00
      3.427  0.1309E-01  0.1309E-01  0.4710E+00  0.4710E+00
      3.498  0.1287E-01  0.1287E-01  0.4720E+00  0.4720E+00
      3.570  0.1090E-01  0.1090E-01  0.4727E+00  0.4727E+00
      3.641  0.8541E-02  0.8541E-02  0.4733E+00  0.4733E+00
      3.713  0.7337E-02  0.7337E-02  0.4739E+00  0.4739E+00
      3.784  0.7654E-02  0.7654E-02  0.4744E+00  0.4744E+00
      3.855  0.8720E-02  0.8720E-02  0.4750E+00  0.4750E+00
      3.927  0.9854E-02  0.9854E-02  0.4757E+00  0.4757E+00
      3.998  0.1087E-01  0.1087E-01  0.4765E+00  0.4765E+00
      4.070  0.1129E-01  0.1129E-01  0.4773E+00  0.4773E+00
      4.141  0.1044E-01  0.1044E-01  0.4781E+00  0.4781E+00
      4.212  0.8997E-02  0.8997E-02  0.4787E+00  0.4787E+00
      4.284  0.9131E-02  0.9130E-02  0.4794E+00  0.4794E+00
      4.355  0.1190E-01  0.1190E-01  0.4802E+00  0.4802E+00
      4.427  0.1534E-01  0.1534E-01  0.4813E+00  0.4813E+00
      4.498  0.1643E-01  0.1643E-01  0.4825E+00  0.4825E+00
      4.569  0.1439E-01  0.1439E-01  0.4835E+00  0.4835E+00
      4.641  0.1115E-01  0.1115E-01  0.4843E+00  0.4843E+00
      4.712  0.8847E-02  0.8847E-02  0.4849E+00  0.4849E+00
      4.784  0.7862E-02  0.7862E-02  0.4855E+00  0.4855E+00
      4.855  0.7621E-02  0.7622E-02  0.4860E+00  0.4860E+00
      4.926  0.8090E-02  0.8090E-02  0.4866E+00  0.4866E+00
      4.998  0.9582E-02  0.9581E-02  0.4873E+00  0.4873E+00
      5.069  0.1167E-01  0.1167E-01  0.4881E+00  0.4881E+00
      5.141  0.1329E-01  0.1329E-01  0.4891E+00  0.4891E+00
      5.212  0.1410E-01  0.1410E-01  0.4901E+00  0.4901E+00
      5.283  0.1517E-01  0.1517E-01  0.4912E+00  0.4912E+00
      5.355  0.1769E-01  0.1768E-01  0.4924E+00  0.4924E+00
      5.426  0.2130E-01  0.2130E-01  0.4940E+00  0.4940E+00
      5.498  0.2424E-01  0.2424E-01  0.4957E+00  0.4957E+00
      5.569  0.2488E-01  0.2488E-01  0.4975E+00  0.4975E+00
      5.640  0.2304E-01  0.2304E-01  0.4991E+00  0.4991E+00
      5.712  0.2038E-01  0.2039E-01  0.5006E+00  0.5006E+00
      5.783  0.1918E-01  0.1918E-01  0.5019E+00  0.5019E+00
      5.855  0.2001E-01  0.2001E-01  0.5034E+00  0.5034E+00
      5.926  0.2091E-01  0.2091E-01  0.5049E+00  0.5049E+00
      5.997  0.1932E-01  0.1932E-01  0.5062E+00  0.5062E+00
      6.069  0.1512E-01  0.1512E-01  0.5073E+00  0.5073E+00
      6.140  0.1152E-01  0.1152E-01  0.5081E+00  0.5081E+00
      6.212  0.1185E-01  0.1185E-01  0.5090E+00  0.5090E+00
      6.283  0.1624E-01  0.1624E-01  0.5101E+00  0.5101E+00
      6.354  0.2178E-01  0.2178E-01  0.5117E+00  0.5117E+00
      6.426  0.2539E-01  0.2539E-01  0.5135E+00  0.5135E+00
      6.497  0.2615E-01  0.2615E-01  0.5154E+00  0.5154E+00
      6.569  0.2520E-01  0.2520E-01  0.5172E+00  0.5172E+00
      6.640  0.2348E-01  0.2348E-01  0.5189E+00  0.5189E+00
      6.711  0.2107E-01  0.2107E-01  0.5204E+00  0.5204E+00
      6.783  0.1853E-01  0.1853E-01  0.5217E+00  0.5217E+00
      6.854  0.1657E-01  0.1657E-01  0.5229E+00  0.5229E+00
      6.926  0.1513E-01  0.1513E-01  0.5239E+00  0.5239E+00
      6.997  0.1402E-01  0.1402E-01  0.5249E+00  0.5249E+00
      7.068  0.1346E-01  0.1346E-01  0.5259E+00  0.5259E+00
      7.140  0.1355E-01  0.1355E-01  0.5269E+00  0.5269E+00
      7.211  0.1439E-01  0.1440E-01  0.5279E+00  0.5279E+00
      7.283  0.1613E-01  0.1613E-01  0.5291E+00  0.5291E+00
      7.354  0.1822E-01  0.1822E-01  0.5304E+00  0.5304E+00
      7.425  0.1962E-01  0.1962E-01  0.5318E+00  0.5318E+00
      7.497  0.2016E-01  0.2016E-01  0.5332E+00  0.5332E+00
      7.568  0.2135E-01  0.2135E-01  0.5347E+00  0.5347E+00
      7.640  0.2482E-01  0.2481E-01  0.5365E+00  0.5365E+00
      7.711  0.2987E-01  0.2986E-01  0.5386E+00  0.5386E+00
      7.782  0.3350E-01  0.3351E-01  0.5410E+00  0.5410E+00
      7.854  0.3321E-01  0.3322E-01  0.5434E+00  0.5434E+00
      7.925  0.2895E-01  0.2895E-01  0.5455E+00  0.5455E+00
      7.997  0.2265E-01  0.2265E-01  0.5471E+00  0.5471E+00
      8.068  0.1692E-01  0.1692E-01  0.5483E+00  0.5483E+00
      8.140  0.1414E-01  0.1415E-01  0.5493E+00  0.5493E+00
      8.211  0.1531E-01  0.1537E-01  0.5504E+00  0.5504E+00
      8.282  0.1877E-01  0.1889E-01  0.5517E+00  0.5517E+00
      8.354  0.2083E-01  0.2095E-01  0.5532E+00  0.5532E+00
      8.425  0.1937E-01  0.1935E-01  0.5546E+00  0.5546E+00
      8.497  0.1641E-01  0.1606E-01  0.5558E+00  0.5558E+00
      8.568  0.1517E-01  0.1441E-01  0.5569E+00  0.5568E+00
      8.639  0.1547E-01  0.1458E-01  0.5580E+00  0.5578E+00
      8.711  0.1425E-01  0.1380E-01  0.5590E+00  0.5588E+00
      8.782  0.1006E-01  0.1040E-01  0.5597E+00  0.5596E+00
      8.854  0.4789E-02  0.5621E-02  0.5600E+00  0.5600E+00
      8.925  0.1034E-02  0.1765E-02  0.5601E+00  0.5601E+00
      8.996 -0.4650E-03 -0.1287E-03  0.5601E+00  0.5601E+00
      9.068 -0.5737E-03 -0.5296E-03  0.5600E+00  0.5600E+00
      9.139 -0.3038E-03 -0.3503E-03  0.5600E+00  0.5600E+00
      9.211 -0.1067E-03 -0.1433E-03  0.5600E+00  0.5600E+00
      9.282 -0.2713E-04 -0.4157E-04  0.5600E+00  0.5600E+00
      9.353 -0.5157E-05 -0.8935E-05  0.5600E+00  0.5600E+00
      9.425 -0.7434E-06 -0.1449E-05  0.5600E+00  0.5600E+00
      9.496 -0.8182E-07 -0.1789E-06  0.5600E+00  0.5600E+00
      9.568 -0.6905E-08 -0.1692E-07  0.5600E+00  0.5600E+00
      9.639 -0.4479E-09 -0.1229E-08  0.5600E+00  0.5600E+00
      9.710 -0.2236E-10 -0.6876E-10  0.5600E+00  0.5600E+00
      9.782 -0.8607E-12 -0.2968E-11  0.5600E+00  0.5600E+00
      9.853 -0.2556E-13 -0.9893E-13  0.5600E+00  0.5600E+00
      9.925 -0.5831E-15 -0.2545E-14  0.5600E+00  0.5600E+00
      9.996 -0.1166E-16 -0.5183E-16  0.5600E+00  0.5600E+00
     10.067  0.0000E+00 -0.8638E-18  0.5600E+00  0.5600E+00
     10.139  0.0000E+00  0.0000E+00  0.5600E+00  0.5600E+00
     10.210  0.0000E+00  0.0000E+00  0.5600E+00  0.5600E+00
     10.282  0.0000E+00  0.0000E+00  0.5600E+00  0.5600E+00
     10.353  0.0000E+00  0.0000E+00  0.5600E+00  0.5600E+00
     10.424  0.0000E+00  0.0000E+00  0.5600E+00  0.5600E+00
     10.496  0.0000E+00  0.0000E+00  0.5600E+00  0.5600E+00
     10.567  0.0000E+00  0.0000E+00  0.5600E+00  0.5600E+00
     10.639  0.0000E+00  0.0000E+00  0.5600E+00  0.5600E+00
     10.710  0.0000E+00  0.0000E+00  0.5600E+00  0.5600E+00
     10.781  0.0000E+00  0.0000E+00  0.5600E+00  0.5600E+00
