unknown system                          
           1
    10.890000    0.000000    0.000000
     0.000000    7.700393    0.000000
     0.000000    0.000000   22.700393
   Cu
    63
Direct configuration=     1
   0.00000000  0.00000000  0.00000000
   0.00000000  0.33333333  0.00000000
   0.00000000  0.66666667  0.00000000
   0.33333333  0.00000000  0.00000000
   0.33333333  0.33333333  0.00000000
   0.33333333  0.66666667  0.00000000
   0.66666667  0.00000000  0.00000000
   0.66666667  0.33333333  0.00000000
   0.66666667  0.66666667  0.00000000
   0.16666667  0.16666667  0.05653641
   0.16666667  0.50000000  0.05653641
   0.16666667  0.83333333  0.05653641
   0.50000000  0.16666667  0.05653641
   0.50000000  0.50000000  0.05653641
   0.50000000  0.83333333  0.05653641
   0.83333333  0.16666667  0.05653641
   0.83333333  0.50000000  0.05653641
   0.83333333  0.83333333  0.05653641
   0.00000000  0.00000000  0.11307283
   0.00000000  0.33333333  0.11307283
   0.00000000  0.66666667  0.11307283
   0.33333333  0.00000000  0.11307283
   0.33333333  0.33333333  0.11307283
   0.33333333  0.66666667  0.11307283
   0.66666667  0.00000000  0.11307283
   0.66666667  0.33333333  0.11307283
   0.66666667  0.66666667  0.11307283
   0.16666667  0.16666667  0.16960924
   0.16666667  0.50000000  0.16960924
   0.16666667  0.83333333  0.16960924
   0.50000000  0.16666667  0.16960924
   0.50000000  0.50000000  0.16960924
   0.50000000  0.83333333  0.16960924
   0.83333333  0.16666667  0.16960924
   0.83333333  0.50000000  0.16960924
   0.83333333  0.83333333  0.16960924
   0.00000000  0.00000000  0.22614566
   0.00000000  0.33333333  0.22614566
   0.00000000  0.66666667  0.22614566
   0.33333333  0.00000000  0.22614566
   0.33333333  0.33333333  0.22614566
   0.33333333  0.66666667  0.22614566
   0.66666667  0.00000000  0.22614566
   0.66666667  0.33333333  0.22614566
   0.66666667  0.66666667  0.22614566
   0.16666667  0.16666667  0.28268207
   0.16666667  0.50000000  0.28268207
   0.16666667  0.83333333  0.28268207
   0.50000000  0.16666667  0.28268207
   0.50000000  0.50000000  0.28268207
   0.50000000  0.83333333  0.28268207
   0.83333333  0.16666667  0.28268207
   0.83333333  0.50000000  0.28268207
   0.83333333  0.83333333  0.28268207
   0.00000000  0.00000000  0.33921849
   0.00000000  0.33333333  0.33921849
   0.00000000  0.66666667  0.33921849
   0.33333333  0.00000000  0.33921849
   0.33333333  0.33333333  0.33921849
   0.33333333  0.66666667  0.33921849
   0.66666667  0.00000000  0.33921849
   0.66666667  0.33333333  0.33921849
   0.66666667  0.66666667  0.33921849
Direct configuration=     2
   0.00000000  0.00000000  0.00000000
   0.00000000  0.33333333  0.00000000
   0.00000000  0.66666667  0.00000000
   0.33333333  0.00000000  0.00000000
   0.33333333  0.33333333  0.00000000
   0.33333333  0.66666667  0.00000000
   0.66666667  0.00000000  0.00000000
   0.66666667  0.33333333  0.00000000
   0.66666667  0.66666667  0.00000000
   0.16666667  0.16666667  0.05653641
   0.16666667  0.50000000  0.05653641
   0.16666667  0.83333333  0.05653641
   0.50000000  0.16666667  0.05653641
   0.50000000  0.50000000  0.05653641
   0.50000000  0.83333333  0.05653641
   0.83333333  0.16666667  0.05653641
   0.83333333  0.50000000  0.05653641
   0.83333333  0.83333333  0.05653641
   0.00000000 -0.00000000  0.11311608
   0.00000000  0.33333333  0.11311608
  -0.00000000  0.66666667  0.11311608
   0.33333333 -0.00000000  0.11311608
   0.33333333  0.33333333  0.11311608
   0.33333333  0.66666667  0.11311608
   0.66666667  0.00000000  0.11311608
   0.66666667  0.33333333  0.11311608
   0.66666667  0.66666667  0.11311608
   0.16666667  0.16666667  0.16961062
   0.16666667  0.50000000  0.16961062
   0.16666667  0.83333333  0.16961062
   0.50000000  0.16666667  0.16961062
   0.50000000  0.50000000  0.16961062
   0.50000000  0.83333333  0.16961062
   0.83333333  0.16666667  0.16961062
   0.83333333  0.50000000  0.16961062
   0.83333333  0.83333333  0.16961062
  -0.00000000 -0.00000000  0.22610099
   0.00000000  0.33333333  0.22610099
  -0.00000000  0.66666667  0.22610099
   0.33333333 -0.00000000  0.22610099
   0.33333333  0.33333333  0.22610099
   0.33333333  0.66666667  0.22610099
   0.66666667 -0.00000000  0.22610099
   0.66666667  0.33333333  0.22610099
   0.66666667  0.66666667  0.22610099
   0.16666667  0.16666667  0.28313075
   0.16666667  0.50000000  0.28313075
   0.16666667  0.83333333  0.28313075
   0.50000000  0.16666667  0.28313075
   0.50000000  0.50000000  0.28313075
   0.50000000  0.83333333  0.28313075
   0.83333333  0.16666667  0.28313075
   0.83333333  0.50000000  0.28313075
   0.83333333  0.83333333  0.28313075
  -0.00000000 -0.00000000  0.33808082
   0.00000000  0.33333333  0.33808082
  -0.00000000  0.66666667  0.33808082
   0.33333333 -0.00000000  0.33808082
   0.33333333  0.33333333  0.33808082
   0.33333333  0.66666667  0.33808082
   0.66666667 -0.00000000  0.33808082
   0.66666667  0.33333333  0.33808082
   0.66666667  0.66666667  0.33808082
Direct configuration=     3
   0.00000000  0.00000000  0.00000000
   0.00000000  0.33333333  0.00000000
   0.00000000  0.66666667  0.00000000
   0.33333333  0.00000000  0.00000000
   0.33333333  0.33333333  0.00000000
   0.33333333  0.66666667  0.00000000
   0.66666667  0.00000000  0.00000000
   0.66666667  0.33333333  0.00000000
   0.66666667  0.66666667  0.00000000
   0.16666667  0.16666667  0.05653641
   0.16666667  0.50000000  0.05653641
   0.16666667  0.83333333  0.05653641
   0.50000000  0.16666667  0.05653641
   0.50000000  0.50000000  0.05653641
   0.50000000  0.83333333  0.05653641
   0.83333333  0.16666667  0.05653641
   0.83333333  0.50000000  0.05653641
   0.83333333  0.83333333  0.05653641
   0.00000000 -0.00000000  0.11324328
   0.00000000  0.33333333  0.11324328
  -0.00000000  0.66666667  0.11324328
   0.33333333 -0.00000000  0.11324328
   0.33333333  0.33333333  0.11324328
   0.33333333  0.66666667  0.11324328
   0.66666667  0.00000000  0.11324328
   0.66666667  0.33333333  0.11324328
   0.66666667  0.66666667  0.11324328
   0.16666667  0.16666667  0.16961466
   0.16666667  0.50000000  0.16961466
   0.16666667  0.83333333  0.16961466
   0.50000000  0.16666667  0.16961466
   0.50000000  0.50000000  0.16961466
   0.50000000  0.83333333  0.16961466
   0.83333333  0.16666667  0.16961466
   0.83333333  0.50000000  0.16961466
   0.83333333  0.83333333  0.16961466
  -0.00000000 -0.00000000  0.22596960
   0.00000000  0.33333333  0.22596960
  -0.00000000  0.66666667  0.22596960
   0.33333333 -0.00000000  0.22596960
   0.33333333  0.33333333  0.22596960
   0.33333333  0.66666667  0.22596960
   0.66666667 -0.00000000  0.22596960
   0.66666667  0.33333333  0.22596960
   0.66666667  0.66666667  0.22596960
   0.16666667  0.16666667  0.28445037
   0.16666667  0.50000000  0.28445037
   0.16666667  0.83333333  0.28445037
   0.50000000  0.16666667  0.28445037
   0.50000000  0.50000000  0.28445037
   0.50000000  0.83333333  0.28445037
   0.83333333  0.16666667  0.28445037
   0.83333333  0.50000000  0.28445037
   0.83333333  0.83333333  0.28445037
  -0.00000000 -0.00000000  0.33473479
   0.00000000  0.33333333  0.33473479
  -0.00000000  0.66666667  0.33473479
   0.33333333 -0.00000000  0.33473479
   0.33333333  0.33333333  0.33473479
   0.33333333  0.66666667  0.33473479
   0.66666667 -0.00000000  0.33473479
   0.66666667  0.33333333  0.33473479
   0.66666667  0.66666667  0.33473479
Direct configuration=     4
   0.00000000  0.00000000  0.00000000
   0.00000000  0.33333333  0.00000000
   0.00000000  0.66666667  0.00000000
   0.33333333  0.00000000  0.00000000
   0.33333333  0.33333333  0.00000000
   0.33333333  0.66666667  0.00000000
   0.66666667  0.00000000  0.00000000
   0.66666667  0.33333333  0.00000000
   0.66666667  0.66666667  0.00000000
   0.16666667  0.16666667  0.05653641
   0.16666667  0.50000000  0.05653641
   0.16666667  0.83333333  0.05653641
   0.50000000  0.16666667  0.05653641
   0.50000000  0.50000000  0.05653641
   0.50000000  0.83333333  0.05653641
   0.83333333  0.16666667  0.05653641
   0.83333333  0.50000000  0.05653641
   0.83333333  0.83333333  0.05653641
   0.00000000 -0.00000000  0.11324903
   0.00000000  0.33333333  0.11324903
  -0.00000000  0.66666667  0.11324903
   0.33333333 -0.00000000  0.11324903
   0.33333333  0.33333333  0.11324903
   0.33333333  0.66666667  0.11324903
   0.66666667  0.00000000  0.11324903
   0.66666667  0.33333333  0.11324903
   0.66666667  0.66666667  0.11324903
   0.16666667  0.16666667  0.16973897
   0.16666667  0.50000000  0.16973897
   0.16666667  0.83333333  0.16973897
   0.50000000  0.16666667  0.16973897
   0.50000000  0.50000000  0.16973897
   0.50000000  0.83333333  0.16973897
   0.83333333  0.16666667  0.16973897
   0.83333333  0.50000000  0.16973897
   0.83333333  0.83333333  0.16973897
  -0.00000000 -0.00000000  0.22540359
   0.00000000  0.33333333  0.22540359
  -0.00000000  0.66666667  0.22540359
   0.33333333 -0.00000000  0.22540359
   0.33333333  0.33333333  0.22540359
   0.33333333  0.66666667  0.22540359
   0.66666667 -0.00000000  0.22540359
   0.66666667  0.33333333  0.22540359
   0.66666667  0.66666667  0.22540359
   0.16666667  0.16666667  0.28408456
   0.16666667  0.50000000  0.28408456
   0.16666667  0.83333333  0.28408456
   0.50000000  0.16666667  0.28408456
   0.50000000  0.50000000  0.28408456
   0.50000000  0.83333333  0.28408456
   0.83333333  0.16666667  0.28408456
   0.83333333  0.50000000  0.28408456
   0.83333333  0.83333333  0.28408456
  -0.00000000 -0.00000000  0.33429429
   0.00000000  0.33333333  0.33429429
  -0.00000000  0.66666667  0.33429429
   0.33333333 -0.00000000  0.33429429
   0.33333333  0.33333333  0.33429429
   0.33333333  0.66666667  0.33429429
   0.66666667 -0.00000000  0.33429429
   0.66666667  0.33333333  0.33429429
   0.66666667  0.66666667  0.33429429
Direct configuration=     5
   0.00000000  0.00000000  0.00000000
   0.00000000  0.33333333  0.00000000
   0.00000000  0.66666667  0.00000000
   0.33333333  0.00000000  0.00000000
   0.33333333  0.33333333  0.00000000
   0.33333333  0.66666667  0.00000000
   0.66666667  0.00000000  0.00000000
   0.66666667  0.33333333  0.00000000
   0.66666667  0.66666667  0.00000000
   0.16666667  0.16666667  0.05653641
   0.16666667  0.50000000  0.05653641
   0.16666667  0.83333333  0.05653641
   0.50000000  0.16666667  0.05653641
   0.50000000  0.50000000  0.05653641
   0.50000000  0.83333333  0.05653641
   0.83333333  0.16666667  0.05653641
   0.83333333  0.50000000  0.05653641
   0.83333333  0.83333333  0.05653641
  -0.00000000 -0.00000000  0.11326617
   0.00000000  0.33333333  0.11326617
   0.00000000  0.66666667  0.11326617
   0.33333333 -0.00000000  0.11326617
   0.33333333  0.33333333  0.11326617
   0.33333333  0.66666667  0.11326617
   0.66666667  0.00000000  0.11326617
   0.66666667  0.33333333  0.11326617
   0.66666667  0.66666667  0.11326617
   0.16666667  0.16666667  0.17010917
   0.16666667  0.50000000  0.17010917
   0.16666667  0.83333333  0.17010917
   0.50000000  0.16666667  0.17010917
   0.50000000  0.50000000  0.17010917
   0.50000000  0.83333333  0.17010917
   0.83333333  0.16666667  0.17010917
   0.83333333  0.50000000  0.17010917
   0.83333333  0.83333333  0.17010917
  -0.00000000 -0.00000000  0.22371800
   0.00000000  0.33333333  0.22371800
  -0.00000000  0.66666667  0.22371800
   0.33333333 -0.00000000  0.22371800
   0.33333333  0.33333333  0.22371800
   0.33333333  0.66666667  0.22371800
   0.66666667 -0.00000000  0.22371800
   0.66666667  0.33333333  0.22371800
   0.66666667  0.66666667  0.22371800
   0.16666667  0.16666667  0.28299515
   0.16666667  0.50000000  0.28299515
   0.16666667  0.83333333  0.28299515
   0.50000000  0.16666667  0.28299515
   0.50000000  0.50000000  0.28299515
   0.50000000  0.83333333  0.28299515
   0.83333333  0.16666667  0.28299515
   0.83333333  0.50000000  0.28299515
   0.83333333  0.83333333  0.28299515
  -0.00000000 -0.00000000  0.33298246
   0.00000000  0.33333333  0.33298246
  -0.00000000  0.66666667  0.33298246
   0.33333333 -0.00000000  0.33298246
   0.33333333  0.33333333  0.33298246
   0.33333333  0.66666667  0.33298246
   0.66666667 -0.00000000  0.33298246
   0.66666667  0.33333333  0.33298246
   0.66666667  0.66666667  0.33298246
Direct configuration=     6
   0.00000000  0.00000000  0.00000000
   0.00000000  0.33333333  0.00000000
   0.00000000  0.66666667  0.00000000
   0.33333333  0.00000000  0.00000000
   0.33333333  0.33333333  0.00000000
   0.33333333  0.66666667  0.00000000
   0.66666667  0.00000000  0.00000000
   0.66666667  0.33333333  0.00000000
   0.66666667  0.66666667  0.00000000
   0.16666667  0.16666667  0.05653641
   0.16666667  0.50000000  0.05653641
   0.16666667  0.83333333  0.05653641
   0.50000000  0.16666667  0.05653641
   0.50000000  0.50000000  0.05653641
   0.50000000  0.83333333  0.05653641
   0.83333333  0.16666667  0.05653641
   0.83333333  0.50000000  0.05653641
   0.83333333  0.83333333  0.05653641
  -0.00000000 -0.00000000  0.11309825
   0.00000000  0.33333333  0.11309825
   0.00000000  0.66666667  0.11309825
   0.33333333 -0.00000000  0.11309825
   0.33333333  0.33333333  0.11309825
   0.33333333  0.66666667  0.11309825
   0.66666667  0.00000000  0.11309825
   0.66666667  0.33333333  0.11309825
   0.66666667  0.66666667  0.11309825
   0.16666667  0.16666667  0.16987319
   0.16666667  0.50000000  0.16987319
   0.16666667  0.83333333  0.16987319
   0.50000000  0.16666667  0.16987319
   0.50000000  0.50000000  0.16987319
   0.50000000  0.83333333  0.16987319
   0.83333333  0.16666667  0.16987319
   0.83333333  0.50000000  0.16987319
   0.83333333  0.83333333  0.16987319
  -0.00000000 -0.00000000  0.22346020
   0.00000000  0.33333333  0.22346020
  -0.00000000  0.66666667  0.22346020
   0.33333333 -0.00000000  0.22346020
   0.33333333  0.33333333  0.22346020
   0.33333333  0.66666667  0.22346020
   0.66666667 -0.00000000  0.22346020
   0.66666667  0.33333333  0.22346020
   0.66666667  0.66666667  0.22346020
   0.16666667  0.16666667  0.28250475
   0.16666667  0.50000000  0.28250475
   0.16666667  0.83333333  0.28250475
   0.50000000  0.16666667  0.28250475
   0.50000000  0.50000000  0.28250475
   0.50000000  0.83333333  0.28250475
   0.83333333  0.16666667  0.28250475
   0.83333333  0.50000000  0.28250475
   0.83333333  0.83333333  0.28250475
  -0.00000000 -0.00000000  0.33257214
   0.00000000  0.33333333  0.33257214
  -0.00000000  0.66666667  0.33257214
   0.33333333 -0.00000000  0.33257214
   0.33333333  0.33333333  0.33257214
   0.33333333  0.66666667  0.33257214
   0.66666667 -0.00000000  0.33257214
   0.66666667  0.33333333  0.33257214
   0.66666667  0.66666667  0.33257214
Direct configuration=     7
   0.00000000  0.00000000  0.00000000
   0.00000000  0.33333333  0.00000000
   0.00000000  0.66666667  0.00000000
   0.33333333  0.00000000  0.00000000
   0.33333333  0.33333333  0.00000000
   0.33333333  0.66666667  0.00000000
   0.66666667  0.00000000  0.00000000
   0.66666667  0.33333333  0.00000000
   0.66666667  0.66666667  0.00000000
   0.16666667  0.16666667  0.05653641
   0.16666667  0.50000000  0.05653641
   0.16666667  0.83333333  0.05653641
   0.50000000  0.16666667  0.05653641
   0.50000000  0.50000000  0.05653641
   0.50000000  0.83333333  0.05653641
   0.83333333  0.16666667  0.05653641
   0.83333333  0.50000000  0.05653641
   0.83333333  0.83333333  0.05653641
  -0.00000000 -0.00000000  0.11259449
   0.00000000  0.33333333  0.11259449
   0.00000000  0.66666667  0.11259449
   0.33333333 -0.00000000  0.11259449
   0.33333333  0.33333333  0.11259449
   0.33333333  0.66666667  0.11259449
   0.66666667  0.00000000  0.11259449
   0.66666667  0.33333333  0.11259449
   0.66666667  0.66666667  0.11259449
   0.16666667  0.16666667  0.16916524
   0.16666667  0.50000000  0.16916524
   0.16666667  0.83333333  0.16916524
   0.50000000  0.16666667  0.16916524
   0.50000000  0.50000000  0.16916524
   0.50000000  0.83333333  0.16916524
   0.83333333  0.16666667  0.16916524
   0.83333333  0.50000000  0.16916524
   0.83333333  0.83333333  0.16916524
  -0.00000000  0.00000000  0.22268683
   0.00000000  0.33333333  0.22268683
  -0.00000000  0.66666667  0.22268683
   0.33333333  0.00000000  0.22268683
   0.33333333  0.33333333  0.22268683
   0.33333333  0.66666667  0.22268683
   0.66666667  0.00000000  0.22268683
   0.66666667  0.33333333  0.22268683
   0.66666667  0.66666667  0.22268683
   0.16666667  0.16666667  0.28103355
   0.16666667  0.50000000  0.28103355
   0.16666667  0.83333333  0.28103355
   0.50000000  0.16666667  0.28103355
   0.50000000  0.50000000  0.28103355
   0.50000000  0.83333333  0.28103355
   0.83333333  0.16666667  0.28103355
   0.83333333  0.50000000  0.28103355
   0.83333333  0.83333333  0.28103355
  -0.00000000  0.00000000  0.33134118
   0.00000000  0.33333333  0.33134118
  -0.00000000  0.66666667  0.33134118
   0.33333333  0.00000000  0.33134118
   0.33333333  0.33333333  0.33134118
   0.33333333  0.66666667  0.33134118
   0.66666667  0.00000000  0.33134118
   0.66666667  0.33333333  0.33134118
   0.66666667  0.66666667  0.33134118
Direct configuration=     8
   0.00000000  0.00000000  0.00000000
   0.00000000  0.33333333  0.00000000
   0.00000000  0.66666667  0.00000000
   0.33333333  0.00000000  0.00000000
   0.33333333  0.33333333  0.00000000
   0.33333333  0.66666667  0.00000000
   0.66666667  0.00000000  0.00000000
   0.66666667  0.33333333  0.00000000
   0.66666667  0.66666667  0.00000000
   0.16666667  0.16666667  0.05653641
   0.16666667  0.50000000  0.05653641
   0.16666667  0.83333333  0.05653641
   0.50000000  0.16666667  0.05653641
   0.50000000  0.50000000  0.05653641
   0.50000000  0.83333333  0.05653641
   0.83333333  0.16666667  0.05653641
   0.83333333  0.50000000  0.05653641
   0.83333333  0.83333333  0.05653641
  -0.00000000 -0.00000000  0.11158698
   0.00000000  0.33333333  0.11158698
   0.00000000  0.66666667  0.11158698
   0.33333333 -0.00000000  0.11158698
   0.33333333  0.33333333  0.11158698
   0.33333333  0.66666667  0.11158698
   0.66666667  0.00000000  0.11158698
   0.66666667  0.33333333  0.11158698
   0.66666667  0.66666667  0.11158698
   0.16666667  0.16666667  0.16774935
   0.16666667  0.50000000  0.16774935
   0.16666667  0.83333333  0.16774935
   0.50000000  0.16666667  0.16774935
   0.50000000  0.50000000  0.16774935
   0.50000000  0.83333333  0.16774935
   0.83333333  0.16666667  0.16774935
   0.83333333  0.50000000  0.16774935
   0.83333333  0.83333333  0.16774935
  -0.00000000  0.00000000  0.22114007
   0.00000000  0.33333333  0.22114007
   0.00000000  0.66666667  0.22114007
   0.33333333  0.00000000  0.22114007
   0.33333333  0.33333333  0.22114007
   0.33333333  0.66666667  0.22114007
   0.66666667  0.00000000  0.22114007
   0.66666667  0.33333333  0.22114007
   0.66666667  0.66666667  0.22114007
   0.16666667  0.16666667  0.27809113
   0.16666667  0.50000000  0.27809113
   0.16666667  0.83333333  0.27809113
   0.50000000  0.16666667  0.27809113
   0.50000000  0.50000000  0.27809113
   0.50000000  0.83333333  0.27809113
   0.83333333  0.16666667  0.27809113
   0.83333333  0.50000000  0.27809113
   0.83333333  0.83333333  0.27809113
  -0.00000000  0.00000000  0.32887926
   0.00000000  0.33333333  0.32887926
  -0.00000000  0.66666667  0.32887926
   0.33333333  0.00000000  0.32887926
   0.33333333  0.33333333  0.32887926
   0.33333333  0.66666667  0.32887926
   0.66666667  0.00000000  0.32887926
   0.66666667  0.33333333  0.32887926
   0.66666667  0.66666667  0.32887926
Direct configuration=     9
   0.00000000  0.00000000  0.00000000
   0.00000000  0.33333333  0.00000000
   0.00000000  0.66666667  0.00000000
   0.33333333  0.00000000  0.00000000
   0.33333333  0.33333333  0.00000000
   0.33333333  0.66666667  0.00000000
   0.66666667  0.00000000  0.00000000
   0.66666667  0.33333333  0.00000000
   0.66666667  0.66666667  0.00000000
   0.16666667  0.16666667  0.05653641
   0.16666667  0.50000000  0.05653641
   0.16666667  0.83333333  0.05653641
   0.50000000  0.16666667  0.05653641
   0.50000000  0.50000000  0.05653641
   0.50000000  0.83333333  0.05653641
   0.83333333  0.16666667  0.05653641
   0.83333333  0.50000000  0.05653641
   0.83333333  0.83333333  0.05653641
  -0.00000000 -0.00000000  0.11120964
   0.00000000  0.33333333  0.11120964
   0.00000000  0.66666667  0.11120964
   0.33333333 -0.00000000  0.11120964
   0.33333333  0.33333333  0.11120964
   0.33333333  0.66666667  0.11120964
   0.66666667  0.00000000  0.11120964
   0.66666667  0.33333333  0.11120964
   0.66666667  0.66666667  0.11120964
   0.16666667  0.16666667  0.16666834
   0.16666667  0.50000000  0.16666834
   0.16666667  0.83333333  0.16666834
   0.50000000  0.16666667  0.16666834
   0.50000000  0.50000000  0.16666834
   0.50000000  0.83333333  0.16666834
   0.83333333  0.16666667  0.16666834
   0.83333333  0.50000000  0.16666834
   0.83333333  0.83333333  0.16666834
  -0.00000000  0.00000000  0.22089570
   0.00000000  0.33333333  0.22089570
   0.00000000  0.66666667  0.22089570
   0.33333333  0.00000000  0.22089570
   0.33333333  0.33333333  0.22089570
   0.33333333  0.66666667  0.22089570
   0.66666667  0.00000000  0.22089570
   0.66666667  0.33333333  0.22089570
   0.66666667  0.66666667  0.22089570
   0.16666667  0.16666667  0.27818013
   0.16666667  0.50000000  0.27818013
   0.16666667  0.83333333  0.27818013
   0.50000000  0.16666667  0.27818013
   0.50000000  0.50000000  0.27818013
   0.50000000  0.83333333  0.27818013
   0.83333333  0.16666667  0.27818013
   0.83333333  0.50000000  0.27818013
   0.83333333  0.83333333  0.27818013
  -0.00000000  0.00000000  0.32866586
   0.00000000  0.33333333  0.32866586
  -0.00000000  0.66666667  0.32866586
   0.33333333  0.00000000  0.32866586
   0.33333333  0.33333333  0.32866586
   0.33333333  0.66666667  0.32866586
   0.66666667  0.00000000  0.32866586
   0.66666667  0.33333333  0.32866586
   0.66666667  0.66666667  0.32866586
Direct configuration=    10
   0.00000000  0.00000000  0.00000000
   0.00000000  0.33333333  0.00000000
   0.00000000  0.66666667  0.00000000
   0.33333333  0.00000000  0.00000000
   0.33333333  0.33333333  0.00000000
   0.33333333  0.66666667  0.00000000
   0.66666667  0.00000000  0.00000000
   0.66666667  0.33333333  0.00000000
   0.66666667  0.66666667  0.00000000
   0.16666667  0.16666667  0.05653641
   0.16666667  0.50000000  0.05653641
   0.16666667  0.83333333  0.05653641
   0.50000000  0.16666667  0.05653641
   0.50000000  0.50000000  0.05653641
   0.50000000  0.83333333  0.05653641
   0.83333333  0.16666667  0.05653641
   0.83333333  0.50000000  0.05653641
   0.83333333  0.83333333  0.05653641
  -0.00000000 -0.00000000  0.11119693
   0.00000000  0.33333333  0.11119693
   0.00000000  0.66666667  0.11119693
   0.33333333 -0.00000000  0.11119693
   0.33333333  0.33333333  0.11119693
   0.33333333  0.66666667  0.11119693
   0.66666667  0.00000000  0.11119693
   0.66666667  0.33333333  0.11119693
   0.66666667  0.66666667  0.11119693
   0.16666667  0.16666667  0.16663192
   0.16666667  0.50000000  0.16663192
   0.16666667  0.83333333  0.16663192
   0.50000000  0.16666667  0.16663192
   0.50000000  0.50000000  0.16663192
   0.50000000  0.83333333  0.16663192
   0.83333333  0.16666667  0.16663192
   0.83333333  0.50000000  0.16663192
   0.83333333  0.83333333  0.16663192
  -0.00000000  0.00000000  0.22088746
   0.00000000  0.33333333  0.22088746
   0.00000000  0.66666667  0.22088746
   0.33333333  0.00000000  0.22088746
   0.33333333  0.33333333  0.22088746
   0.33333333  0.66666667  0.22088746
   0.66666667  0.00000000  0.22088746
   0.66666667  0.33333333  0.22088746
   0.66666667  0.66666667  0.22088746
   0.16666667  0.16666667  0.27818312
   0.16666667  0.50000000  0.27818312
   0.16666667  0.83333333  0.27818312
   0.50000000  0.16666667  0.27818312
   0.50000000  0.50000000  0.27818312
   0.50000000  0.83333333  0.27818312
   0.83333333  0.16666667  0.27818312
   0.83333333  0.50000000  0.27818312
   0.83333333  0.83333333  0.27818312
  -0.00000000  0.00000000  0.32865867
   0.00000000  0.33333333  0.32865867
  -0.00000000  0.66666667  0.32865867
   0.33333333  0.00000000  0.32865867
   0.33333333  0.33333333  0.32865867
   0.33333333  0.66666667  0.32865867
   0.66666667  0.00000000  0.32865867
   0.66666667  0.33333333  0.32865867
   0.66666667  0.66666667  0.32865867
Direct configuration=    11
   0.00000000  0.00000000  0.00000000
   0.00000000  0.33333333  0.00000000
   0.00000000  0.66666667  0.00000000
   0.33333333  0.00000000  0.00000000
   0.33333333  0.33333333  0.00000000
   0.33333333  0.66666667  0.00000000
   0.66666667  0.00000000  0.00000000
   0.66666667  0.33333333  0.00000000
   0.66666667  0.66666667  0.00000000
   0.16666667  0.16666667  0.05653641
   0.16666667  0.50000000  0.05653641
   0.16666667  0.83333333  0.05653641
   0.50000000  0.16666667  0.05653641
   0.50000000  0.50000000  0.05653641
   0.50000000  0.83333333  0.05653641
   0.83333333  0.16666667  0.05653641
   0.83333333  0.50000000  0.05653641
   0.83333333  0.83333333  0.05653641
  -0.00000000 -0.00000000  0.11117150
   0.00000000  0.33333333  0.11117150
   0.00000000  0.66666667  0.11117150
   0.33333333 -0.00000000  0.11117150
   0.33333333  0.33333333  0.11117150
   0.33333333  0.66666667  0.11117150
   0.66666667  0.00000000  0.11117150
   0.66666667  0.33333333  0.11117150
   0.66666667  0.66666667  0.11117150
   0.16666667  0.16666667  0.16655908
   0.16666667  0.50000000  0.16655908
   0.16666667  0.83333333  0.16655908
   0.50000000  0.16666667  0.16655908
   0.50000000  0.50000000  0.16655908
   0.50000000  0.83333333  0.16655908
   0.83333333  0.16666667  0.16655908
   0.83333333  0.50000000  0.16655908
   0.83333333  0.83333333  0.16655908
  -0.00000000  0.00000000  0.22087100
   0.00000000  0.33333333  0.22087100
   0.00000000  0.66666667  0.22087100
   0.33333333  0.00000000  0.22087100
   0.33333333  0.33333333  0.22087100
   0.33333333  0.66666667  0.22087100
   0.66666667  0.00000000  0.22087100
   0.66666667  0.33333333  0.22087100
   0.66666667  0.66666667  0.22087100
   0.16666667  0.16666667  0.27818912
   0.16666667  0.50000000  0.27818912
   0.16666667  0.83333333  0.27818912
   0.50000000  0.16666667  0.27818912
   0.50000000  0.50000000  0.27818912
   0.50000000  0.83333333  0.27818912
   0.83333333  0.16666667  0.27818912
   0.83333333  0.50000000  0.27818912
   0.83333333  0.83333333  0.27818912
  -0.00000000  0.00000000  0.32864430
   0.00000000  0.33333333  0.32864430
  -0.00000000  0.66666667  0.32864430
   0.33333333  0.00000000  0.32864430
   0.33333333  0.33333333  0.32864430
   0.33333333  0.66666667  0.32864430
   0.66666667  0.00000000  0.32864430
   0.66666667  0.33333333  0.32864430
   0.66666667  0.66666667  0.32864430
Direct configuration=    12
   0.00000000  0.00000000  0.00000000
   0.00000000  0.33333333  0.00000000
   0.00000000  0.66666667  0.00000000
   0.33333333  0.00000000  0.00000000
   0.33333333  0.33333333  0.00000000
   0.33333333  0.66666667  0.00000000
   0.66666667  0.00000000  0.00000000
   0.66666667  0.33333333  0.00000000
   0.66666667  0.66666667  0.00000000
   0.16666667  0.16666667  0.05653641
   0.16666667  0.50000000  0.05653641
   0.16666667  0.83333333  0.05653641
   0.50000000  0.16666667  0.05653641
   0.50000000  0.50000000  0.05653641
   0.50000000  0.83333333  0.05653641
   0.83333333  0.16666667  0.05653641
   0.83333333  0.50000000  0.05653641
   0.83333333  0.83333333  0.05653641
  -0.00000000 -0.00000000  0.11118798
   0.00000000  0.33333333  0.11118798
   0.00000000  0.66666667  0.11118798
   0.33333333 -0.00000000  0.11118798
   0.33333333  0.33333333  0.11118798
   0.33333333  0.66666667  0.11118798
   0.66666667  0.00000000  0.11118798
   0.66666667  0.33333333  0.11118798
   0.66666667  0.66666667  0.11118798
   0.16666667  0.16666667  0.16660630
   0.16666667  0.50000000  0.16660630
   0.16666667  0.83333333  0.16660630
   0.50000000  0.16666667  0.16660630
   0.50000000  0.50000000  0.16660630
   0.50000000  0.83333333  0.16660630
   0.83333333  0.16666667  0.16660630
   0.83333333  0.50000000  0.16660630
   0.83333333  0.83333333  0.16660630
  -0.00000000  0.00000000  0.22088167
   0.00000000  0.33333333  0.22088167
   0.00000000  0.66666667  0.22088167
   0.33333333  0.00000000  0.22088167
   0.33333333  0.33333333  0.22088167
   0.33333333  0.66666667  0.22088167
   0.66666667  0.00000000  0.22088167
   0.66666667  0.33333333  0.22088167
   0.66666667  0.66666667  0.22088167
   0.16666667  0.16666667  0.27818523
   0.16666667  0.50000000  0.27818523
   0.16666667  0.83333333  0.27818523
   0.50000000  0.16666667  0.27818523
   0.50000000  0.50000000  0.27818523
   0.50000000  0.83333333  0.27818523
   0.83333333  0.16666667  0.27818523
   0.83333333  0.50000000  0.27818523
   0.83333333  0.83333333  0.27818523
  -0.00000000  0.00000000  0.32865362
   0.00000000  0.33333333  0.32865362
  -0.00000000  0.66666667  0.32865362
   0.33333333  0.00000000  0.32865362
   0.33333333  0.33333333  0.32865362
   0.33333333  0.66666667  0.32865362
   0.66666667  0.00000000  0.32865362
   0.66666667  0.33333333  0.32865362
   0.66666667  0.66666667  0.32865362
Direct configuration=    13
   0.00000000  0.00000000  0.00000000
   0.00000000  0.33333333  0.00000000
   0.00000000  0.66666667  0.00000000
   0.33333333  0.00000000  0.00000000
   0.33333333  0.33333333  0.00000000
   0.33333333  0.66666667  0.00000000
   0.66666667  0.00000000  0.00000000
   0.66666667  0.33333333  0.00000000
   0.66666667  0.66666667  0.00000000
   0.16666667  0.16666667  0.05653641
   0.16666667  0.50000000  0.05653641
   0.16666667  0.83333333  0.05653641
   0.50000000  0.16666667  0.05653641
   0.50000000  0.50000000  0.05653641
   0.50000000  0.83333333  0.05653641
   0.83333333  0.16666667  0.05653641
   0.83333333  0.50000000  0.05653641
   0.83333333  0.83333333  0.05653641
  -0.00000000 -0.00000000  0.11117623