  18  18   0   0
  0.2028145E+02  0.3630000E-09  0.3630000E-09  0.2770500E-08  0.5000000E-15
  1.000000000000000E-004
  CAR 
 unknown system                          
     13.26201973     -9.39417360  301      2.00875392      1.00000000
     -9.394  0.0000E+00  0.0000E+00  0.0000E+00  0.0000E+00
     -9.319  0.0000E+00  0.0000E+00  0.0000E+00  0.0000E+00
     -9.243  0.0000E+00  0.0000E+00  0.0000E+00  0.0000E+00
     -9.168  0.0000E+00  0.0000E+00  0.0000E+00  0.0000E+00
     -9.092  0.0000E+00  0.0000E+00  0.0000E+00  0.0000E+00
     -9.017 -0.1111E-30 -0.1111E-30 -0.8390E-32 -0.8390E-32
     -8.941 -0.4193E-28 -0.4193E-28 -0.3175E-29 -0.3175E-29
     -8.866 -0.1189E-25 -0.1189E-25 -0.9011E-27 -0.9011E-27
     -8.790 -0.2528E-23 -0.2528E-23 -0.1918E-24 -0.1918E-24
     -8.714 -0.4028E-21 -0.4028E-21 -0.3061E-22 -0.3061E-22
     -8.639 -0.4806E-19 -0.4806E-19 -0.3660E-20 -0.3660E-20
     -8.563 -0.4192E-17 -0.4192E-17 -0.3202E-18 -0.3202E-18
     -8.488 -0.2774E-15 -0.2774E-15 -0.2127E-16 -0.2127E-16
     -8.412 -0.1378E-13 -0.1378E-13 -0.1062E-14 -0.1062E-14
     -8.337 -0.5105E-12 -0.5105E-12 -0.3962E-13 -0.3962E-13
     -8.261 -0.1406E-10 -0.1406E-10 -0.1102E-11 -0.1102E-11
     -8.186 -0.2874E-09 -0.2874E-09 -0.2281E-10 -0.2281E-10
     -8.110 -0.4339E-08 -0.4339E-08 -0.3505E-09 -0.3505E-09
     -8.035 -0.4810E-07 -0.4810E-07 -0.3983E-08 -0.3983E-08
     -7.959 -0.3878E-06 -0.3878E-06 -0.3327E-07 -0.3327E-07
     -7.884 -0.2238E-05 -0.2238E-05 -0.2023E-06 -0.2023E-06
     -7.808 -0.8958E-05 -0.8958E-05 -0.8788E-06 -0.8788E-06
     -7.733 -0.2306E-04 -0.2306E-04 -0.2620E-05 -0.2620E-05
     -7.657 -0.2847E-04 -0.2847E-04 -0.4771E-05 -0.4771E-05
     -7.582  0.3122E-04  0.3122E-04 -0.2413E-05 -0.2413E-05
     -7.506  0.2135E-03  0.2135E-03  0.1371E-04  0.1371E-04
     -7.431  0.4588E-03  0.4588E-03  0.4836E-04  0.4836E-04
     -7.355  0.5734E-03  0.5734E-03  0.9167E-04  0.9167E-04
     -7.280  0.4413E-03  0.4413E-03  0.1250E-03  0.1250E-03
     -7.204  0.1804E-03  0.1804E-03  0.1386E-03  0.1386E-03
     -7.129  0.1362E-05  0.1362E-05  0.1387E-03  0.1387E-03
     -7.053  0.1919E-04  0.1919E-04  0.1402E-03  0.1402E-03
     -6.978  0.2237E-03  0.2237E-03  0.1571E-03  0.1571E-03
     -6.902  0.4784E-03  0.4784E-03  0.1932E-03  0.1932E-03
     -6.826  0.5711E-03  0.5711E-03  0.2363E-03  0.2363E-03
     -6.751  0.4206E-03  0.4206E-03  0.2681E-03  0.2681E-03
     -6.675  0.1732E-03  0.1732E-03  0.2812E-03  0.2812E-03
     -6.600  0.5033E-05  0.5033E-05  0.2815E-03  0.2815E-03
     -6.524 -0.6540E-04 -0.6540E-04  0.2766E-03  0.2766E-03
     -6.449 -0.1187E-03 -0.1187E-03  0.2676E-03  0.2676E-03
     -6.373 -0.1520E-03 -0.1520E-03  0.2562E-03  0.2562E-03
     -6.298  0.5954E-04  0.5954E-04  0.2607E-03  0.2607E-03
     -6.222  0.8307E-03  0.8307E-03  0.3234E-03  0.3234E-03
     -6.147  0.2025E-02  0.2025E-02  0.4763E-03  0.4763E-03
     -6.071  0.2789E-02  0.2789E-02  0.6869E-03  0.6869E-03
     -5.996  0.2391E-02  0.2391E-02  0.8675E-03  0.8675E-03
     -5.920  0.1187E-02  0.1187E-02  0.9571E-03  0.9571E-03
     -5.845  0.2626E-03  0.2626E-03  0.9770E-03  0.9770E-03
     -5.769  0.3360E-03  0.3360E-03  0.1002E-02  0.1002E-02
     -5.694  0.1251E-02  0.1251E-02  0.1097E-02  0.1097E-02
     -5.618  0.2136E-02  0.2136E-02  0.1258E-02  0.1258E-02
     -5.543  0.2137E-02  0.2137E-02  0.1420E-02  0.1420E-02
     -5.467  0.1284E-02  0.1284E-02  0.1516E-02  0.1516E-02
     -5.392  0.3393E-03  0.3393E-03  0.1542E-02  0.1542E-02
     -5.316 -0.1778E-03 -0.1778E-03  0.1529E-02  0.1529E-02
     -5.241 -0.2922E-03 -0.2922E-03  0.1507E-02  0.1507E-02
     -5.165 -0.3289E-04 -0.3289E-04  0.1504E-02  0.1504E-02
     -5.089  0.8768E-03  0.8768E-03  0.1570E-02  0.1570E-02
     -5.014  0.2531E-02  0.2531E-02  0.1762E-02  0.1762E-02
     -4.938  0.4159E-02  0.4159E-02  0.2076E-02  0.2076E-02
     -4.863  0.4542E-02  0.4542E-02  0.2419E-02  0.2419E-02
     -4.787  0.3561E-02  0.3561E-02  0.2688E-02  0.2688E-02
     -4.712  0.2648E-02  0.2648E-02  0.2888E-02  0.2888E-02
     -4.636  0.3023E-02  0.3023E-02  0.3116E-02  0.3116E-02
     -4.561  0.4120E-02  0.4120E-02  0.3427E-02  0.3427E-02
     -4.485  0.4556E-02  0.4556E-02  0.3771E-02  0.3771E-02
     -4.410  0.3997E-02  0.3997E-02  0.4073E-02  0.4073E-02
     -4.334  0.3063E-02  0.3063E-02  0.4304E-02  0.4304E-02
     -4.259  0.2085E-02  0.2085E-02  0.4462E-02  0.4462E-02
     -4.183  0.1225E-02  0.1225E-02  0.4554E-02  0.4554E-02
     -4.108  0.1069E-02  0.1069E-02  0.4635E-02  0.4635E-02
     -4.032  0.1986E-02  0.1986E-02  0.4785E-02  0.4785E-02
     -3.957  0.3368E-02  0.3368E-02  0.5039E-02  0.5039E-02
     -3.881  0.4097E-02  0.4097E-02  0.5349E-02  0.5349E-02
     -3.806  0.3548E-02  0.3548E-02  0.5617E-02  0.5617E-02
     -3.730  0.2045E-02  0.2045E-02  0.5771E-02  0.5771E-02
     -3.655  0.6155E-03  0.6155E-03  0.5818E-02  0.5818E-02
     -3.579  0.3493E-03  0.3493E-03  0.5844E-02  0.5844E-02
     -3.504  0.1631E-02  0.1631E-02  0.5967E-02  0.5967E-02
     -3.428  0.3531E-02  0.3531E-02  0.6234E-02  0.6234E-02
     -3.353  0.4271E-02  0.4271E-02  0.6556E-02  0.6556E-02
     -3.277  0.3164E-02  0.3164E-02  0.6795E-02  0.6795E-02
     -3.201  0.1696E-02  0.1696E-02  0.6924E-02  0.6924E-02
     -3.126  0.1927E-02  0.1927E-02  0.7069E-02  0.7069E-02
     -3.050  0.4439E-02  0.4439E-02  0.7404E-02  0.7404E-02
     -2.975  0.8350E-02  0.8350E-02  0.8035E-02  0.8035E-02
     -2.899  0.1246E-01  0.1246E-01  0.8976E-02  0.8976E-02
     -2.824  0.1553E-01  0.1553E-01  0.1015E-01  0.1015E-01
     -2.748  0.1614E-01  0.1614E-01  0.1137E-01  0.1137E-01
     -2.673  0.1411E-01  0.1411E-01  0.1243E-01  0.1243E-01
     -2.597  0.1167E-01  0.1167E-01  0.1331E-01  0.1331E-01
     -2.522  0.1137E-01  0.1137E-01  0.1417E-01  0.1417E-01
     -2.446  0.1354E-01  0.1354E-01  0.1520E-01  0.1520E-01
     -2.371  0.1725E-01  0.1725E-01  0.1650E-01  0.1650E-01
     -2.295  0.2170E-01  0.2170E-01  0.1814E-01  0.1814E-01
     -2.220  0.2561E-01  0.2561E-01  0.2007E-01  0.2007E-01
     -2.144  0.2702E-01  0.2702E-01  0.2211E-01  0.2211E-01
     -2.069  0.2478E-01  0.2478E-01  0.2398E-01  0.2398E-01
     -1.993  0.2016E-01  0.2016E-01  0.2551E-01  0.2551E-01
     -1.918  0.1607E-01  0.1607E-01  0.2672E-01  0.2672E-01
     -1.842  0.1470E-01  0.1470E-01  0.2783E-01  0.2783E-01
     -1.767  0.1633E-01  0.1633E-01  0.2906E-01  0.2906E-01
     -1.691  0.1974E-01  0.1974E-01  0.3055E-01  0.3055E-01
     -1.616  0.2309E-01  0.2309E-01  0.3230E-01  0.3230E-01
     -1.540  0.2478E-01  0.2478E-01  0.3417E-01  0.3417E-01
     -1.465  0.2449E-01  0.2449E-01  0.3602E-01  0.3602E-01
     -1.389  0.2364E-01  0.2364E-01  0.3780E-01  0.3780E-01
     -1.313  0.2427E-01  0.2427E-01  0.3964E-01  0.3964E-01
     -1.238  0.2717E-01  0.2717E-01  0.4169E-01  0.4169E-01
     -1.162  0.3182E-01  0.3182E-01  0.4409E-01  0.4409E-01
     -1.087  0.3712E-01  0.3712E-01  0.4689E-01  0.4689E-01
     -1.011  0.4127E-01  0.4127E-01  0.5001E-01  0.5001E-01
     -0.936  0.4213E-01  0.4213E-01  0.5319E-01  0.5319E-01
     -0.860  0.3948E-01  0.3948E-01  0.5617E-01  0.5617E-01
     -0.785  0.3567E-01  0.3567E-01  0.5887E-01  0.5887E-01
     -0.709  0.3270E-01  0.3270E-01  0.6134E-01  0.6134E-01
     -0.634  0.3064E-01  0.3064E-01  0.6365E-01  0.6365E-01
     -0.558  0.2974E-01  0.2974E-01  0.6590E-01  0.6590E-01
     -0.483  0.3047E-01  0.3047E-01  0.6820E-01  0.6820E-01
     -0.407  0.3141E-01  0.3141E-01  0.7057E-01  0.7057E-01
     -0.332  0.3125E-01  0.3125E-01  0.7293E-01  0.7293E-01
     -0.256  0.3168E-01  0.3168E-01  0.7532E-01  0.7532E-01
     -0.181  0.3515E-01  0.3515E-01  0.7798E-01  0.7798E-01
     -0.105  0.4086E-01  0.4086E-01  0.8106E-01  0.8106E-01
     -0.030  0.4526E-01  0.4526E-01  0.8448E-01  0.8448E-01
      0.046  0.4605E-01  0.4605E-01  0.8796E-01  0.8796E-01
      0.121  0.4474E-01  0.4474E-01  0.9134E-01  0.9134E-01
      0.197  0.4454E-01  0.4454E-01  0.9470E-01  0.9470E-01
      0.272  0.4567E-01  0.4567E-01  0.9815E-01  0.9815E-01
      0.348  0.4415E-01  0.4415E-01  0.1015E+00  0.1015E+00
      0.424  0.3641E-01  0.3641E-01  0.1042E+00  0.1042E+00
      0.499  0.2387E-01  0.2387E-01  0.1060E+00  0.1060E+00
      0.575  0.1159E-01  0.1159E-01  0.1069E+00  0.1069E+00
      0.650  0.3407E-02  0.3407E-02  0.1072E+00  0.1072E+00
      0.726 -0.1121E-03 -0.1121E-03  0.1072E+00  0.1072E+00
      0.801 -0.2199E-03 -0.2199E-03  0.1071E+00  0.1071E+00
      0.877  0.1740E-02  0.1740E-02  0.1073E+00  0.1073E+00
      0.952  0.4309E-02  0.4309E-02  0.1076E+00  0.1076E+00
      1.028  0.5759E-02  0.5759E-02  0.1080E+00  0.1080E+00
      1.103  0.5186E-02  0.5186E-02  0.1084E+00  0.1084E+00
      1.179  0.3230E-02  0.3230E-02  0.1087E+00  0.1087E+00
      1.254  0.1259E-02  0.1259E-02  0.1088E+00  0.1088E+00
      1.330  0.1515E-03  0.1515E-03  0.1088E+00  0.1088E+00
      1.405 -0.8005E-04 -0.8005E-04  0.1088E+00  0.1088E+00
      1.481  0.9558E-04  0.9558E-04  0.1088E+00  0.1088E+00
      1.556  0.3954E-03  0.3954E-03  0.1088E+00  0.1088E+00
      1.632  0.1111E-02  0.1111E-02  0.1089E+00  0.1089E+00
      1.707  0.2784E-02  0.2784E-02  0.1091E+00  0.1091E+00
      1.783  0.5324E-02  0.5324E-02  0.1095E+00  0.1095E+00
      1.858  0.7560E-02  0.7560E-02  0.1101E+00  0.1101E+00
      1.934  0.8223E-02  0.8223E-02  0.1107E+00  0.1107E+00
      2.009  0.7372E-02  0.7372E-02  0.1113E+00  0.1113E+00
      2.085  0.5877E-02  0.5877E-02  0.1117E+00  0.1117E+00
      2.160  0.4004E-02  0.4004E-02  0.1120E+00  0.1120E+00
      2.236  0.2100E-02  0.2100E-02  0.1122E+00  0.1122E+00
      2.312  0.1604E-02  0.1604E-02  0.1123E+00  0.1123E+00
      2.387  0.3444E-02  0.3444E-02  0.1125E+00  0.1125E+00
      2.463  0.6118E-02  0.6118E-02  0.1130E+00  0.1130E+00
      2.538  0.7060E-02  0.7060E-02  0.1135E+00  0.1135E+00
      2.614  0.5725E-02  0.5725E-02  0.1140E+00  0.1140E+00
      2.689  0.3921E-02  0.3921E-02  0.1143E+00  0.1143E+00
      2.765  0.3412E-02  0.3412E-02  0.1145E+00  0.1145E+00
      2.840  0.4220E-02  0.4220E-02  0.1148E+00  0.1148E+00
      2.916  0.4856E-02  0.4856E-02  0.1152E+00  0.1152E+00
      2.991  0.4044E-02  0.4044E-02  0.1155E+00  0.1155E+00
      3.067  0.2355E-02  0.2355E-02  0.1157E+00  0.1157E+00
      3.142  0.1412E-02  0.1412E-02  0.1158E+00  0.1158E+00
      3.218  0.1654E-02  0.1654E-02  0.1159E+00  0.1159E+00
      3.293  0.2003E-02  0.2003E-02  0.1161E+00  0.1161E+00
      3.369  0.1645E-02  0.1645E-02  0.1162E+00  0.1162E+00
      3.444  0.1004E-02  0.1004E-02  0.1163E+00  0.1163E+00
      3.520  0.7764E-03  0.7764E-03  0.1163E+00  0.1163E+00
      3.595  0.1008E-02  0.1008E-02  0.1164E+00  0.1164E+00
      3.671  0.1521E-02  0.1521E-02  0.1165E+00  0.1165E+00
      3.746  0.2319E-02  0.2319E-02  0.1167E+00  0.1167E+00
      3.822  0.3181E-02  0.3181E-02  0.1169E+00  0.1169E+00
      3.897  0.3624E-02  0.3624E-02  0.1172E+00  0.1172E+00
      3.973  0.3396E-02  0.3396E-02  0.1175E+00  0.1175E+00
      4.049  0.2558E-02  0.2558E-02  0.1177E+00  0.1177E+00
      4.124  0.1381E-02  0.1381E-02  0.1178E+00  0.1178E+00
      4.200  0.3423E-03  0.3423E-03  0.1178E+00  0.1178E+00
      4.275 -0.1828E-03 -0.1828E-03  0.1178E+00  0.1178E+00
      4.351 -0.1193E-03 -0.1193E-03  0.1178E+00  0.1178E+00
      4.426  0.5108E-03  0.5108E-03  0.1178E+00  0.1178E+00
      4.502  0.1578E-02  0.1578E-02  0.1179E+00  0.1179E+00
      4.577  0.2574E-02  0.2574E-02  0.1181E+00  0.1181E+00
      4.653  0.2820E-02  0.2820E-02  0.1183E+00  0.1183E+00
      4.728  0.2206E-02  0.2206E-02  0.1185E+00  0.1185E+00
      4.804  0.1485E-02  0.1485E-02  0.1186E+00  0.1186E+00
      4.879  0.1464E-02  0.1464E-02  0.1187E+00  0.1187E+00
      4.955  0.2026E-02  0.2026E-02  0.1189E+00  0.1189E+00
      5.030  0.2442E-02  0.2442E-02  0.1191E+00  0.1191E+00
      5.106  0.2449E-02  0.2449E-02  0.1192E+00  0.1192E+00
      5.181  0.2319E-02  0.2319E-02  0.1194E+00  0.1194E+00
      5.257  0.2255E-02  0.2255E-02  0.1196E+00  0.1196E+00
      5.332  0.2372E-02  0.2372E-02  0.1198E+00  0.1198E+00
      5.408  0.2767E-02  0.2767E-02  0.1200E+00  0.1200E+00
      5.483  0.3241E-02  0.3241E-02  0.1202E+00  0.1202E+00
      5.559  0.3418E-02  0.3418E-02  0.1205E+00  0.1205E+00
      5.634  0.3211E-02  0.3211E-02  0.1207E+00  0.1207E+00
      5.710  0.2966E-02  0.2966E-02  0.1209E+00  0.1209E+00
      5.785  0.3324E-02  0.3324E-02  0.1212E+00  0.1212E+00
      5.861  0.4824E-02  0.4823E-02  0.1216E+00  0.1216E+00
      5.937  0.7026E-02  0.7026E-02  0.1221E+00  0.1221E+00
      6.012  0.8195E-02  0.8195E-02  0.1227E+00  0.1227E+00
      6.088  0.6977E-02  0.6977E-02  0.1232E+00  0.1232E+00
      6.163  0.4208E-02  0.4208E-02  0.1236E+00  0.1236E+00
      6.239  0.1818E-02  0.1818E-02  0.1237E+00  0.1237E+00
      6.314  0.6795E-03  0.6794E-03  0.1237E+00  0.1237E+00
      6.390  0.5919E-03  0.5918E-03  0.1238E+00  0.1238E+00
      6.465  0.1360E-02  0.1360E-02  0.1239E+00  0.1239E+00
      6.541  0.2867E-02  0.2867E-02  0.1241E+00  0.1241E+00
      6.616  0.4436E-02  0.4436E-02  0.1244E+00  0.1244E+00
      6.692  0.4884E-02  0.4884E-02  0.1248E+00  0.1248E+00
      6.767  0.3848E-02  0.3848E-02  0.1251E+00  0.1251E+00
      6.843  0.2661E-02  0.2661E-02  0.1253E+00  0.1253E+00
      6.918  0.2973E-02  0.2973E-02  0.1255E+00  0.1255E+00
      6.994  0.4758E-02  0.4757E-02  0.1259E+00  0.1259E+00
      7.069  0.6471E-02  0.6471E-02  0.1264E+00  0.1264E+00
      7.145  0.6784E-02  0.6784E-02  0.1269E+00  0.1269E+00
      7.220  0.5575E-02  0.5575E-02  0.1273E+00  0.1273E+00
      7.296  0.3651E-02  0.3651E-02  0.1276E+00  0.1276E+00
      7.371  0.2189E-02  0.2189E-02  0.1278E+00  0.1278E+00
      7.447  0.2164E-02  0.2164E-02  0.1279E+00  0.1279E+00
      7.522  0.3557E-02  0.3557E-02  0.1282E+00  0.1282E+00
      7.598  0.5130E-02  0.5130E-02  0.1286E+00  0.1286E+00
      7.673  0.5472E-02  0.5473E-02  0.1290E+00  0.1290E+00
      7.749  0.4277E-02  0.4277E-02  0.1293E+00  0.1293E+00
      7.825  0.2560E-02  0.2560E-02  0.1295E+00  0.1295E+00
      7.900  0.1842E-02  0.1842E-02  0.1296E+00  0.1296E+00
      7.976  0.2807E-02  0.2807E-02  0.1299E+00  0.1299E+00
      8.051  0.4476E-02  0.4475E-02  0.1302E+00  0.1302E+00
      8.127  0.5150E-02  0.5150E-02  0.1306E+00  0.1306E+00
      8.202  0.4249E-02  0.4249E-02  0.1309E+00  0.1309E+00
      8.278  0.2601E-02  0.2601E-02  0.1311E+00  0.1311E+00
      8.353  0.1236E-02  0.1236E-02  0.1312E+00  0.1312E+00
      8.429  0.7108E-03  0.7109E-03  0.1312E+00  0.1312E+00
      8.504  0.1249E-02  0.1249E-02  0.1313E+00  0.1313E+00
      8.580  0.2617E-02  0.2617E-02  0.1315E+00  0.1315E+00
      8.655  0.4068E-02  0.4068E-02  0.1318E+00  0.1318E+00
      8.731  0.4966E-02  0.4966E-02  0.1322E+00  0.1322E+00
      8.806  0.5420E-02  0.5420E-02  0.1326E+00  0.1326E+00
      8.882  0.6057E-02  0.6057E-02  0.1331E+00  0.1331E+00
      8.957  0.7113E-02  0.7113E-02  0.1336E+00  0.1336E+00
      9.033  0.8050E-02  0.8050E-02  0.1342E+00  0.1342E+00
      9.108  0.8208E-02  0.8208E-02  0.1349E+00  0.1349E+00
      9.184  0.7341E-02  0.7341E-02  0.1354E+00  0.1354E+00
      9.259  0.5441E-02  0.5441E-02  0.1358E+00  0.1358E+00
      9.335  0.2908E-02  0.2908E-02  0.1360E+00  0.1360E+00
      9.410  0.1003E-02  0.1003E-02  0.1361E+00  0.1361E+00
      9.486  0.1112E-02  0.1112E-02  0.1362E+00  0.1362E+00
      9.562  0.3184E-02  0.3184E-02  0.1364E+00  0.1364E+00
      9.637  0.5386E-02  0.5386E-02  0.1368E+00  0.1368E+00
      9.713  0.5903E-02  0.5903E-02  0.1373E+00  0.1373E+00
      9.788  0.4784E-02  0.4785E-02  0.1376E+00  0.1376E+00
      9.864  0.3240E-02  0.3240E-02  0.1379E+00  0.1379E+00
      9.939  0.1943E-02  0.1943E-02  0.1380E+00  0.1380E+00
     10.015  0.1044E-02  0.1044E-02  0.1381E+00  0.1381E+00
     10.090  0.1007E-02  0.1007E-02  0.1382E+00  0.1382E+00
     10.166  0.2457E-02  0.2457E-02  0.1384E+00  0.1384E+00
     10.241  0.5232E-02  0.5231E-02  0.1388E+00  0.1388E+00
     10.317  0.8016E-02  0.8016E-02  0.1394E+00  0.1394E+00
     10.392  0.9605E-02  0.9605E-02  0.1401E+00  0.1401E+00
     10.468  0.1025E-01  0.1025E-01  0.1409E+00  0.1409E+00
     10.543  0.1063E-01  0.1063E-01  0.1417E+00  0.1417E+00
     10.619  0.1008E-01  0.1008E-01  0.1424E+00  0.1424E+00
     10.694  0.7575E-02  0.7575E-02  0.1430E+00  0.1430E+00
     10.770  0.3994E-02  0.3994E-02  0.1433E+00  0.1433E+00
     10.845  0.1360E-02  0.1360E-02  0.1434E+00  0.1434E+00
     10.921  0.4910E-03  0.4910E-03  0.1435E+00  0.1435E+00
     10.996  0.8949E-03  0.8948E-03  0.1435E+00  0.1435E+00
     11.072  0.2229E-02  0.2229E-02  0.1437E+00  0.1437E+00
     11.147  0.4185E-02  0.4185E-02  0.1440E+00  0.1440E+00
     11.223  0.5481E-02  0.5481E-02  0.1444E+00  0.1444E+00
     11.298  0.4817E-02  0.4817E-02  0.1448E+00  0.1448E+00
     11.374  0.2669E-02  0.2670E-02  0.1450E+00  0.1450E+00
     11.450  0.7120E-03  0.7122E-03  0.1450E+00  0.1450E+00
     11.525 -0.1580E-03 -0.1579E-03  0.1450E+00  0.1450E+00
     11.601 -0.2461E-03 -0.2461E-03  0.1450E+00  0.1450E+00
     11.676 -0.1219E-03 -0.1219E-03  0.1450E+00  0.1450E+00
     11.752 -0.3734E-04 -0.3735E-04  0.1450E+00  0.1450E+00
     11.827 -0.7928E-05 -0.7930E-05  0.1450E+00  0.1450E+00
     11.903 -0.1215E-05 -0.1215E-05  0.1450E+00  0.1450E+00
     11.978 -0.1368E-06 -0.1369E-06  0.1450E+00  0.1450E+00
     12.054 -0.1144E-07 -0.1145E-07  0.1450E+00  0.1450E+00
     12.129 -0.7138E-09 -0.7141E-09  0.1450E+00  0.1450E+00
     12.205 -0.3332E-10 -0.3333E-10  0.1450E+00  0.1450E+00
     12.280 -0.1165E-11 -0.1166E-11  0.1450E+00  0.1450E+00
     12.356 -0.3056E-13 -0.3058E-13  0.1450E+00  0.1450E+00
     12.431 -0.6011E-15 -0.6019E-15  0.1450E+00  0.1450E+00
     12.507 -0.8984E-17 -0.8984E-17  0.1450E+00  0.1450E+00
     12.582  0.0000E+00  0.0000E+00  0.1450E+00  0.1450E+00
     12.658  0.0000E+00  0.0000E+00  0.1450E+00  0.1450E+00
     12.733  0.0000E+00  0.0000E+00  0.1450E+00  0.1450E+00
     12.809  0.0000E+00  0.0000E+00  0.1450E+00  0.1450E+00
     12.884  0.0000E+00  0.0000E+00  0.1450E+00  0.1450E+00
     12.960  0.0000E+00  0.0000E+00  0.1450E+00  0.1450E+00
     13.035  0.0000E+00  0.0000E+00  0.1450E+00  0.1450E+00
     13.111  0.0000E+00  0.0000E+00  0.1450E+00  0.1450E+00
     13.186  0.0000E+00  0.0000E+00  0.1450E+00  0.1450E+00
     13.262  0.0000E+00  0.0000E+00  0.1450E+00  0.1450E+00
