   18   18  800    2
  0.2028145E+02  0.3630000E-09  0.3630000E-09  0.2770500E-08  0.5000000E-15
  1.000000000000000E-004
  CAR 
 unknown system                          
    178      4    116
 
  0.0000000E+00  0.0000000E+00  0.0000000E+00  0.1111111E+00
      1         -7.394174       -7.394174   1.000000   1.000000
      2         -6.875656       -6.875656   1.000000   1.000000
      3         -6.052922       -6.052922   1.000000   1.000000
      4         -5.045138       -5.045138   1.000000   1.000000
      5         -4.714184       -4.714184   1.000000   1.000000
      6         -3.801201       -3.801201   1.000000   1.000000
      7         -3.105579       -3.105579   1.000000   1.000000
      8         -2.977059       -2.977059   1.000000   1.000000
      9         -2.973294       -2.973294   1.000000   1.000000
     10         -2.942431       -2.942431   1.000000   1.000000
     11         -2.917836       -2.917836   1.000000   1.000000
     12         -2.755902       -2.755902   1.000000   1.000000
     13         -2.751148       -2.751148   1.000000   1.000000
     14         -2.531807       -2.531807   1.000000   1.000000
     15         -2.500016       -2.500016   1.000000   1.000000
     16         -2.499954       -2.499954   1.000000   1.000000
     17         -2.426694       -2.426694   1.000000   1.000000
     18         -2.426175       -2.426175   1.000000   1.000000
     19         -2.406979       -2.406979   1.000000   1.000000
     20         -2.364298       -2.364298   1.000000   1.000000
     21         -2.364200       -2.364200   1.000000   1.000000
     22         -2.171667       -2.171667   1.000000   1.000000
     23         -2.107396       -2.107396   1.000000   1.000000
     24         -2.107213       -2.107213   1.000000   1.000000
     25         -2.032772       -2.032772   1.000000   1.000000
     26         -2.001260       -2.001260   1.000000   1.000000
     27         -1.858145       -1.858145   1.000000   1.000000
     28         -1.704204       -1.704204   1.000000   1.000000
     29         -1.703992       -1.703992   1.000000   1.000000
     30         -1.559320       -1.559320   1.000000   1.000000
     31         -1.305040       -1.305040   1.000000   1.000000
     32         -1.214826       -1.214826   1.000000   1.000000
     33         -1.214528       -1.214528   1.000000   1.000000
     34         -1.158326       -1.158326   1.000000   1.000000
     35         -1.126518       -1.126518   1.000000   1.000000
     36         -1.126460       -1.126460   1.000000   1.000000
     37         -1.015026       -1.015026   1.000000   1.000000
     38         -1.014935       -1.014935   1.000000   1.000000
     39         -0.998608       -0.998608   1.000000   1.000000
     40         -0.803487       -0.803487   1.000000   1.000000
     41         -0.803275       -0.803275   1.000000   1.000000
     42         -0.648403       -0.648403   1.000000   1.000000
     43         -0.647908       -0.647908   1.000000   1.000000
     44         -0.522494       -0.522494   1.000000   1.000000
     45         -0.491747       -0.491747   1.000000   1.000000
     46         -0.491574       -0.491574   1.000000   1.000000
     47         -0.481598       -0.481598   1.000000   1.000000
     48         -0.377828       -0.377828   1.000000   1.000000
     49         -0.331127       -0.331127   1.000000   1.000000
     50         -0.304133       -0.304133   1.000000   1.000000
     51         -0.289771       -0.289771   1.000000   1.000000
     52         -0.178686       -0.178686   1.000000   1.000000
     53         -0.176220       -0.176220   1.000000   1.000000
     54         -0.171695       -0.171695   1.000000   1.000000
     55         -0.166476       -0.166476   1.000000   1.000000
     56         -0.164889       -0.164889   1.000000   1.000000
     57         -0.164626       -0.164626   1.000000   1.000000
     58         -0.101395       -0.101395   1.000000   1.000000
     59         -0.100905       -0.100905   1.000000   1.000000
     60         -0.020390       -0.020390   1.000000   1.000000
     61         -0.012293       -0.012293   1.000000   1.000000
     62         -0.005456       -0.005456   1.000000   1.000000
     63          0.126542        0.126542   1.000000   1.000000
     64          0.127379        0.127379   1.000000   1.000000
     65          0.127758        0.127758   1.000000   1.000000
     66          0.167584        0.167584   1.000000   1.000000
     67          0.181669        0.181669   1.000000   1.000000
     68          0.184981        0.184981   1.000000   1.000000
     69          0.264124        0.264124   1.000000   1.000000
     70          0.301341        0.301341   1.000000   1.000000
     71          0.303493        0.303493   1.000000   1.000000
     72          0.306747        0.306747   1.000000   1.000000
     73          0.314706        0.314706   1.000000   1.000000
     74          0.314964        0.314964   1.000000   1.000000
     75          0.315344        0.315344   1.000000   1.000000
     76          0.319710        0.319710   1.000000   1.000000
     77          0.336264        0.336264   1.000000   1.000000
     78          0.381718        0.381718   1.000000   1.000000
     79          0.381902        0.381902   1.000000   1.000000
     80          0.421857        0.421857   1.000000   1.000000
     81          0.425101        0.425101   1.000000   1.000000
     82          0.464804        0.464804   1.000000   1.000000
     83          0.464865        0.464865   1.000000   1.000000
     84          0.473067        0.473067   1.000000   1.000000
     85          0.473744        0.473744   1.000000   1.000000
     86          0.603714        0.603714   1.000000   1.000000
     87          0.634266        0.634266   1.000000   1.000000
     88          1.502134        1.502134   1.000998   1.000998
     89          2.826377        2.826377  -0.000000  -0.000000
     90          3.565869        3.565869  -0.000000  -0.000000
     91          3.566362        3.566362  -0.000000  -0.000000
     92          3.780825        3.780825  -0.000000  -0.000000
     93          4.520206        4.520206  -0.000000  -0.000000
     94          4.521813        4.521813  -0.000000  -0.000000
     95          5.780387        5.780387  -0.000000  -0.000000
     96          5.784469        5.784469  -0.000000  -0.000000
     97          5.905770        5.905794  -0.000000  -0.000000
     98          6.423520        6.423536  -0.000000  -0.000000
     99          7.280981        7.280981  -0.000000  -0.000000
    100          7.292438        7.292438  -0.000000  -0.000000
    101          7.635887        7.635925   0.000000   0.000000
    102          8.873414        8.873414   0.000000   0.000000
    103          8.923632        8.923632   0.000000   0.000000
    104          9.006689        9.006698   0.000000   0.000000
    105          9.032113        9.032113   0.000000   0.000000
    106          9.060395        9.060406   0.000000   0.000000
    107          9.215482        9.215482   0.000000   0.000000
    108          9.229497        9.229499   0.000000   0.000000
    109          9.623254        9.623254   0.000000   0.000000
    110          9.630530        9.630531   0.000000   0.000000
    111          9.985017        9.985022   0.000000   0.000000
    112         10.124604       10.124609   0.000000   0.000000
    113         10.266882       10.266882   0.000000   0.000000
    114         10.313099       10.313100   0.000000   0.000000
    115         10.679947       10.679947   0.000000   0.000000
    116         10.705665       10.705674   0.000000   0.000000
 
  0.3333333E+00  0.0000000E+00  0.0000000E+00  0.2222222E+00
      1         -6.103432       -6.103432   1.000000   1.000000
      2         -5.621170       -5.621170   1.000000   1.000000
      3         -4.886584       -4.886584   1.000000   1.000000
      4         -4.572997       -4.572997   1.000000   1.000000
      5         -3.865005       -3.865005   1.000000   1.000000
      6         -3.383655       -3.383655   1.000000   1.000000
      7         -3.049263       -3.049263   1.000000   1.000000
      8         -2.947641       -2.947641   1.000000   1.000000
      9         -2.590344       -2.590344   1.000000   1.000000
     10         -2.487220       -2.487220   1.000000   1.000000
     11         -2.463461       -2.463461   1.000000   1.000000
     12         -2.323278       -2.323278   1.000000   1.000000
     13         -2.306370       -2.306370   1.000000   1.000000
     14         -2.278912       -2.278912   1.000000   1.000000
     15         -2.205994       -2.205994   1.000000   1.000000
     16         -2.183982       -2.183982   1.000000   1.000000
     17         -2.156439       -2.156439   1.000000   1.000000
     18         -2.148342       -2.148342   1.000000   1.000000
     19         -2.141907       -2.141907   1.000000   1.000000
     20         -2.089380       -2.089380   1.000000   1.000000
     21         -2.084763       -2.084763   1.000000   1.000000
     22         -2.077635       -2.077635   1.000000   1.000000
     23         -1.956499       -1.956499   1.000000   1.000000
     24         -1.920966       -1.920966   1.000000   1.000000
     25         -1.912465       -1.912465   1.000000   1.000000
     26         -1.728861       -1.728861   1.000000   1.000000
     27         -1.692253       -1.692253   1.000000   1.000000
     28         -1.649202       -1.649202   1.000000   1.000000
     29         -1.597668       -1.597668   1.000000   1.000000
     30         -1.559156       -1.559156   1.000000   1.000000
     31         -1.532260       -1.532260   1.000000   1.000000
     32         -1.522658       -1.522658   1.000000   1.000000
     33         -1.414410       -1.414410   1.000000   1.000000
     34         -1.391785       -1.391785   1.000000   1.000000
     35         -1.281707       -1.281707   1.000000   1.000000
     36         -1.218013       -1.218013   1.000000   1.000000
     37         -1.169680       -1.169680   1.000000   1.000000
     38         -1.154693       -1.154693   1.000000   1.000000
     39         -1.065082       -1.065082   1.000000   1.000000
     40         -1.033594       -1.033594   1.000000   1.000000
     41         -1.011930       -1.011930   1.000000   1.000000
     42         -0.974774       -0.974774   1.000000   1.000000
     43         -0.915233       -0.915233   1.000000   1.000000
     44         -0.899210       -0.899210   1.000000   1.000000
     45         -0.876136       -0.876136   1.000000   1.000000
     46         -0.759223       -0.759223   1.000000   1.000000
     47         -0.706324       -0.706324   1.000000   1.000000
     48         -0.665724       -0.665724   1.000000   1.000000
     49         -0.659253       -0.659253   1.000000   1.000000
     50         -0.652684       -0.652684   1.000000   1.000000
     51         -0.480795       -0.480795   1.000000   1.000000
     52         -0.480066       -0.480066   1.000000   1.000000
     53         -0.450530       -0.450530   1.000000   1.000000
     54         -0.446325       -0.446325   1.000000   1.000000
     55         -0.398145       -0.398145   1.000000   1.000000
     56         -0.343122       -0.343122   1.000000   1.000000
     57         -0.340463       -0.340463   1.000000   1.000000
     58         -0.298738       -0.298738   1.000000   1.000000
     59         -0.270401       -0.270401   1.000000   1.000000
     60         -0.262688       -0.262688   1.000000   1.000000
     61         -0.218187       -0.218187   1.000000   1.000000
     62         -0.213543       -0.213543   1.000000   1.000000
     63         -0.173302       -0.173302   1.000000   1.000000
     64         -0.148846       -0.148846   1.000000   1.000000
     65         -0.109210       -0.109210   1.000000   1.000000
     66         -0.091423       -0.091423   1.000000   1.000000
     67         -0.062971       -0.062971   1.000000   1.000000
     68         -0.058555       -0.058555   1.000000   1.000000
     69         -0.050051       -0.050051   1.000000   1.000000
     70         -0.032834       -0.032834   1.000000   1.000000
     71         -0.030431       -0.030431   1.000000   1.000000
     72         -0.029441       -0.029441   1.000000   1.000000
     73         -0.015106       -0.015106   1.000000   1.000000
     74          0.048167        0.048167   1.000000   1.000000
     75          0.049334        0.049334   1.000000   1.000000
     76          0.072837        0.072837   1.000000   1.000000
     77          0.104453        0.104453   1.000000   1.000000
     78          0.116607        0.116607   1.000000   1.000000
     79          0.162973        0.162973   1.000000   1.000000
     80          0.192988        0.192988   1.000000   1.000000
     81          0.301131        0.301131   1.000000   1.000000
     82          0.316948        0.316948   1.000000   1.000000
     83          0.328929        0.328929   1.000000   1.000000
     84          0.451632        0.451632   1.000000   1.000000
     85          0.469985        0.469985   1.000000   1.000000
     86          0.486879        0.486879   1.000000   1.000000
     87          0.956142        0.956142   1.000000   1.000000
     88          0.976238        0.976238   1.000000   1.000000
     89          1.731872        1.731872   1.032327   1.032327
     90          1.890573        1.890573   0.915891   0.915891
     91          2.663339        2.663339  -0.000019  -0.000019
     92          3.257346        3.257346  -0.000000  -0.000000
     93          3.818539        3.818539  -0.000000  -0.000000
     94          4.674521        4.674521  -0.000000  -0.000000
     95          5.227837        5.227837  -0.000000  -0.000000
     96          5.892504        5.892504  -0.000000  -0.000000
     97          6.006835        6.006835  -0.000000  -0.000000
     98          6.537261        6.537264  -0.000000  -0.000000
     99          6.688026        6.688026  -0.000000  -0.000000
    100          7.116618        7.116627  -0.000000  -0.000000
    101          7.603908        7.603932   0.000000   0.000000
    102          7.726777        7.726777   0.000000   0.000000
    103          8.287232        8.287245   0.000000   0.000000
    104          8.843183        8.843197   0.000000   0.000000
    105          9.036740        9.036740   0.000000   0.000000
    106          9.217747        9.217766   0.000000   0.000000
    107          9.612331        9.612331   0.000000   0.000000
    108          9.834135        9.834135   0.000000   0.000000
    109         10.250031       10.250032   0.000000   0.000000
    110         10.390455       10.390456   0.000000   0.000000
    111         10.457134       10.457135   0.000000   0.000000
    112         10.593222       10.593222   0.000000   0.000000
    113         10.604519       10.604537   0.000000   0.000000
    114         10.939461       10.939462   0.000000   0.000000
    115         11.186635       11.186636   0.000000   0.000000
    116         11.200016       11.200027   0.000000   0.000000
 
  0.0000000E+00  0.3333333E+00  0.0000000E+00  0.2222222E+00
      1         -6.103387       -6.103387   1.000000   1.000000
      2         -5.620816       -5.620816   1.000000   1.000000
      3         -4.879604       -4.879604   1.000000   1.000000
      4         -4.497078       -4.497078   1.000000   1.000000
      5         -3.862742       -3.862742   1.000000   1.000000
      6         -3.383670       -3.383670   1.000000   1.000000
      7         -3.049399       -3.049399   1.000000   1.000000
      8         -2.947399       -2.947399   1.000000   1.000000
      9         -2.590512       -2.590512   1.000000   1.000000
     10         -2.487204       -2.487204   1.000000   1.000000
     11         -2.463463       -2.463463   1.000000   1.000000
     12         -2.323427       -2.323427   1.000000   1.000000
     13         -2.306375       -2.306375   1.000000   1.000000
     14         -2.278910       -2.278910   1.000000   1.000000
     15         -2.206196       -2.206196   1.000000   1.000000
     16         -2.183924       -2.183924   1.000000   1.000000
     17         -2.156436       -2.156436   1.000000   1.000000
     18         -2.148835       -2.148835   1.000000   1.000000
     19         -2.141514       -2.141514   1.000000   1.000000
     20         -2.089299       -2.089299   1.000000   1.000000
     21         -2.084739       -2.084739   1.000000   1.000000
     22         -2.077621       -2.077621   1.000000   1.000000
     23         -1.956458       -1.956458   1.000000   1.000000
     24         -1.920980       -1.920980   1.000000   1.000000
     25         -1.912290       -1.912290   1.000000   1.000000
     26         -1.728833       -1.728833   1.000000   1.000000
     27         -1.692218       -1.692218   1.000000   1.000000
     28         -1.649054       -1.649054   1.000000   1.000000
     29         -1.597612       -1.597612   1.000000   1.000000
     30         -1.559367       -1.559367   1.000000   1.000000
     31         -1.532236       -1.532236   1.000000   1.000000
     32         -1.522573       -1.522573   1.000000   1.000000
     33         -1.414903       -1.414903   1.000000   1.000000
     34         -1.391653       -1.391653   1.000000   1.000000
     35         -1.281801       -1.281801   1.000000   1.000000
     36         -1.217988       -1.217988   1.000000   1.000000
     37         -1.169581       -1.169581   1.000000   1.000000
     38         -1.155431       -1.155431   1.000000   1.000000
     39         -1.065219       -1.065219   1.000000   1.000000
     40         -1.033655       -1.033655   1.000000   1.000000
     41         -1.011902       -1.011902   1.000000   1.000000
     42         -0.974826       -0.974826   1.000000   1.000000
     43         -0.915250       -0.915250   1.000000   1.000000
     44         -0.898970       -0.898970   1.000000   1.000000
     45         -0.876122       -0.876122   1.000000   1.000000
     46         -0.760213       -0.760213   1.000000   1.000000
     47         -0.706733       -0.706733   1.000000   1.000000
     48         -0.665606       -0.665606   1.000000   1.000000
     49         -0.659889       -0.659889   1.000000   1.000000
     50         -0.652531       -0.652531   1.000000   1.000000
     51         -0.482185       -0.482185   1.000000   1.000000
     52         -0.479080       -0.479080   1.000000   1.000000
     53         -0.451144       -0.451144   1.000000   1.000000
     54         -0.446187       -0.446187   1.000000   1.000000
     55         -0.398434       -0.398434   1.000000   1.000000
     56         -0.344582       -0.344582   1.000000   1.000000
     57         -0.339095       -0.339095   1.000000   1.000000
     58         -0.297769       -0.297769   1.000000   1.000000
     59         -0.270645       -0.270645   1.000000   1.000000
     60         -0.262676       -0.262676   1.000000   1.000000
     61         -0.218917       -0.218917   1.000000   1.000000
     62         -0.213530       -0.213530   1.000000   1.000000
     63         -0.173093       -0.173093   1.000000   1.000000
     64         -0.149795       -0.149795   1.000000   1.000000
     65         -0.109496       -0.109496   1.000000   1.000000
     66         -0.091721       -0.091721   1.000000   1.000000
     67         -0.063063       -0.063063   1.000000   1.000000
     68         -0.058912       -0.058912   1.000000   1.000000
     69         -0.050314       -0.050314   1.000000   1.000000
     70         -0.032993       -0.032993   1.000000   1.000000
     71         -0.030485       -0.030485   1.000000   1.000000
     72         -0.029437       -0.029437   1.000000   1.000000
     73         -0.015393       -0.015393   1.000000   1.000000
     74          0.048352        0.048352   1.000000   1.000000
     75          0.049192        0.049192   1.000000   1.000000
     76          0.072877        0.072877   1.000000   1.000000
     77          0.104888        0.104888   1.000000   1.000000
     78          0.116501        0.116501   1.000000   1.000000
     79          0.162670        0.162670   1.000000   1.000000
     80          0.193120        0.193120   1.000000   1.000000
     81          0.301502        0.301502   1.000000   1.000000
     82          0.315779        0.315779   1.000000   1.000000
     83          0.328969        0.328969   1.000000   1.000000
     84          0.451211        0.451211   1.000000   1.000000
     85          0.470157        0.470157   1.000000   1.000000
     86          0.486875        0.486875   1.000000   1.000000
     87          0.953811        0.953811   1.000000   1.000000
     88          0.975803        0.975803   1.000000   1.000000
     89          1.728546        1.728546   1.031734   1.031734
     90          1.887331        1.887331   0.923181   0.923181
     91          2.657008        2.657008  -0.000023  -0.000023
     92          3.241229        3.241229  -0.000000  -0.000000
     93          3.801696        3.801696  -0.000000  -0.000000
     94          4.602747        4.602747  -0.000000  -0.000000
     95          5.150650        5.150650  -0.000000  -0.000000
     96          5.723949        5.723949  -0.000000  -0.000000
     97          6.007299        6.007299  -0.000000  -0.000000
     98          6.209090        6.209091  -0.000000  -0.000000
     99          6.690063        6.690063  -0.000000  -0.000000
    100          7.064058        7.064062  -0.000000  -0.000000
    101          7.489066        7.489097   0.000000   0.000000
    102          7.733129        7.733129   0.000000   0.000000
    103          8.009577        8.009588   0.000000   0.000000
    104          8.751142        8.751144   0.000000   0.000000
    105          9.059515        9.059547   0.000000   0.000000
    106          9.061594        9.061594   0.000000   0.000000
    107          9.611609        9.611609   0.000000   0.000000
    108          9.830032        9.830033   0.000000   0.000000
    109         10.307337       10.307338   0.000000   0.000000
    110         10.456735       10.456737   0.000000   0.000000
    111         10.564099       10.564099   0.000000   0.000000
    112         10.593368       10.593368   0.000000   0.000000
    113         10.601412       10.601432   0.000000   0.000000
    114         11.172548       11.172548   0.000000   0.000000
    115         11.198348       11.198369   0.000000   0.000000
    116         11.262007       11.262020   0.000000   0.000000
 
  0.3333333E+00  0.3333333E+00  0.0000000E+00  0.4444444E+00
      1         -4.942737       -4.942737   1.000000   1.000000
      2         -4.567273       -4.567273   1.000000   1.000000
      3         -4.326270       -4.326270   1.000000   1.000000
      4         -3.993837       -3.993837   1.000000   1.000000
      5         -3.408545       -3.408545   1.000000   1.000000
      6         -2.912624       -2.912624   1.000000   1.000000
      7         -2.822442       -2.822442   1.000000   1.000000
      8         -2.819960       -2.819960   1.000000   1.000000
      9         -2.772848       -2.772848   1.000000   1.000000
     10         -2.771544       -2.771544   1.000000   1.000000
     11         -2.727962       -2.727962   1.000000   1.000000
     12         -2.711486       -2.711486   1.000000   1.000000
     13         -2.523722       -2.523722   1.000000   1.000000
     14         -2.333063       -2.333063   1.000000   1.000000
     15         -2.309961       -2.309961   1.000000   1.000000
     16         -2.264050       -2.264050   1.000000   1.000000
     17         -2.169985       -2.169985   1.000000   1.000000
     18         -1.973966       -1.973966   1.000000   1.000000
     19         -1.798774       -1.798774   1.000000   1.000000
     20         -1.798171       -1.798171   1.000000   1.000000
     21         -1.770921       -1.770921   1.000000   1.000000
     22         -1.658719       -1.658719   1.000000   1.000000
     23         -1.644458       -1.644458   1.000000   1.000000
     24         -1.525427       -1.525427   1.000000   1.000000
     25         -1.524231       -1.524231   1.000000   1.000000
     26         -1.467353       -1.467353   1.000000   1.000000
     27         -1.464600       -1.464600   1.000000   1.000000
     28         -1.342344       -1.342344   1.000000   1.000000
     29         -1.340617       -1.340617   1.000000   1.000000
     30         -1.300421       -1.300421   1.000000   1.000000
     31         -1.294458       -1.294458   1.000000   1.000000
     32         -1.285885       -1.285885   1.000000   1.000000
     33         -1.188463       -1.188463   1.000000   1.000000
     34         -1.183757       -1.183757   1.000000   1.000000
     35         -1.141347       -1.141347   1.000000   1.000000
     36         -1.093761       -1.093761   1.000000   1.000000
     37         -1.091557       -1.091557   1.000000   1.000000
     38         -1.087172       -1.087172   1.000000   1.000000
     39         -1.072542       -1.072542   1.000000   1.000000
     40         -1.023143       -1.023143   1.000000   1.000000
     41         -0.972213       -0.972213   1.000000   1.000000
     42         -0.965438       -0.965438   1.000000   1.000000
     43         -0.960926       -0.960926   1.000000   1.000000
     44         -0.951966       -0.951966   1.000000   1.000000
     45         -0.948678       -0.948678   1.000000   1.000000
     46         -0.930665       -0.930665   1.000000   1.000000
     47         -0.875655       -0.875655   1.000000   1.000000
     48         -0.862814       -0.862814   1.000000   1.000000
     49         -0.852776       -0.852776   1.000000   1.000000
     50         -0.772006       -0.772006   1.000000   1.000000
     51         -0.758595       -0.758595   1.000000   1.000000
     52         -0.751903       -0.751903   1.000000   1.000000
     53         -0.739689       -0.739689   1.000000   1.000000
     54         -0.718686       -0.718686   1.000000   1.000000
     55         -0.704525       -0.704525   1.000000   1.000000
     56         -0.600057       -0.600057   1.000000   1.000000
     57         -0.599109       -0.599109   1.000000   1.000000
     58         -0.561142       -0.561142   1.000000   1.000000
     59         -0.513272       -0.513272   1.000000   1.000000
     60         -0.474840       -0.474840   1.000000   1.000000
     61         -0.450777       -0.450777   1.000000   1.000000
     62         -0.405461       -0.405461   1.000000   1.000000
     63         -0.400926       -0.400926   1.000000   1.000000
     64         -0.249598       -0.249598   1.000000   1.000000
     65         -0.140537       -0.140537   1.000000   1.000000
     66         -0.129747       -0.129747   1.000000   1.000000
     67         -0.099354       -0.099354   1.000000   1.000000
     68          0.012965        0.012965   1.000000   1.000000
     69          0.028678        0.028678   1.000000   1.000000
     70          0.043315        0.043315   1.000000   1.000000
     71          0.087611        0.087611   1.000000   1.000000
     72          0.110889        0.110889   1.000000   1.000000
     73          0.201282        0.201282   1.000000   1.000000
     74          0.203760        0.203760   1.000000   1.000000
     75          0.207400        0.207400   1.000000   1.000000
     76          0.221123        0.221123   1.000000   1.000000
     77          0.237794        0.237794   1.000000   1.000000
     78          0.244344        0.244344   1.000000   1.000000
     79          0.297912        0.297912   1.000000   1.000000
     80          0.324510        0.324510   1.000000   1.000000
     81          0.326065        0.326065   1.000000   1.000000
     82          0.339413        0.339413   1.000000   1.000000
     83          0.344132        0.344132   1.000000   1.000000
     84          0.375045        0.375045   1.000000   1.000000
     85          0.387737        0.387737   1.000000   1.000000
     86          1.100096        1.100096   1.000000   1.000000
     87          1.870334        1.870334   0.957085   0.957085
     88          1.871736        1.871736   0.954560   0.954560
     89          2.086049        2.086049   0.198445   0.198445
     90          2.086725        2.086725   0.196230   0.196230
     91          2.460047        2.460047  -0.003205  -0.003205
     92          2.469396        2.469396  -0.002665  -0.002665
     93          2.477844        2.477844  -0.002246  -0.002246
     94          2.879242        2.879242  -0.000000  -0.000000
     95          2.918963        2.918963  -0.000000  -0.000000
     96          3.986718        3.986718  -0.000000  -0.000000
     97          4.959015        4.959015  -0.000000  -0.000000
     98          5.418924        5.418924  -0.000000  -0.000000
     99          5.574091        5.574091  -0.000000  -0.000000
    100          5.977215        5.977215  -0.000000  -0.000000
    101          6.008615        6.008615  -0.000000  -0.000000
    102          6.639229        6.639229  -0.000000  -0.000000
    103          6.951360        6.951360  -0.000000  -0.000000
    104          7.049132        7.049132  -0.000000  -0.000000
    105          7.193328        7.193329  -0.000000  -0.000000
    106          7.576089        7.576090   0.000000   0.000000
    107          8.039616        8.039618   0.000000   0.000000
    108          8.127935        8.127938   0.000000   0.000000
    109          8.582913        8.582916   0.000000   0.000000
    110          8.708145        8.708163   0.000000   0.000000
    111          8.936703        8.936714   0.000000   0.000000
    112          9.199884        9.199885   0.000000   0.000000
    113          9.647376        9.647394   0.000000   0.000000