       N       E                     dE             d eps       ncg     rms          rms(c)
DAV:   1     0.166948596133E+04    0.16695E+04   -0.64606E+04  1856   0.188E+03
DAV:   2     0.198341468250E+03   -0.14711E+04   -0.14097E+04  1856   0.429E+02
DAV:   3    -0.534538321386E+02   -0.25180E+03   -0.22995E+03  1868   0.218E+02
DAV:   4    -0.692093081776E+02   -0.15755E+02   -0.15389E+02  2104   0.758E+01
DAV:   5    -0.695619728700E+02   -0.35266E+00   -0.35199E+00  2156   0.105E+01    0.368E+01
DAV:   6    -0.574082955412E+02    0.12154E+02   -0.16108E+02  2128   0.124E+02    0.188E+01
DAV:   7    -0.515575847690E+02    0.58507E+01   -0.39365E+01  2124   0.814E+01    0.979E+00
DAV:   8    -0.532119545839E+02   -0.16544E+01   -0.23539E+01  2384   0.884E+01    0.129E+01
DAV:   9    -0.505662993112E+02    0.26457E+01   -0.14235E+01  2608   0.604E+01    0.882E+00
DAV:  10    -0.504150471957E+02    0.15125E+00   -0.47793E+00  3216   0.430E+01    0.808E+00
DAV:  11    -0.515440249537E+02   -0.11290E+01   -0.50431E+00  2552   0.471E+01    0.791E+00
DAV:  12    -0.520496971808E+02   -0.50567E+00   -0.31870E+00  2252   0.409E+01    0.610E+00
DAV:  13    -0.536839971206E+02   -0.16343E+01   -0.18185E+00  2600   0.240E+01    0.557E+00
DAV:  14    -0.545427211467E+02   -0.85872E+00   -0.81040E-01  2368   0.198E+01    0.473E+00
DAV:  15    -0.584758689931E+02   -0.39331E+01   -0.45353E+00  2268   0.290E+01    0.383E+00
DAV:  16    -0.598448466178E+02   -0.13690E+01   -0.23034E+00  2504   0.221E+01    0.244E+00
DAV:  17    -0.600588366700E+02   -0.21399E+00   -0.71744E-01  2576   0.128E+01    0.144E+00
DAV:  18    -0.604809544829E+02   -0.42212E+00   -0.34598E-01  2324   0.824E+00    0.108E+00
DAV:  19    -0.607855518454E+02   -0.30460E+00   -0.25421E-01  2456   0.721E+00    0.970E-01
DAV:  20    -0.611471753117E+02   -0.36162E+00   -0.19020E-01  2240   0.412E+00    0.836E-01
DAV:  21    -0.614058665172E+02   -0.25869E+00   -0.87883E-02  2368   0.389E+00    0.649E-01
DAV:  22    -0.617146888823E+02   -0.30882E+00   -0.10553E-01  2528   0.281E+00    0.524E-01
DAV:  23    -0.619878647355E+02   -0.27318E+00   -0.69404E-02  2416   0.295E+00    0.509E-01
DAV:  24    -0.622061164898E+02   -0.21825E+00   -0.45853E-02  2432   0.326E+00    0.458E-01
DAV:  25    -0.624129791415E+02   -0.20686E+00   -0.25731E-02  2348   0.173E+00    0.313E-01
DAV:  26    -0.625260179626E+02   -0.11304E+00   -0.77759E-03  2264   0.169E+00    0.206E-01
DAV:  27    -0.626072723760E+02   -0.81254E-01   -0.57671E-03  2240   0.116E+00    0.118E-01
DAV:  28    -0.626538637567E+02   -0.46591E-01   -0.18967E-03  2104   0.734E-01    0.132E-01
DAV:  29    -0.626694588472E+02   -0.15595E-01   -0.12760E-03  2016   0.639E-01    0.599E-02
DAV:  30    -0.626717835292E+02   -0.23247E-02   -0.26225E-04  1352   0.284E-01    0.494E-02
DAV:  31    -0.626729264696E+02   -0.11429E-02   -0.22014E-04  1272   0.276E-01    0.525E-02
DAV:  32    -0.626731549927E+02   -0.22852E-03   -0.78277E-05  1272   0.141E-01    0.332E-02
DAV:  33    -0.626728493415E+02    0.30565E-03   -0.64968E-05  1260   0.118E-01    0.196E-02
DAV:  34    -0.626726487312E+02    0.20061E-03   -0.43080E-05  1288   0.102E-01    0.202E-02
DAV:  35    -0.626725819134E+02    0.66818E-04   -0.22332E-05  1240   0.796E-02
   1 F= -.69616858E+02 E0= -.69604000E+02  d E =-.696169E+02  mag=     0.0036
       N       E                     dE             d eps       ncg     rms          rms(c)
DAV:   1    -0.627234516617E+02   -0.50803E-01   -0.27115E+01  1992   0.149E+01    0.770E-01
DAV:   2    -0.627932856468E+02   -0.69834E-01   -0.63599E-01  2864   0.817E+00    0.126E+00
DAV:   3    -0.628024791572E+02   -0.91935E-02   -0.21694E-01  2384   0.109E+01    0.130E+00
DAV:   4    -0.627725314060E+02    0.29948E-01   -0.95069E-02  2360   0.757E+00    0.466E-01
DAV:   5    -0.627744812601E+02   -0.19499E-02   -0.22116E-02  2688   0.445E+00    0.520E-01
DAV:   6    -0.627710343166E+02    0.34469E-02   -0.21497E-02  2408   0.477E+00    0.333E-01
DAV:   7    -0.627697172081E+02    0.13171E-02   -0.96846E-03  2748   0.252E+00    0.132E-01
DAV:   8    -0.627698033182E+02   -0.86110E-04   -0.32452E-03  2240   0.127E+00    0.798E-02
DAV:   9    -0.627698864324E+02   -0.83114E-04   -0.12911E-03  1884   0.558E-01
   2 F= -.69728736E+02 E0= -.69715348E+02  d E =-.111878E+00  mag=     0.0026
       N       E                     dE             d eps       ncg     rms          rms(c)
DAV:   1    -0.627687518042E+02    0.10515E-02   -0.60255E-02  1968   0.761E-01    0.373E-02
DAV:   2    -0.627691384581E+02   -0.38665E-03   -0.14138E-03  1880   0.665E-01    0.121E-01
DAV:   3    -0.627689290084E+02    0.20945E-03   -0.10500E-03  1484   0.694E-01    0.331E-02
DAV:   4    -0.627689764494E+02   -0.47441E-04   -0.20560E-04  1176   0.330E-01
   3 F= -.69729136E+02 E0= -.69715794E+02  d E =-.112278E+00  mag=     0.0023
       N       E                     dE             d eps       ncg     rms          rms(c)
DAV:   1    -0.628072386909E+02   -0.38310E-01   -0.23704E+01  1924   0.142E+01    0.591E-01
DAV:   2    -0.628736617966E+02   -0.66423E-01   -0.61512E-01  2712   0.673E+00    0.107E+00
DAV:   3    -0.628727171936E+02    0.94460E-03   -0.12570E-01  2376   0.793E+00    0.914E-01
DAV:   4    -0.628601217416E+02    0.12595E-01   -0.42975E-02  2412   0.478E+00    0.418E-01
DAV:   5    -0.628601265893E+02   -0.48477E-05   -0.11060E-02  2656   0.257E+00    0.394E-01
DAV:   6    -0.628624440701E+02   -0.23175E-02   -0.17327E-02  2240   0.459E+00    0.490E-01
DAV:   7    -0.628579610056E+02    0.44831E-02   -0.10389E-02  2852   0.322E+00    0.903E-02
DAV:   8    -0.628581269778E+02   -0.16597E-03   -0.26551E-03  2588   0.103E+00    0.850E-02
DAV:   9    -0.628581042504E+02    0.22727E-04   -0.10777E-03  1860   0.600E-01
   4 F= -.69819437E+02 E0= -.69805845E+02  d E =-.903009E-01  mag=     0.0016
       N       E                     dE             d eps       ncg     rms          rms(c)
DAV:   1    -0.628560862109E+02    0.20408E-02   -0.67819E+00  1892   0.758E+00    0.314E-01
DAV:   2    -0.628765520120E+02   -0.20466E-01   -0.16177E-01  2800   0.388E+00    0.685E-01
DAV:   3    -0.628715668331E+02    0.49852E-02   -0.42737E-02  2356   0.452E+00    0.393E-01
DAV:   4    -0.628698445828E+02    0.17223E-02   -0.84536E-03  2176   0.202E+00    0.210E-01
DAV:   5    -0.628697111238E+02    0.13346E-03   -0.35860E-03  2160   0.132E+00    0.176E-01
DAV:   6    -0.628695632547E+02    0.14787E-03   -0.23418E-03  2212   0.108E+00    0.971E-02
DAV:   7    -0.628695651034E+02   -0.18486E-05   -0.10868E-03  2008   0.966E-01
   5 F= -.69834163E+02 E0= -.69819868E+02  d E =-.105027E+00  mag=     0.0012
       N       E                     dE             d eps       ncg     rms          rms(c)
DAV:   1    -0.628806042704E+02   -0.11041E-01   -0.71615E+00  1928   0.796E+00    0.315E-01
DAV:   2    -0.628958150696E+02   -0.15211E-01   -0.15237E-01  2816   0.385E+00    0.430E-01
DAV:   3    -0.628978015195E+02   -0.19864E-02   -0.26461E-02  2408   0.413E+00    0.508E-01
DAV:   4    -0.628950393503E+02    0.27622E-02   -0.20521E-02  2164   0.340E+00    0.341E-01
DAV:   5    -0.628935265468E+02    0.15128E-02   -0.63126E-03  2196   0.210E+00    0.181E-01
DAV:   6    -0.628934309861E+02    0.95561E-04   -0.33989E-03  2480   0.156E+00    0.144E-01
DAV:   7    -0.628932594356E+02    0.17155E-03   -0.32251E-03  2168   0.128E+00    0.743E-02
DAV:   8    -0.628932274826E+02    0.31953E-04   -0.78416E-04  1596   0.597E-01
   6 F= -.69862767E+02 E0= -.69848945E+02  d E =-.286038E-01  mag=     0.0009
       N       E                     dE             d eps       ncg     rms          rms(c)
DAV:   1    -0.628855185379E+02    0.77409E-02   -0.63272E+00  1928   0.742E+00    0.290E-01
DAV:   2    -0.628976860039E+02   -0.12167E-01   -0.12958E-01  2704   0.294E+00    0.320E-01
DAV:   3    -0.628974547181E+02    0.23129E-03   -0.10483E-02  2160   0.281E+00    0.251E-01
DAV:   4    -0.628970364041E+02    0.41831E-03   -0.47712E-03  2216   0.203E+00    0.196E-01
DAV:   5    -0.629003156997E+02   -0.32793E-02   -0.13903E-02  2064   0.264E+00    0.442E-01
DAV:   6    -0.628966532753E+02    0.36624E-02   -0.96093E-03  2200   0.239E+00    0.145E-01
DAV:   7    -0.628965161722E+02    0.13710E-03   -0.15439E-03  2344   0.916E-01
   7 F= -.69872149E+02 E0= -.69858310E+02  d E =-.379859E-01  mag=     0.0007
       N       E                     dE             d eps       ncg     rms          rms(c)
DAV:   1    -0.629055804169E+02   -0.89271E-02   -0.22957E+00  1888   0.449E+00    0.166E-01
DAV:   2    -0.629113404870E+02   -0.57601E-02   -0.49790E-02  2896   0.215E+00    0.320E-01
DAV:   3    -0.629107994636E+02    0.54102E-03   -0.11271E-02  2744   0.237E+00    0.240E-01
DAV:   4    -0.629101824461E+02    0.61702E-03   -0.38099E-03  2016   0.156E+00    0.154E-01
DAV:   5    -0.629099181380E+02    0.26431E-03   -0.13001E-03  1880   0.109E+00    0.997E-02
DAV:   6    -0.629099029654E+02    0.15173E-04   -0.85597E-04  1816   0.795E-01
   8 F= -.69886399E+02 E0= -.69872842E+02  d E =-.142506E-01  mag=     0.0005
       N       E                     dE             d eps       ncg     rms          rms(c)
DAV:   1    -0.628878001574E+02    0.22118E-01   -0.20752E+01  1880   0.135E+01    0.533E-01
DAV:   2    -0.629426673100E+02   -0.54867E-01   -0.48717E-01  2844   0.758E+00    0.102E+00
DAV:   3    -0.629429482758E+02   -0.28097E-03   -0.12336E-01  3216   0.782E+00    0.908E-01
DAV:   4    -0.629300986151E+02    0.12850E-01   -0.37746E-02  2464   0.515E+00    0.441E-01
DAV:   5    -0.629281436475E+02    0.19550E-02   -0.10782E-02  2440   0.318E+00    0.343E-01
DAV:   6    -0.629273389352E+02    0.80471E-03   -0.83430E-03  2144   0.234E+00    0.242E-01
DAV:   7    -0.629271474919E+02    0.19144E-03   -0.97364E-03  2256   0.212E+00    0.153E-01
DAV:   8    -0.629269788347E+02    0.16866E-03   -0.28865E-03  2188   0.114E+00    0.802E-02
DAV:   9    -0.629269189772E+02    0.59858E-04   -0.65051E-04  1580   0.508E-01
   9 F= -.69907736E+02 E0= -.69894429E+02  d E =-.355872E-01  mag=     0.0004
       N       E                     dE             d eps       ncg     rms          rms(c)
DAV:   1    -0.629250656132E+02    0.19132E-02   -0.86439E-01  1880   0.274E+00    0.107E-01
DAV:   2    -0.629268756067E+02   -0.18100E-02   -0.17373E-02  2740   0.117E+00    0.146E-01
DAV:   3    -0.629273145784E+02   -0.43897E-03   -0.36681E-03  2112   0.147E+00    0.199E-01
DAV:   4    -0.629267643676E+02    0.55021E-03   -0.26603E-03  1664   0.122E+00    0.968E-02
DAV:   5    -0.629266708300E+02    0.93538E-04   -0.48845E-04  1180   0.727E-01
  10 F= -.69908602E+02 E0= -.69895006E+02  d E =-.364535E-01  mag=     0.0003
       N       E                     dE             d eps       ncg     rms          rms(c)
DAV:   1    -0.629329914159E+02   -0.62270E-02   -0.12547E+00  1928   0.338E+00    0.132E-01
DAV:   2    -0.629366342541E+02   -0.36428E-02   -0.25333E-02  3080   0.202E+00    0.322E-01
DAV:   3    -0.629357455475E+02    0.88871E-03   -0.88628E-03  2512   0.214E+00    0.194E-01
DAV:   4    -0.629352739099E+02    0.47164E-03   -0.34659E-03  2032   0.143E+00    0.123E-01
DAV:   5    -0.629351396313E+02    0.13428E-03   -0.82059E-04  1632   0.814E-01
  11 F= -.69917266E+02 E0= -.69904028E+02  d E =-.866354E-02  mag=     0.0003
       N       E                     dE             d eps       ncg     rms          rms(c)
DAV:   1    -0.629285472170E+02    0.67267E-02   -0.11328E+01  1952   0.100E+01    0.384E-01
DAV:   2    -0.629747810836E+02   -0.46234E-01   -0.27073E-01  3184   0.743E+00    0.123E+00
DAV:   3    -0.629524763173E+02    0.22305E-01   -0.10287E-01  3400   0.708E+00    0.485E-01
DAV:   4    -0.629502680087E+02    0.22083E-02   -0.18701E-02  2440   0.350E+00    0.350E-01
DAV:   5    -0.629490232939E+02    0.12447E-02   -0.72946E-03  2232   0.231E+00    0.225E-01
DAV:   6    -0.629488148513E+02    0.20844E-03   -0.50763E-03  2024   0.147E+00    0.164E-01
DAV:   7    -0.629487527598E+02    0.62091E-04   -0.31847E-03  2240   0.126E+00    0.103E-01
DAV:   8    -0.629486990680E+02    0.53692E-04   -0.92324E-04  1872   0.670E-01
  12 F= -.69931691E+02 E0= -.69919244E+02  d E =-.230885E-01  mag=     0.0002
       N       E                     dE             d eps       ncg     rms          rms(c)
DAV:   1    -0.629464933189E+02    0.22594E-02   -0.15775E+00  1952   0.373E+00    0.137E-01
DAV:   2    -0.629526083656E+02   -0.61150E-02   -0.35496E-02  3232   0.267E+00    0.449E-01
DAV:   3    -0.629497555876E+02    0.28528E-02   -0.15415E-02  3152   0.271E+00    0.176E-01
DAV:   4    -0.629494685872E+02    0.28700E-03   -0.29165E-03  1992   0.136E+00    0.123E-01
DAV:   5    -0.629493331080E+02    0.13548E-03   -0.10683E-03  1860   0.864E-01
  13 F= -.69932753E+02 E0= -.69920509E+02  d E =-.241505E-01  mag=     0.0001
       N       E                     dE             d eps       ncg     rms          rms(c)
DAV:   1    -0.629485532223E+02    0.91536E-03   -0.21469E+00  1904   0.435E+00    0.221E-01
DAV:   2    -0.629634356889E+02   -0.14882E-01   -0.63552E-02  3376   0.428E+00    0.776E-01
DAV:   3    -0.629519413428E+02    0.11494E-01   -0.33770E-02  3392   0.405E+00    0.191E-01
DAV:   4    -0.629524488387E+02   -0.50750E-03   -0.46636E-03  2240   0.187E+00    0.218E-01
DAV:   5    -0.629516768573E+02    0.77198E-03   -0.30108E-03  2184   0.163E+00    0.953E-02
DAV:   6    -0.629517321539E+02   -0.55297E-04   -0.13633E-03  2128   0.920E-01
  14 F= -.69936618E+02 E0= -.69924999E+02  d E =-.386540E-02  mag=     0.0001
       N       E                     dE             d eps       ncg     rms          rms(c)
DAV:   1    -0.629520228555E+02   -0.34600E-03   -0.29452E-02  2624   0.839E-01    0.398E-02
DAV:   2    -0.629525904170E+02   -0.56756E-03   -0.16761E-03  1384   0.110E+00    0.164E-01
DAV:   3    -0.629521308712E+02    0.45955E-03   -0.18298E-03  1280   0.105E+00    0.834E-02
DAV:   4    -0.629520159802E+02    0.11489E-03   -0.36455E-04  1176   0.537E-01
  15 F= -.69936694E+02 E0= -.69924882E+02  d E =-.394075E-02  mag=     0.0001
       N       E                     dE             d eps       ncg     rms          rms(c)
DAV:   1    -0.629539147729E+02   -0.17839E-02   -0.19638E+00  1928   0.414E+00    0.151E-01
DAV:   2    -0.629680715052E+02   -0.14157E-01   -0.54908E-02  3392   0.417E+00    0.765E-01
DAV:   3    -0.629573999541E+02    0.10672E-01   -0.30682E-02  3376   0.385E+00    0.155E-01
DAV:   4    -0.629573806806E+02    0.19274E-04   -0.33622E-03  2200   0.124E+00    0.130E-01
DAV:   5    -0.629573312785E+02    0.49402E-04   -0.14001E-03  1952   0.941E-01
  16 F= -.69941740E+02 E0= -.69930019E+02  d E =-.504641E-02  mag=     0.0001
       N       E                     dE             d eps       ncg     rms          rms(c)
DAV:   1    -0.629448184627E+02    0.12562E-01   -0.91521E+00  1928   0.903E+00    0.348E-01
DAV:   2    -0.630124507519E+02   -0.67632E-01   -0.28033E-01  3440   0.918E+00    0.161E+00
DAV:   3    -0.629609490507E+02    0.51502E-01   -0.12440E-01  3488   0.791E+00    0.317E-01
DAV:   4    -0.629616580475E+02   -0.70900E-03   -0.13996E-02  2712   0.240E+00    0.310E-01
DAV:   5    -0.629611176553E+02    0.54039E-03   -0.82745E-03  2168   0.245E+00    0.227E-01
DAV:   6    -0.629608003915E+02    0.31726E-03   -0.42391E-03  2152   0.184E+00    0.179E-01
DAV:   7    -0.629605184304E+02    0.28196E-03   -0.30854E-03  2800   0.135E+00    0.628E-02
DAV:   8    -0.629605178483E+02    0.58210E-06   -0.62003E-04  1528   0.447E-01
  17 F= -.69944624E+02 E0= -.69934076E+02  d E =-.793006E-02  mag=     0.0001
       N       E                     dE             d eps       ncg     rms          rms(c)
DAV:   1    -0.629602919783E+02    0.22645E-03   -0.26798E-01  1932   0.154E+00    0.587E-02
DAV:   2    -0.629625332703E+02   -0.22413E-02   -0.80808E-03  3056   0.168E+00    0.309E-01
DAV:   3    -0.629606526714E+02    0.18806E-02   -0.45773E-03  1848   0.159E+00    0.587E-02
DAV:   4    -0.629606958495E+02   -0.43178E-04   -0.47452E-04  1384   0.407E-01
  18 F= -.69944827E+02 E0= -.69934029E+02  d E =-.813318E-02  mag=     0.0001
       N       E                     dE             d eps       ncg     rms          rms(c)
DAV:   1    -0.629628477227E+02   -0.21951E-02   -0.66192E-01  1876   0.244E+00    0.110E-01
DAV:   2    -0.629664835280E+02   -0.36358E-02   -0.18559E-02  3392   0.204E+00    0.361E-01
DAV:   3    -0.629641040386E+02    0.23795E-02   -0.83516E-03  3104   0.201E+00    0.104E-01
DAV:   4    -0.629641406919E+02   -0.36653E-04   -0.11069E-03  1816   0.868E-01
  19 F= -.69947523E+02 E0= -.69937418E+02  d E =-.269642E-02  mag=     0.0000
       N       E                     dE             d eps       ncg     rms          rms(c)
DAV:   1    -0.629642874697E+02   -0.18343E-03   -0.93990E-02  2592   0.121E+00    0.917E-02
DAV:   2    -0.629647774522E+02   -0.48998E-03   -0.22492E-03  2240   0.131E+00    0.165E-01
DAV:   3    -0.629646820817E+02    0.95370E-04   -0.28232E-03  1440   0.140E+00    0.153E-01
DAV:   4    -0.629643534062E+02    0.32868E-03   -0.17753E-03  1312   0.107E+00    0.846E-02
DAV:   5    -0.629643078797E+02    0.45527E-04   -0.42810E-04  1160   0.685E-01
  20 F= -.69947459E+02 E0= -.69937039E+02  d E =-.263212E-02  mag=     0.0000
       N       E                     dE             d eps       ncg     rms          rms(c)
DAV:   1    -0.629654736628E+02   -0.11203E-02   -0.19310E-01  1896   0.137E+00    0.520E-02
DAV:   2    -0.629671351467E+02   -0.16615E-02   -0.59212E-03  2576   0.149E+00    0.268E-01
DAV:   3    -0.629657571391E+02    0.13780E-02   -0.43346E-03  2160   0.140E+00    0.485E-02
DAV:   4    -0.629658054061E+02   -0.48267E-04   -0.49236E-04  1288   0.341E-01
  21 F= -.69948904E+02 E0= -.69938192E+02  d E =-.144471E-02  mag=     0.0000
       N       E                     dE             d eps       ncg     rms          rms(c)
DAV:   1    -0.629661015658E+02   -0.34443E-03   -0.17369E+00  1896   0.395E+00    0.158E-01
DAV:   2    -0.629719679572E+02   -0.58664E-02   -0.37302E-02  3248   0.238E+00    0.420E-01
DAV:   3    -0.629690810255E+02    0.28869E-02   -0.12488E-02  2672   0.241E+00    0.149E-01
DAV:   4    -0.629690662028E+02    0.14823E-04   -0.20617E-03  2032   0.940E-01    0.117E-01
DAV:   5    -0.629691295728E+02   -0.63370E-04   -0.14346E-03  2048   0.113E+00
  22 F= -.69952113E+02 E0= -.69940764E+02  d E =-.465369E-02  mag=     0.0000
       N       E                     dE             d eps       ncg     rms          rms(c)
DAV:   1    -0.629563859799E+02    0.12680E-01   -0.69452E+00  1912   0.795E+00    0.308E-01
DAV:   2    -0.629739563671E+02   -0.17570E-01   -0.14006E-01  3136   0.359E+00    0.616E-01
DAV:   3    -0.629696546963E+02    0.43017E-02   -0.35955E-02  2656   0.409E+00    0.335E-01
DAV:   4    -0.629690123071E+02    0.64239E-03   -0.77366E-03  2192   0.217E+00    0.258E-01
DAV:   5    -0.629684820134E+02    0.53029E-03   -0.44972E-03  2140   0.204E+00    0.168E-01
DAV:   6    -0.629684322332E+02    0.49780E-04   -0.33540E-03  2464   0.127E+00    0.137E-01
DAV:   7    -0.629682523162E+02    0.17992E-03   -0.16176E-03  2112   0.999E-01
  23 F= -.69951203E+02 E0= -.69940093E+02  d E =-.374458E-02  mag=     0.0000
       N       E                     dE             d eps       ncg     rms          rms(c)
DAV:   1    -0.629664586978E+02    0.19735E-02   -0.21436E+00  1912   0.437E+00    0.166E-01
DAV:   2    -0.629709192193E+02   -0.44605E-02   -0.40100E-02  2808   0.177E+00    0.290E-01
DAV:   3    -0.629705255036E+02    0.39372E-03   -0.93886E-03  2240   0.217E+00    0.220E-01
DAV:   4    -0.629699219747E+02    0.60353E-03   -0.28980E-03  1936   0.123E+00    0.113E-01
DAV:   5    -0.629699009736E+02    0.21001E-04   -0.97912E-04  1576   0.836E-01
  24 F= -.69952837E+02 E0= -.69942451E+02  d E =-.537783E-02  mag=     0.0000
       N       E                     dE             d eps       ncg     rms          rms(c)
DAV:   1    -0.629713334591E+02   -0.14115E-02   -0.11075E-01  2696   0.165E+00    0.127E-01
DAV:   2    -0.629759244683E+02   -0.45910E-02   -0.10864E-02  2192   0.393E+00    0.433E-01
DAV:   3    -0.629710733789E+02    0.48511E-02   -0.68346E-03  2128   0.314E+00    0.484E-02
DAV:   4    -0.629712521316E+02   -0.17875E-03   -0.94161E-04  1376   0.658E-01
  25 F= -.69954200E+02 E0= -.69943370E+02  d E =-.136313E-02  mag=     0.0000
       N       E                     dE             d eps       ncg     rms          rms(c)
DAV:   1    -0.629715787010E+02   -0.50532E-03   -0.12849E-01  2176   0.124E+00    0.657E-02
DAV:   2    -0.629730223399E+02   -0.14436E-02   -0.46253E-03  2368   0.142E+00    0.258E-01
DAV:   3    -0.629717065266E+02    0.13158E-02   -0.35972E-03  1680   0.137E+00    0.538E-02
DAV:   4    -0.629717582391E+02   -0.51712E-04   -0.47929E-04  1328   0.415E-01
  26 F= -.69954762E+02 E0= -.69943806E+02  d E =-.192539E-02  mag=     0.0000
       N       E                     dE             d eps       ncg     rms          rms(c)
DAV:   1    -0.629731988014E+02   -0.14923E-02   -0.12874E-01  1984   0.116E+00    0.466E-02
DAV:   2    -0.629742568752E+02   -0.10581E-02   -0.39389E-03  2656   0.128E+00    0.210E-01
DAV:   3    -0.629734677743E+02    0.78910E-03   -0.30074E-03  1660   0.124E+00    0.767E-02
DAV:   4    -0.629734179996E+02    0.49775E-04   -0.45236E-04  1212   0.564E-01
  27 F= -.69955940E+02 E0= -.69945233E+02  d E =-.117771E-02  mag=     0.0000
       N       E                     dE             d eps       ncg     rms          rms(c)
DAV:   1    -0.629745542126E+02   -0.10864E-02   -0.79818E-01  1952   0.273E+00    0.106E-01
DAV:   2    -0.629761131883E+02   -0.15590E-02   -0.16275E-02  2608   0.105E+00    0.139E-01
DAV:   3    -0.629763518200E+02   -0.23863E-03   -0.28193E-03  2064   0.121E+00    0.170E-01
DAV:   4    -0.629760014887E+02    0.35033E-03   -0.15462E-03  1680   0.953E-01    0.826E-02
DAV:   5    -0.629760002343E+02    0.12543E-05   -0.38998E-04  1156   0.642E-01
  28 F= -.69957382E+02 E0= -.69946975E+02  d E =-.262033E-02  mag=     0.0000
       N       E                     dE             d eps       ncg     rms          rms(c)
DAV:   1    -0.629771006207E+02   -0.10991E-02   -0.80338E-02  2568   0.118E+00    0.787E-02
DAV:   2    -0.629781542767E+02   -0.10537E-02   -0.29912E-03  2160   0.186E+00    0.213E-01
DAV:   3    -0.629772015281E+02    0.95275E-03   -0.23008E-03  1816   0.160E+00    0.896E-02
DAV:   4    -0.629771756433E+02    0.25885E-04   -0.94898E-04  1224   0.740E-01
  29 F= -.69958061E+02 E0= -.69947096E+02  d E =-.678253E-03  mag=     0.0000
       N       E                     dE             d eps       ncg     rms          rms(c)
DAV:   1    -0.629791188174E+02   -0.19173E-02   -0.70861E-01  1872   0.248E+00    0.139E-01
DAV:   2    -0.629803926990E+02   -0.12739E-02   -0.14724E-02  2576   0.779E-01    0.115E-01
DAV:   3    -0.629805036192E+02   -0.11092E-03   -0.14733E-03  2128   0.104E+00
  30 F= -.69959914E+02 E0= -.69948549E+02  d E =-.253206E-02  mag=     0.0000
       N       E                     dE             d eps       ncg     rms          rms(c)
DAV:   1    -0.629811227849E+02   -0.73009E-03   -0.28316E+00  1872   0.509E+00    0.329E-01
DAV:   2    -0.631058199077E+02   -0.12470E+00   -0.31752E-01  3472   0.130E+01    0.222E+00
DAV:   3    -0.629843444891E+02    0.12148E+00   -0.23505E-01  3440   0.108E+01    0.237E-01
DAV:   4    -0.629859670410E+02   -0.16226E-02   -0.13096E-02  3384   0.245E+00    0.271E-01
DAV:   5    -0.629851278195E+02    0.83922E-03   -0.63870E-03  2632   0.230E+00    0.152E-01
DAV:   6    -0.629850696603E+02    0.58159E-04   -0.28802E-03  1992   0.150E+00    0.104E-01
DAV:   7    -0.629849894234E+02    0.80237E-04   -0.13453E-03  1912   0.813E-01
  31 F= -.69961522E+02 E0= -.69950612E+02  d E =-.413948E-02  mag=     0.0000
       N       E                     dE             d eps       ncg     rms          rms(c)
DAV:   1    -0.629681117271E+02    0.16958E-01   -0.11293E+01  1872   0.988E+00    0.480E-01
DAV:   2    -0.629896620181E+02   -0.21550E-01   -0.23335E-01  2608   0.354E+00    0.470E-01
DAV:   3    -0.629972176768E+02   -0.75557E-02   -0.36089E-02  2256   0.514E+00    0.764E-01
DAV:   4    -0.629933465952E+02    0.38711E-02   -0.53432E-02  2288   0.515E+00    0.560E-01
DAV:   5    -0.629891897859E+02    0.41568E-02   -0.18718E-02  2512   0.396E+00    0.307E-01
DAV:   6    -0.629879315986E+02    0.12582E-02   -0.60504E-03  3080   0.265E+00    0.176E-01
DAV:   7    -0.629876031650E+02    0.32843E-03   -0.34073E-03  2688   0.133E+00    0.646E-02
DAV:   8    -0.629876245833E+02   -0.21418E-04   -0.95815E-04  1864   0.625E-01
  32 F= -.69958600E+02 E0= -.69947593E+02  d E =-.121758E-02  mag=     0.0000
       N       E                     dE             d eps       ncg     rms          rms(c)
DAV:   1    -0.629758751246E+02    0.11728E-01   -0.64276E+00  1880   0.741E+00    0.360E-01
DAV:   2    -0.629892096660E+02   -0.13335E-01   -0.12939E-01  2792   0.323E+00    0.468E-01
DAV:   3    -0.629922949848E+02   -0.30853E-02   -0.32285E-02  2432   0.438E+00    0.569E-01
DAV:   4    -0.629888025712E+02    0.34924E-02   -0.24362E-02  2256   0.397E+00    0.357E-01
DAV:   5    -0.629866544136E+02    0.21482E-02   -0.60852E-03  2256   0.248E+00    0.166E-01
DAV:   6    -0.629866320237E+02    0.22390E-04   -0.31394E-03  2536   0.150E+00    0.128E-01
DAV:   7    -0.629865214431E+02    0.11058E-03   -0.16296E-03  2048   0.101E+00
  33 F= -.69961668E+02 E0= -.69950761E+02  d E =-.428593E-02  mag=     0.0000
       N       E                     dE             d eps       ncg     rms          rms(c)
DAV:   1    -0.629879216570E+02   -0.12896E-02   -0.63888E-02  2088   0.838E-01    0.488E-02
DAV:   2    -0.629880396111E+02   -0.11795E-03   -0.14169E-03  2064   0.469E-01
  34 F= -.69962523E+02 E0= -.69951735E+02  d E =-.854453E-03  mag=     0.0000
       N       E                     dE             d eps       ncg     rms          rms(c)
DAV:   1    -0.629912571167E+02   -0.33355E-02   -0.57446E-01  1872   0.224E+00    0.155E-01
DAV:   2    -0.629985156082E+02   -0.72585E-02   -0.24108E-02  3336   0.319E+00    0.558E-01
DAV:   3    -0.629924213920E+02    0.60942E-02   -0.17655E-02  3104   0.312E+00    0.156E-01
DAV:   4    -0.629923348883E+02    0.86504E-04   -0.22602E-03  1888   0.143E+00    0.135E-01
DAV:   5    -0.629920894440E+02    0.24544E-03   -0.10421E-03  1768   0.876E-01    0.478E-02
DAV:   6    -0.629921193304E+02   -0.29886E-04   -0.53673E-04  1440   0.593E-01
  35 F= -.69964635E+02 E0= -.69953638E+02  d E =-.296671E-02  mag=     0.0000
       N       E                     dE             d eps       ncg     rms          rms(c)
DAV:   1    -0.629948904909E+02   -0.28010E-02   -0.22845E+00  1872   0.432E+00    0.253E-01
DAV:   2    -0.629996849583E+02   -0.47945E-02   -0.48390E-02  2680   0.167E+00    0.287E-01
DAV:   3    -0.630018359911E+02   -0.21510E-02   -0.15341E-02  2352   0.301E+00    0.407E-01
DAV:   4    -0.629998021009E+02    0.20339E-02   -0.14871E-02  2184   0.265E+00    0.234E-01
DAV:   5    -0.629989475735E+02    0.85453E-03   -0.32396E-03  1952   0.198E+00    0.120E-01
DAV:   6    -0.629989328777E+02    0.14696E-04   -0.18963E-03  2008   0.133E+00
  36 F= -.69967604E+02 E0= -.69956363E+02  d E =-.593536E-02  mag=     0.0000
       N       E                     dE             d eps       ncg     rms          rms(c)
DAV:   1    -0.629905604338E+02    0.83871E-02   -0.92060E+00  1872   0.866E+00    0.524E-01
DAV:   2    -0.630164626055E+02   -0.25902E-01   -0.20109E-01  3144   0.483E+00    0.835E-01
DAV:   3    -0.630124867102E+02    0.39759E-02   -0.75969E-02  3056   0.627E+00    0.617E-01
DAV:   4    -0.630102305827E+02    0.22561E-02   -0.40786E-02  2448   0.477E+00    0.497E-01
DAV:   5    -0.630061476561E+02    0.40829E-02   -0.12998E-02  2272   0.404E+00    0.227E-01
DAV:   6    -0.630062512302E+02   -0.10357E-03   -0.92323E-03  2616   0.242E+00    0.202E-01
DAV:   7    -0.630056495174E+02    0.60171E-03   -0.36664E-03  2136   0.147E+00    0.592E-02
DAV:   8    -0.630056760764E+02   -0.26559E-04   -0.99213E-04  1792   0.394E-01
  37 F= -.69966874E+02 E0= -.69955911E+02  d E =-.520595E-02  mag=     0.0000
       N       E                     dE             d eps       ncg     rms          rms(c)
DAV:   1    -0.629969316724E+02    0.87178E-02   -0.37363E+00  1856   0.544E+00    0.340E-01
DAV:   2    -0.630037635166E+02   -0.68318E-02   -0.72221E-02  2680   0.216E+00    0.359E-01
DAV:   3    -0.630085827235E+02   -0.48192E-02   -0.25420E-02  2336   0.401E+00    0.586E-01
DAV:   4    -0.630051176139E+02    0.34651E-02   -0.25694E-02  2208   0.410E+00    0.368E-01
DAV:   5    -0.630023303493E+02    0.27873E-02   -0.63369E-03  2072   0.267E+00    0.124E-01
DAV:   6    -0.630024325705E+02   -0.10222E-03   -0.23115E-03  2408   0.142E+00    0.111E-01
DAV:   7    -0.630022867925E+02    0.14578E-03   -0.12412E-03  1896   0.905E-01
  38 F= -.69968215E+02 E0= -.69957298E+02  d E =-.654622E-02  mag=     0.0000
       N       E                     dE             d eps       ncg     rms          rms(c)
DAV:   1    -0.630038474412E+02   -0.14149E-02   -0.80226E-02  1888   0.847E-01    0.508E-02
DAV:   2    -0.630039847275E+02   -0.13729E-03   -0.15407E-03  2256   0.423E-01
  39 F= -.69969262E+02 E0= -.69958562E+02  d E =-.104734E-02  mag=     0.0000
       N       E                     dE             d eps       ncg     rms          rms(c)
DAV:   1    -0.630076337925E+02   -0.37864E-02   -0.72818E-01  1880   0.249E+00    0.171E-01
DAV:   2    -0.630097565905E+02   -0.21228E-02   -0.15193E-02  3192   0.176E+00    0.252E-01
DAV:   3    -0.630098066611E+02   -0.50071E-04   -0.77055E-03  2352   0.225E+00    0.262E-01
DAV:   4    -0.630091215808E+02    0.68508E-03   -0.62276E-03  2032   0.191E+00    0.182E-01
DAV:   5    -0.630085986381E+02    0.52294E-03   -0.10626E-03  1424   0.105E+00    0.481E-02
DAV:   6    -0.630086443275E+02   -0.45689E-04   -0.56367E-04  1336   0.659E-01
  40 F= -.69971970E+02 E0= -.69961015E+02  d E =-.375594E-02  mag=     0.0000
       N       E                     dE             d eps       ncg     rms          rms(c)
DAV:   1    -0.630122732334E+02   -0.36746E-02   -0.28869E+00  1872   0.484E+00    0.285E-01
DAV:   2    -0.630176099605E+02   -0.53367E-02   -0.55751E-02  2680   0.165E+00    0.289E-01
DAV:   3    -0.630221062380E+02   -0.44963E-02   -0.20620E-02  2240   0.357E+00    0.529E-01
DAV:   4    -0.630178149720E+02    0.42913E-02   -0.21785E-02  2032   0.309E+00    0.227E-01
DAV:   5    -0.630171643720E+02    0.65060E-03   -0.38854E-03  1856   0.212E+00    0.145E-01
DAV:   6    -0.630170178123E+02    0.14656E-03   -0.23449E-03  2056   0.148E+00    0.114E-01
DAV:   7    -0.630168225906E+02    0.19522E-03   -0.10000E-03  1744   0.838E-01
  41 F= -.69976235E+02 E0= -.69965369E+02  d E =-.802060E-02  mag=     0.0000
       N       E                     dE             d eps       ncg     rms          rms(c)
DAV:   1    -0.630107710623E+02    0.62467E-02   -0.11552E+01  1864   0.963E+00    0.565E-01
DAV:   2    -0.630306306482E+02   -0.19860E-01   -0.21910E-01  2568   0.309E+00    0.498E-01
DAV:   3    -0.630508776144E+02   -0.20247E-01   -0.61681E-02  2240   0.681E+00    0.111E+00
DAV:   4    -0.630380013167E+02    0.12876E-01   -0.10136E-01  2288   0.695E+00    0.682E-01
DAV:   5    -0.630295224315E+02    0.84789E-02   -0.21448E-02  2304   0.466E+00    0.261E-01
DAV:   6    -0.630291715368E+02    0.35089E-03   -0.99519E-03  3240   0.289E+00    0.211E-01
DAV:   7    -0.630284191060E+02    0.75243E-03   -0.38002E-03  2096   0.168E+00    0.633E-02
DAV:   8    -0.630284174708E+02    0.16352E-05   -0.12147E-03  1968   0.480E-01
  42 F= -.69979832E+02 E0= -.69969057E+02  d E =-.116179E-01  mag=     0.0000
       N       E                     dE             d eps       ncg     rms          rms(c)
DAV:   1    -0.630322524833E+02   -0.38334E-02   -0.78884E-01  1872   0.249E+00    0.149E-01
DAV:   2    -0.630340545561E+02   -0.18021E-02   -0.15949E-02  2896   0.119E+00    0.199E-01
DAV:   3    -0.630341864083E+02   -0.13185E-03   -0.57355E-03  2016   0.179E+00    0.211E-01
DAV:   4    -0.630335372215E+02    0.64919E-03   -0.14872E-03  1680   0.108E+00    0.778E-02
DAV:   5    -0.630335351557E+02    0.20659E-05   -0.43367E-04  1312   0.754E-01
  43 F= -.69982292E+02 E0= -.69971404E+02  d E =-.246007E-02  mag=     0.0000
       N       E                     dE             d eps       ncg     rms          rms(c)
DAV:   1    -0.630363857572E+02   -0.28485E-02   -0.71045E+00  1864   0.752E+00    0.453E-01
DAV:   2    -0.630483609796E+02   -0.11975E-01   -0.13173E-01  2560   0.268E+00    0.396E-01
DAV:   3    -0.630545579935E+02   -0.61970E-02   -0.28297E-02  2208   0.494E+00    0.631E-01
DAV:   4    -0.630579551420E+02   -0.33971E-02   -0.56928E-02  2320   0.554E+00    0.730E-01
DAV:   5    -0.630468946726E+02    0.11060E-01   -0.22062E-02  2288   0.417E+00    0.137E-01
DAV:   6    -0.630470805202E+02   -0.18585E-03   -0.39090E-03  3104   0.147E+00    0.120E-01
DAV:   7    -0.630468671481E+02    0.21337E-03   -0.17727E-03  2064   0.112E+00    0.421E-02
DAV:   8    -0.630468843777E+02   -0.17230E-04   -0.57353E-04  1616   0.357E-01
  44 F= -.69987524E+02 E0= -.69977363E+02  d E =-.769174E-02  mag=     0.0000
       N       E                     dE             d eps       ncg     rms          rms(c)
DAV:   1    -0.630247333405E+02    0.22134E-01   -0.28520E+01  1864   0.150E+01    0.913E-01
DAV:   2    -0.630702505873E+02   -0.45517E-01   -0.53272E-01  2520   0.390E+00    0.678E-01
DAV:   3    -0.630754679803E+02   -0.52174E-02   -0.41365E-02  2248   0.567E+00    0.819E-01
DAV:   4    -0.631061686413E+02   -0.30701E-01   -0.12590E-01  2336   0.908E+00    0.136E+00
DAV:   5    -0.630728833986E+02    0.33285E-01   -0.10809E-01  2288   0.830E+00    0.588E-01
DAV:   6    -0.630674982992E+02    0.53851E-02   -0.19508E-02  2864   0.519E+00    0.327E-01
DAV:   7    -0.630657855429E+02    0.17128E-02   -0.76241E-03  3168   0.268E+00    0.983E-02
DAV:   8    -0.630657828471E+02    0.26958E-05   -0.21726E-03  2368   0.796E-01    0.594E-02
DAV:   9    -0.630658040792E+02   -0.21232E-04   -0.68871E-04  1792   0.383E-01
  45 F= -.69989418E+02 E0= -.69980454E+02  d E =-.958516E-02  mag=     0.0000
       N       E                     dE             d eps       ncg     rms          rms(c)
DAV:   1    -0.630513132701E+02    0.14470E-01   -0.57256E+00  1872   0.659E+00    0.422E-01
DAV:   2    -0.630594297687E+02   -0.81165E-02   -0.97979E-02  2552   0.202E+00    0.323E-01
DAV:   3    -0.630651058460E+02   -0.56761E-02   -0.17419E-02  2312   0.393E+00    0.620E-01
DAV:   4    -0.630640501203E+02    0.10557E-02   -0.39863E-02  2336   0.481E+00    0.508E-01
DAV:   5    -0.630594203425E+02    0.46298E-02   -0.20889E-02  2208   0.349E+00    0.212E-01
DAV:   6    -0.630591046789E+02    0.31566E-03   -0.41713E-03  2848   0.226E+00    0.165E-01
DAV:   7    -0.630585451976E+02    0.55948E-03   -0.16745E-03  2040   0.129E+00    0.286E-02
DAV:   8    -0.630585822966E+02   -0.37099E-04   -0.58472E-04  1464   0.328E-01
  46 F= -.69989950E+02 E0= -.69980340E+02  d E =-.101173E-01  mag=     0.0000
       N       E                     dE             d eps       ncg     rms          rms(c)
DAV:   1    -0.630605221609E+02   -0.19770E-02   -0.65851E-01  1880   0.224E+00    0.143E-01
DAV:   2    -0.630614723496E+02   -0.95019E-03   -0.10722E-02  2648   0.842E-01    0.138E-01
DAV:   3    -0.630626874853E+02   -0.12151E-02   -0.43452E-03  2200   0.176E+00    0.279E-01
DAV:   4    -0.630617459633E+02    0.94152E-03   -0.61126E-03  1744   0.180E+00    0.152E-01
DAV:   5    -0.630613608037E+02    0.38516E-03   -0.12203E-03  1424   0.118E+00    0.697E-02
DAV:   6    -0.630612888418E+02    0.71962E-04   -0.44781E-04  1280   0.762E-01
  47 F= -.69990049E+02 E0= -.69980542E+02  d E =-.102168E-01  mag=     0.0000
       N       E                     dE             d eps       ncg     rms          rms(c)
DAV:   1    -0.630662336651E+02   -0.48729E-02   -0.38908E+00  1872   0.557E+00    0.338E-01
DAV:   2    -0.630720218953E+02   -0.57882E-02   -0.65958E-02  2560   0.164E+00    0.277E-01
DAV:   3    -0.630834080182E+02   -0.11386E-01   -0.36004E-02  2256   0.464E+00    0.799E-01
DAV:   4    -0.630715658967E+02    0.11842E-01   -0.23826E-02  2320   0.391E+00    0.181E-01
DAV:   5    -0.630715461948E+02    0.19702E-04   -0.15357E-03  2200   0.173E+00
  48 F= -.69994207E+02 E0= -.69984483E+02  d E =-.415739E-02  mag=     0.0000
       N       E                     dE             d eps       ncg     rms          rms(c)
DAV:   1    -0.630719371185E+02   -0.37122E-03   -0.79988E-03  3424   0.177E+00    0.132E-01
DAV:   2    -0.630821231531E+02   -0.10186E-01   -0.21828E-02  2288   0.504E+00    0.695E-01
DAV:   3    -0.630761899359E+02    0.59332E-02   -0.30002E-02  2168   0.455E+00    0.476E-01
DAV:   4    -0.630715049327E+02    0.46850E-02   -0.88032E-03  1888   0.252E+00    0.524E-02
DAV:   5    -0.630715476460E+02   -0.42713E-04   -0.52227E-04  1616   0.386E-01
  49 F= -.69993979E+02 E0= -.69985243E+02  d E =-.392955E-02  mag=     0.0000
       N       E                     dE             d eps       ncg     rms          rms(c)
DAV:   1    -0.630757633882E+02   -0.42585E-02   -0.94002E-01  1896   0.290E+00    0.124E-01
DAV:   2    -0.630795511733E+02   -0.37878E-02   -0.20150E-02  3280   0.202E+00    0.362E-01
DAV:   3    -0.630773450294E+02    0.22061E-02   -0.82675E-03  2944   0.204E+00    0.122E-01
DAV:   4    -0.630773865556E+02   -0.41526E-04   -0.14201E-03  1984   0.102E+00
  50 F= -.69997360E+02 E0= -.69989686E+02  d E =-.338121E-02  mag=     0.0000
       N       E                     dE             d eps       ncg     rms          rms(c)
DAV:   1    -0.630700213766E+02    0.73237E-02   -0.84264E+00  1904   0.867E+00    0.398E-01
DAV:   2    -0.631001655054E+02   -0.30144E-01   -0.18008E-01  3200   0.577E+00    0.992E-01
DAV:   3    -0.630850204564E+02    0.15145E-01   -0.66530E-02  3008   0.566E+00    0.390E-01
DAV:   4    -0.630836845853E+02    0.13359E-02   -0.11544E-02  2192   0.256E+00    0.252E-01
DAV:   5    -0.630838149068E+02   -0.13032E-03   -0.67258E-03  2192   0.226E+00    0.237E-01
DAV:   6    -0.630842699116E+02   -0.45500E-03   -0.74844E-03  2240   0.286E+00    0.237E-01
DAV:   7    -0.630830814862E+02    0.11884E-02   -0.34098E-03  2696   0.179E+00    0.397E-02
DAV:   8    -0.630831612614E+02   -0.79775E-04   -0.11062E-03  1888   0.463E-01
  51 F= -.69995998E+02 E0= -.69988750E+02  d E =-.201933E-02  mag=     0.0000
       N       E                     dE             d eps       ncg     rms          rms(c)
DAV:   1    -0.630780654056E+02    0.50161E-02   -0.26279E+00  1896   0.483E+00    0.206E-01
DAV:   2    -0.630842122399E+02   -0.61468E-02   -0.48737E-02  3032   0.235E+00    0.385E-01
DAV:   3    -0.630828639586E+02    0.13483E-02   -0.14323E-02  2432   0.275E+00    0.260E-01
DAV:   4    -0.630823492162E+02    0.51474E-03   -0.47784E-03  2144   0.178E+00    0.172E-01
DAV:   5    -0.630821022860E+02    0.24693E-03   -0.22027E-03  2096   0.149E+00    0.121E-01
DAV:   6    -0.630819620092E+02    0.14028E-03   -0.15244E-03  2016   0.117E+00
  52 F= -.69998743E+02 E0= -.69990713E+02  d E =-.476456E-02  mag=    -0.0000
       N       E                     dE             d eps       ncg     rms          rms(c)
DAV:   1    -0.630839342047E+02   -0.18319E-02   -0.47427E-01  1928   0.212E+00    0.875E-02
DAV:   2    -0.630919036669E+02   -0.79695E-02   -0.23000E-02  3376   0.330E+00    0.598E-01
DAV:   3    -0.630845041256E+02    0.73995E-02   -0.15553E-02  3232   0.287E+00    0.772E-02
DAV:   4    -0.630845946503E+02   -0.90525E-04   -0.92679E-04  1848   0.433E-01
  53 F= -.70000034E+02 E0= -.69992534E+02  d E =-.129052E-02  mag=    -0.0000
       N       E                     dE             d eps       ncg     rms          rms(c)
DAV:   1    -0.630848996025E+02   -0.39548E-03   -0.19631E+00  1952   0.419E+00    0.181E-01
DAV:   2    -0.630944674780E+02   -0.95679E-02   -0.44676E-02  3376   0.337E+00    0.594E-01
DAV:   3    -0.630878994666E+02    0.65680E-02   -0.20911E-02  3368   0.317E+00    0.154E-01
DAV:   4    -0.630880279104E+02   -0.12844E-03   -0.23089E-03  2136   0.121E+00    0.149E-01
DAV:   5    -0.630878683178E+02    0.15959E-03   -0.20762E-03  2128   0.134E+00    0.104E-01
DAV:   6    -0.630878297570E+02    0.38561E-04   -0.10555E-03  1920   0.979E-01
  54 F= -.70000575E+02 E0= -.69993280E+02  d E =-.183206E-02  mag=    -0.0000
       N       E                     dE             d eps       ncg     rms          rms(c)
DAV:   1    -0.630873809912E+02    0.48733E-03   -0.74921E-02  2536   0.103E+00    0.411E-02
DAV:   2    -0.630888450418E+02   -0.14641E-02   -0.37269E-03  1552   0.145E+00    0.268E-01
DAV:   3    -0.630873504467E+02    0.14946E-02   -0.27949E-03  1352   0.132E+00    0.303E-02
DAV:   4    -0.630873849824E+02   -0.34536E-04   -0.17115E-04  1232   0.254E-01
  55 F= -.70000642E+02 E0= -.69993374E+02  d E =-.189897E-02  mag=    -0.0000
       N       E                     dE             d eps       ncg     rms          rms(c)
DAV:   1    -0.630870622125E+02    0.28823E-03   -0.29371E-02  1936   0.558E-01    0.261E-02
DAV:   2    -0.630875192593E+02   -0.45705E-03   -0.10709E-03  1320   0.836E-01    0.156E-01
DAV:   3    -0.630870649652E+02    0.45429E-03   -0.10334E-03  1216   0.810E-01    0.218E-02
DAV:   4    -0.630870887575E+02   -0.23792E-04   -0.14607E-04  1096   0.253E-01
  56 F= -.70000671E+02 E0= -.69993537E+02  d E =-.192767E-02  mag=    -0.0000
       N       E                     dE             d eps       ncg     rms          rms(c)
DAV:   1    -0.630873091686E+02   -0.24420E-03   -0.14440E-02  2192   0.414E-01    0.221E-02
DAV:   2    -0.630878261232E+02   -0.51695E-03   -0.15380E-03  1304   0.916E-01    0.156E-01
DAV:   3    -0.630873036710E+02    0.52245E-03   -0.11198E-03  1192   0.818E-01    0.262E-02
DAV:   4    -0.630873140741E+02   -0.10403E-04   -0.55277E-05  1112   0.224E-01
  57 F= -.70000666E+02 E0= -.69993329E+02  d E =-.192224E-02  mag=    -0.0000
       N       E                     dE             d eps       ncg     rms          rms(c)
DAV:   1    -0.630871870344E+02    0.11664E-03   -0.58290E-03  2448   0.269E-01    0.105E-02
DAV:   2    -0.630872460439E+02   -0.59010E-04   -0.12632E-04  1240   0.331E-01
  58 F= -.70000746E+02 E0= -.69993352E+02  d E =-.200233E-02  mag=    -0.0000
       N       E                     dE             d eps       ncg     rms          rms(c)
DAV:   1    -0.630872058232E+02   -0.18789E-04   -0.20434E-04  1200   0.336E-01    0.199E-02
DAV:   2    -0.630880888319E+02   -0.88301E-03   -0.21651E-03  1280   0.116E+00    0.203E-01
DAV:   3    -0.630871951594E+02    0.89367E-03   -0.17688E-03  1232   0.106E+00    0.290E-02
DAV:   4    -0.630872038754E+02   -0.87161E-05   -0.42384E-05  1096   0.225E-01
  59 F= -.70000679E+02 E0= -.69993366E+02  d E =-.193573E-02  mag=    -0.0000
       N       E                     dE             d eps       ncg     rms          rms(c)
DAV:   1    -0.630871915497E+02    0.36096E-05   -0.34772E-05  1248   0.951E-02    0.629E-03
DAV:   2    -0.630872002442E+02   -0.86944E-05   -0.21528E-05  1080   0.139E-01
  60 F= -.70000699E+02 E0= -.69993393E+02  d E =-.195527E-02  mag=    -0.0000
       N       E                     dE             d eps       ncg     rms          rms(c)
DAV:   1    -0.630872046210E+02   -0.13071E-04   -0.40412E-05  1104   0.157E-01    0.125E-02
DAV:   2    -0.630876946365E+02   -0.49002E-03   -0.12344E-03  1248   0.841E-01    0.152E-01
DAV:   3    -0.630871875070E+02    0.50713E-03   -0.98312E-04  1176   0.758E-01    0.121E-02
DAV:   4    -0.630872018849E+02   -0.14378E-04   -0.79281E-06  1080   0.998E-02
  61 F= -.70000689E+02 E0= -.69993395E+02  d E =-.194532E-02  mag=    -0.0000
       N       E                     dE             d eps       ncg     rms          rms(c)
DAV:   1    -0.630871951377E+02   -0.76307E-05   -0.62342E-06  1136   0.486E-02    0.331E-03
DAV:   2    -0.630871975475E+02   -0.24098E-05   -0.68926E-06   960   0.769E-02
  62 F= -.70000693E+02 E0= -.69993400E+02  d E =-.195006E-02  mag=    -0.0000
       N       E                     dE             d eps       ncg     rms          rms(c)
DAV:   1    -0.630875924337E+02   -0.39730E-03   -0.33732E-02  2048   0.557E-01    0.149E-02
DAV:   2    -0.630876250777E+02   -0.32644E-04   -0.33017E-04  1200   0.211E-01
  63 F= -.70001069E+02 E0= -.69993900E+02  d E =-.375883E-03  mag=    -0.0000
       N       E                     dE             d eps       ncg     rms          rms(c)
DAV:   1    -0.630880833508E+02   -0.49092E-03   -0.92394E-02  2056   0.953E-01    0.311E-02
DAV:   2    -0.630884327906E+02   -0.34944E-03   -0.12716E-03  1776   0.693E-01    0.130E-01
DAV:   3    -0.630881790352E+02    0.25376E-03   -0.13107E-03  1656   0.696E-01    0.302E-02
DAV:   4    -0.630882049900E+02   -0.25955E-04   -0.23798E-04  1136   0.286E-01
  64 F= -.70001568E+02 E0= -.69994129E+02  d E =-.874835E-03  mag=    -0.0000
       N       E                     dE             d eps       ncg     rms          rms(c)
DAV:   1    -0.630881994757E+02   -0.20440E-04   -0.36480E-01  2032   0.185E+00    0.601E-02
DAV:   2    -0.630910716562E+02   -0.28722E-02   -0.10117E-02  3520   0.190E+00    0.350E-01
DAV:   3    -0.630887327626E+02    0.23389E-02   -0.60300E-03  2360   0.175E+00    0.711E-02
DAV:   4    -0.630887744869E+02   -0.41724E-04   -0.54496E-04  1464   0.366E-01
  65 F= -.70001990E+02 E0= -.69994562E+02  d E =-.129710E-02  mag=    -0.0000
       N       E                     dE             d eps       ncg     rms          rms(c)
DAV:   1    -0.630892349718E+02   -0.50221E-03   -0.29914E-02  2560   0.632E-01    0.525E-02
DAV:   2    -0.630894811857E+02   -0.24621E-03   -0.81557E-04  1336   0.951E-01    0.114E-01
DAV:   3    -0.630893380294E+02    0.14316E-03   -0.11048E-03  1208   0.969E-01
  66 F= -.70002395E+02 E0= -.69995121E+02  d E =-.404623E-03  mag=    -0.0000
       N       E                     dE             d eps       ncg     rms          rms(c)
DAV:   1    -0.630896777698E+02   -0.19658E-03   -0.58838E-02  2592   0.925E-01    0.497E-02
DAV:   2    -0.630925004988E+02   -0.28227E-02   -0.62852E-03  1648   0.202E+00    0.376E-01
DAV:   3    -0.630896493071E+02    0.28512E-02   -0.53916E-03  1328   0.178E+00    0.486E-02
DAV:   4    -0.630896791691E+02   -0.29862E-04   -0.27846E-04  1200   0.492E-01
  67 F= -.70002520E+02 E0= -.69995412E+02  d E =-.529325E-03  mag=    -0.0000
       N       E                     dE             d eps       ncg     rms          rms(c)
DAV:   1    -0.630897097173E+02   -0.60410E-04   -0.23007E-01  2064   0.148E+00    0.515E-02
DAV:   2    -0.630912921958E+02   -0.15825E-02   -0.58028E-03  3184   0.146E+00    0.263E-01
DAV:   3    -0.630900976641E+02    0.11945E-02   -0.37066E-03  1672   0.141E+00    0.602E-02
DAV:   4    -0.630900912928E+02    0.63713E-05   -0.42170E-04  1168   0.386E-01
  68 F= -.70002516E+02 E0= -.69995200E+02  d E =-.525088E-03  mag=    -0.0000
       N       E                     dE             d eps       ncg     rms          rms(c)
DAV:   1    -0.630898755883E+02    0.22208E-03   -0.56731E-02  2064   0.748E-01    0.338E-02
DAV:   2    -0.630910045851E+02   -0.11290E-02   -0.24814E-03  1760   0.132E+00    0.241E-01
DAV:   3    -0.630898984182E+02    0.11062E-02   -0.25345E-03  1320   0.126E+00    0.321E-02
DAV:   4    -0.630899290839E+02   -0.30666E-04   -0.31257E-04  1152   0.345E-01
  69 F= -.70002557E+02 E0= -.69995084E+02  d E =-.566874E-03  mag=    -0.0000
       N       E                     dE             d eps       ncg     rms          rms(c)
DAV:   1    -0.630900496365E+02   -0.15122E-03   -0.19095E-02  2072   0.461E-01    0.258E-02
DAV:   2    -0.630913181003E+02   -0.12685E-02   -0.30930E-03  1392   0.138E+00    0.250E-01
DAV:   3    -0.630900203090E+02    0.12978E-02   -0.24421E-03  1344   0.121E+00    0.161E-02
DAV:   4    -0.630900548765E+02   -0.34567E-04   -0.97595E-05  1136   0.168E-01
  70 F= -.70002562E+02 E0= -.69995197E+02  d E =-.571717E-03  mag=    -0.0000
       N       E                     dE             d eps       ncg     rms          rms(c)
DAV:   1    -0.630900299339E+02   -0.96249E-05   -0.57595E-03  2360   0.264E-01    0.161E-02
DAV:   2    -0.630904865976E+02   -0.45666E-03   -0.10057E-03  1328   0.820E-01    0.150E-01
DAV:   3    -0.630900236573E+02    0.46294E-03   -0.90190E-04  1168   0.777E-01    0.231E-02
DAV:   4    -0.630900282713E+02   -0.46140E-05   -0.28268E-05  1088   0.185E-01
  71 F= -.70002602E+02 E0= -.69995314E+02  d E =-.611673E-03  mag=    -0.0000
       N       E                     dE             d eps       ncg     rms          rms(c)
DAV:   1    -0.630900325759E+02   -0.89186E-05   -0.40418E-05  1184   0.898E-02    0.747E-03
DAV:   2    -0.630900405047E+02   -0.79288E-05   -0.49177E-05  1072   0.172E-01
  72 F= -.70002609E+02 E0= -.69995381E+02  d E =-.618087E-03  mag=    -0.0000
       N       E                     dE             d eps       ncg     rms          rms(c)
DAV:   1    -0.630900326193E+02   -0.43412E-07   -0.24368E-05  1080   0.150E-01    0.788E-03
DAV:   2    -0.630901479662E+02   -0.11535E-03   -0.26191E-04  1264   0.412E-01
  73 F= -.70002721E+02 E0= -.69995539E+02  d E =-.730836E-03  mag=    -0.0000
       N       E                     dE             d eps       ncg     rms          rms(c)
DAV:   1    -0.630900312503E+02    0.13691E-05   -0.26235E-04  1176   0.395E-01    0.124E-02
DAV:   2    -0.630902580031E+02   -0.22675E-03   -0.47465E-04  1224   0.597E-01    0.103E-01
DAV:   3    -0.630900434157E+02    0.21459E-03   -0.52686E-04  1176   0.566E-01    0.286E-02
DAV:   4    -0.630900343913E+02    0.90244E-05   -0.29814E-05  1072   0.184E-01
  74 F= -.70002605E+02 E0= -.69995279E+02  d E =-.614617E-03  mag=    -0.0000
       N       E                     dE             d eps       ncg     rms          rms(c)
DAV:   1    -0.630900336463E+02    0.97694E-05   -0.59304E-06  1088   0.312E-02    0.268E-03
DAV:   2    -0.630900353851E+02   -0.17389E-05   -0.81900E-06   952   0.642E-02
  75 F= -.70002608E+02 E0= -.69995274E+02  d E =-.617240E-03  mag=    -0.0000
       N       E                     dE             d eps       ncg     rms          rms(c)
DAV:   1    -0.630901741874E+02   -0.14054E-03   -0.10322E-02  2032   0.310E-01    0.763E-03
DAV:   2    -0.630901824264E+02   -0.82390E-05   -0.87170E-05  1072   0.100E-01
  76 F= -.70002681E+02 E0= -.69995353E+02  d E =-.735118E-04  mag=    -0.0000
       N       E                     dE             d eps       ncg     rms          rms(c)
DAV:   1    -0.630903267477E+02   -0.15256E-03   -0.10660E-02  2032   0.333E-01    0.113E-02
DAV:   2    -0.630904621228E+02   -0.13538E-03   -0.30755E-04  1168   0.440E-01
  77 F= -.70002888E+02 E0= -.69995609E+02  d E =-.280537E-03  mag=    -0.0000
       N       E                     dE             d eps       ncg     rms          rms(c)
DAV:   1    -0.630905980259E+02   -0.27128E-03   -0.41856E-02  2648   0.768E-01    0.247E-02
DAV:   2    -0.630908152440E+02   -0.21722E-03   -0.60158E-04  1232   0.551E-01    0.107E-01
DAV:   3    -0.630905994779E+02    0.21577E-03   -0.46517E-04  1128   0.502E-01    0.165E-02
DAV:   4    -0.630906197905E+02   -0.20313E-04   -0.93101E-05  1080   0.215E-01
  78 F= -.70002901E+02 E0= -.69995718E+02  d E =-.293277E-03  mag=    -0.0000
       N       E                     dE             d eps       ncg     rms          rms(c)
DAV:   1    -0.630908658806E+02   -0.26640E-03   -0.16395E-01  2040   0.125E+00    0.419E-02
DAV:   2    -0.630948955166E+02   -0.40296E-02   -0.93067E-03  2544   0.237E+00    0.442E-01
DAV:   3    -0.630909513344E+02    0.39442E-02   -0.75937E-03  1640   0.209E+00    0.364E-02
DAV:   4    -0.630911071445E+02   -0.15581E-03   -0.12614E-03  1896   0.362E-01
  79 F= -.70003100E+02 E0= -.69995584E+02  d E =-.492432E-03  mag=    -0.0000
