<?xml version="1.0" encoding="ISO-8859-1"?>
<modeling>
 <generator>
  <i name="program" type="string">vasp </i>
  <i name="version" type="string">6.3.2  </i>
  <i name="subversion" type="string">27Jun22 (build Aug 17 2022 15:43:34) complex                          parallel </i>
  <i name="platform" type="string">tv2STDVTST </i>
  <i name="date" type="string">2025 02 04 </i>
  <i name="time" type="string">12:59:26 </i>
 </generator>
 <incar>
  <i type="int" name="ISTART">     0</i>
  <i type="string" name="PREC">Normal</i>
  <i type="int" name="ISPIN">     2</i>
  <i type="int" name="ICHARG">     2</i>
  <i type="int" name="IBRION">     2</i>
  <i name="EDIFF">      0.00020000</i>
  <i name="EDIFFG">     -0.03000000</i>
  <i type="int" name="NSW">   800</i>
  <i type="int" name="ISIF">     2</i>
  <i type="int" name="ISYM">     1</i>
  <i name="ENCUT">    400.00000000</i>
  <i name="POTIM">      0.50000000</i>
  <i type="logical" name="LREAL"> F  </i>
  <i type="int" name="ISMEAR">     1</i>
  <i name="SIGMA">      0.20000000</i>
  <i type="logical" name="LWAVE"> F  </i>
  <i type="logical" name="LCHARG"> F  </i>
  <i type="string" name="GGA">PE</i>
  <i type="int" name="IVDW">    11</i>
 </incar>
 <primitive_cell>
  <structure name="primitive_cell" >
   <crystal>
    <varray name="basis" >
     <v>       3.63000011       0.00000000       0.00000000 </v>
     <v>       0.00000000       3.63000011       0.00000000 </v>
     <v>       0.00000000       0.00000000      27.70499992 </v>
    </varray>
    <i name="volume">    365.06603650 </i>
    <varray name="rec_basis" >
     <v>       0.27548208       0.00000000       0.00000000 </v>
     <v>       0.00000000       0.27548208       0.00000000 </v>
     <v>       0.00000000       0.00000000       0.03609457 </v>
    </varray>
   </crystal>
   <varray name="positions" >
    <v>       0.00000000       0.00000000       0.00000000 </v>
    <v>       0.50000000       0.50000000       0.00000000 </v>
    <v>       0.00000000       0.50000000       0.06551164 </v>
    <v>       0.50000000       0.00000000       0.06551164 </v>
    <v>       0.00000000       0.00000000       0.12876120 </v>
    <v>       0.50000000       0.50000000       0.12876120 </v>
    <v>       0.00000000       0.50000000       0.19193187 </v>
    <v>       0.50000000       0.00000000       0.19193187 </v>
    <v>       0.00000000       0.00000000       0.25406550 </v>
    <v>       0.50000000       0.50000000       0.25406550 </v>
    <v>       0.00000000       0.50000000       0.31747855 </v>
    <v>       0.50000000       0.00000000       0.31747855 </v>
    <v>       0.00000000       0.00000000       0.38132233 </v>
    <v>       0.50000000       0.50000000       0.38132233 </v>
    <v>       0.00000000       0.50000000       0.44440075 </v>
    <v>       0.50000000       0.00000000       0.44440075 </v>
    <v>       1.00000000       0.50000000       0.50150658 </v>
    <v>       1.00000000       0.64531726       0.52054652 </v>
   </varray>
  </structure>
  <varray name="primitive_index" >
   <v type="int" >        1 </v>
   <v type="int" >        2 </v>
   <v type="int" >        3 </v>
   <v type="int" >        4 </v>
   <v type="int" >        5 </v>
   <v type="int" >        6 </v>
   <v type="int" >        7 </v>
   <v type="int" >        8 </v>
   <v type="int" >        9 </v>
   <v type="int" >       10 </v>
   <v type="int" >       11 </v>
   <v type="int" >       12 </v>
   <v type="int" >       13 </v>
   <v type="int" >       14 </v>
   <v type="int" >       15 </v>
   <v type="int" >       16 </v>
   <v type="int" >       17 </v>
   <v type="int" >       18 </v>
  </varray>
 </primitive_cell>
 <kpoints>
  <generation param="Monkhorst-Pack">
   <v type="int" name="divisions">       3        3        1 </v>
   <v name="usershift">      0.00000000       0.00000000       0.00000000 </v>
   <v name="genvec1">      0.33333333       0.00000000       0.00000000 </v>
   <v name="genvec2">      0.00000000       0.33333333       0.00000000 </v>
   <v name="genvec3">      0.00000000       0.00000000       1.00000000 </v>
   <v name="shift">      0.00000000       0.00000000       0.00000000 </v>
  </generation>
  <varray name="kpointlist" >
   <v>       0.00000000       0.00000000       0.00000000 </v>
   <v>       0.33333333       0.00000000       0.00000000 </v>
   <v>       0.00000000       0.33333333       0.00000000 </v>
   <v>       0.33333333       0.33333333       0.00000000 </v>
  </varray>
  <varray name="weights" >
   <v>       0.11111111 </v>
   <v>       0.22222222 </v>
   <v>       0.22222222 </v>
   <v>       0.44444444 </v>
  </varray>
 </kpoints>
 <parameters>
  <separator name="general" >
   <i type="string" name="SYSTEM">unknown system</i>
   <i type="logical" name="LCOMPAT"> F  </i>
  </separator>
  <separator name="electronic" >
   <i type="string" name="PREC">normal</i>
   <i name="ENMAX">    400.00000000</i>
   <i name="ENAUG">    586.98000000</i>
   <i name="EDIFF">      0.00020000</i>
   <i type="int" name="IALGO">    38</i>
   <i type="int" name="IWAVPR">    11</i>
   <i type="int" name="NBANDS">   116</i>
   <i type="int" name="NBANDSLOW">    -1</i>
   <i type="int" name="NBANDSHIGH">    -1</i>
   <i name="NELECT">    178.00000000</i>
   <i type="int" name="TURBO">     0</i>
   <i type="int" name="IRESTART">     0</i>
   <i type="int" name="NREBOOT">     0</i>
   <i type="int" name="NMIN">     0</i>
   <i name="EREF">      0.00000000</i>
   <separator name="electronic smearing" >
    <i type="int" name="ISMEAR">     1</i>
    <i name="SIGMA">      0.20000000</i>
    <i name="KSPACING">      0.50000000</i>
    <i type="logical" name="KGAMMA"> T  </i>
    <i type="logical" name="KBLOWUP"> T  </i>
   </separator>
   <separator name="electronic projectors" >
    <i type="logical" name="LREAL"> F  </i>
    <v name="ROPT">      0.00000000      0.00000000</v>
    <i type="int" name="LMAXPAW">  -100</i>
    <i type="int" name="LMAXMIX">     2</i>
    <i type="logical" name="NLSPLINE"> F  </i>
   </separator>
   <separator name="electronic startup" >
    <i type="int" name="ISTART">     0</i>
    <i type="int" name="ICHARG">     2</i>
    <i type="int" name="INIWAV">     1</i>
   </separator>
   <separator name="electronic spin" >
    <i type="int" name="ISPIN">     2</i>
    <i type="logical" name="LNONCOLLINEAR"> F  </i>
    <v name="MAGMOM">      1.00000000      1.00000000      1.00000000      1.00000000      1.00000000      1.00000000      1.00000000      1.00000000      1.00000000      1.00000000      1.00000000      1.00000000      1.00000000      1.00000000      1.00000000      1.00000000      1.00000000      1.00000000</v>
    <i name="NUPDOWN">     -1.00000000</i>
    <i type="logical" name="LSORBIT"> F  </i>
    <v name="SAXIS">      0.00000000      0.00000000      1.00000000</v>
    <i type="logical" name="LSPIRAL"> F  </i>
    <v name="QSPIRAL">      0.00000000      0.00000000      0.00000000</v>
    <i type="logical" name="LZEROZ"> F  </i>
   </separator>
   <separator name="electronic exchange-correlation" >
    <i type="logical" name="LASPH"> F  </i>
    <i type="logical" name="LMETAGGA"> F  </i>
   </separator>
   <separator name="electronic convergence" >
    <i type="int" name="NELM">    60</i>
    <i type="int" name="NELMDL">    -5</i>
    <i type="int" name="NELMIN">     2</i>
    <i name="ENINI">    400.00000000</i>
    <separator name="electronic convergence detail" >
     <i type="logical" name="LDIAG"> T  </i>
     <i type="logical" name="LSUBROT"> F  </i>
     <i name="WEIMIN">      0.00100000</i>
     <i name="EBREAK">      0.00000043</i>
     <i name="DEPER">      0.30000000</i>
     <i type="int" name="NRMM">     4</i>
     <i name="TIME">      0.40000000</i>
    </separator>
   </separator>
   <separator name="electronic mixer" >
    <i name="AMIX">      0.40000000</i>
    <i name="BMIX">      1.00000000</i>
    <i name="AMIN">      0.10000000</i>
    <i name="AMIX_MAG">      1.60000000</i>
    <i name="BMIX_MAG">      1.00000000</i>
    <separator name="electronic mixer details" >
     <i type="int" name="IMIX">     4</i>
     <i type="logical" name="MIXFIRST"> F  </i>
     <i type="int" name="MAXMIX">   -45</i>
     <i name="WC">    100.00000000</i>
     <i type="int" name="INIMIX">     1</i>
     <i type="int" name="MIXPRE">     1</i>
     <i type="int" name="MREMOVE">     5</i>
    </separator>
   </separator>
   <separator name="electronic dipolcorrection" >
    <i type="logical" name="LDIPOL"> F  </i>
    <i type="logical" name="LMONO"> F  </i>
    <i type="int" name="IDIPOL">     0</i>
    <i name="EPSILON">      1.00000000</i>
    <v name="DIPOL">   -100.00000000   -100.00000000   -100.00000000</v>
    <i name="EFIELD">      0.00000000</i>
   </separator>
  </separator>
  <separator name="grids" >
   <i type="int" name="NGX">    18</i>
   <i type="int" name="NGY">    18</i>
   <i type="int" name="NGZ">   140</i>
   <i type="int" name="NGXF">    36</i>
   <i type="int" name="NGYF">    36</i>
   <i type="int" name="NGZF">   280</i>
   <i type="logical" name="ADDGRID"> F  </i>
  </separator>
  <separator name="ionic" >
   <i type="int" name="NSW">   800</i>
   <i type="int" name="IBRION">     2</i>
   <i type="int" name="MDALGO">     0</i>
   <i type="int" name="ISIF">     2</i>
   <i name="PSTRESS">      0.00000000</i>
   <i name="EDIFFG">     -0.03000000</i>
   <i type="int" name="NFREE">     1</i>
   <i name="POTIM">      0.50000000</i>
   <i name="SMASS">     -3.00000000</i>
   <i name="SCALEE">      1.00000000</i>
  </separator>
  <separator name="ionic md" >
   <i name="TEBEG">      0.00010000</i>
   <i name="TEEND">      0.00010000</i>
   <i type="int" name="NBLOCK">     1</i>
   <i type="int" name="KBLOCK">   800</i>
   <i type="int" name="NPACO">   256</i>
   <i name="APACO">     10.00000000</i>
  </separator>
  <separator name="symmetry" >
   <i type="int" name="ISYM">     1</i>
   <i name="SYMPREC">      0.00001000</i>
  </separator>
  <separator name="dos" >
   <i type="int" name="LORBIT">     0</i>
   <v name="RWIGS">     -1.00000000     -1.00000000</v>
   <i type="int" name="NEDOS">   301</i>
   <i name="EMIN">     10.00000000</i>
   <i name="EMAX">    -10.00000000</i>
   <i name="EFERMI">      0.00000000</i>
  </separator>
  <separator name="writing" >
   <i type="int" name="NWRITE">     2</i>
   <i type="logical" name="LWAVE"> F  </i>
   <i type="logical" name="LDOWNSAMPLE"> F  </i>
   <i type="logical" name="LCHARG"> F  </i>
   <i type="logical" name="LPARD"> F  </i>
   <i type="logical" name="LVTOT"> F  </i>
   <i type="logical" name="LVHAR"> F  </i>
   <i type="logical" name="LELF"> F  </i>
   <i type="logical" name="LOPTICS"> F  </i>
   <v name="STM">      0.00000000      0.00000000      0.00000000      0.00000000      0.00000000      0.00000000      0.00000000</v>
  </separator>
  <separator name="performance" >
   <i type="int" name="NPAR">     4</i>
   <i type="int" name="NSIM">     4</i>
   <i type="int" name="NBLK">    -1</i>
   <i type="logical" name="LPLANE"> T  </i>
   <i type="logical" name="LSCALAPACK"> T  </i>
   <i type="logical" name="LSCAAWARE"> F  </i>
   <i type="logical" name="LSCALU"> F  </i>
   <i type="logical" name="LASYNC"> F  </i>
   <i type="logical" name="LORBITALREAL"> F  </i>
  </separator>
  <separator name="miscellaneous" >
   <i type="int" name="IDIOT">     3</i>
   <i type="int" name="PHON_NSTRUCT">    -1</i>
   <i type="logical" name="LMUSIC"> F  </i>
   <v name="POMASS">     63.54600000      1.00000000</v>
   <v name="DARWINR">      0.00000000      0.00000000</v>
   <v name="DARWINV">      1.00000000      1.00000000</v>
   <i type="logical" name="LCORR"> T  </i>
  </separator>
  <i type="logical" name="GGA_COMPAT"> T  </i>
  <i type="logical" name="LBERRY"> F  </i>
  <i type="int" name="ICORELEVEL">     0</i>
  <i type="logical" name="LDAU"> F  </i>
  <i type="int" name="I_CONSTRAINED_M">     0</i>
  <separator name="electronic exchange-correlation" >
   <i type="string" name="GGA">PE</i>
   <i type="int" name="VOSKOWN">     0</i>
   <i type="logical" name="LHFCALC"> F  </i>
   <i type="string" name="PRECFOCK"></i>
   <i type="logical" name="LSYMGRAD"> F  </i>
   <i type="logical" name="LHFONE"> F  </i>
   <i type="logical" name="LRHFCALC"> F  </i>
   <i type="logical" name="LTHOMAS"> F  </i>
   <i type="logical" name="LMODELHF"> F  </i>
   <i type="logical" name="LFOCKACE"> F  </i>
   <i name="ENCUT4O">     -1.00000000</i>
   <i type="int" name="EXXOEP">     0</i>
   <i type="int" name="FOURORBIT">     0</i>
   <i name="AEXX">      0.00000000</i>
   <i name="HFALPHA">      0.00000000</i>
   <i name="MCALPHA">      0.00000000</i>
   <i name="ALDAX">      1.00000000</i>
   <i name="AGGAX">      1.00000000</i>
   <i name="ALDAC">      1.00000000</i>
   <i name="AGGAC">      1.00000000</i>
   <i type="int" name="NKREDX">     1</i>
   <i type="int" name="NKREDY">     1</i>
   <i type="int" name="NKREDZ">     1</i>
   <i type="logical" name="SHIFTRED"> F  </i>
   <i type="logical" name="ODDONLY"> F  </i>
   <i type="logical" name="EVENONLY"> F  </i>
   <i type="int" name="LMAXFOCK">     0</i>
   <i type="int" name="NMAXFOCKAE">     0</i>
   <i type="logical" name="LFOCKAEDFT"> F  </i>
   <i name="HFSCREEN">      0.00000000</i>
   <i name="HFSCREENC">      0.00000000</i>
   <i type="int" name="NBANDSGWLOW">     0</i>
  </separator>
  <separator name="vdW DFT" >
   <i type="logical" name="LUSE_VDW"> F  </i>
   <i name="Zab_VDW">     -0.84910000</i>
   <i name="PARAM1">      0.12340000</i>
   <i name="PARAM2">      1.00000000</i>
   <i name="PARAM3">      0.00000000</i>
  </separator>
  <separator name="model GW" >
   <i type="int" name="MODEL_GW">     0</i>
   <i name="MODEL_EPS0">     12.16886788</i>
   <i name="MODEL_ALPHA">      1.00000000</i>
  </separator>
  <separator name="linear response parameters" >
   <i type="logical" name="LEPSILON"> F  </i>
   <i type="logical" name="LRPA"> F  </i>
   <i type="logical" name="LNABLA"> F  </i>
   <i type="logical" name="LVEL"> F  </i>
   <i name="CSHIFT">      0.10000000</i>
   <i name="OMEGAMAX">     -1.00000000</i>
   <i name="DEG_THRESHOLD">      0.00200000</i>
   <i name="RTIME">     -0.10000000</i>
   <i name="WPLASMAI">      0.00000000</i>
   <v name="DFIELD">      0.00000000      0.00000000      0.00000000</v>
   <v name="WPLASMA">      0.00000000      0.00000000      0.00000000      0.00000000      0.00000000      0.00000000      0.00000000      0.00000000      0.00000000</v>
  </separator>
  <separator name="orbital magnetization" >
   <i type="logical" name="NUCIND"> F  </i>
   <v name="MAGPOS">      0.00000000      0.00000000      0.00000000</v>
   <i type="logical" name="LNICSALL"> T  </i>
   <i type="logical" name="ORBITALMAG"> F  </i>
   <i type="logical" name="LMAGBLOCH"> F  </i>
   <i type="logical" name="LCHIMAG"> F  </i>
   <i type="logical" name="LGAUGE"> T  </i>
   <i type="int" name="MAGATOM">     0</i>
   <v name="MAGDIPOL">      0.00000000      0.00000000      0.00000000</v>
   <v name="AVECCONST">      0.00000000      0.00000000      0.00000000</v>
  </separator>
  <separator name="response functions" >
   <i type="logical" name="LFINITE_TEMPERATURE"> F  </i>
   <i type="logical" name="LADDER"> F  </i>
   <i type="logical" name="LRPAFORCE"> F  </i>
   <i type="logical" name="LFXC"> F  </i>
   <i type="logical" name="LHARTREE"> T  </i>
   <i type="int" name="IBSE">     0</i>
   <v type="int" name="KPOINT">    -1     0     0     0</v>
   <i type="logical" name="LTCTC"> F  </i>
   <i type="logical" name="LTCTE"> F  </i>
   <i type="logical" name="LTETE"> F  </i>
   <i type="logical" name="LTRIPLET"> F  </i>
   <i type="logical" name="LFXCEPS"> F  </i>
   <i type="logical" name="LFXHEG"> F  </i>
   <i type="int" name="NATURALO">     2</i>
   <i type="logical" name="LHOLEGF"> F  </i>
   <i type="logical" name="L2ORDER"> F  </i>
   <i type="logical" name="LDMP1"> F  </i>
   <i type="logical" name="LMP2LT"> F  </i>
   <i type="logical" name="LSMP2LT"> F  </i>
   <i type="logical" name="LGWLF"> F  </i>
   <i name="ENCUTGW">     -2.00000000</i>
   <i name="ENCUTGWSOFT">     -2.00000000</i>
   <i name="ENCUTLF">     -1.00000000</i>
   <i type="logical" name="LESF_SPLINES"> F  </i>
   <i type="int" name="LMAXMP2">    -1</i>
   <i name="SCISSOR">      0.00000000</i>
   <i type="int" name="NOMEGA">     0</i>
   <i type="int" name="NOMEGAR">     0</i>
   <i type="int" name="NBANDSGW">    -1</i>
   <i type="int" name="NBANDSO">    -1</i>
   <i type="int" name="NBANDSV">    -1</i>
   <i type="int" name="NELMGW">     1</i>
   <i type="int" name="NELMHF">     1</i>
   <i type="int" name="DIM">     3</i>
   <i type="int" name="IESPILON">     4</i>
   <i type="int" name="ANTIRES">     0</i>
   <i name="OMEGAMAX">    -30.00000000</i>
   <i name="OMEGAMIN">    -30.00000000</i>
   <i name="OMEGATL">   -200.00000000</i>
   <i type="int" name="OMEGAGRID">     0</i>
   <i name="CSHIFT">     -0.10000000</i>
   <i type="logical" name="LSELFENERGY"> F  </i>
   <i type="logical" name="LSPECTRAL"> F  </i>
   <i type="logical" name="LSPECTRALGW"> F  </i>
   <i type="logical" name="LSINGLES"> F  </i>
   <i type="logical" name="LFERMIGW"> F  </i>
   <i type="logical" name="ODDONLYGW"> F  </i>
   <i type="logical" name="EVENONLYGW"> F  </i>
   <i type="int" name="NKREDLFX">     1</i>
   <i type="int" name="NKREDLFY">     1</i>
   <i type="int" name="NKREDLFZ">     1</i>
   <i type="int" name="MAXMEM">  2800</i>
   <i type="int" name="TELESCOPE">     0</i>
   <i type="int" name="NTAUPAR">    -1</i>
   <i type="int" name="NOMEGAPAR">    -1</i>
   <i name="DAMP_NEWTON">      0.80000001</i>
   <i name="LAMBDA">      1.00000000</i>
  </separator>
  <separator name="External order field" >
   <i name="OFIELD_KAPPA">      0.00000000</i>
   <v name="OFIELD_K">      0.00000000      0.00000000      0.00000000</v>
   <i name="OFIELD_Q6_NEAR">      0.00000000</i>
   <i name="OFIELD_Q6_FAR">      0.00000000</i>
   <i name="OFIELD_A">      0.00000000</i>
  </separator>
  <separator name="optional k-points parameters" >
   <i type="int" name="KPOINTS_OPT_MODE">     1</i>
   <i type="logical" name="LKPOINTS_OPT"> F  </i>
  </separator>
 </parameters>
 <atominfo>
  <atoms>      18 </atoms>
  <types>       2 </types>
  <array name="atoms" >
   <dimension dim="1">ion</dimension>
   <field type="string">element</field>
   <field type="int">atomtype</field>
   <set>
    <rc><c>Cu</c><c>   1</c></rc>
    <rc><c>Cu</c><c>   1</c></rc>
    <rc><c>Cu</c><c>   1</c></rc>
    <rc><c>Cu</c><c>   1</c></rc>
    <rc><c>Cu</c><c>   1</c></rc>
    <rc><c>Cu</c><c>   1</c></rc>
    <rc><c>Cu</c><c>   1</c></rc>
    <rc><c>Cu</c><c>   1</c></rc>
    <rc><c>Cu</c><c>   1</c></rc>
    <rc><c>Cu</c><c>   1</c></rc>
    <rc><c>Cu</c><c>   1</c></rc>
    <rc><c>Cu</c><c>   1</c></rc>
    <rc><c>Cu</c><c>   1</c></rc>
    <rc><c>Cu</c><c>   1</c></rc>
    <rc><c>Cu</c><c>   1</c></rc>
    <rc><c>Cu</c><c>   1</c></rc>
    <rc><c>H </c><c>   2</c></rc>
    <rc><c>H </c><c>   2</c></rc>
   </set>
  </array>
  <array name="atomtypes" >
   <dimension dim="1">type</dimension>
   <field type="int">atomspertype</field>
   <field type="string">element</field>
   <field>mass</field>
   <field>valence</field>
   <field type="string">pseudopotential</field>
   <set>
    <rc><c>  16</c><c>Cu</c><c>     63.54600000</c><c>     11.00000000</c><c>  PAW_PBE Cu 22Jun2005                  </c></rc>
    <rc><c>   2</c><c>H </c><c>      1.00000000</c><c>      1.00000000</c><c>  PAW_PBE H 15Jun2001                   </c></rc>
   </set>
  </array>
 </atominfo>
 <structure name="initialpos" >
  <crystal>
   <varray name="basis" >
    <v>       3.63000011       0.00000000       0.00000000 </v>
    <v>       0.00000000       3.63000011       0.00000000 </v>
    <v>       0.00000000       0.00000000      27.70499992 </v>
   </varray>
   <i name="volume">    365.06603650 </i>
   <varray name="rec_basis" >
    <v>       0.27548208       0.00000000       0.00000000 </v>
    <v>       0.00000000       0.27548208       0.00000000 </v>
    <v>       0.00000000       0.00000000       0.03609457 </v>
   </varray>
  </crystal>
  <varray name="positions" >
   <v>       0.00000000       0.00000000       0.00000000 </v>
   <v>       0.50000000       0.50000000       0.00000000 </v>
   <v>       0.00000000       0.50000000       0.06551164 </v>
   <v>       0.50000000       0.00000000       0.06551164 </v>
   <v>       0.00000000       0.00000000       0.12876120 </v>
   <v>       0.50000000       0.50000000       0.12876120 </v>
   <v>       0.00000000       0.50000000       0.19193187 </v>
   <v>       0.50000000       0.00000000       0.19193187 </v>
   <v>       0.00000000       0.00000000       0.25406550 </v>
   <v>       0.50000000       0.50000000       0.25406550 </v>
   <v>       0.00000000       0.50000000       0.31747855 </v>
   <v>       0.50000000       0.00000000       0.31747855 </v>
   <v>       0.00000000       0.00000000       0.38132233 </v>
   <v>       0.50000000       0.50000000       0.38132233 </v>
   <v>       0.00000000       0.50000000       0.44440075 </v>
   <v>       0.50000000       0.00000000       0.44440075 </v>
   <v>       1.00000000       0.50000000       0.50150658 </v>
   <v>       1.00000000       0.64531726       0.52054652 </v>
  </varray>
 </structure>
 <calculation>
  <scstep>
   <time name="dav">    1.16    1.17</time>
   <time name="total">    1.19    1.20</time>
   <energy>
    <i name="alphaZ">    521.04204123 </i>
    <i name="ewald"> 102677.65894005 </i>
    <i name="hartreedc">-124584.37315683 </i>
    <i name="XCdc">    738.58982177 </i>
    <i name="pawpsdc">  19653.14859652 </i>
    <i name="pawaedc"> -21346.34030725 </i>
    <i name="eentropy">     -0.00821654 </i>
    <i name="bandstr">   1729.48873385 </i>
    <i name="atom">  22280.27950853 </i>
    <i name="e_fr_energy">   1669.48596133 </i>
    <i name="e_wo_entrp">   1669.49417787 </i>
    <i name="e_0_energy">   1669.48870018 </i>
   </energy>
  </scstep>
  <scstep>
   <time name="dav">    1.12    1.13</time>
   <time name="total">    1.13    1.14</time>
   <energy>
    <i name="e_fr_energy">    198.34146825 </i>
    <i name="e_wo_entrp">    198.32698373 </i>
    <i name="e_0_energy">    198.33664008 </i>
   </energy>
  </scstep>
  <scstep>
   <time name="dav">    1.14    1.15</time>
   <time name="total">    1.14    1.15</time>
   <energy>
    <i name="e_fr_energy">    -53.45383214 </i>
    <i name="e_wo_entrp">    -53.47703135 </i>
    <i name="e_0_energy">    -53.46156521 </i>
   </energy>
  </scstep>
  <scstep>
   <time name="dav">    1.24    1.25</time>
   <time name="total">    1.24    1.25</time>
   <energy>
    <i name="e_fr_energy">    -69.20930818 </i>
    <i name="e_wo_entrp">    -69.21217084 </i>
    <i name="e_0_energy">    -69.21026240 </i>
   </energy>
  </scstep>
  <scstep>
   <time name="dav">    1.25    1.26</time>
   <time name="total">    1.36    1.37</time>
   <energy>
    <i name="e_fr_energy">    -69.56197287 </i>
    <i name="e_wo_entrp">    -69.56437040 </i>
    <i name="e_0_energy">    -69.56277205 </i>
   </energy>
  </scstep>
  <scstep>
   <time name="dav">    1.26    1.27</time>
   <time name="total">    1.39    1.40</time>
   <energy>
    <i name="e_fr_energy">    -57.40829554 </i>
    <i name="e_wo_entrp">    -57.39188903 </i>
    <i name="e_0_energy">    -57.40282671 </i>
   </energy>
  </scstep>
  <scstep>
   <time name="dav">    1.24    1.25</time>
   <time name="total">    1.37    1.38</time>
   <energy>
    <i name="e_fr_energy">    -51.55758477 </i>
    <i name="e_wo_entrp">    -51.54181167 </i>
    <i name="e_0_energy">    -51.55232707 </i>
   </energy>
  </scstep>
  <scstep>
   <time name="dav">    1.36    1.38</time>
   <time name="total">    1.50    1.52</time>
   <energy>
    <i name="e_fr_energy">    -53.21195458 </i>
    <i name="e_wo_entrp">    -53.23836839 </i>
    <i name="e_0_energy">    -53.22075919 </i>
   </energy>
  </scstep>
  <scstep>
   <time name="dav">    1.46    1.47</time>
   <time name="total">    1.59    1.60</time>
   <energy>
    <i name="e_fr_energy">    -50.56629931 </i>
    <i name="e_wo_entrp">    -50.54149843 </i>
    <i name="e_0_energy">    -50.55803235 </i>
   </energy>
  </scstep>
  <scstep>
   <time name="dav">    1.74    1.75</time>
   <time name="total">    1.87    1.88</time>
   <energy>
    <i name="e_fr_energy">    -50.41504720 </i>
    <i name="e_wo_entrp">    -50.40384578 </i>
    <i name="e_0_energy">    -50.41131339 </i>
   </energy>
  </scstep>
  <scstep>
   <time name="dav">    1.44    1.45</time>
   <time name="total">    1.58    1.59</time>
   <energy>
    <i name="e_fr_energy">    -51.54402495 </i>
    <i name="e_wo_entrp">    -51.52005464 </i>
    <i name="e_0_energy">    -51.53603485 </i>
   </energy>
  </scstep>
  <scstep>
   <time name="dav">    1.30    1.31</time>
   <time name="total">    1.42    1.44</time>
   <energy>
    <i name="e_fr_energy">    -52.04969718 </i>
    <i name="e_wo_entrp">    -52.02157868 </i>
    <i name="e_0_energy">    -52.04032435 </i>
   </energy>
  </scstep>
  <scstep>
   <time name="dav">    1.45    1.46</time>
   <time name="total">    1.58    1.60</time>
   <energy>
    <i name="e_fr_energy">    -53.68399712 </i>
    <i name="e_wo_entrp">    -53.67077337 </i>
    <i name="e_0_energy">    -53.67958920 </i>
   </energy>
  </scstep>
  <scstep>
   <time name="dav">    1.35    1.36</time>
   <time name="total">    1.48    1.49</time>
   <energy>
    <i name="e_fr_energy">    -54.54272115 </i>
    <i name="e_wo_entrp">    -54.52920348 </i>
    <i name="e_0_energy">    -54.53821526 </i>
   </energy>
  </scstep>
  <scstep>
   <time name="dav">    1.30    1.31</time>
   <time name="total">    1.43    1.44</time>
   <energy>
    <i name="e_fr_energy">    -58.47586899 </i>
    <i name="e_wo_entrp">    -58.46815796 </i>
    <i name="e_0_energy">    -58.47329865 </i>
   </energy>
  </scstep>
  <scstep>
   <time name="dav">    1.43    1.44</time>
   <time name="total">    1.56    1.57</time>
   <energy>
    <i name="e_fr_energy">    -59.84484662 </i>
    <i name="e_wo_entrp">    -59.83670184 </i>
    <i name="e_0_energy">    -59.84213169 </i>
   </energy>
  </scstep>
  <scstep>
   <time name="dav">    1.44    1.45</time>
   <time name="total">    1.57    1.58</time>
   <energy>
    <i name="e_fr_energy">    -60.05883667 </i>
    <i name="e_wo_entrp">    -60.04407964 </i>
    <i name="e_0_energy">    -60.05391766 </i>
   </energy>
  </scstep>
  <scstep>
   <time name="dav">    1.33    1.34</time>
   <time name="total">    1.45    1.47</time>
   <energy>
    <i name="e_fr_energy">    -60.48095448 </i>
    <i name="e_wo_entrp">    -60.45948414 </i>
    <i name="e_0_energy">    -60.47379770 </i>
   </energy>
  </scstep>
  <scstep>
   <time name="dav">    1.38    1.39</time>
   <time name="total">    1.51    1.53</time>
   <energy>
    <i name="e_fr_energy">    -60.78555185 </i>
    <i name="e_wo_entrp">    -60.75844921 </i>
    <i name="e_0_energy">    -60.77651763 </i>
   </energy>
  </scstep>
  <scstep>
   <time name="dav">    1.29    1.30</time>
   <time name="total">    1.42    1.43</time>
   <energy>
    <i name="e_fr_energy">    -61.14717531 </i>
    <i name="e_wo_entrp">    -61.11612569 </i>
    <i name="e_0_energy">    -61.13682544 </i>
   </energy>
  </scstep>
  <scstep>
   <time name="dav">    1.34    1.35</time>
   <time name="total">    1.47    1.48</time>
   <energy>
    <i name="e_fr_energy">    -61.40586652 </i>
    <i name="e_wo_entrp">    -61.37289449 </i>
    <i name="e_0_energy">    -61.39487584 </i>
   </energy>
  </scstep>
  <scstep>
   <time name="dav">    1.43    1.44</time>
   <time name="total">    1.58    1.59</time>
   <energy>
    <i name="e_fr_energy">    -61.71468888 </i>
    <i name="e_wo_entrp">    -61.67746437 </i>
    <i name="e_0_energy">    -61.70228071 </i>
   </energy>
  </scstep>
  <scstep>
   <time name="dav">    1.37    1.38</time>
   <time name="total">    1.50    1.51</time>
   <energy>
    <i name="e_fr_energy">    -61.98786474 </i>
    <i name="e_wo_entrp">    -61.95091951 </i>
    <i name="e_0_energy">    -61.97554966 </i>
   </energy>
  </scstep>
  <scstep>
   <time name="dav">    1.37    1.38</time>
   <time name="total">    1.51    1.52</time>
   <energy>
    <i name="e_fr_energy">    -62.20611649 </i>
    <i name="e_wo_entrp">    -62.16908813 </i>
    <i name="e_0_energy">    -62.19377370 </i>
   </energy>
  </scstep>
  <scstep>
   <time name="dav">    1.34    1.35</time>
   <time name="total">    1.47    1.48</time>
   <energy>
    <i name="e_fr_energy">    -62.41297914 </i>
    <i name="e_wo_entrp">    -62.37562274 </i>
    <i name="e_0_energy">    -62.40052701 </i>
   </energy>
  </scstep>
  <scstep>
   <time name="dav">    1.30    1.31</time>
   <time name="total">    1.43    1.44</time>
   <energy>
    <i name="e_fr_energy">    -62.52601796 </i>
    <i name="e_wo_entrp">    -62.48784808 </i>
    <i name="e_0_energy">    -62.51329467 </i>
   </energy>
  </scstep>
  <scstep>
   <time name="dav">    1.28    1.29</time>
   <time name="total">    1.42    1.43</time>
   <energy>
    <i name="e_fr_energy">    -62.60727238 </i>
    <i name="e_wo_entrp">    -62.56766281 </i>
    <i name="e_0_energy">    -62.59406919 </i>
   </energy>
  </scstep>
  <scstep>
   <time name="dav">    1.23    1.23</time>
   <time name="total">    1.36    1.38</time>
   <energy>
    <i name="e_fr_energy">    -62.65386376 </i>
    <i name="e_wo_entrp">    -62.61504532 </i>
    <i name="e_0_energy">    -62.64092428 </i>
   </energy>
  </scstep>
  <scstep>
   <time name="dav">    1.22    1.23</time>
   <time name="total">    1.36    1.37</time>
   <energy>
    <i name="e_fr_energy">    -62.66945885 </i>
    <i name="e_wo_entrp">    -62.63099217 </i>
    <i name="e_0_energy">    -62.65663662 </i>
   </energy>
  </scstep>
  <scstep>
   <time name="dav">    0.91    0.92</time>
   <time name="total">    1.05    1.06</time>
   <energy>
    <i name="e_fr_energy">    -62.67178353 </i>
    <i name="e_wo_entrp">    -62.63322289 </i>
    <i name="e_0_energy">    -62.65892998 </i>
   </energy>
  </scstep>
  <scstep>
   <time name="dav">    0.87    0.88</time>
   <time name="total">    1.01    1.02</time>
   <energy>
    <i name="e_fr_energy">    -62.67292647 </i>
    <i name="e_wo_entrp">    -62.63421965 </i>
    <i name="e_0_energy">    -62.66002420 </i>
   </energy>
  </scstep>
  <scstep>
   <time name="dav">    0.87    0.88</time>
   <time name="total">    1.01    1.02</time>
   <energy>
    <i name="e_fr_energy">    -62.67315499 </i>
    <i name="e_wo_entrp">    -62.63461579 </i>
    <i name="e_0_energy">    -62.66030859 </i>
   </energy>
  </scstep>
  <scstep>
   <time name="dav">    0.87    0.87</time>
   <time name="total">    1.01    1.02</time>
   <energy>
    <i name="e_fr_energy">    -62.67284934 </i>
    <i name="e_wo_entrp">    -62.63417169 </i>
    <i name="e_0_energy">    -62.65995679 </i>
   </energy>
  </scstep>
  <scstep>
   <time name="dav">    0.88    0.89</time>
   <time name="total">    1.02    1.03</time>
   <energy>
    <i name="e_fr_energy">    -62.67264873 </i>
    <i name="e_wo_entrp">    -62.63398549 </i>
    <i name="e_0_energy">    -62.65976098 </i>
   </energy>
  </scstep>
  <scstep>
   <time name="dav">    0.86    0.87</time>
   <time name="total">    0.89    0.90</time>
   <energy>
    <i name="alphaZ">    521.04204123 </i>
    <i name="ewald"> 102677.65894005 </i>
    <i name="hartreedc">-124371.10698965 </i>
    <i name="XCdc">    719.62445166 </i>
    <i name="pawpsdc">  21096.28460591 </i>
    <i name="pawaedc"> -22822.83053790 </i>
    <i name="eentropy">     -0.03857637 </i>
    <i name="bandstr">   -163.58602536 </i>
    <i name="atom">  22280.27950853 </i>
    <i name="e_fr_energy">    -62.67258191 </i>
    <i name="e_wo_entrp">    -62.63400554 </i>
    <i name="e_0_energy">    -62.65972312 </i>
   </energy>
  </scstep>
  <structure>
   <crystal>
    <varray name="basis" >
     <v>       3.63000011       0.00000000       0.00000000 </v>
     <v>       0.00000000       3.63000011       0.00000000 </v>
     <v>       0.00000000       0.00000000      27.70499992 </v>
    </varray>
    <i name="volume">    365.06603650 </i>
    <varray name="rec_basis" >
     <v>       0.27548208       0.00000000       0.00000000 </v>
     <v>       0.00000000       0.27548208       0.00000000 </v>
     <v>       0.00000000       0.00000000       0.03609457 </v>
    </varray>
   </crystal>
   <varray name="positions" >
    <v>       0.00000000       0.00000000       0.00000000 </v>
    <v>       0.50000000       0.50000000       0.00000000 </v>
    <v>       0.00000000       0.50000000       0.06551164 </v>
    <v>       0.50000000       0.00000000       0.06551164 </v>
    <v>       0.00000000       0.00000000       0.12876120 </v>
    <v>       0.50000000       0.50000000       0.12876120 </v>
    <v>       0.00000000       0.50000000       0.19193187 </v>
    <v>       0.50000000       0.00000000       0.19193187 </v>
    <v>       0.00000000       0.00000000       0.25406550 </v>
    <v>       0.50000000       0.50000000       0.25406550 </v>
    <v>       0.00000000       0.50000000       0.31747855 </v>
    <v>       0.50000000       0.00000000       0.31747855 </v>
    <v>       0.00000000       0.00000000       0.38132233 </v>
    <v>       0.50000000       0.50000000       0.38132233 </v>
    <v>       0.00000000       0.50000000       0.44440075 </v>
    <v>       0.50000000       0.00000000       0.44440075 </v>
    <v>       1.00000000       0.50000000       0.50150658 </v>
    <v>       1.00000000       0.64531726       0.52054652 </v>
   </varray>
  </structure>
  <varray name="forces" >
   <v>       0.00000000       0.00127832       0.24588566 </v>
   <v>       0.00000000      -0.00136721       0.24700052 </v>
   <v>       0.00000000       0.00041181      -0.22459205 </v>
   <v>       0.00000000       0.00005427      -0.24300883 </v>
   <v>       0.00000000      -0.00398581       0.01229606 </v>
   <v>       0.00000000       0.00359751       0.01284405 </v>
   <v>       0.00000000       0.00751066      -0.00077799 </v>
   <v>       0.00000000      -0.00819534      -0.03095029 </v>
   <v>       0.00000000       0.01224574       0.03155971 </v>
   <v>       0.00000000      -0.01102045       0.03092857 </v>
   <v>       0.00000000       0.00143752       0.06715873 </v>
   <v>       0.00000000      -0.00117414      -0.03929172 </v>
   <v>       0.00000000       0.02480757      -0.00257326 </v>
   <v>       0.00000000      -0.01078012      -0.00052378 </v>
   <v>       0.00000000       0.04898939      -1.17415268 </v>
   <v>       0.00000000       0.09868098      -0.39755946 </v>
   <v>       0.00000000      -1.05079614       0.58348492 </v>
   <v>       0.00000000       0.88830546       0.88227185 </v>
  </varray>
  <varray name="stress" >
   <v>     -19.59159713       0.00000000       0.00000000 </v>
   <v>       0.00000000     -17.61042309       0.73802755 </v>
   <v>       0.00000000       0.73802757       1.03342345 </v>
  </varray>
  <energy>
   <i name="e_fr_energy">    -69.61685840 </i>
   <i name="e_wo_entrp">    -69.57828202 </i>
   <i name="e_0_energy">    -69.60399961 </i>
  </energy>
  <time name="totalsc">   49.79   50.21</time>
 </calculation>
 <calculation>
  <scstep>
   <time name="dav">    1.18    1.19</time>
   <time name="total">    1.32    1.33</time>
   <energy>
    <i name="alphaZ">    521.04204123 </i>
    <i name="ewald"> 103096.62358595 </i>
    <i name="hartreedc">-124791.07444882 </i>
    <i name="XCdc">    719.62700464 </i>
    <i name="pawpsdc">  21096.48096995 </i>
    <i name="pawaedc"> -22823.03365822 </i>
    <i name="eentropy">     -0.04109066 </i>
    <i name="bandstr">   -162.62736427 </i>
    <i name="atom">  22280.27950853 </i>
    <i name="e_fr_energy">    -62.72345166 </i>
    <i name="e_wo_entrp">    -62.68236100 </i>
    <i name="e_0_energy">    -62.70975478 </i>
   </energy>
  </scstep>
  <scstep>
   <time name="dav">    1.56    1.58</time>
   <time name="total">    1.70    1.71</time>
   <energy>
    <i name="e_fr_energy">    -62.79328565 </i>
    <i name="e_wo_entrp">    -62.76082437 </i>
    <i name="e_0_energy">    -62.78246522 </i>
   </energy>
  </scstep>
  <scstep>
   <time name="dav">    1.37    1.38</time>
   <time name="total">    1.50    1.52</time>
   <energy>
    <i name="e_fr_energy">    -62.80247916 </i>
    <i name="e_wo_entrp">    -62.77228981 </i>
    <i name="e_0_energy">    -62.79241604 </i>
   </energy>
  </scstep>
  <scstep>
   <time name="dav">    1.35    1.36</time>
   <time name="total">    1.50    1.51</time>
   <energy>
    <i name="e_fr_energy">    -62.77253141 </i>
    <i name="e_wo_entrp">    -62.73659006 </i>
    <i name="e_0_energy">    -62.76055096 </i>
   </energy>
  </scstep>
  <scstep>
   <time name="dav">    1.50    1.51</time>
   <time name="total">    1.64    1.66</time>
   <energy>
    <i name="e_fr_energy">    -62.77448126 </i>
    <i name="e_wo_entrp">    -62.72473685 </i>
    <i name="e_0_energy">    -62.75789979 </i>
   </energy>
  </scstep>
  <scstep>
   <time name="dav">    1.37    1.38</time>
   <time name="total">    1.50    1.52</time>
   <energy>
    <i name="e_fr_energy">    -62.77103432 </i>
    <i name="e_wo_entrp">    -62.73550946 </i>
    <i name="e_0_energy">    -62.75919270 </i>
   </energy>
  </scstep>
  <scstep>
   <time name="dav">    1.52    1.53</time>
   <time name="total">    1.66    1.67</time>
   <energy>
    <i name="e_fr_energy">    -62.76971721 </i>
    <i name="e_wo_entrp">    -62.72907495 </i>
    <i name="e_0_energy">    -62.75616979 </i>
   </energy>
  </scstep>
  <scstep>
   <time name="dav">    1.29    1.30</time>
   <time name="total">    1.42    1.44</time>
   <energy>
    <i name="e_fr_energy">    -62.76980332 </i>
    <i name="e_wo_entrp">    -62.72958452 </i>
    <i name="e_0_energy">    -62.75639705 </i>
   </energy>
  </scstep>
  <scstep>
   <time name="dav">    1.13    1.14</time>
   <time name="total">    1.16    1.17</time>
   <energy>
    <i name="alphaZ">    521.04204123 </i>
    <i name="ewald"> 103096.62358595 </i>
    <i name="hartreedc">-124784.74159651 </i>
    <i name="XCdc">    719.51239136 </i>
    <i name="pawpsdc">  21102.12818879 </i>
    <i name="pawaedc"> -22828.91407953 </i>
    <i name="eentropy">     -0.04016474 </i>
    <i name="bandstr">   -168.65976151 </i>
    <i name="atom">  22280.27950853 </i>
    <i name="e_fr_energy">    -62.76988643 </i>
    <i name="e_wo_entrp">    -62.72972169 </i>
    <i name="e_0_energy">    -62.75649819 </i>
   </energy>
  </scstep>
  <structure>
   <crystal>
    <varray name="basis" >
     <v>       3.63000011       0.00000000       0.00000000 </v>
     <v>       0.00000000       3.63000011       0.00000000 </v>
     <v>       0.00000000       0.00000000      27.70499992 </v>
    </varray>
    <i name="volume">    365.06603650 </i>
    <varray name="rec_basis" >
     <v>       0.27548208       0.00000000       0.00000000 </v>
     <v>       0.00000000       0.27548208       0.00000000 </v>
     <v>       0.00000000       0.00000000       0.03609457 </v>
    </varray>
   </crystal>
   <varray name="positions" >
    <v>       0.00000000       0.00001699       0.00042816 </v>
    <v>       0.50000000       0.49998183       0.00043010 </v>
    <v>       0.00000000       0.50000547       0.06512056 </v>
    <v>       0.50000000       0.00000072       0.06508849 </v>
    <v>       0.00000000      -0.00005297       0.12878261 </v>
    <v>       0.50000000       0.50004781       0.12878356 </v>
    <v>       0.00000000       0.50009982       0.19193051 </v>
    <v>       0.50000000      -0.00010892       0.19187797 </v>
    <v>       0.00000000       0.00016275       0.25412046 </v>
    <v>       0.50000000       0.49985354       0.25411936 </v>
    <v>       0.00000000       0.50001910       0.31759550 </v>
    <v>       0.50000000      -0.00001560       0.31741014 </v>
    <v>       0.00000000       0.00032969       0.38131784 </v>
    <v>       0.50000000       0.49985673       0.38132141 </v>
    <v>       0.00000000       0.50065107       0.44235620 </v>
    <v>       0.50000000       0.00131147       0.44370848 </v>
    <v>       1.00000000       0.48603493       0.50252260 </v>
    <v>       1.00000000       0.65712282       0.52208282 </v>
   </varray>
  </structure>
  <varray name="forces" >
   <v>       0.00000000       0.00140726       0.16077100 </v>
   <v>       0.00000000      -0.00017288       0.16200370 </v>
   <v>       0.00000000       0.00049068      -0.10731737 </v>
   <v>       0.00000000       0.00114001      -0.11566664 </v>
   <v>       0.00000000      -0.00012974      -0.03871387 </v>
   <v>       0.00000000       0.00119156      -0.03823364 </v>
   <v>       0.00000000       0.00536292       0.00254348 </v>
   <v>       0.00000000      -0.00456113      -0.00878791 </v>
   <v>       0.00000000       0.00759069       0.02102117 </v>
   <v>       0.00000000      -0.00534188       0.01740393 </v>
   <v>       0.00000000       0.00531529       0.04173328 </v>
   <v>       0.00000000      -0.00189328      -0.01742317 </v>
   <v>       0.00000000       0.01624123      -0.15673206 </v>
   <v>       0.00000000       0.01035454      -0.15929372 </v>
   <v>       0.00000000       0.05895154      -0.35027926 </v>
   <v>       0.00000000       0.07055620      -0.27456737 </v>
   <v>       0.00000000       0.37033262       1.30681442 </v>
   <v>       0.00000000      -0.53683563      -0.44527595 </v>
  </varray>
  <varray name="stress" >
   <v>     -19.53764495       0.00000000       0.00000000 </v>
   <v>       0.00000000     -20.94119814      -2.76020411 </v>
   <v>       0.00000000      -2.76020418      -4.97581597 </v>
  </varray>
  <energy>
   <i name="e_fr_energy">    -69.72873614 </i>
   <i name="e_wo_entrp">    -69.68857140 </i>
   <i name="e_0_energy">    -69.71534789 </i>
  </energy>
  <time name="totalsc">   15.32   15.56</time>
 </calculation>
 <calculation>
  <scstep>
   <time name="dav">    1.16    1.17</time>
   <time name="total">    1.31    1.32</time>
   <energy>
    <i name="alphaZ">    521.04204123 </i>
    <i name="ewald"> 103116.68121318 </i>
    <i name="hartreedc">-124804.73253372 </i>
    <i name="XCdc">    719.51185745 </i>
    <i name="pawpsdc">  21102.28192216 </i>
    <i name="pawaedc"> -22829.06114143 </i>
    <i name="eentropy">     -0.04040882 </i>
    <i name="bandstr">   -168.73121038 </i>
    <i name="atom">  22280.27950853 </i>
    <i name="e_fr_energy">    -62.76875180 </i>
    <i name="e_wo_entrp">    -62.72834298 </i>
    <i name="e_0_energy">    -62.75528220 </i>
   </energy>
  </scstep>
  <scstep>
   <time name="dav">    1.14    1.15</time>
   <time name="total">    1.28    1.29</time>
   <energy>
    <i name="e_fr_energy">    -62.76913846 </i>
    <i name="e_wo_entrp">    -62.72870285 </i>
    <i name="e_0_energy">    -62.75565992 </i>
   </energy>
  </scstep>
  <scstep>
   <time name="dav">    0.97    0.97</time>
   <time name="total">    1.10    1.11</time>
   <energy>
    <i name="e_fr_energy">    -62.76892901 </i>
    <i name="e_wo_entrp">    -62.72846938 </i>
    <i name="e_0_energy">    -62.75544246 </i>
   </energy>
  </scstep>
  <scstep>
   <time name="dav">    0.83    0.84</time>
   <time name="total">    0.86    0.87</time>
   <energy>
    <i name="alphaZ">    521.04204123 </i>
    <i name="ewald"> 103116.68121318 </i>
    <i name="hartreedc">-124804.14345318 </i>
    <i name="XCdc">    719.50658175 </i>
    <i name="pawpsdc">  21102.87846587 </i>
    <i name="pawaedc"> -22829.65453811 </i>
    <i name="eentropy">     -0.04002671 </i>
    <i name="bandstr">   -169.31876902 </i>
    <i name="atom">  22280.27950853 </i>
    <i name="e_fr_energy">    -62.76897645 </i>
    <i name="e_wo_entrp">    -62.72894974 </i>
    <i name="e_0_energy">    -62.75563421 </i>
   </energy>
  </scstep>
  <structure>
   <crystal>
    <varray name="basis" >
     <v>       3.63000011       0.00000000       0.00000000 </v>
     <v>       0.00000000       3.63000011       0.00000000 </v>
     <v>       0.00000000       0.00000000      27.70499992 </v>
    </varray>
    <i name="volume">    365.06603650 </i>
    <varray name="rec_basis" >
     <v>       0.27548208       0.00000000       0.00000000 </v>
     <v>       0.00000000       0.27548208       0.00000000 </v>
     <v>       0.00000000       0.00000000       0.03609457 </v>
    </varray>
   </crystal>
   <varray name="positions" >
    <v>       0.00000000       0.00001780       0.00044858 </v>
    <v>       0.50000000       0.49998096       0.00045061 </v>
    <v>       0.00000000       0.50000573       0.06510191 </v>
    <v>       0.50000000       0.00000076       0.06506831 </v>
    <v>       0.00000000      -0.00005550       0.12878363 </v>
    <v>       0.50000000       0.50005009       0.12878463 </v>
    <v>       0.00000000       0.50010458       0.19193045 </v>
    <v>       0.50000000      -0.00011411       0.19187540 </v>
    <v>       0.00000000       0.00017051       0.25412308 </v>
    <v>       0.50000000       0.49984655       0.25412193 </v>
    <v>       0.00000000       0.50002002       0.31760107 </v>
    <v>       0.50000000      -0.00001635       0.31740687 </v>
    <v>       0.00000000       0.00034542       0.38131763 </v>
    <v>       0.50000000       0.49984990       0.38132137 </v>
    <v>       0.00000000       0.50068212       0.44225869 </v>
    <v>       0.50000000       0.00137402       0.44367546 </v>
    <v>       1.00000000       0.48536888       0.50257106 </v>
    <v>       1.00000000       0.65768588       0.52215609 </v>
   </varray>
  </structure>
  <varray name="forces" >
   <v>       0.00000000       0.00127090       0.14837718 </v>
   <v>       0.00000000      -0.00019408       0.14971985 </v>
   <v>       0.00000000       0.00046491      -0.10229823 </v>
   <v>       0.00000000       0.00121253      -0.11007425 </v>
   <v>       0.00000000       0.00000924      -0.04187531 </v>
   <v>       0.00000000       0.00095995      -0.04150433 </v>
   <v>       0.00000000       0.00507530       0.00297188 </v>
   <v>       0.00000000      -0.00427312      -0.00663943 </v>
   <v>       0.00000000       0.00693711       0.01773000 </v>
   <v>       0.00000000      -0.00486008       0.01395656 </v>
   <v>       0.00000000       0.00543637       0.03510453 </v>
   <v>       0.00000000      -0.00208561      -0.01792990 </v>
   <v>       0.00000000       0.01541447      -0.16389457 </v>
   <v>       0.00000000       0.01132854      -0.16639729 </v>
   <v>       0.00000000       0.05807396      -0.29329012 </v>
   <v>       0.00000000       0.06677684      -0.25896548 </v>
   <v>       0.00000000       0.41589101       1.31456779 </v>
   <v>       0.00000000      -0.57743825      -0.47955889 </v>
  </varray>
  <varray name="stress" >
   <v>     -17.96377830       0.00000000       0.00000000 </v>
   <v>       0.00000000     -19.49048187      -2.86065749 </v>
   <v>       0.00000000      -2.86065738      -3.45184930 </v>
  </varray>
  <energy>
   <i name="e_fr_energy">    -69.72913619 </i>
   <i name="e_wo_entrp">    -69.68910948 </i>
   <i name="e_0_energy">    -69.71579396 </i>
  </energy>
  <time name="totalsc">    6.45    6.55</time>
 </calculation>
 <calculation>
  <scstep>
   <time name="dav">    1.15    1.16</time>
   <time name="total">    1.29    1.30</time>
   <energy>
    <i name="alphaZ">    521.04204123 </i>
    <i name="ewald"> 103581.85395358 </i>
    <i name="hartreedc">-125268.62847514 </i>
    <i name="XCdc">    719.61400937 </i>
    <i name="pawpsdc">  21103.05688952 </i>
    <i name="pawaedc"> -22829.84195142 </i>
    <i name="eentropy">     -0.04139678 </i>
    <i name="bandstr">   -170.14181759 </i>
    <i name="atom">  22280.27950853 </i>
    <i name="e_fr_energy">    -62.80723869 </i>
    <i name="e_wo_entrp">    -62.76584191 </i>
    <i name="e_0_energy">    -62.79343976 </i>
   </energy>
  </scstep>
  <scstep>
   <time name="dav">    1.50    1.51</time>
   <time name="total">    1.65    1.66</time>
   <energy>
    <i name="e_fr_energy">    -62.87366180 </i>
    <i name="e_wo_entrp">    -62.83818413 </i>
    <i name="e_0_energy">    -62.86183591 </i>
   </energy>
  </scstep>
  <scstep>
   <time name="dav">    1.36    1.37</time>
   <time name="total">    1.51    1.52</time>
   <energy>
    <i name="e_fr_energy">    -62.87271719 </i>
    <i name="e_wo_entrp">    -62.83702894 </i>
    <i name="e_0_energy">    -62.86082111 </i>
   </energy>
  </scstep>
  <scstep>
   <time name="dav">    1.37    1.38</time>
   <time name="total">    1.51    1.52</time>
   <energy>
    <i name="e_fr_energy">    -62.86012174 </i>
    <i name="e_wo_entrp">    -62.82099445 </i>
    <i name="e_0_energy">    -62.84707931 </i>
   </energy>
  </scstep>
  <scstep>
   <time name="dav">    1.48    1.49</time>
   <time name="total">    1.62    1.63</time>
   <energy>
    <i name="e_fr_energy">    -62.86012659 </i>
    <i name="e_wo_entrp">    -62.81448211 </i>
    <i name="e_0_energy">    -62.84491176 </i>
   </energy>
  </scstep>
  <scstep>
   <time name="dav">    1.29    1.30</time>
   <time name="total">    1.43    1.45</time>
   <energy>
    <i name="e_fr_energy">    -62.86244407 </i>
    <i name="e_wo_entrp">    -62.83015493 </i>
    <i name="e_0_energy">    -62.85168102 </i>
   </energy>
  </scstep>
  <scstep>
   <time name="dav">    1.57    1.58</time>
   <time name="total">    1.71    1.73</time>
   <energy>
    <i name="e_fr_energy">    -62.85796101 </i>
    <i name="e_wo_entrp">    -62.81664019 </i>
    <i name="e_0_energy">    -62.84418740 </i>
   </energy>
  </scstep>
  <scstep>
   <time name="dav">    1.45    1.46</time>
   <time name="total">    1.59    1.60</time>
   <energy>
    <i name="e_fr_energy">    -62.85812698 </i>
    <i name="e_wo_entrp">    -62.81734411 </i>
    <i name="e_0_energy">    -62.84453269 </i>
   </energy>
  </scstep>
  <scstep>
   <time name="dav">    1.12    1.13</time>
   <time name="total">    1.15    1.16</time>
   <energy>
    <i name="alphaZ">    521.04204123 </i>
    <i name="ewald"> 103581.85395358 </i>
    <i name="hartreedc">-125268.14651809 </i>
    <i name="XCdc">    719.64862976 </i>
    <i name="pawpsdc">  21118.92743120 </i>
    <i name="pawaedc"> -22846.03092478 </i>
    <i name="eentropy">     -0.04077620 </i>
    <i name="bandstr">   -170.39144948 </i>
    <i name="atom">  22280.27950853 </i>
    <i name="e_fr_energy">    -62.85810425 </i>
    <i name="e_wo_entrp">    -62.81732805 </i>
    <i name="e_0_energy">    -62.84451218 </i>
   </energy>
  </scstep>
  <structure>
   <crystal>
    <varray name="basis" >
     <v>       3.63000011       0.00000000       0.00000000 </v>
     <v>       0.00000000       3.63000011       0.00000000 </v>
     <v>       0.00000000       0.00000000      27.70499992 </v>
    </varray>
    <i name="volume">    365.06603650 </i>
    <varray name="rec_basis" >
     <v>       0.27548208       0.00000000       0.00000000 </v>
     <v>       0.00000000       0.27548208       0.00000000 </v>
     <v>       0.00000000       0.00000000       0.03609457 </v>
    </varray>
   </crystal>
   <varray name="positions" >
    <v>       0.00000000       0.00004476       0.00095918 </v>
    <v>       0.50000000       0.49996776       0.00096470 </v>
    <v>       0.00000000       0.50001516       0.06469394 </v>
    <v>       0.50000000       0.00001744       0.06462797 </v>
    <v>       0.00000000      -0.00008627       0.12872251 </v>
    <v>       0.50000000       0.50009086       0.12872471 </v>
    <v>       0.00000000       0.50023090       0.19193488 </v>
    <v>       0.50000000      -0.00023498       0.19183229 </v>
    <v>       0.00000000       0.00035852       0.25418630 </v>
    <v>       0.50000000       0.49969591       0.25417788 </v>
    <v>       0.00000000       0.50010410       0.31773100 </v>
    <v>       0.50000000      -0.00005343       0.31733544 </v>
    <v>       0.00000000       0.00074455       0.38102691 </v>
    <v>       0.50000000       0.49991832       0.38102833 </v>
    <v>       0.00000000       0.50184108       0.44055044 </v>
    <v>       0.50000000       0.00303498       0.44281640 </v>
    <v>       1.00000000       0.48280242       0.50547463 </v>
    <v>       1.00000000       0.65682518       0.52220926 </v>
   </varray>
  </structure>
  <varray name="forces" >
   <v>       0.00000000       0.00085054       0.06448981 </v>
   <v>       0.00000000       0.00152431       0.06500867 </v>
   <v>       0.00000000       0.00072471       0.02159939 </v>
   <v>       0.00000000       0.00192148       0.02270844 </v>
   <v>       0.00000000       0.00406851      -0.06714380 </v>
   <v>       0.00000000      -0.00195881      -0.06702222 </v>
   <v>       0.00000000       0.00121096       0.00067767 </v>
   <v>       0.00000000       0.00087091       0.00290372 </v>
   <v>       0.00000000       0.00073107       0.00641718 </v>
   <v>       0.00000000       0.00237782       0.00339414 </v>
   <v>       0.00000000       0.00912525      -0.01506609 </v>
   <v>       0.00000000      -0.00093170      -0.02449924 </v>
   <v>       0.00000000       0.01378775      -0.25154010 </v>
   <v>       0.00000000       0.02987187      -0.25560414 </v>
   <v>       0.00000000       0.02647734       0.15800198 </v>
   <v>       0.00000000       0.03062729      -0.17946965 </v>
   <v>       0.00000000       0.00895127       0.54224660 </v>
   <v>       0.00000000      -0.13023058      -0.02710237 </v>
  </varray>
  <varray name="stress" >
   <v>     -18.09121764       0.00000000       0.00000000 </v>
   <v>       0.00000000     -18.37457846      -1.66472454 </v>
   <v>       0.00000000      -1.66472436      -3.48826234 </v>
  </varray>
  <energy>
   <i name="e_fr_energy">    -69.81943707 </i>
   <i name="e_wo_entrp">    -69.77866087 </i>
   <i name="e_0_energy">    -69.80584500 </i>
  </energy>
  <time name="totalsc">   15.38   15.54</time>
 </calculation>
 <calculation>
  <scstep>
   <time name="dav">    1.13    1.15</time>
   <time name="total">    1.28    1.29</time>
   <energy>
    <i name="alphaZ">    521.04204123 </i>
    <i name="ewald"> 103833.34368521 </i>
    <i name="hartreedc">-125519.24156449 </i>
    <i name="XCdc">    719.70986468 </i>
    <i name="pawpsdc">  21118.88256243 </i>
    <i name="pawaedc"> -22845.95846669 </i>
    <i name="eentropy">     -0.04148867 </i>
    <i name="bandstr">   -170.87222844 </i>
    <i name="atom">  22280.27950853 </i>
    <i name="e_fr_energy">    -62.85608621 </i>
    <i name="e_wo_entrp">    -62.81459754 </i>
    <i name="e_0_energy">    -62.84225666 </i>
   </energy>
  </scstep>
  <scstep>
   <time name="dav">    1.54    1.55</time>
   <time name="total">    1.68    1.69</time>
   <energy>
    <i name="e_fr_energy">    -62.87655201 </i>
    <i name="e_wo_entrp">    -62.83781684 </i>
    <i name="e_0_energy">    -62.86364029 </i>
   </energy>
  </scstep>
  <scstep>
   <time name="dav">    1.34    1.35</time>
   <time name="total">    1.48    1.50</time>
   <energy>
    <i name="e_fr_energy">    -62.87156683 </i>
    <i name="e_wo_entrp">    -62.83160419 </i>
    <i name="e_0_energy">    -62.85824595 </i>
   </energy>
  </scstep>
  <scstep>
   <time name="dav">    1.26    1.27</time>
   <time name="total">    1.41    1.42</time>
   <energy>
    <i name="e_fr_energy">    -62.86984458 </i>
    <i name="e_wo_entrp">    -62.82871166 </i>
    <i name="e_0_energy">    -62.85613361 </i>
   </energy>
  </scstep>
  <scstep>
   <time name="dav">    1.25    1.26</time>
   <time name="total">    1.39    1.41</time>
   <energy>
    <i name="e_fr_energy">    -62.86971112 </i>
    <i name="e_wo_entrp">    -62.82811740 </i>
    <i name="e_0_energy">    -62.85584655 </i>
   </energy>
  </scstep>
  <scstep>
   <time name="dav">    1.28    1.29</time>
   <time name="total">    1.42    1.44</time>
   <energy>
    <i name="e_fr_energy">    -62.86956325 </i>
    <i name="e_wo_entrp">    -62.82951364 </i>
    <i name="e_0_energy">    -62.85621338 </i>
   </energy>
  </scstep>
  <scstep>
   <time name="dav">    1.19    1.20</time>
   <time name="total">    1.22    1.23</time>
   <energy>
    <i name="alphaZ">    521.04204123 </i>
    <i name="ewald"> 103833.34368521 </i>
    <i name="hartreedc">-125519.15039881 </i>
    <i name="XCdc">    719.73045497 </i>
    <i name="pawpsdc">  21128.88838474 </i>
    <i name="pawaedc"> -22856.15801425 </i>
    <i name="eentropy">     -0.04288468 </i>
    <i name="bandstr">   -170.80234205 </i>
    <i name="atom">  22280.27950853 </i>
    <i name="e_fr_energy">    -62.86956510 </i>
    <i name="e_wo_entrp">    -62.82668043 </i>
    <i name="e_0_energy">    -62.85527021 </i>
   </energy>
  </scstep>
  <structure>
   <crystal>
    <varray name="basis" >
     <v>       3.63000011       0.00000000       0.00000000 </v>
     <v>       0.00000000       3.63000011       0.00000000 </v>
     <v>       0.00000000       0.00000000      27.70499992 </v>
    </varray>
    <i name="volume">    365.06603650 </i>
    <varray name="rec_basis" >
     <v>       0.27548208       0.00000000       0.00000000 </v>
     <v>       0.00000000       0.27548208       0.00000000 </v>
     <v>       0.00000000       0.00000000       0.03609457 </v>
    </varray>
   </crystal>
   <varray name="positions" >
    <v>       0.00000000       0.00005926       0.00123375 </v>
    <v>       0.50000000       0.49996066       0.00124116 </v>
    <v>       0.00000000       0.50002024       0.06447456 </v>
    <v>       0.50000000       0.00002642       0.06439117 </v>
    <v>       0.00000000      -0.00010282       0.12868964 </v>
    <v>       0.50000000       0.50011278       0.12869250 </v>
    <v>       0.00000000       0.50029883       0.19193727 </v>
    <v>       0.50000000      -0.00029997       0.19180911 </v>
    <v>       0.00000000       0.00045962       0.25422030 </v>
    <v>       0.50000000       0.49961490       0.25420797 </v>
    <v>       0.00000000       0.50014931       0.31780087 </v>
    <v>       0.50000000      -0.00007338       0.31729703 </v>
    <v>       0.00000000       0.00095919       0.38087057 </v>
    <v>       0.50000000       0.49995511       0.38087074 </v>
    <v>       0.00000000       0.50246431       0.43963183 </v>
    <v>       0.50000000       0.00392817       0.44235443 </v>
    <v>       1.00000000       0.48142229       0.50703605 </v>
    <v>       1.00000000       0.65636233       0.52223784 </v>
   </varray>
  </structure>
  <varray name="forces" >
   <v>       0.00000000       0.00062727       0.01350030 </v>
   <v>       0.00000000       0.00236520       0.01372860 </v>
   <v>       0.00000000       0.00090039       0.09649782 </v>
   <v>       0.00000000       0.00221069       0.10384992 </v>
   <v>       0.00000000       0.00647675      -0.08137138 </v>
   <v>       0.00000000      -0.00346691      -0.08141546 </v>
   <v>       0.00000000      -0.00115213       0.00083761 </v>
   <v>       0.00000000       0.00383691       0.01118554 </v>
   <v>       0.00000000      -0.00306243      -0.00730475 </v>
   <v>       0.00000000       0.00675298      -0.00980106 </v>
   <v>       0.00000000       0.01101920      -0.05447832 </v>
   <v>       0.00000000      -0.00001837      -0.03664048 </v>
   <v>       0.00000000       0.01273851      -0.30958202 </v>
   <v>       0.00000000       0.04095973      -0.31444303 </v>
   <v>       0.00000000       0.00925686       0.34919398 </v>
   <v>       0.00000000       0.01023780      -0.11902874 </v>
   <v>       0.00000000      -0.36418907       0.16290017 </v>
   <v>       0.00000000       0.26450662       0.26237128 </v>
  </varray>
  <varray name="stress" >
   <v>     -16.95733809       0.00000000       0.00000000 </v>
   <v>       0.00000000     -16.14868366      -0.88074630 </v>
   <v>       0.00000000      -0.88074646      -2.23681181 </v>
  </varray>
  <energy>
   <i name="e_fr_energy">    -69.83416279 </i>
   <i name="e_wo_entrp">    -69.79127812 </i>
   <i name="e_0_energy">    -69.81986790 </i>
  </energy>
  <time name="totalsc">   11.81   12.00</time>
 </calculation>
 <calculation>
  <scstep>
   <time name="dav">    1.16    1.17</time>
   <time name="total">    1.30    1.31</time>
   <energy>
    <i name="alphaZ">    521.04204123 </i>
    <i name="ewald"> 104094.05045200 </i>
    <i name="hartreedc">-125779.66499356 </i>
    <i name="XCdc">    719.72007204 </i>
    <i name="pawpsdc">  21128.92511958 </i>
    <i name="pawaedc"> -22856.18061909 </i>
    <i name="eentropy">     -0.04064750 </i>
    <i name="bandstr">   -171.01153750 </i>
    <i name="atom">  22280.27950853 </i>
    <i name="e_fr_energy">    -62.88060427 </i>
    <i name="e_wo_entrp">    -62.83995677 </i>
    <i name="e_0_energy">    -62.86705510 </i>
   </energy>
  </scstep>
  <scstep>
   <time name="dav">    1.55    1.56</time>
   <time name="total">    1.69    1.70</time>
   <energy>
    <i name="e_fr_energy">    -62.89581507 </i>
    <i name="e_wo_entrp">    -62.85002861 </i>
    <i name="e_0_energy">    -62.88055291 </i>
   </energy>
  </scstep>
  <scstep>
   <time name="dav">    1.37    1.38</time>
   <time name="total">    1.51    1.52</time>
   <energy>
    <i name="e_fr_energy">    -62.89780152 </i>
    <i name="e_wo_entrp">    -62.85946744 </i>
    <i name="e_0_energy">    -62.88502349 </i>
   </energy>
  </scstep>
  <scstep>
   <time name="dav">    1.25    1.26</time>
   <time name="total">    1.39    1.41</time>
   <energy>
    <i name="e_fr_energy">    -62.89503935 </i>
    <i name="e_wo_entrp">    -62.85808902 </i>
    <i name="e_0_energy">    -62.88272257 </i>
   </energy>
  </scstep>
  <scstep>
   <time name="dav">    1.27    1.28</time>
   <time name="total">    1.41    1.42</time>
   <energy>
    <i name="e_fr_energy">    -62.89352655 </i>
    <i name="e_wo_entrp">    -62.85041636 </i>
    <i name="e_0_energy">    -62.87915649 </i>
   </energy>
  </scstep>
  <scstep>
   <time name="dav">    1.40    1.41</time>
   <time name="total">    1.54    1.55</time>
   <energy>
    <i name="e_fr_energy">    -62.89343099 </i>
    <i name="e_wo_entrp">    -62.85302953 </i>
    <i name="e_0_energy">    -62.87996383 </i>
   </energy>
  </scstep>
  <scstep>
   <time name="dav">    1.26    1.27</time>
   <time name="total">    1.40    1.41</time>
   <energy>
    <i name="e_fr_energy">    -62.89325944 </i>
    <i name="e_wo_entrp">    -62.85164367 </i>
    <i name="e_0_energy">    -62.87938751 </i>
   </energy>
  </scstep>
  <scstep>
   <time name="dav">    1.01    1.02</time>
   <time name="total">    1.04    1.05</time>
   <energy>
    <i name="alphaZ">    521.04204123 </i>
    <i name="ewald"> 104094.05045200 </i>
    <i name="hartreedc">-125779.02164515 </i>
    <i name="XCdc">    719.69618524 </i>
    <i name="pawpsdc">  21130.20679406 </i>
    <i name="pawaedc"> -22857.51035360 </i>
    <i name="eentropy">     -0.04146575 </i>
    <i name="bandstr">   -171.59474404 </i>
    <i name="atom">  22280.27950853 </i>
    <i name="e_fr_energy">    -62.89322748 </i>
    <i name="e_wo_entrp">    -62.85176173 </i>
    <i name="e_0_energy">    -62.87940557 </i>
   </energy>
  </scstep>
  <structure>
   <crystal>
    <varray name="basis" >
     <v>       3.63000011       0.00000000       0.00000000 </v>
     <v>       0.00000000       3.63000011       0.00000000 </v>
     <v>       0.00000000       0.00000000      27.70499992 </v>
    </varray>
    <i name="volume">    365.06603650 </i>
    <varray name="rec_basis" >
     <v>       0.27548208       0.00000000       0.00000000 </v>
     <v>       0.00000000       0.27548208       0.00000000 </v>
     <v>       0.00000000       0.00000000       0.03609457 </v>
    </varray>
   </crystal>
   <varray name="positions" >
    <v>       0.00000000       0.00007795       0.00143751 </v>
    <v>       0.50000000       0.49999122       0.00144657 </v>
    <v>       0.00000000       0.50003689       0.06452064 </v>
    <v>       0.50000000       0.00006507       0.06444031 </v>
    <v>       0.00000000      -0.00001728       0.12850996 </v>
    <v>       0.50000000       0.50007544       0.12851316 </v>
    <v>       0.00000000       0.50032561       0.19194044 </v>
    <v>       0.50000000      -0.00028497       0.19181591 </v>
    <v>       0.00000000       0.00047946       0.25422806 </v>
    <v>       0.50000000       0.49966289       0.25420833 </v>
    <v>       0.00000000       0.50034228       0.31773996 </v>
    <v>       0.50000000      -0.00008654       0.31720086 </v>
    <v>       0.00000000       0.00128721       0.38016677 </v>
    <v>       0.50000000       0.50058754       0.38015667 </v>
    <v>       0.00000000       0.50300470       0.43971795 </v>
    <v>       0.50000000       0.00465761       0.44182409 </v>
    <v>       1.00000000       0.47511849       0.50836242 </v>
    <v>       1.00000000       0.65999367       0.52276715 </v>
   </varray>
  </structure>
  <varray name="forces" >
   <v>       0.00000000       0.00076985      -0.00296175 </v>
   <v>       0.00000000       0.00222472      -0.00275484 </v>
   <v>       0.00000000       0.00162759       0.07241128 </v>
   <v>       0.00000000       0.00093529       0.07863155 </v>
   <v>       0.00000000       0.00346122      -0.02935020 </v>
   <v>       0.00000000      -0.00098763      -0.02934894 </v>
   <v>       0.00000000      -0.00039151      -0.01757100 </v>
   <v>       0.00000000       0.00335274      -0.01067307 </v>
   <v>       0.00000000      -0.00066459      -0.01301388 </v>
   <v>       0.00000000       0.00475099      -0.01515658 </v>
   <v>       0.00000000       0.00779831      -0.11443486 </v>
   <v>       0.00000000       0.00765085      -0.08412505 </v>
   <v>       0.00000000       0.01381877      -0.16802210 </v>
   <v>       0.00000000       0.03245868      -0.17344440 </v>
   <v>       0.00000000       0.00643612       0.28659842 </v>
   <v>       0.00000000       0.00969948      -0.11819825 </v>
   <v>       0.00000000       0.10510348       0.37672945 </v>
   <v>       0.00000000      -0.19804436      -0.03531577 </v>
  </varray>
  <varray name="stress" >
   <v>     -15.60791989       0.00000000       0.00000000 </v>
   <v>       0.00000000     -16.12660184      -1.77078329 </v>
   <v>       0.00000000      -1.77078327      -1.75034145 </v>
  </varray>
  <energy>
   <i name="e_fr_energy">    -69.86276658 </i>
   <i name="e_wo_entrp">    -69.82130084 </i>
   <i name="e_0_energy">    -69.84894467 </i>
  </energy>
  <time name="totalsc">   13.19   13.33</time>
 </calculation>
 <calculation>
  <scstep>
   <time name="dav">    1.15    1.16</time>
   <time name="total">    1.29    1.30</time>
   <energy>
    <i name="alphaZ">    521.04204123 </i>
    <i name="ewald"> 104339.57966665 </i>
    <i name="hartreedc">-126024.88449133 </i>
    <i name="XCdc">    719.68829609 </i>
    <i name="pawpsdc">  21130.28765349 </i>
    <i name="pawaedc"> -22857.57542908 </i>
    <i name="eentropy">     -0.04103161 </i>
    <i name="bandstr">   -171.26173251 </i>
    <i name="atom">  22280.27950853 </i>
    <i name="e_fr_energy">    -62.88551854 </i>
    <i name="e_wo_entrp">    -62.84448693 </i>
    <i name="e_0_energy">    -62.87184133 </i>
   </energy>
  </scstep>
  <scstep>
   <time name="dav">    1.49    1.50</time>
   <time name="total">    1.63    1.64</time>
   <energy>
    <i name="e_fr_energy">    -62.89768600 </i>
    <i name="e_wo_entrp">    -62.85366139 </i>
    <i name="e_0_energy">    -62.88301113 </i>
   </energy>
  </scstep>
  <scstep>
   <time name="dav">    1.25    1.26</time>
   <time name="total">    1.39    1.40</time>
   <energy>
    <i name="e_fr_energy">    -62.89745472 </i>
    <i name="e_wo_entrp">    -62.85978789 </i>
    <i name="e_0_energy">    -62.88489911 </i>
   </energy>
  </scstep>
  <scstep>
   <time name="dav">    1.28    1.29</time>
   <time name="total">    1.42    1.43</time>
   <energy>
    <i name="e_fr_energy">    -62.89703640 </i>
    <i name="e_wo_entrp">    -62.85337786 </i>
    <i name="e_0_energy">    -62.88248355 </i>
   </energy>
  </scstep>
  <scstep>
   <time name="dav">    1.21    1.22</time>
   <time name="total">    1.35    1.36</time>
   <energy>
    <i name="e_fr_energy">    -62.90031570 </i>
    <i name="e_wo_entrp">    -62.86080903 </i>
    <i name="e_0_energy">    -62.88714681 </i>
   </energy>
  </scstep>
  <scstep>
   <time name="dav">    1.27    1.28</time>
   <time name="total">    1.41    1.42</time>
   <energy>
    <i name="e_fr_energy">    -62.89665328 </i>
    <i name="e_wo_entrp">    -62.85631262 </i>
    <i name="e_0_energy">    -62.88320639 </i>
   </energy>
  </scstep>
  <scstep>
   <time name="dav">    1.34    1.35</time>
   <time name="total">    1.37    1.38</time>
   <energy>
    <i name="alphaZ">    521.04204123 </i>
    <i name="ewald"> 104339.57966665 </i>
    <i name="hartreedc">-126023.93063405 </i>
    <i name="XCdc">    719.66582939 </i>
    <i name="pawpsdc">  21132.03594155 </i>
    <i name="pawaedc"> -22859.37191408 </i>
    <i name="eentropy">     -0.04151687 </i>
    <i name="bandstr">   -172.15543852 </i>
    <i name="atom">  22280.27950853 </i>
    <i name="e_fr_energy">    -62.89651617 </i>
    <i name="e_wo_entrp">    -62.85499930 </i>
    <i name="e_0_energy">    -62.88267721 </i>
   </energy>
  </scstep>
  <structure>
   <crystal>
    <varray name="basis" >
     <v>       3.63000011       0.00000000       0.00000000 </v>
     <v>       0.00000000       3.63000011       0.00000000 </v>
     <v>       0.00000000       0.00000000      27.70499992 </v>
    </varray>
    <i name="volume">    365.06603650 </i>
    <varray name="rec_basis" >
     <v>       0.27548208       0.00000000       0.00000000 </v>
     <v>       0.00000000       0.27548208       0.00000000 </v>
     <v>       0.00000000       0.00000000       0.03609457 </v>
    </varray>
   </crystal>
   <varray name="positions" >
    <v>       0.00000000       0.00009551       0.00162894 </v>
    <v>       0.50000000       0.50001992       0.00163956 </v>
    <v>       0.00000000       0.50005254       0.06456393 </v>
    <v>       0.50000000       0.00010138       0.06448648 </v>
    <v>       0.00000000       0.00006309       0.12834116 </v>
    <v>       0.50000000       0.50004035       0.12834467 </v>
    <v>       0.00000000       0.50035078       0.19194342 </v>
    <v>       0.50000000      -0.00027087       0.19182229 </v>
    <v>       0.00000000       0.00049810       0.25423534 </v>
    <v>       0.50000000       0.49970797       0.25420867 </v>
    <v>       0.00000000       0.50052357       0.31768274 </v>
    <v>       0.50000000      -0.00009890       0.31711052 </v>
    <v>       0.00000000       0.00159538       0.37950556 </v>
    <v>       0.50000000       0.50118171       0.37948581 </v>
    <v>       0.00000000       0.50351238       0.43979887 </v>
    <v>       0.50000000       0.00534292       0.44132585 </v>
    <v>       1.00000000       0.46919613       0.50960854 </v>
    <v>       1.00000000       0.66340529       0.52326443 </v>
   </varray>
  </structure>
  <varray name="forces" >
   <v>       0.00000000       0.00119688      -0.02973068 </v>
   <v>       0.00000000       0.00253830      -0.02998383 </v>
   <v>       0.00000000       0.00281050       0.06651299 </v>
   <v>       0.00000000       0.00006243       0.07217311 </v>
   <v>       0.00000000       0.00152395       0.02514305 </v>
   <v>       0.00000000       0.00169908       0.02518120 </v>
   <v>       0.00000000       0.00017979      -0.03922780 </v>
   <v>       0.00000000       0.00389447      -0.03442114 </v>
   <v>       0.00000000       0.00134505      -0.02925606 </v>
   <v>       0.00000000       0.00406502      -0.03088484 </v>
   <v>       0.00000000       0.00487715      -0.18133847 </v>
   <v>       0.00000000       0.01631643      -0.13681603 </v>
   <v>       0.00000000       0.01336700      -0.02580266 </v>
   <v>       0.00000000       0.02295449      -0.03133647 </v>
   <v>       0.00000000       0.00379466       0.22771134 </v>
   <v>       0.00000000       0.00446621      -0.11377592 </v>
   <v>       0.00000000       0.51232313       0.51341252 </v>
   <v>       0.00000000      -0.59741455      -0.24756031 </v>
  </varray>
  <varray name="stress" >
   <v>     -15.08914338       0.00000000       0.00000000 </v>
   <v>       0.00000000     -16.85562573      -2.44183176 </v>
   <v>       0.00000000      -2.44183178      -2.03593163 </v>
  </varray>
  <energy>
   <i name="e_fr_energy">    -69.87214871 </i>
   <i name="e_wo_entrp">    -69.83063184 </i>
   <i name="e_0_energy">    -69.85830975 </i>
  </energy>
  <time name="totalsc">   11.77   11.87</time>
 </calculation>
 <calculation>
  <scstep>
   <time name="dav">    1.14    1.15</time>
   <time name="total">    1.28    1.29</time>
   <energy>
    <i name="alphaZ">    521.04204123 </i>
    <i name="ewald"> 104479.40974593 </i>
    <i name="hartreedc">-126163.52174279 </i>
    <i name="XCdc">    719.67328344 </i>
    <i name="pawpsdc">  21132.07959723 </i>
    <i name="pawaedc"> -22859.40838315 </i>
    <i name="eentropy">     -0.04058499 </i>
    <i name="bandstr">   -172.41904585 </i>
    <i name="atom">  22280.27950853 </i>
    <i name="e_fr_energy">    -62.90558042 </i>
    <i name="e_wo_entrp">    -62.86499543 </i>
    <i name="e_0_energy">    -62.89205209 </i>
   </energy>
  </scstep>
  <scstep>
   <time name="dav">    1.58    1.60</time>
   <time name="total">    1.72    1.74</time>
   <energy>
    <i name="e_fr_energy">    -62.91134049 </i>
    <i name="e_wo_entrp">    -62.86968824 </i>
    <i name="e_0_energy">    -62.89745640 </i>
   </energy>
  </scstep>
  <scstep>
   <time name="dav">    1.52    1.53</time>
   <time name="total">    1.66    1.68</time>
   <energy>
    <i name="e_fr_energy">    -62.91079946 </i>
    <i name="e_wo_entrp">    -62.86907683 </i>
    <i name="e_0_energy">    -62.89689192 </i>
   </energy>
  </scstep>
  <scstep>
   <time name="dav">    1.19    1.20</time>
   <time name="total">    1.33    1.34</time>
   <energy>
    <i name="e_fr_energy">    -62.91018245 </i>
    <i name="e_wo_entrp">    -62.87153743 </i>
    <i name="e_0_energy">    -62.89730078 </i>
   </energy>
  </scstep>
  <scstep>
   <time name="dav">    1.16    1.17</time>
   <time name="total">    1.30    1.31</time>
   <energy>
    <i name="e_fr_energy">    -62.90991814 </i>
    <i name="e_wo_entrp">    -62.86801505 </i>
    <i name="e_0_energy">    -62.89595044 </i>
   </energy>
  </scstep>
  <scstep>
   <time name="dav">    1.10    1.11</time>
   <time name="total">    1.14    1.15</time>
   <energy>
    <i name="alphaZ">    521.04204123 </i>
    <i name="ewald"> 104479.40974593 </i>
    <i name="hartreedc">-126163.52123428 </i>
    <i name="XCdc">    719.68793925 </i>
    <i name="pawpsdc">  21133.62920620 </i>
    <i name="pawaedc"> -22861.00608203 </i>
    <i name="eentropy">     -0.04067125 </i>
    <i name="bandstr">   -172.39035653 </i>
    <i name="atom">  22280.27950853 </i>
    <i name="e_fr_energy">    -62.90990297 </i>
    <i name="e_wo_entrp">    -62.86923171 </i>
    <i name="e_0_energy">    -62.89634588 </i>
   </energy>
  </scstep>
  <structure>
   <crystal>
    <varray name="basis" >
     <v>       3.63000011       0.00000000       0.00000000 </v>
     <v>       0.00000000       3.63000011       0.00000000 </v>
     <v>       0.00000000       0.00000000      27.70499992 </v>
    </varray>
    <i name="volume">    365.06603650 </i>
    <varray name="rec_basis" >
     <v>       0.27548208       0.00000000       0.00000000 </v>
     <v>       0.00000000       0.27548208       0.00000000 </v>
     <v>       0.00000000       0.00000000       0.03609457 </v>
    </varray>
   </crystal>
   <varray name="positions" >
    <v>       0.00000000       0.00010962       0.00171603 </v>
    <v>       0.50000000       0.50004528       0.00172735 </v>
    <v>       0.00000000       0.50007198       0.06462139 </v>
    <v>       0.50000000       0.00012106       0.06454840 </v>
    <v>       0.00000000       0.00011209       0.12826381 </v>
    <v>       0.50000000       0.50002826       0.12826751 </v>
    <v>       0.00000000       0.50036495       0.19192478 </v>
    <v>       0.50000000      -0.00024800       0.19180795 </v>
    <v>       0.00000000       0.00051337       0.25422415 </v>
    <v>       0.50000000       0.49974809       0.25419293 </v>
    <v>       0.00000000       0.50063977       0.31755861 </v>
    <v>       0.50000000      -0.00004130       0.31699162 </v>
    <v>       0.00000000       0.00181288       0.37913847 </v>
    <v>       0.50000000       0.50158996       0.37911071 </v>
    <v>       0.00000000       0.50379895       0.43995959 </v>
    <v>       0.50000000       0.00572717       0.44100059 </v>
    <v>       1.00000000       0.46804389       0.51054004 </v>
    <v>       1.00000000       0.66287925       0.52340283 </v>
   </varray>
  </structure>
  <varray name="forces" >
   <v>       0.00000000       0.00097014      -0.01950424 </v>
   <v>       0.00000000       0.00218688      -0.01980248 </v>
   <v>       0.00000000       0.00254887       0.04880961 </v>
   <v>       0.00000000      -0.00029594       0.05282675 </v>
   <v>       0.00000000       0.00045483       0.03853565 </v>
   <v>       0.00000000       0.00196682       0.03853059 </v>
   <v>       0.00000000       0.00011142      -0.03475573 </v>
   <v>       0.00000000       0.00352765      -0.03204399 </v>
   <v>       0.00000000       0.00177316      -0.03421229 </v>
   <v>       0.00000000       0.00396262      -0.03524409 </v>
   <v>       0.00000000       0.00477605      -0.19570991 </v>
   <v>       0.00000000       0.01924732      -0.15395781 </v>
   <v>       0.00000000       0.01188213       0.02664495 </v>
   <v>       0.00000000       0.01769633       0.02278096 </v>
   <v>       0.00000000       0.00629012       0.16831183 </v>
   <v>       0.00000000       0.00211456      -0.12693918 </v>
   <v>       0.00000000       0.40799777       0.42468701 </v>
   <v>       0.00000000      -0.48721073      -0.16895763 </v>
  </varray>
  <varray name="stress" >
   <v>     -14.80903097       0.00000000       0.00000000 </v>
   <v>       0.00000000     -16.26081932      -2.22352393 </v>
   <v>       0.00000000      -2.22352394      -1.47623191 </v>
  </varray>
  <energy>
   <i name="e_fr_energy">    -69.88639931 </i>
   <i name="e_wo_entrp">    -69.84572806 </i>
   <i name="e_0_energy">    -69.87284223 </i>
  </energy>
  <time name="totalsc">   10.34   10.48</time>
 </calculation>
 <calculation>
  <scstep>
   <time name="dav">    1.13    1.14</time>
   <time name="total">    1.27    1.28</time>
   <energy>
    <i name="alphaZ">    521.04204123 </i>
    <i name="ewald"> 104899.97153393 </i>
    <i name="hartreedc">-126583.86258606 </i>
    <i name="XCdc">    719.72188451 </i>
    <i name="pawpsdc">  21134.07560844 </i>
    <i name="pawaedc"> -22861.46198998 </i>
    <i name="eentropy">     -0.03936128 </i>
    <i name="bandstr">   -172.61443949 </i>
    <i name="atom">  22280.27950853 </i>
    <i name="e_fr_energy">    -62.88780016 </i>
    <i name="e_wo_entrp">    -62.84843888 </i>
    <i name="e_0_energy">    -62.87467973 </i>
   </energy>
  </scstep>
  <scstep>
   <time name="dav">    1.56    1.57</time>
   <time name="total">    1.70    1.71</time>
   <energy>
    <i name="e_fr_energy">    -62.94266731 </i>
    <i name="e_wo_entrp">    -62.90358594 </i>
    <i name="e_0_energy">    -62.92964019 </i>
   </energy>
  </scstep>
  <scstep>
   <time name="dav">    1.74    1.75</time>
   <time name="total">    1.88    1.89</time>
   <energy>
    <i name="e_fr_energy">    -62.94294828 </i>
    <i name="e_wo_entrp">    -62.90472540 </i>
    <i name="e_0_energy">    -62.93020732 </i>
   </energy>
  </scstep>
  <scstep>
   <time name="dav">    1.39    1.40</time>
[...]
       <r>     8.2021     3.3991   104.7209 </r>
       <r>     8.2777     2.0811   104.8780 </r>
       <r>     8.3532     0.9886   104.9527 </r>
       <r>     8.4287     0.5687   104.9956 </r>
       <r>     8.5042     0.9992   105.0711 </r>
       <r>     8.5797     2.0936   105.2292 </r>
       <r>     8.6553     3.2546   105.4750 </r>
       <r>     8.7308     3.9728   105.7750 </r>
       <r>     8.8063     4.3363   106.1025 </r>
       <r>     8.8818     4.8457   106.4685 </r>
       <r>     8.9573     5.6906   106.8982 </r>
       <r>     9.0329     6.4402   107.3846 </r>
       <r>     9.1084     6.5662   107.8805 </r>
       <r>     9.1839     5.8729   108.3240 </r>
       <r>     9.2594     4.3527   108.6527 </r>
       <r>     9.3349     2.3264   108.8284 </r>
       <r>     9.4105     0.8023   108.8890 </r>
       <r>     9.4860     0.8894   108.9562 </r>
       <r>     9.5615     2.5473   109.1485 </r>
       <r>     9.6370     4.3086   109.4739 </r>
       <r>     9.7125     4.7221   109.8305 </r>
       <r>     9.7881     3.8275   110.1196 </r>
       <r>     9.8636     2.5921   110.3154 </r>
       <r>     9.9391     1.5541   110.4327 </r>
       <r>    10.0146     0.8354   110.4958 </r>
       <r>    10.0902     0.8057   110.5567 </r>
       <r>    10.1657     1.9658   110.7051 </r>
       <r>    10.2412     4.1854   111.0212 </r>
       <r>    10.3167     6.4127   111.5055 </r>
       <r>    10.3922     7.6841   112.0858 </r>
       <r>    10.4678     8.1986   112.7050 </r>
       <r>    10.5433     8.5024   113.3471 </r>
       <r>    10.6188     8.0603   113.9558 </r>
       <r>    10.6943     6.0601   114.4135 </r>
       <r>    10.7698     3.1948   114.6547 </r>
       <r>    10.8454     1.0880   114.7369 </r>
       <r>    10.9209     0.3928   114.7666 </r>
       <r>    10.9964     0.7159   114.8206 </r>
       <r>    11.0719     1.7834   114.9553 </r>
       <r>    11.1474     3.3480   115.2082 </r>
       <r>    11.2230     4.3846   115.5393 </r>
       <r>    11.2985     3.8534   115.8303 </r>
       <r>    11.3740     2.1355   115.9916 </r>
       <r>    11.4495     0.5696   116.0346 </r>
       <r>    11.5250    -0.1264   116.0251 </r>
       <r>    11.6006    -0.1969   116.0102 </r>
       <r>    11.6761    -0.0975   116.0028 </r>
       <r>    11.7516    -0.0299   116.0006 </r>
       <r>    11.8271    -0.0063   116.0001 </r>
       <r>    11.9026    -0.0010   116.0000 </r>
       <r>    11.9782    -0.0001   116.0000 </r>
       <r>    12.0537    -0.0000   116.0000 </r>
       <r>    12.1292    -0.0000   116.0000 </r>
       <r>    12.2047    -0.0000   116.0000 </r>
       <r>    12.2803    -0.0000   116.0000 </r>
       <r>    12.3558    -0.0000   116.0000 </r>
       <r>    12.4313    -0.0000   116.0000 </r>
       <r>    12.5068    -0.0000   116.0000 </r>
       <r>    12.5823     0.0000   116.0000 </r>
       <r>    12.6579     0.0000   116.0000 </r>
       <r>    12.7334     0.0000   116.0000 </r>
       <r>    12.8089     0.0000   116.0000 </r>
       <r>    12.8844     0.0000   116.0000 </r>
       <r>    12.9599     0.0000   116.0000 </r>
       <r>    13.0355     0.0000   116.0000 </r>
       <r>    13.1110     0.0000   116.0000 </r>
       <r>    13.1865     0.0000   116.0000 </r>
       <r>    13.2620     0.0000   116.0000 </r>
      </set>
      <set comment="spin 2">
       <r>    -9.3942     0.0000     0.0000 </r>
       <r>    -9.3187     0.0000     0.0000 </r>
       <r>    -9.2431     0.0000     0.0000 </r>
       <r>    -9.1676     0.0000     0.0000 </r>
       <r>    -9.0921     0.0000     0.0000 </r>
       <r>    -9.0166    -0.0000    -0.0000 </r>
       <r>    -8.9410    -0.0000    -0.0000 </r>
       <r>    -8.8655    -0.0000    -0.0000 </r>
       <r>    -8.7900    -0.0000    -0.0000 </r>
       <r>    -8.7145    -0.0000    -0.0000 </r>
       <r>    -8.6390    -0.0000    -0.0000 </r>
       <r>    -8.5634    -0.0000    -0.0000 </r>
       <r>    -8.4879    -0.0000    -0.0000 </r>
       <r>    -8.4124    -0.0000    -0.0000 </r>
       <r>    -8.3369    -0.0000    -0.0000 </r>
       <r>    -8.2614    -0.0000    -0.0000 </r>
       <r>    -8.1858    -0.0000    -0.0000 </r>
       <r>    -8.1103    -0.0000    -0.0000 </r>
       <r>    -8.0348    -0.0000    -0.0000 </r>
       <r>    -7.9593    -0.0003    -0.0000 </r>
       <r>    -7.8838    -0.0018    -0.0002 </r>
       <r>    -7.8082    -0.0072    -0.0007 </r>
       <r>    -7.7327    -0.0184    -0.0021 </r>
       <r>    -7.6572    -0.0228    -0.0038 </r>
       <r>    -7.5817     0.0250    -0.0019 </r>
       <r>    -7.5062     0.1708     0.0110 </r>
       <r>    -7.4306     0.3670     0.0387 </r>
       <r>    -7.3551     0.4587     0.0733 </r>
       <r>    -7.2796     0.3531     0.1000 </r>
       <r>    -7.2041     0.1443     0.1109 </r>
       <r>    -7.1286     0.0011     0.1110 </r>
       <r>    -7.0530     0.0153     0.1121 </r>
       <r>    -6.9775     0.1790     0.1257 </r>
       <r>    -6.9020     0.3827     0.1546 </r>
       <r>    -6.8265     0.4569     0.1891 </r>
       <r>    -6.7510     0.3365     0.2145 </r>
       <r>    -6.6754     0.1386     0.2249 </r>
       <r>    -6.5999     0.0040     0.2252 </r>
       <r>    -6.5244    -0.0523     0.2213 </r>
       <r>    -6.4489    -0.0949     0.2141 </r>
       <r>    -6.3733    -0.1216     0.2049 </r>
       <r>    -6.2978     0.0476     0.2085 </r>
       <r>    -6.2223     0.6646     0.2587 </r>
       <r>    -6.1468     1.6196     0.3810 </r>
       <r>    -6.0713     2.2315     0.5496 </r>
       <r>    -5.9957     1.9126     0.6940 </r>
       <r>    -5.9202     0.9497     0.7657 </r>
       <r>    -5.8447     0.2101     0.7816 </r>
       <r>    -5.7692     0.2688     0.8019 </r>
       <r>    -5.6937     1.0009     0.8775 </r>
       <r>    -5.6181     1.7090     1.0065 </r>
       <r>    -5.5426     1.7094     1.1356 </r>
       <r>    -5.4671     1.0272     1.2132 </r>
       <r>    -5.3916     0.2714     1.2337 </r>
       <r>    -5.3161    -0.1422     1.2230 </r>
       <r>    -5.2405    -0.2338     1.2053 </r>
       <r>    -5.1650    -0.0263     1.2033 </r>
       <r>    -5.0895     0.7014     1.2563 </r>
       <r>    -5.0140     2.0251     1.4092 </r>
       <r>    -4.9385     3.3273     1.6605 </r>
       <r>    -4.8629     3.6337     1.9349 </r>
       <r>    -4.7874     2.8489     2.1501 </r>
       <r>    -4.7119     2.1187     2.3101 </r>
       <r>    -4.6364     2.4183     2.4927 </r>
       <r>    -4.5609     3.2964     2.7417 </r>
       <r>    -4.4853     3.6448     3.0169 </r>
       <r>    -4.4098     3.1979     3.2584 </r>
       <r>    -4.3343     2.4501     3.4435 </r>
       <r>    -4.2588     1.6682     3.5694 </r>
       <r>    -4.1832     0.9803     3.6435 </r>
       <r>    -4.1077     0.8551     3.7081 </r>
       <r>    -4.0322     1.5891     3.8281 </r>
       <r>    -3.9567     2.6940     4.0315 </r>
       <r>    -3.8812     3.2773     4.2790 </r>
       <r>    -3.8056     2.8388     4.4934 </r>
       <r>    -3.7301     1.6359     4.6169 </r>
       <r>    -3.6546     0.4924     4.6541 </r>
       <r>    -3.5791     0.2795     4.6752 </r>
       <r>    -3.5036     1.3049     4.7738 </r>
       <r>    -3.4280     2.8249     4.9871 </r>
       <r>    -3.3525     3.4172     5.2452 </r>
       <r>    -3.2770     2.5314     5.4364 </r>
       <r>    -3.2015     1.3571     5.5388 </r>
       <r>    -3.1260     1.5419     5.6553 </r>
       <r>    -3.0504     3.5509     5.9235 </r>
       <r>    -2.9749     6.6803     6.4280 </r>
       <r>    -2.8994     9.9713     7.1810 </r>
       <r>    -2.8239    12.4241     8.1193 </r>
       <r>    -2.7484    12.9103     9.0943 </r>
       <r>    -2.6728    11.2860     9.9466 </r>
       <r>    -2.5973     9.3376    10.6518 </r>
       <r>    -2.5218     9.0922    11.3384 </r>
       <r>    -2.4463    10.8295    12.1563 </r>
       <r>    -2.3708    13.8025    13.1986 </r>
       <r>    -2.2952    17.3612    14.5098 </r>
       <r>    -2.2197    20.4915    16.0573 </r>
       <r>    -2.1442    21.6175    17.6899 </r>
       <r>    -2.0687    19.8258    19.1871 </r>
       <r>    -1.9932    16.1277    20.4051 </r>
       <r>    -1.9176    12.8559    21.3760 </r>
       <r>    -1.8421    11.7595    22.2641 </r>
       <r>    -1.7666    13.0615    23.2505 </r>
       <r>    -1.6911    15.7923    24.4431 </r>
       <r>    -1.6155    18.4705    25.8380 </r>
       <r>    -1.5400    19.8262    27.3353 </r>
       <r>    -1.4645    19.5896    28.8148 </r>
       <r>    -1.3890    18.9088    30.2428 </r>
       <r>    -1.3135    19.4126    31.7088 </r>
       <r>    -1.2379    21.7352    33.3503 </r>
       <r>    -1.1624    25.4533    35.2725 </r>
       <r>    -1.0869    29.6987    37.5154 </r>
       <r>    -1.0114    33.0172    40.0089 </r>
       <r>    -0.9359    33.7059    42.5543 </r>
       <r>    -0.8603    31.5825    44.9395 </r>
       <r>    -0.7848    28.5364    47.0946 </r>
       <r>    -0.7093    26.1638    49.0705 </r>
       <r>    -0.6338    24.5128    50.9217 </r>
       <r>    -0.5583    23.7923    52.7185 </r>
       <r>    -0.4827    24.3732    54.5592 </r>
       <r>    -0.4072    25.1281    56.4569 </r>
       <r>    -0.3317    24.9980    58.3447 </r>
       <r>    -0.2562    25.3461    60.2589 </r>
       <r>    -0.1807    28.1193    62.3825 </r>
       <r>    -0.1051    32.6867    64.8510 </r>
       <r>    -0.0296    36.2071    67.5854 </r>
       <r>     0.0459    36.8403    70.3676 </r>
       <r>     0.1214    35.7955    73.0709 </r>
       <r>     0.1969    35.6338    75.7620 </r>
       <r>     0.2725    36.5338    78.5210 </r>
       <r>     0.3480    35.3183    81.1883 </r>
       <r>     0.4235    29.1246    83.3878 </r>
       <r>     0.4990    19.0972    84.8300 </r>
       <r>     0.5746     9.2699    85.5301 </r>
       <r>     0.6501     2.7258    85.7360 </r>
       <r>     0.7256    -0.0897    85.7292 </r>
       <r>     0.8011    -0.1759    85.7159 </r>
       <r>     0.8766     1.3924    85.8210 </r>
       <r>     0.9522     3.4471    86.0814 </r>
       <r>     1.0277     4.6075    86.4293 </r>
       <r>     1.1032     4.1484    86.7426 </r>
       <r>     1.1787     2.5844    86.9378 </r>
       <r>     1.2542     1.0069    87.0138 </r>
       <r>     1.3298     0.1212    87.0230 </r>
       <r>     1.4053    -0.0640    87.0182 </r>
       <r>     1.4808     0.0765    87.0239 </r>
       <r>     1.5563     0.3163    87.0478 </r>
       <r>     1.6318     0.8887    87.1149 </r>
       <r>     1.7074     2.2269    87.2831 </r>
       <r>     1.7829     4.2591    87.6048 </r>
       <r>     1.8584     6.0480    88.0615 </r>
       <r>     1.9339     6.5782    88.5583 </r>
       <r>     2.0094     5.8976    89.0037 </r>
       <r>     2.0850     4.7014    89.3587 </r>
       <r>     2.1605     3.2033    89.6007 </r>
       <r>     2.2360     1.6798    89.7275 </r>
       <r>     2.3115     1.2829    89.8244 </r>
       <r>     2.3870     2.7552    90.0325 </r>
       <r>     2.4626     4.8941    90.4021 </r>
       <r>     2.5381     5.6478    90.8286 </r>
       <r>     2.6136     4.5797    91.1745 </r>
       <r>     2.6891     3.1364    91.4113 </r>
       <r>     2.7647     2.7293    91.6175 </r>
       <r>     2.8402     3.3759    91.8724 </r>
       <r>     2.9157     3.8850    92.1658 </r>
       <r>     2.9912     3.2352    92.4101 </r>
       <r>     3.0667     1.8837    92.5524 </r>
       <r>     3.1423     1.1295    92.6377 </r>
       <r>     3.2178     1.3231    92.7376 </r>
       <r>     3.2933     1.6025    92.8586 </r>
       <r>     3.3688     1.3160    92.9580 </r>
       <r>     3.4443     0.8036    93.0187 </r>
       <r>     3.5199     0.6211    93.0656 </r>
       <r>     3.5954     0.8062    93.1265 </r>
       <r>     3.6709     1.2167    93.2184 </r>
       <r>     3.7464     1.8553    93.3585 </r>
       <r>     3.8219     2.5450    93.5507 </r>
       <r>     3.8975     2.8990    93.7696 </r>
       <r>     3.9730     2.7172    93.9748 </r>
       <r>     4.0485     2.0466    94.1294 </r>
       <r>     4.1240     1.1048    94.2128 </r>
       <r>     4.1995     0.2738    94.2335 </r>
       <r>     4.2751    -0.1463    94.2225 </r>
       <r>     4.3506    -0.0955    94.2153 </r>
       <r>     4.4261     0.4087    94.2461 </r>
       <r>     4.5016     1.2621    94.3414 </r>
       <r>     4.5771     2.0589    94.4969 </r>
       <r>     4.6527     2.2561    94.6673 </r>
       <r>     4.7282     1.7650    94.8006 </r>
       <r>     4.8037     1.1878    94.8903 </r>
       <r>     4.8792     1.1712    94.9788 </r>
       <r>     4.9547     1.6208    95.1012 </r>
       <r>     5.0303     1.9539    95.2487 </r>
       <r>     5.1058     1.9592    95.3967 </r>
       <r>     5.1813     1.8552    95.5368 </r>
       <r>     5.2568     1.8037    95.6730 </r>
       <r>     5.3324     1.8974    95.8163 </r>
       <r>     5.4079     2.2140    95.9835 </r>
       <r>     5.4834     2.5926    96.1793 </r>
       <r>     5.5589     2.7343    96.3858 </r>
       <r>     5.6344     2.5687    96.5798 </r>
       <r>     5.7100     2.3726    96.7590 </r>
       <r>     5.7855     2.6595    96.9598 </r>
       <r>     5.8610     3.8588    97.2512 </r>
       <r>     5.9365     5.6208    97.6757 </r>
       <r>     6.0120     6.5560    98.1708 </r>
       <r>     6.0876     5.5816    98.5923 </r>
       <r>     6.1631     3.3663    98.8466 </r>
       <r>     6.2386     1.4546    98.9564 </r>
       <r>     6.3141     0.5435    98.9975 </r>
       <r>     6.3896     0.4734    99.0332 </r>
       <r>     6.4652     1.0877    99.1154 </r>
       <r>     6.5407     2.2938    99.2886 </r>
       <r>     6.6162     3.5488    99.5566 </r>
       <r>     6.6917     3.9071    99.8517 </r>
       <r>     6.7672     3.0783   100.0842 </r>
       <r>     6.8428     2.1291   100.2449 </r>
       <r>     6.9183     2.3780   100.4245 </r>
       <r>     6.9938     3.8060   100.7120 </r>
       <r>     7.0693     5.1765   101.1029 </r>
       <r>     7.1448     5.4271   101.5128 </r>
       <r>     7.2204     4.4603   101.8496 </r>
       <r>     7.2959     2.9210   102.0702 </r>
       <r>     7.3714     1.7511   102.2024 </r>
       <r>     7.4469     1.7312   102.3332 </r>
       <r>     7.5225     2.8455   102.5481 </r>
       <r>     7.5980     4.1041   102.8580 </r>
       <r>     7.6735     4.3780   103.1886 </r>
       <r>     7.7490     3.4216   103.4470 </r>
       <r>     7.8245     2.0483   103.6017 </r>
       <r>     7.9001     1.4736   103.7130 </r>
       <r>     7.9756     2.2454   103.8826 </r>
       <r>     8.0511     3.5804   104.1530 </r>
       <r>     8.1266     4.1203   104.4642 </r>
       <r>     8.2021     3.3991   104.7209 </r>
       <r>     8.2777     2.0811   104.8780 </r>
       <r>     8.3532     0.9887   104.9527 </r>
       <r>     8.4287     0.5687   104.9956 </r>
       <r>     8.5042     0.9992   105.0711 </r>
       <r>     8.5797     2.0934   105.2292 </r>
       <r>     8.6553     3.2544   105.4750 </r>
       <r>     8.7308     3.9727   105.7750 </r>
       <r>     8.8063     4.3363   106.1025 </r>
       <r>     8.8818     4.8457   106.4684 </r>
       <r>     8.9573     5.6905   106.8982 </r>
       <r>     9.0329     6.4402   107.3845 </r>
       <r>     9.1084     6.5663   107.8804 </r>
       <r>     9.1839     5.8731   108.3240 </r>
       <r>     9.2594     4.3530   108.6527 </r>
       <r>     9.3349     2.3266   108.8284 </r>
       <r>     9.4105     0.8023   108.8890 </r>
       <r>     9.4860     0.8893   108.9562 </r>
       <r>     9.5615     2.5471   109.1485 </r>
       <r>     9.6370     4.3085   109.4739 </r>
       <r>     9.7125     4.7222   109.8305 </r>
       <r>     9.7881     3.8277   110.1196 </r>
       <r>     9.8636     2.5922   110.3154 </r>
       <r>     9.9391     1.5541   110.4327 </r>
       <r>    10.0146     0.8354   110.4958 </r>
       <r>    10.0902     0.8057   110.5567 </r>
       <r>    10.1657     1.9658   110.7051 </r>
       <r>    10.2412     4.1852   111.0212 </r>
       <r>    10.3167     6.4125   111.5055 </r>
       <r>    10.3922     7.6839   112.0858 </r>
       <r>    10.4678     8.1985   112.7049 </r>
       <r>    10.5433     8.5025   113.3470 </r>
       <r>    10.6188     8.0604   113.9558 </r>
       <r>    10.6943     6.0603   114.4134 </r>
       <r>    10.7698     3.1951   114.6547 </r>
       <r>    10.8454     1.0881   114.7369 </r>
       <r>    10.9209     0.3928   114.7666 </r>
       <r>    10.9964     0.7159   114.8206 </r>
       <r>    11.0719     1.7832   114.9553 </r>
       <r>    11.1474     3.3478   115.2081 </r>
       <r>    11.2230     4.3845   115.5392 </r>
       <r>    11.2985     3.8536   115.8303 </r>
       <r>    11.3740     2.1357   115.9916 </r>
       <r>    11.4495     0.5698   116.0346 </r>
       <r>    11.5250    -0.1263   116.0251 </r>
       <r>    11.6006    -0.1969   116.0102 </r>
       <r>    11.6761    -0.0975   116.0028 </r>
       <r>    11.7516    -0.0299   116.0006 </r>
       <r>    11.8271    -0.0063   116.0001 </r>
       <r>    11.9026    -0.0010   116.0000 </r>
       <r>    11.9782    -0.0001   116.0000 </r>
       <r>    12.0537    -0.0000   116.0000 </r>
       <r>    12.1292    -0.0000   116.0000 </r>
       <r>    12.2047    -0.0000   116.0000 </r>
       <r>    12.2803    -0.0000   116.0000 </r>
       <r>    12.3558    -0.0000   116.0000 </r>
       <r>    12.4313    -0.0000   116.0000 </r>
       <r>    12.5068    -0.0000   116.0000 </r>
       <r>    12.5823     0.0000   116.0000 </r>
       <r>    12.6579     0.0000   116.0000 </r>
       <r>    12.7334     0.0000   116.0000 </r>
       <r>    12.8089     0.0000   116.0000 </r>
       <r>    12.8844     0.0000   116.0000 </r>
       <r>    12.9599     0.0000   116.0000 </r>
       <r>    13.0355     0.0000   116.0000 </r>
       <r>    13.1110     0.0000   116.0000 </r>
       <r>    13.1865     0.0000   116.0000 </r>
       <r>    13.2620     0.0000   116.0000 </r>
      </set>
     </set>
    </array>
   </total>
  </dos>
 </calculation>
 <structure name="finalpos" >
  <crystal>
   <varray name="basis" >
    <v>       3.63000011       0.00000000       0.00000000 </v>
    <v>       0.00000000       3.63000011       0.00000000 </v>
    <v>       0.00000000       0.00000000      27.70499992 </v>
   </varray>
   <i name="volume">    365.06603650 </i>
   <varray name="rec_basis" >
    <v>       0.27548208       0.00000000       0.00000000 </v>
    <v>       0.00000000       0.27548208       0.00000000 </v>
    <v>       0.00000000       0.00000000       0.03609457 </v>
   </varray>
  </crystal>
  <varray name="positions" >
   <v>       0.00000000       0.00606211      -0.00112263 </v>
   <v>       0.50000000       0.50608565      -0.00112465 </v>
   <v>       0.00000000       0.50613960       0.06209844 </v>
   <v>       0.50000000       0.00612869       0.06207125 </v>
   <v>       0.00000000       0.00584316       0.12542667 </v>
   <v>       0.50000000       0.50583226       0.12542877 </v>
   <v>       0.00000000       0.50544859       0.18846621 </v>
   <v>       0.50000000       0.00541584       0.18842702 </v>
   <v>       0.00000000       0.00473568       0.25045174 </v>
   <v>       0.50000000       0.50473068       0.25043532 </v>
   <v>       0.00000000       0.50396327       0.31339857 </v>
   <v>       0.50000000       0.00398627       0.31328627 </v>
   <v>       0.00000000       0.00300856       0.37657901 </v>
   <v>       0.50000000       0.50298914       0.37655008 </v>
   <v>       0.00000000       0.50230569       0.43953403 </v>
   <v>       0.50000000       0.00257692       0.43912519 </v>
   <v>       1.00000000       0.43190207       0.53837011 </v>
   <v>       1.00000000       0.63816305       0.54159537 </v>
  </varray>
 </structure>
</modeling>
