unknown system                          
           1
     3.630000    0.000000    0.000000
     0.000000    3.630000    0.000000
     0.000000    0.000000   27.705000
   Cu   H 
    16     2
Direct configuration=     1
   0.00000000  0.00000000  0.00000000
   0.50000000  0.50000000  0.00000000
   0.00000000  0.50000000  0.06551164
   0.50000000  0.00000000  0.06551164
   0.00000000  0.00000000  0.12876120
   0.50000000  0.50000000  0.12876120
   0.00000000  0.50000000  0.19193187
   0.50000000  0.00000000  0.19193187
   0.00000000  0.00000000  0.25406550
   0.50000000  0.50000000  0.25406550
   0.00000000  0.50000000  0.31747855
   0.50000000  0.00000000  0.31747855
   0.00000000  0.00000000  0.38132233
   0.50000000  0.50000000  0.38132233
   0.00000000  0.50000000  0.44440075
   0.50000000  0.00000000  0.44440075
   1.00000000  0.50000000  0.50150658
   1.00000000  0.64531726  0.52054652
Direct configuration=     2
   0.00000000  0.00001699  0.00042816
   0.50000000  0.49998183  0.00043010
   0.00000000  0.50000547  0.06512056
   0.50000000  0.00000072  0.06508849
   0.00000000 -0.00005297  0.12878261
   0.50000000  0.50004781  0.12878356
   0.00000000  0.50009982  0.19193051
   0.50000000 -0.00010892  0.19187797
   0.00000000  0.00016275  0.25412046
   0.50000000  0.49985354  0.25411936
   0.00000000  0.50001910  0.31759550
   0.50000000 -0.00001560  0.31741014
   0.00000000  0.00032969  0.38131784
   0.50000000  0.49985673  0.38132141
   0.00000000  0.50065107  0.44235620
   0.50000000  0.00131147  0.44370848
   1.00000000  0.48603493  0.50252260
   1.00000000  0.65712282  0.52208282
Direct configuration=     3
   0.00000000  0.00001780  0.00044858
   0.50000000  0.49998096  0.00045061
   0.00000000  0.50000573  0.06510191
   0.50000000  0.00000076  0.06506831
   0.00000000 -0.00005550  0.12878363
   0.50000000  0.50005009  0.12878463
   0.00000000  0.50010458  0.19193045
   0.50000000 -0.00011411  0.19187540
   0.00000000  0.00017051  0.25412308
   0.50000000  0.49984655  0.25412193
   0.00000000  0.50002002  0.31760107
   0.50000000 -0.00001635  0.31740687
   0.00000000  0.00034542  0.38131763
   0.50000000  0.49984990  0.38132137
   0.00000000  0.50068212  0.44225869
   0.50000000  0.00137402  0.44367546
   1.00000000  0.48536888  0.50257106
   1.00000000  0.65768588  0.52215609
Direct configuration=     4
   0.00000000  0.00004476  0.00095918
   0.50000000  0.49996776  0.00096470
   0.00000000  0.50001516  0.06469394
   0.50000000  0.00001744  0.06462797
   0.00000000 -0.00008627  0.12872251
   0.50000000  0.50009086  0.12872471
   0.00000000  0.50023090  0.19193488
   0.50000000 -0.00023498  0.19183229
   0.00000000  0.00035852  0.25418630
   0.50000000  0.49969591  0.25417788
   0.00000000  0.50010410  0.31773100
   0.50000000 -0.00005343  0.31733544
   0.00000000  0.00074455  0.38102691
   0.50000000  0.49991832  0.38102833
   0.00000000  0.50184108  0.44055044
   0.50000000  0.00303498  0.44281640
   1.00000000  0.48280242  0.50547463
   1.00000000  0.65682518  0.52220926
Direct configuration=     5
   0.00000000  0.00005926  0.00123375
   0.50000000  0.49996066  0.00124116
   0.00000000  0.50002024  0.06447456
   0.50000000  0.00002642  0.06439117
   0.00000000 -0.00010282  0.12868964
   0.50000000  0.50011278  0.12869250
   0.00000000  0.50029883  0.19193727
   0.50000000 -0.00029997  0.19180911
   0.00000000  0.00045962  0.25422030
   0.50000000  0.49961490  0.25420797
   0.00000000  0.50014931  0.31780087
   0.50000000 -0.00007338  0.31729703
   0.00000000  0.00095919  0.38087057
   0.50000000  0.49995511  0.38087074
   0.00000000  0.50246431  0.43963183
   0.50000000  0.00392817  0.44235443
   1.00000000  0.48142229  0.50703605
   1.00000000  0.65636233  0.52223784
Direct configuration=     6
   0.00000000  0.00007795  0.00143751
   0.50000000  0.49999122  0.00144657
   0.00000000  0.50003689  0.06452064
   0.50000000  0.00006507  0.06444031
   0.00000000 -0.00001728  0.12850996
   0.50000000  0.50007544  0.12851316
   0.00000000  0.50032561  0.19194044
   0.50000000 -0.00028497  0.19181591
   0.00000000  0.00047946  0.25422806
   0.50000000  0.49966289  0.25420833
   0.00000000  0.50034228  0.31773996
   0.50000000 -0.00008654  0.31720086
   0.00000000  0.00128721  0.38016677
   0.50000000  0.50058754  0.38015667
   0.00000000  0.50300470  0.43971795
   0.50000000  0.00465761  0.44182409
   1.00000000  0.47511849  0.50836242
   1.00000000  0.65999367  0.52276715
Direct configuration=     7
   0.00000000  0.00009551  0.00162894
   0.50000000  0.50001992  0.00163956
   0.00000000  0.50005254  0.06456393
   0.50000000  0.00010138  0.06448648
   0.00000000  0.00006309  0.12834116
   0.50000000  0.50004035  0.12834467
   0.00000000  0.50035078  0.19194342
   0.50000000 -0.00027087  0.19182229
   0.00000000  0.00049810  0.25423534
   0.50000000  0.49970797  0.25420867
   0.00000000  0.50052357  0.31768274
   0.50000000 -0.00009890  0.31711052
   0.00000000  0.00159538  0.37950556
   0.50000000  0.50118171  0.37948581
   0.00000000  0.50351238  0.43979887
   0.50000000  0.00534292  0.44132585
   1.00000000  0.46919613  0.50960854
   1.00000000  0.66340529  0.52326443
Direct configuration=     8
   0.00000000  0.00010962  0.00171603
   0.50000000  0.50004528  0.00172735
   0.00000000  0.50007198  0.06462139
   0.50000000  0.00012106  0.06454840
   0.00000000  0.00011209  0.12826381
   0.50000000  0.50002826  0.12826751
   0.00000000  0.50036495  0.19192478
   0.50000000 -0.00024800  0.19180795
   0.00000000  0.00051337  0.25422415
   0.50000000  0.49974809  0.25419293
   0.00000000  0.50063977  0.31755861
   0.50000000 -0.00004130  0.31699162
   0.00000000  0.00181288  0.37913847
   0.50000000  0.50158996  0.37911071
   0.00000000  0.50379895  0.43995959
   0.50000000  0.00572717  0.44100059
   1.00000000  0.46804389  0.51054004
   1.00000000  0.66287925  0.52340283
Direct configuration=     9
   0.00000000  0.00015194  0.00197730
   0.50000000  0.50012133  0.00199073
   0.00000000  0.50013028  0.06479379
   0.50000000  0.00018008  0.06473417
   0.00000000  0.00025909  0.12803176
   0.50000000  0.49999201  0.12803602
   0.00000000  0.50040747  0.19186888
   0.50000000 -0.00017939  0.19176494
   0.00000000  0.00055917  0.25419058
   0.50000000  0.49986846  0.25414570
   0.00000000  0.50098836  0.31718621
   0.50000000  0.00013151  0.31663493
   0.00000000  0.00246538  0.37803722
   0.50000000  0.50281472  0.37798541
   0.00000000  0.50465866  0.44044176
   0.50000000  0.00687991  0.44002481
   1.00000000  0.46458715  0.51333455
   1.00000000  0.66130113  0.52381803
Direct configuration=    10
   0.00000000  0.00016059  0.00203071
   0.50000000  0.50013687  0.00204457
   0.00000000  0.50014220  0.06482903
   0.50000000  0.00019215  0.06477214
   0.00000000  0.00028914  0.12798433
   0.50000000  0.49998460  0.12798870
   0.00000000  0.50041616  0.19185745
   0.50000000 -0.00016536  0.19175615
   0.00000000  0.00056853  0.25418372
   0.50000000  0.49989306  0.25413604
   0.00000000  0.50105962  0.31711008
   0.50000000  0.00016684  0.31656202
   0.00000000  0.00259876  0.37781210
   0.50000000  0.50306509  0.37775537
   0.00000000  0.50483440  0.44054033
   0.50000000  0.00711556  0.43982534
   1.00000000  0.46388052  0.51390580
   1.00000000  0.66097853  0.52390291
Direct configuration=    11
   0.00000000  0.00018065  0.00203696
   0.50000000  0.50016522  0.00204999
   0.00000000  0.50017771  0.06485549
   0.50000000  0.00019583  0.06480074
   0.00000000  0.00029301  0.12805881
   0.50000000  0.50002386  0.12806325
   0.00000000  0.50043327  0.19179915
   0.50000000 -0.00012435  0.19169603
   0.00000000  0.00060962  0.25409492
   0.50000000  0.49994330  0.25404748
   0.00000000  0.50112808  0.31681511
   0.50000000  0.00042514  0.31631532
   0.00000000  0.00276144  0.37791054
   0.50000000  0.50320684  0.37785201
   0.00000000  0.50501220  0.44057388
   0.50000000  0.00714937  0.43957335
   1.00000000  0.46304613  0.51443154
   1.00000000  0.66068993  0.52402222
Direct configuration=    12
   0.00000000  0.00024082  0.00205571
   0.50000000  0.50025027  0.00206625
   0.00000000  0.50028425  0.06493487
   0.50000000  0.00020689  0.06488653
   0.00000000  0.00030464  0.12828225
   0.50000000  0.50014163  0.12828690
   0.00000000  0.50048459  0.19162427
   0.50000000 -0.00000133  0.19151567
   0.00000000  0.00073288  0.25382853
   0.50000000  0.50009401  0.25378178
   0.00000000  0.50133346  0.31593020
   0.50000000  0.00120005  0.31557521
   0.00000000  0.00324949  0.37820588
   0.50000000  0.50363211  0.37814190
   0.00000000  0.50554558  0.44067451
   0.50000000  0.00725081  0.43881737
   1.00000000  0.46054297  0.51600876
   1.00000000  0.65982413  0.52438018
Direct configuration=    13
   0.00000000  0.00026333  0.00206273
   0.50000000  0.50028207  0.00207234
   0.00000000  0.50032410  0.06496456
   0.50000000  0.00021102  0.06491861
   0.00000000  0.00030899  0.12836581
   0.50000000  0.50018568  0.12837055
   0.00000000  0.50050378  0.19155887
   0.50000000  0.00004467  0.19144822
   0.00000000  0.00077898  0.25372890
   0.50000000  0.50015037  0.25368242
   0.00000000  0.50141027  0.31559926
   0.50000000  0.00148986  0.31529842
   0.00000000  0.00343201  0.37831632
   0.50000000  0.50379116  0.37825032
   0.00000000  0.50574506  0.44071215
   0.50000000  0.00728875  0.43853465
   1.00000000  0.45960683  0.51659861
   1.00000000  0.65950033  0.52451404
Direct configuration=    14
   0.00000000  0.00032866  0.00204568
   0.50000000  0.50033109  0.00205275
   0.00000000  0.50036580  0.06504106
   0.50000000  0.00026585  0.06499183
   0.00000000  0.00033702  0.12847994
   0.50000000  0.50026800  0.12848458
   0.00000000  0.50055210  0.19149039
   0.50000000  0.00015432  0.19137227
   0.00000000  0.00086082  0.25334989
   0.50000000  0.50040487  0.25330862
   0.00000000  0.50165658  0.31537299
   0.50000000  0.00185370  0.31513533
   0.00000000  0.00365339  0.37828902
   0.50000000  0.50400538  0.37822571
   0.00000000  0.50592359  0.44078416
   0.50000000  0.00710556  0.43843363
   1.00000000  0.45572829  0.51728152
   1.00000000  0.66152223  0.52485742
Direct configuration=    15
   0.00000000  0.00032125  0.00204762
   0.50000000  0.50032553  0.00205497
   0.00000000  0.50036107  0.06503239
   0.50000000  0.00025964  0.06498353
   0.00000000  0.00033384  0.12846700
   0.50000000  0.50025867  0.12847165
   0.00000000  0.50054662  0.19149815
   0.50000000  0.00014189  0.19138088
   0.00000000  0.00085155  0.25339285
   0.50000000  0.50037602  0.25335099
   0.00000000  0.50162866  0.31539864
   0.50000000  0.00181246  0.31515382
   0.00000000  0.00362830  0.37829211
   0.50000000  0.50398110  0.37822850
   0.00000000  0.50590335  0.44077600
   0.50000000  0.00712633  0.43844508
   1.00000000  0.45616794  0.51720411
   1.00000000  0.66129304  0.52481849
Direct configuration=    16
   0.00000000  0.00039425  0.00202993
   0.50000000  0.50037215  0.00203476
   0.00000000  0.50039295  0.06511776
   0.50000000  0.00033396  0.06506276
   0.00000000  0.00037410  0.12853925
   0.50000000  0.50034037  0.12854341
   0.00000000  0.50060399  0.19142668
   0.50000000  0.00026989  0.19130216
   0.00000000  0.00094745  0.25299070
   0.50000000  0.50067644  0.25295390
   0.00000000  0.50191188  0.31532340
   0.50000000  0.00208883  0.31511749
   0.00000000  0.00381458  0.37815521
   0.50000000  0.50415328  0.37809521
   0.00000000  0.50598691  0.44086682
   0.50000000  0.00688072  0.43853759
   1.00000000  0.45520005  0.51785301
   1.00000000  0.66057544  0.52504675
Direct configuration=    17
   0.00000000  0.00055155  0.00199181
   0.50000000  0.50047260  0.00199121
   0.00000000  0.50046167  0.06530174
   0.50000000  0.00049414  0.06523350
   0.00000000  0.00046086  0.12869495
   0.50000000  0.50051645  0.12869805
   0.00000000  0.50072761  0.19127266
   0.50000000  0.00054576  0.19113252
   0.00000000  0.00115414  0.25212401
   0.50000000  0.50132390  0.25209812
   0.00000000  0.50252226  0.31516126
   0.50000000  0.00268446  0.31503919
   0.00000000  0.00421605  0.37786017
   0.50000000  0.50452436  0.37780795
   0.00000000  0.50616700  0.44106256
   0.50000000  0.00635140  0.43873695
   1.00000000  0.45311412  0.51925146
   1.00000000  0.65902892  0.52553868
Direct configuration=    18
   0.00000000  0.00052466  0.00199833
   0.50000000  0.50045543  0.00199865
   0.00000000  0.50044992  0.06527030
   0.50000000  0.00046676  0.06520432
   0.00000000  0.00044603  0.12866834
   0.50000000  0.50048636  0.12867161
   0.00000000  0.50070648  0.19129898
   0.50000000  0.00049861  0.19116152
   0.00000000  0.00111881  0.25227215
   0.50000000  0.50121323  0.25224440
   0.00000000  0.50241793  0.31518897
   0.50000000  0.00258265  0.31505257
   0.00000000  0.00414743  0.37791060
   0.50000000  0.50446093  0.37785705
   0.00000000  0.50613622  0.44102910
   0.50000000  0.00644187  0.43870288
   1.00000000  0.45347066  0.51901243
   1.00000000  0.65929326  0.52545459
Direct configuration=    19
   0.00000000  0.00057211  0.00203446
   0.50000000  0.50051126  0.00203441
   0.00000000  0.50050418  0.06528996
   0.50000000  0.00052820  0.06522117
   0.00000000  0.00051358  0.12860286
   0.50000000  0.50055376  0.12860576
   0.00000000  0.50078615  0.19113270
   0.50000000  0.00065224  0.19099861
   0.00000000  0.00130608  0.25228503
   0.50000000  0.50134881  0.25225418
   0.00000000  0.50258366  0.31507181
   0.50000000  0.00271024  0.31491048
   0.00000000  0.00425964  0.37785182
   0.50000000  0.50444271  0.37779818
   0.00000000  0.50600211  0.44100462
   0.50000000  0.00640032  0.43885193
   1.00000000  0.45411066  0.51944930
   1.00000000  0.65753157  0.52559948
Direct configuration=    20
   0.00000000  0.00058990  0.00204801
   0.50000000  0.50053221  0.00204783
   0.00000000  0.50052453  0.06529734
   0.50000000  0.00055125  0.06522749
   0.00000000  0.00053892  0.12857830
   0.50000000  0.50057904  0.12858106
   0.00000000  0.50081604  0.19107032
   0.50000000  0.00070987  0.19093750
   0.00000000  0.00137633  0.25228986
   0.50000000  0.50139967  0.25225785
   0.00000000  0.50264583  0.31502786
   0.50000000  0.00275810  0.31485717
   0.00000000  0.00430173  0.37782977
   0.50000000  0.50443587  0.37777610
   0.00000000  0.50595180  0.44099544
   0.50000000  0.00638473  0.43890785
   1.00000000  0.45435075  0.51961319
   1.00000000  0.65687070  0.52565383
Direct configuration=    21
   0.00000000  0.00061647  0.00207053
   0.50000000  0.50056572  0.00207028
   0.00000000  0.50055822  0.06529611
   0.50000000  0.00058422  0.06522549
   0.00000000  0.00058032  0.12852867
   0.50000000  0.50061782  0.12853126
   0.00000000  0.50087012  0.19098346
   0.50000000  0.00079372  0.19085325
   0.00000000  0.00148237  0.25231682
   0.50000000  0.50146560  0.25228280
   0.00000000  0.50272356  0.31496892
   0.50000000  0.00281014  0.31478043
   0.00000000  0.00434954  0.37780673
   0.50000000  0.50442017  0.37775277
   0.00000000  0.50586834  0.44096425
   0.50000000  0.00636903  0.43898666
   1.00000000  0.45387091  0.51981588
   1.00000000  0.65677101  0.52576247
Direct configuration=    22
   0.00000000  0.00069615  0.00213811
   0.50000000  0.50066626  0.00213764
   0.00000000  0.50065928  0.06529242
   0.50000000  0.00068314  0.06521949
   0.00000000  0.00070452  0.12837977
   0.50000000  0.50073415  0.12838186
   0.00000000  0.50103235  0.19072289
   0.50000000  0.00104526  0.19060050
   0.00000000  0.00180051  0.25239768
   0.50000000  0.50166339  0.25235764
   0.00000000  0.50295676  0.31479209
   0.50000000  0.00296626  0.31455023
   0.00000000  0.00449299  0.37773761
   0.50000000  0.50437305  0.37768278
   0.00000000  0.50561795  0.44087066
   0.50000000  0.00632191  0.43922310
   1.00000000  0.45243139  0.52042393
   1.00000000  0.65647194  0.52608838
Direct configuration=    23
   0.00000000  0.00085552  0.00227326
   0.50000000  0.50086735  0.00227236
   0.00000000  0.50086140  0.06528503
   0.50000000  0.00088099  0.06520748
   0.00000000  0.00095292  0.12808196
   0.50000000  0.50096682  0.12808307
   0.00000000  0.50135681  0.19020173
   0.50000000  0.00154835  0.19009501
   0.00000000  0.00243677  0.25255941
   0.50000000  0.50205897  0.25250732
   0.00000000  0.50342316  0.31443845
   0.50000000  0.00327848  0.31408982
   0.00000000  0.00477988  0.37759937
   0.50000000  0.50427881  0.37754281
   0.00000000  0.50511719  0.44068349
   0.50000000  0.00622767  0.43969597
   1.00000000  0.44955234  0.52164003
   1.00000000  0.65587382  0.52674020
Direct configuration=    24
   0.00000000  0.00076705  0.00219823
   0.50000000  0.50075572  0.00219757
   0.00000000  0.50074919  0.06528913
   0.50000000  0.00077116  0.06521415
   0.00000000  0.00081502  0.12824729
   0.50000000  0.50083765  0.12824894
   0.00000000  0.50117669  0.19049105
   0.50000000  0.00126906  0.19037563
   0.00000000  0.00208355  0.25246962
   0.50000000  0.50183936  0.25242423
   0.00000000  0.50316424  0.31463478
   0.50000000  0.00310515  0.31434541
   0.00000000  0.00462061  0.37767611
   0.50000000  0.50433113  0.37762051
   0.00000000  0.50539519  0.44078740
   0.50000000  0.00627999  0.43943346
   1.00000000  0.45115063  0.52096491
   1.00000000  0.65620587  0.52637835
Direct configuration=    25
   0.00000000  0.00079135  0.00221224
   0.50000000  0.50078235  0.00221170
   0.00000000  0.50078186  0.06525447
   0.50000000  0.00079788  0.06518160
   0.00000000  0.00085247  0.12819594
   0.50000000  0.50088248  0.12819758
   0.00000000  0.50125227  0.19051622
   0.50000000  0.00129448  0.19040140
   0.00000000  0.00213452  0.25240622
   0.50000000  0.50190250  0.25236067
   0.00000000  0.50317739  0.31466884
   0.50000000  0.00308311  0.31438029
   0.00000000  0.00458709  0.37767781
   0.50000000  0.50435385  0.37762165
   0.00000000  0.50535362  0.44074246
   0.50000000  0.00622843  0.43942957
   1.00000000  0.45042003  0.52106626
   1.00000000  0.65664155  0.52647186
Direct configuration=    26
   0.00000000  0.00081763  0.00222738
   0.50000000  0.50081117  0.00222698
   0.00000000  0.50081720  0.06521698
   0.50000000  0.00082678  0.06514640
   0.00000000  0.00089298  0.12814041
   0.50000000  0.50093097  0.12814202
   0.00000000  0.50133402  0.19054345
   0.50000000  0.00132198  0.19042927
   0.00000000  0.00218964  0.25233765
   0.50000000  0.50197080  0.25229193
   0.00000000  0.50319162  0.31470568
   0.50000000  0.00305926  0.31441802
   0.00000000  0.00455084  0.37767964
   0.50000000  0.50437843  0.37762288
   0.00000000  0.50530867  0.44069386
   0.50000000  0.00617267  0.43942536
   1.00000000  0.44962984  0.52117588
   1.00000000  0.65711278  0.52657300
Direct configuration=    27
   0.00000000  0.00084583  0.00223091
   0.50000000  0.50083968  0.00223071
   0.00000000  0.50085105  0.06517438
   0.50000000  0.00085600  0.06510673
   0.00000000  0.00093562  0.12809965
   0.50000000  0.50097807  0.12810140
   0.00000000  0.50141257  0.19058130
   0.50000000  0.00134423  0.19046777
   0.00000000  0.00222767  0.25226691
   0.50000000  0.50202687  0.25222139
   0.00000000  0.50318602  0.31474950
   0.50000000  0.00303443  0.31446712
   0.00000000  0.00450284  0.37768676
   0.50000000  0.50440367  0.37762941
   0.00000000  0.50528317  0.44064539
   0.50000000  0.00611926  0.43939666
   1.00000000  0.44978588  0.52129207
   1.00000000  0.65668439  0.52664873
Direct configuration=    28
   0.00000000  0.00091602  0.00223970
   0.50000000  0.50091065  0.00224000
   0.00000000  0.50093531  0.06506835
   0.50000000  0.00092874  0.06500797
   0.00000000  0.00104175  0.12799818
   0.50000000  0.50109528  0.12800030
   0.00000000  0.50160807  0.19067551
   0.50000000  0.00139960  0.19056359
   0.00000000  0.00232234  0.25209082
   0.50000000  0.50216645  0.25204582
   0.00000000  0.50317209  0.31485858
   0.50000000  0.00297264  0.31458935
   0.00000000  0.00438337  0.37770448
   0.50000000  0.50446648  0.37764567
   0.00000000  0.50521970  0.44052475
   0.50000000  0.00598633  0.43932524
   1.00000000  0.45017428  0.52158126
   1.00000000  0.65561814  0.52683721
Direct configuration=    29
   0.00000000  0.00096162  0.00221929
   0.50000000  0.50095407  0.00221987
   0.00000000  0.50098171  0.06501575
   0.50000000  0.00097764  0.06495896
   0.00000000  0.00111306  0.12797831
   0.50000000  0.50115104  0.12798075
   0.00000000  0.50169515  0.19066427
   0.50000000  0.00146447  0.19055384
   0.00000000  0.00237325  0.25206633
   0.50000000  0.50221085  0.25202232
   0.00000000  0.50315303  0.31487082
   0.50000000  0.00297716  0.31460971
   0.00000000  0.00433893  0.37771535
   0.50000000  0.50445929  0.37765657
   0.00000000  0.50517542  0.44046665
   0.50000000  0.00591940  0.43928442
   1.00000000  0.44992896  0.52174045
   1.00000000  0.65548221  0.52697311
Direct configuration=    30
   0.00000000  0.00109842  0.00215806
   0.50000000  0.50108431  0.00215950
   0.00000000  0.50112090  0.06485795
   0.50000000  0.00112434  0.06481192
   0.00000000  0.00132700  0.12791870
   0.50000000  0.50131831  0.12792211
   0.00000000  0.50195637  0.19063057
   0.50000000  0.00165909  0.19052462
   0.00000000  0.00252595  0.25199285
   0.50000000  0.50234407  0.25195182
   0.00000000  0.50309583  0.31490755
   0.50000000  0.00299075  0.31467080
   0.00000000  0.00420564  0.37774795
   0.50000000  0.50443769  0.37768925
   0.00000000  0.50504257  0.44029237
   0.50000000  0.00571860  0.43916194
   1.00000000  0.44919298  0.52221802
   1.00000000  0.65507442  0.52738080
Direct configuration=    31
   0.00000000  0.00137203  0.00203559
   0.50000000  0.50134481  0.00203875
   0.00000000  0.50139929  0.06454234
   0.50000000  0.00141774  0.06451783
   0.00000000  0.00175487  0.12779949
   0.50000000  0.50165285  0.12780484
   0.00000000  0.50247882  0.19056318
   0.50000000  0.00204833  0.19046617
   0.00000000  0.00283136  0.25184589
   0.50000000  0.50261050  0.25181083
   0.00000000  0.50298144  0.31498099
   0.50000000  0.00301791  0.31479298
   0.00000000  0.00393904  0.37781316
   0.50000000  0.50439451  0.37775461
   0.00000000  0.50477688  0.43994379
   0.50000000  0.00531701  0.43891698
   1.00000000  0.44772102  0.52317317
   1.00000000  0.65425886  0.52819619
Direct configuration=    32
   0.00000000  0.00191924  0.00179064
   0.50000000  0.50186579  0.00179725
   0.00000000  0.50195606  0.06391113
   0.50000000  0.00200455  0.06392966
   0.00000000  0.00261060  0.12756105
   0.50000000  0.50232192  0.12757029
   0.00000000  0.50352371  0.19042838
   0.50000000  0.00282680  0.19034928
   0.00000000  0.00344217  0.25155198
   0.50000000  0.50314336  0.25152884
   0.00000000  0.50275265  0.31512789
   0.50000000  0.00307225  0.31503735
   0.00000000  0.00340585  0.37794358
   0.50000000  0.50430814  0.37788534
   0.00000000  0.50424550  0.43924665
   0.50000000  0.00451384  0.43842706
   1.00000000  0.44477711  0.52508346
   1.00000000  0.65262772  0.52982697
Direct configuration=    33
   0.00000000  0.00150648  0.00197540
   0.50000000  0.50147282  0.00197941
   0.00000000  0.50153609  0.06438724
   0.50000000  0.00156193  0.06437331
   0.00000000  0.00196513  0.12774090
   0.50000000  0.50181725  0.12774721
   0.00000000  0.50273556  0.19053005
   0.50000000  0.00223961  0.19043745
   0.00000000  0.00298144  0.25177367
   0.50000000  0.50274143  0.25174154
   0.00000000  0.50292522  0.31501709
   0.50000000  0.00303126  0.31485303
   0.00000000  0.00380803  0.37784521
   0.50000000  0.50437329  0.37778674
   0.00000000  0.50464632  0.43977250
   0.50000000  0.00511966  0.43879660
   1.00000000  0.44699767  0.52364255
   1.00000000  0.65385806  0.52859689
Direct configuration=    34
   0.00000000  0.00155628  0.00193740
   0.50000000  0.50152252  0.00194159
   0.00000000  0.50158785  0.06435478
   0.50000000  0.00161206  0.06434274
   0.00000000  0.00204089  0.12771586
   0.50000000  0.50188192  0.12772240
   0.00000000  0.50281338  0.19049869
   0.50000000  0.00231718  0.19040778
   0.00000000  0.00303079  0.25177907
   0.50000000  0.50278472  0.25174754
   0.00000000  0.50291700  0.31500938
   0.50000000  0.00304405  0.31485078
   0.00000000  0.00377426  0.37783699
   0.50000000  0.50433681  0.37777900
   0.00000000  0.50457376  0.43973530
   0.50000000  0.00505909  0.43877994
   1.00000000  0.44694508  0.52381665
   1.00000000  0.65351963  0.52874089
Direct configuration=    35
   0.00000000  0.00170566  0.00182338
   0.50000000  0.50167164  0.00182813
   0.00000000  0.50174311  0.06425741
   0.50000000  0.00176247  0.06425104
   0.00000000  0.00226816  0.12764075
   0.50000000  0.50207592  0.12764800
   0.00000000  0.50304685  0.19040459
   0.50000000  0.00254989  0.19031875
   0.00000000  0.00317883  0.25179526
   0.50000000  0.50291458  0.25176555
   0.00000000  0.50289233  0.31498625
   0.50000000  0.00308239  0.31484403
   0.00000000  0.00367294  0.37781233
   0.50000000  0.50422737  0.37775580
   0.00000000  0.50435609  0.43962372
   0.50000000  0.00487739  0.43872998
   1.00000000  0.44678731  0.52433896
   1.00000000  0.65250433  0.52917286
Direct configuration=    36
   0.00000000  0.00200444  0.00159535
   0.50000000  0.50196986  0.00160121
   0.00000000  0.50205363  0.06406265
   0.50000000  0.00206328  0.06406763
   0.00000000  0.00272271  0.12749053
   0.50000000  0.50246393  0.12749918
   0.00000000  0.50351379  0.19021640
   0.50000000  0.00301531  0.19014071
   0.00000000  0.00347491  0.25182764
   0.50000000  0.50317431  0.25180156
   0.00000000  0.50284299  0.31494000
   0.50000000  0.00315909  0.31483053
   0.00000000  0.00347030  0.37776301
   0.50000000  0.50400849  0.37770939
   0.00000000  0.50392074  0.43940056
   0.50000000  0.00451398  0.43863005
   1.00000000  0.44647179  0.52538357
   1.00000000  0.65047374  0.53003681
Direct configuration=    37
   0.00000000  0.00260198  0.00113930
   0.50000000  0.50256632  0.00114737
   0.00000000  0.50267467  0.06367315
   0.50000000  0.00266491  0.06370082
   0.00000000  0.00363180  0.12719008
   0.50000000  0.50323994  0.12720155
   0.00000000  0.50444766  0.18984002
   0.50000000  0.00394615  0.18978462
   0.00000000  0.00406706  0.25189240
   0.50000000  0.50369376  0.25187358
   0.00000000  0.50274431  0.31484749
   0.50000000  0.00331248  0.31480354
   0.00000000  0.00306502  0.37766437
   0.50000000  0.50357072  0.37761657
   0.00000000  0.50305005  0.43895423
   0.50000000  0.00378715  0.43843018
   1.00000000  0.44584073  0.52747280
   1.00000000  0.64641255  0.53176471
Direct configuration=    38
   0.00000000  0.00222197  0.00142933
   0.50000000  0.50218700  0.00143599
   0.00000000  0.50227971  0.06392085
   0.50000000  0.00228230  0.06393410
   0.00000000  0.00305366  0.12738115
   0.50000000  0.50274643  0.12739083
   0.00000000  0.50385376  0.19007938
   0.50000000  0.00335418  0.19001108
   0.00000000  0.00369048  0.25185121
   0.50000000  0.50336341  0.25182778
   0.00000000  0.50280707  0.31490632
   0.50000000  0.00321493  0.31482070
   0.00000000  0.00332276  0.37772710
   0.50000000  0.50384912  0.37767560
   0.00000000  0.50360377  0.43923808
   0.50000000  0.00424938  0.43855729
   1.00000000  0.44624205  0.52614415
   1.00000000  0.64899528  0.53066584
Direct configuration=    39
   0.00000000  0.00227854  0.00138157
   0.50000000  0.50224425  0.00138837
   0.00000000  0.50233997  0.06389236
   0.50000000  0.00233912  0.06390673
   0.00000000  0.00313645  0.12734988
   0.50000000  0.50282230  0.12735974
   0.00000000  0.50393166  0.19004455
   0.50000000  0.00343883  0.18997799
   0.00000000  0.00374207  0.25186085
   0.50000000  0.50341327  0.25183791
   0.00000000  0.50280645  0.31489213
   0.50000000  0.00322817  0.31481098
   0.00000000  0.00328730  0.37770850
   0.50000000  0.50380084  0.37765777
   0.00000000  0.50351783  0.43920792
   0.50000000  0.00418370  0.43855094
   1.00000000  0.44592552  0.52633386
   1.00000000  0.64888099  0.53083472
Direct configuration=    40
   0.00000000  0.00244824  0.00123828
   0.50000000  0.50241598  0.00124550
   0.00000000  0.50252075  0.06380688
   0.50000000  0.00250957  0.06382462
   0.00000000  0.00338481  0.12725608
   0.50000000  0.50304991  0.12726648
   0.00000000  0.50416535  0.18994007
   0.50000000  0.00369278  0.18987874
   0.00000000  0.00389684  0.25188976
   0.50000000  0.50356285  0.25186831
   0.00000000  0.50280459  0.31484956
   0.50000000  0.00326791  0.31478179
   0.00000000  0.00318092  0.37765271
   0.50000000  0.50365600  0.37760430
   0.00000000  0.50326001  0.43911747
   0.50000000  0.00398668  0.43853189
   1.00000000  0.44497593  0.52690299
   1.00000000  0.64853812  0.53134134
Direct configuration=    41
   0.00000000  0.00278765  0.00095171
   0.50000000  0.50275945  0.00095977
   0.00000000  0.50288231  0.06363593
   0.50000000  0.00285046  0.06366042
   0.00000000  0.00388154  0.12706848
   0.50000000  0.50350514  0.12707995
   0.00000000  0.50463274  0.18973109
   0.50000000  0.00420069  0.18968023
   0.00000000  0.00420638  0.25194757
   0.50000000  0.50386201  0.25192911
   0.00000000  0.50280087  0.31476442
   0.50000000  0.00334737  0.31472342
   0.00000000  0.00296817  0.37754112
   0.50000000  0.50336633  0.37749735
   0.00000000  0.50274437  0.43893656
   0.50000000  0.00359263  0.43849381
   1.00000000  0.44307676  0.52804126
   1.00000000  0.64785239  0.53235459
Direct configuration=    42
   0.00000000  0.00346646  0.00037856
   0.50000000  0.50344639  0.00038829
   0.00000000  0.50360542  0.06329402
   0.50000000  0.00353225  0.06333200
   0.00000000  0.00487501  0.12669327
   0.50000000  0.50441558  0.12670689
   0.00000000  0.50556751  0.18931314
   0.50000000  0.00521650  0.18928321
   0.00000000  0.00482546  0.25206320
   0.50000000  0.50446032  0.25205071
   0.00000000  0.50279343  0.31459414
   0.50000000  0.00350631  0.31460668
   0.00000000  0.00254267  0.37731795
   0.50000000  0.50278699  0.37728346
   0.00000000  0.50171309  0.43857473