  66  66   0   0
  0.2212521E+02  0.7260000E-09  0.7260000E-09  0.2770500E-08  0.5000000E-15
  1.000000000000000E-004
  CAR 
 unknown system                          
     13.34445531     -9.54319877  301      1.86424782      1.00000000
     -9.543  0.0000E+00  0.0000E+00  0.0000E+00  0.0000E+00
     -9.467  0.0000E+00  0.0000E+00  0.0000E+00  0.0000E+00
     -9.391  0.0000E+00  0.0000E+00  0.0000E+00  0.0000E+00
     -9.314  0.0000E+00  0.0000E+00  0.0000E+00  0.0000E+00
     -9.238  0.0000E+00  0.0000E+00  0.0000E+00  0.0000E+00
     -9.162 -0.1500E-30 -0.1500E-30 -0.1144E-31 -0.1144E-31
     -9.085 -0.5917E-28 -0.5917E-28 -0.4526E-29 -0.4526E-29
     -9.009 -0.1744E-25 -0.1744E-25 -0.1335E-26 -0.1335E-26
     -8.933 -0.3830E-23 -0.3830E-23 -0.2935E-24 -0.2935E-24
     -8.857 -0.6266E-21 -0.6266E-21 -0.4810E-22 -0.4810E-22
     -8.780 -0.7633E-19 -0.7633E-19 -0.5871E-20 -0.5871E-20
     -8.704 -0.6717E-17 -0.6717E-17 -0.5183E-18 -0.5183E-18
     -8.628 -0.4506E-15 -0.4506E-15 -0.3490E-16 -0.3490E-16
     -8.551 -0.2244E-13 -0.2244E-13 -0.1747E-14 -0.1747E-14
     -8.475 -0.8278E-12 -0.8278E-12 -0.6490E-13 -0.6490E-13
     -8.399 -0.2257E-10 -0.2257E-10 -0.1787E-11 -0.1787E-11
     -8.323 -0.4535E-09 -0.4535E-09 -0.3638E-10 -0.3638E-10
     -8.246 -0.6684E-08 -0.6684E-08 -0.5463E-09 -0.5463E-09
     -8.170 -0.7179E-07 -0.7179E-07 -0.6024E-08 -0.6024E-08
     -8.094 -0.5560E-06 -0.5560E-06 -0.4845E-07 -0.4845E-07
     -8.017 -0.3048E-05 -0.3048E-05 -0.2810E-06 -0.2810E-06
     -7.941 -0.1139E-04 -0.1139E-04 -0.1150E-05 -0.1150E-05
     -7.865 -0.2640E-04 -0.2640E-04 -0.3164E-05 -0.3164E-05
     -7.788 -0.2437E-04 -0.2437E-04 -0.5023E-05 -0.5023E-05
     -7.712  0.5623E-04  0.5623E-04 -0.7335E-06 -0.7335E-06
     -7.636  0.2449E-03  0.2449E-03  0.1795E-04  0.1795E-04
     -7.560  0.4255E-03  0.4255E-03  0.5041E-04  0.5041E-04
     -7.483  0.4441E-03  0.4441E-03  0.8430E-04  0.8430E-04
     -7.407  0.4535E-03  0.4535E-03  0.1189E-03  0.1189E-03
     -7.331  0.8657E-03  0.8657E-03  0.1849E-03  0.1849E-03
     -7.254  0.1662E-02  0.1662E-02  0.3118E-03  0.3118E-03
     -7.178  0.2158E-02  0.2158E-02  0.4764E-03  0.4764E-03
     -7.102  0.1983E-02  0.1983E-02  0.6277E-03  0.6277E-03
     -7.026  0.1762E-02  0.1762E-02  0.7621E-03  0.7621E-03
     -6.949  0.2097E-02  0.2097E-02  0.9221E-03  0.9221E-03
     -6.873  0.2588E-02  0.2588E-02  0.1120E-02  0.1120E-02
     -6.797  0.2670E-02  0.2670E-02  0.1323E-02  0.1323E-02
     -6.720  0.2504E-02  0.2504E-02  0.1514E-02  0.1514E-02
     -6.644  0.2291E-02  0.2291E-02  0.1689E-02  0.1689E-02
     -6.568  0.1819E-02  0.1819E-02  0.1828E-02  0.1828E-02
     -6.492  0.1380E-02  0.1380E-02  0.1933E-02  0.1933E-02
     -6.415  0.1838E-02  0.1838E-02  0.2073E-02  0.2073E-02
     -6.339  0.3177E-02  0.3177E-02  0.2316E-02  0.2316E-02
     -6.263  0.4091E-02  0.4091E-02  0.2628E-02  0.2628E-02
     -6.186  0.3695E-02  0.3695E-02  0.2910E-02  0.2910E-02
     -6.110  0.2902E-02  0.2902E-02  0.3131E-02  0.3131E-02
     -6.034  0.3292E-02  0.3292E-02  0.3382E-02  0.3382E-02
     -5.957  0.4913E-02  0.4913E-02  0.3757E-02  0.3757E-02
     -5.881  0.6191E-02  0.6191E-02  0.4229E-02  0.4229E-02
     -5.805  0.5994E-02  0.5994E-02  0.4687E-02  0.4687E-02
     -5.729  0.4799E-02  0.4799E-02  0.5053E-02  0.5053E-02
     -5.652  0.3929E-02  0.3929E-02  0.5353E-02  0.5353E-02
     -5.576  0.4331E-02  0.4331E-02  0.5683E-02  0.5683E-02
     -5.500  0.5590E-02  0.5590E-02  0.6110E-02  0.6110E-02
     -5.423  0.5990E-02  0.5990E-02  0.6567E-02  0.6567E-02
     -5.347  0.4479E-02  0.4479E-02  0.6908E-02  0.6908E-02
     -5.271  0.2233E-02  0.2233E-02  0.7079E-02  0.7079E-02
     -5.195  0.1280E-02  0.1280E-02  0.7176E-02  0.7176E-02
     -5.118  0.2076E-02  0.2076E-02  0.7335E-02  0.7335E-02
     -5.042  0.3425E-02  0.3425E-02  0.7596E-02  0.7596E-02
     -4.966  0.4480E-02  0.4480E-02  0.7938E-02  0.7938E-02
     -4.889  0.5815E-02  0.5815E-02  0.8381E-02  0.8381E-02
     -4.813  0.8136E-02  0.8136E-02  0.9002E-02  0.9002E-02
     -4.737  0.1073E-01  0.1073E-01  0.9821E-02  0.9821E-02
     -4.660  0.1208E-01  0.1208E-01  0.1074E-01  0.1074E-01
     -4.584  0.1156E-01  0.1156E-01  0.1162E-01  0.1162E-01
     -4.508  0.9908E-02  0.9908E-02  0.1238E-01  0.1238E-01
     -4.432  0.8499E-02  0.8499E-02  0.1303E-01  0.1303E-01
     -4.355  0.8023E-02  0.8023E-02  0.1364E-01  0.1364E-01
     -4.279  0.7992E-02  0.7992E-02  0.1425E-01  0.1425E-01
     -4.203  0.7910E-02  0.7910E-02  0.1485E-01  0.1485E-01
     -4.126  0.7848E-02  0.7848E-02  0.1545E-01  0.1545E-01
     -4.050  0.8011E-02  0.8011E-02  0.1606E-01  0.1606E-01
     -3.974  0.8818E-02  0.8818E-02  0.1674E-01  0.1674E-01
     -3.898  0.1038E-01  0.1038E-01  0.1753E-01  0.1753E-01
     -3.821  0.1208E-01  0.1208E-01  0.1845E-01  0.1845E-01
     -3.745  0.1377E-01  0.1377E-01  0.1950E-01  0.1950E-01
     -3.669  0.1574E-01  0.1574E-01  0.2070E-01  0.2070E-01
     -3.592  0.1722E-01  0.1722E-01  0.2202E-01  0.2202E-01
     -3.516  0.1716E-01  0.1716E-01  0.2333E-01  0.2333E-01
     -3.440  0.1574E-01  0.1574E-01  0.2453E-01  0.2453E-01
     -3.364  0.1406E-01  0.1406E-01  0.2560E-01  0.2560E-01
     -3.287  0.1416E-01  0.1416E-01  0.2668E-01  0.2668E-01
     -3.211  0.1901E-01  0.1901E-01  0.2813E-01  0.2813E-01
     -3.135  0.2976E-01  0.2976E-01  0.3040E-01  0.3040E-01
     -3.058  0.4200E-01  0.4200E-01  0.3360E-01  0.3360E-01
     -2.982  0.4785E-01  0.4785E-01  0.3725E-01  0.3725E-01
     -2.906  0.4474E-01  0.4474E-01  0.4067E-01  0.4067E-01
     -2.829  0.3972E-01  0.3972E-01  0.4370E-01  0.4370E-01
     -2.753  0.4112E-01  0.4112E-01  0.4684E-01  0.4684E-01
     -2.677  0.4865E-01  0.4865E-01  0.5055E-01  0.5055E-01
     -2.601  0.5664E-01  0.5664E-01  0.5487E-01  0.5487E-01
     -2.524  0.6453E-01  0.6453E-01  0.5979E-01  0.5979E-01
     -2.448  0.7718E-01  0.7718E-01  0.6568E-01  0.6568E-01
     -2.372  0.9343E-01  0.9343E-01  0.7281E-01  0.7281E-01
     -2.295  0.1018E+00  0.1018E+00  0.8057E-01  0.8057E-01
     -2.219  0.9358E-01  0.9358E-01  0.8771E-01  0.8771E-01
     -2.143  0.7591E-01  0.7591E-01  0.9350E-01  0.9350E-01
     -2.067  0.6447E-01  0.6447E-01  0.9842E-01  0.9842E-01
     -1.990  0.6661E-01  0.6661E-01  0.1035E+00  0.1035E+00
     -1.914  0.7727E-01  0.7727E-01  0.1094E+00  0.1094E+00
     -1.838  0.8764E-01  0.8764E-01  0.1161E+00  0.1161E+00
     -1.761  0.9254E-01  0.9254E-01  0.1231E+00  0.1231E+00
     -1.685  0.9255E-01  0.9255E-01  0.1302E+00  0.1302E+00
     -1.609  0.9313E-01  0.9313E-01  0.1373E+00  0.1373E+00
     -1.533  0.9986E-01  0.9986E-01  0.1449E+00  0.1449E+00
     -1.456  0.1126E+00  0.1126E+00  0.1535E+00  0.1535E+00
     -1.380  0.1254E+00  0.1254E+00  0.1631E+00  0.1631E+00
     -1.304  0.1329E+00  0.1329E+00  0.1732E+00  0.1732E+00
     -1.227  0.1357E+00  0.1357E+00  0.1836E+00  0.1836E+00
     -1.151  0.1374E+00  0.1374E+00  0.1941E+00  0.1941E+00
     -1.075  0.1370E+00  0.1370E+00  0.2045E+00  0.2045E+00
     -0.998  0.1314E+00  0.1314E+00  0.2145E+00  0.2145E+00
     -0.922  0.1233E+00  0.1233E+00  0.2239E+00  0.2239E+00
     -0.846  0.1174E+00  0.1174E+00  0.2329E+00  0.2329E+00
     -0.770  0.1156E+00  0.1156E+00  0.2417E+00  0.2417E+00
     -0.693  0.1203E+00  0.1203E+00  0.2509E+00  0.2509E+00
     -0.617  0.1323E+00  0.1323E+00  0.2610E+00  0.2610E+00
     -0.541  0.1447E+00  0.1447E+00  0.2720E+00  0.2720E+00
     -0.464  0.1488E+00  0.1488E+00  0.2834E+00  0.2834E+00
     -0.388  0.1458E+00  0.1458E+00  0.2945E+00  0.2945E+00
     -0.312  0.1429E+00  0.1429E+00  0.3054E+00  0.3054E+00
     -0.236  0.1429E+00  0.1429E+00  0.3163E+00  0.3163E+00
     -0.159  0.1445E+00  0.1445E+00  0.3273E+00  0.3273E+00
     -0.083  0.1504E+00  0.1504E+00  0.3388E+00  0.3388E+00
     -0.007  0.1666E+00  0.1666E+00  0.3515E+00  0.3515E+00
      0.070  0.1899E+00  0.1899E+00  0.3660E+00  0.3660E+00
      0.146  0.2039E+00  0.2039E+00  0.3816E+00  0.3816E+00
      0.222  0.1923E+00  0.1923E+00  0.3962E+00  0.3962E+00
      0.298  0.1534E+00  0.1534E+00  0.4079E+00  0.4079E+00
      0.375  0.1016E+00  0.1016E+00  0.4157E+00  0.4157E+00
      0.451  0.5665E-01  0.5665E-01  0.4200E+00  0.4200E+00
      0.527  0.2993E-01  0.2993E-01  0.4223E+00  0.4223E+00
      0.604  0.1935E-01  0.1935E-01  0.4238E+00  0.4238E+00
      0.680  0.1705E-01  0.1705E-01  0.4251E+00  0.4251E+00
      0.756  0.1755E-01  0.1755E-01  0.4264E+00  0.4264E+00
      0.833  0.1829E-01  0.1829E-01  0.4278E+00  0.4278E+00
      0.909  0.1885E-01  0.1885E-01  0.4292E+00  0.4292E+00
      0.985  0.1976E-01  0.1976E-01  0.4307E+00  0.4307E+00
      1.061  0.1976E-01  0.1976E-01  0.4323E+00  0.4323E+00
      1.138  0.1680E-01  0.1680E-01  0.4335E+00  0.4335E+00
      1.214  0.1175E-01  0.1175E-01  0.4344E+00  0.4344E+00
      1.290  0.7350E-02  0.7350E-02  0.4350E+00  0.4350E+00
      1.367  0.4755E-02  0.4755E-02  0.4354E+00  0.4354E+00
      1.443  0.3428E-02  0.3428E-02  0.4356E+00  0.4356E+00
      1.519  0.3108E-02  0.3108E-02  0.4359E+00  0.4359E+00
      1.595  0.4571E-02  0.4571E-02  0.4362E+00  0.4362E+00
      1.672  0.8955E-02  0.8955E-02  0.4369E+00  0.4369E+00
      1.748  0.1649E-01  0.1649E-01  0.4381E+00  0.4381E+00
      1.824  0.2511E-01  0.2511E-01  0.4401E+00  0.4401E+00
      1.901  0.3008E-01  0.3008E-01  0.4424E+00  0.4424E+00
      1.977  0.2695E-01  0.2695E-01  0.4444E+00  0.4444E+00
      2.053  0.1678E-01  0.1678E-01  0.4457E+00  0.4457E+00
      2.130  0.6394E-02  0.6394E-02  0.4462E+00  0.4462E+00
      2.206  0.1958E-02  0.1958E-02  0.4463E+00  0.4463E+00
      2.282  0.3814E-02  0.3814E-02  0.4466E+00  0.4466E+00
      2.358  0.7591E-02  0.7591E-02  0.4472E+00  0.4472E+00
      2.435  0.9423E-02  0.9423E-02  0.4479E+00  0.4479E+00
      2.511  0.9515E-02  0.9515E-02  0.4486E+00  0.4486E+00
      2.587  0.1016E-01  0.1016E-01  0.4494E+00  0.4494E+00
      2.664  0.1207E-01  0.1207E-01  0.4503E+00  0.4503E+00
      2.740  0.1395E-01  0.1395E-01  0.4514E+00  0.4514E+00
      2.816  0.1392E-01  0.1392E-01  0.4525E+00  0.4525E+00
      2.892  0.1127E-01  0.1127E-01  0.4533E+00  0.4533E+00
      2.969  0.8379E-02  0.8379E-02  0.4540E+00  0.4540E+00
      3.045  0.9242E-02  0.9242E-02  0.4547E+00  0.4547E+00
      3.121  0.1461E-01  0.1461E-01  0.4558E+00  0.4558E+00
      3.198  0.2041E-01  0.2041E-01  0.4573E+00  0.4573E+00
      3.274  0.2179E-01  0.2179E-01  0.4590E+00  0.4590E+00
      3.350  0.1756E-01  0.1756E-01  0.4603E+00  0.4603E+00
      3.426  0.1049E-01  0.1049E-01  0.4611E+00  0.4611E+00
      3.503  0.4471E-02  0.4471E-02  0.4615E+00  0.4615E+00
      3.579  0.2341E-02  0.2341E-02  0.4617E+00  0.4617E+00
      3.655  0.4922E-02  0.4922E-02  0.4620E+00  0.4620E+00
      3.732  0.1028E-01  0.1028E-01  0.4628E+00  0.4628E+00
      3.808  0.1431E-01  0.1431E-01  0.4639E+00  0.4639E+00
      3.884  0.1386E-01  0.1386E-01  0.4650E+00  0.4650E+00
      3.961  0.9713E-02  0.9713E-02  0.4657E+00  0.4657E+00
      4.037  0.5936E-02  0.5936E-02  0.4662E+00  0.4662E+00
      4.113  0.5685E-02  0.5685E-02  0.4666E+00  0.4666E+00
      4.189  0.7798E-02  0.7798E-02  0.4672E+00  0.4672E+00
      4.266  0.8902E-02  0.8902E-02  0.4679E+00  0.4679E+00
      4.342  0.8123E-02  0.8123E-02  0.4685E+00  0.4685E+00
      4.418  0.7042E-02  0.7042E-02  0.4690E+00  0.4690E+00
      4.495  0.6757E-02  0.6757E-02  0.4695E+00  0.4695E+00
      4.571  0.8049E-02  0.8049E-02  0.4702E+00  0.4702E+00
      4.647  0.1165E-01  0.1165E-01  0.4711E+00  0.4711E+00
      4.723  0.1579E-01  0.1579E-01  0.4723E+00  0.4723E+00
      4.800  0.1681E-01  0.1681E-01  0.4735E+00  0.4735E+00
      4.876  0.1387E-01  0.1387E-01  0.4746E+00  0.4746E+00
      4.952  0.1012E-01  0.1012E-01  0.4754E+00  0.4754E+00
      5.029  0.8590E-02  0.8590E-02  0.4760E+00  0.4760E+00
      5.105  0.9243E-02  0.9243E-02  0.4767E+00  0.4767E+00
      5.181  0.1030E-01  0.1030E-01  0.4775E+00  0.4775E+00
      5.257  0.1071E-01  0.1071E-01  0.4783E+00  0.4783E+00
      5.334  0.1115E-01  0.1115E-01  0.4792E+00  0.4792E+00
      5.410  0.1275E-01  0.1275E-01  0.4802E+00  0.4802E+00
      5.486  0.1463E-01  0.1463E-01  0.4813E+00  0.4813E+00
      5.563  0.1407E-01  0.1407E-01  0.4823E+00  0.4823E+00
      5.639  0.1050E-01  0.1050E-01  0.4831E+00  0.4831E+00
      5.715  0.6869E-02  0.6869E-02  0.4837E+00  0.4837E+00
      5.792  0.5880E-02  0.5880E-02  0.4841E+00  0.4841E+00
      5.868  0.7335E-02  0.7335E-02  0.4847E+00  0.4847E+00
      5.944  0.9538E-02  0.9538E-02  0.4854E+00  0.4854E+00
      6.020  0.1141E-01  0.1141E-01  0.4863E+00  0.4863E+00
      6.097  0.1244E-01  0.1244E-01  0.4872E+00  0.4872E+00
      6.173  0.1225E-01  0.1225E-01  0.4882E+00  0.4882E+00
      6.249  0.1153E-01  0.1153E-01  0.4890E+00  0.4890E+00
      6.326  0.1223E-01  0.1223E-01  0.4900E+00  0.4900E+00
      6.402  0.1545E-01  0.1545E-01  0.4912E+00  0.4912E+00
      6.478  0.1947E-01  0.1947E-01  0.4926E+00  0.4926E+00
      6.554  0.2092E-01  0.2092E-01  0.4942E+00  0.4942E+00
      6.631  0.1876E-01  0.1876E-01  0.4957E+00  0.4957E+00
      6.707  0.1618E-01  0.1618E-01  0.4969E+00  0.4969E+00
      6.783  0.1643E-01  0.1643E-01  0.4982E+00  0.4982E+00
      6.860  0.1789E-01  0.1789E-01  0.4995E+00  0.4995E+00
      6.936  0.1624E-01  0.1624E-01  0.5008E+00  0.5008E+00
      7.012  0.1088E-01  0.1088E-01  0.5016E+00  0.5016E+00
      7.088  0.6040E-02  0.6040E-02  0.5020E+00  0.5020E+00
      7.165  0.5573E-02  0.5573E-02  0.5025E+00  0.5025E+00
      7.241  0.8894E-02  0.8894E-02  0.5032E+00  0.5032E+00
      7.317  0.1243E-01  0.1243E-01  0.5041E+00  0.5041E+00
      7.394  0.1375E-01  0.1375E-01  0.5051E+00  0.5051E+00
      7.470  0.1343E-01  0.1343E-01  0.5062E+00  0.5062E+00
      7.546  0.1336E-01  0.1335E-01  0.5072E+00  0.5072E+00
      7.623  0.1444E-01  0.1444E-01  0.5083E+00  0.5083E+00
      7.699  0.1664E-01  0.1664E-01  0.5096E+00  0.5096E+00
      7.775  0.2003E-01  0.2003E-01  0.5111E+00  0.5111E+00
      7.851  0.2380E-01  0.2380E-01  0.5129E+00  0.5129E+00
      7.928  0.2485E-01  0.2485E-01  0.5148E+00  0.5148E+00
      8.004  0.2048E-01  0.2048E-01  0.5164E+00  0.5164E+00
      8.080  0.1276E-01  0.1276E-01  0.5173E+00  0.5173E+00
      8.157  0.7700E-02  0.7701E-02  0.5179E+00  0.5179E+00
      8.233  0.9983E-02  0.9983E-02  0.5187E+00  0.5187E+00
      8.309  0.1790E-01  0.1790E-01  0.5201E+00  0.5201E+00
      8.385  0.2384E-01  0.2384E-01  0.5219E+00  0.5219E+00
      8.462  0.2195E-01  0.2195E-01  0.5235E+00  0.5235E+00
      8.538  0.1471E-01  0.1471E-01  0.5247E+00  0.5247E+00
      8.614  0.9005E-02  0.9005E-02  0.5254E+00  0.5254E+00
      8.691  0.8016E-02  0.8015E-02  0.5260E+00  0.5260E+00
      8.767  0.1054E-01  0.1054E-01  0.5268E+00  0.5268E+00
      8.843  0.1492E-01  0.1491E-01  0.5279E+00  0.5279E+00
      8.920  0.1948E-01  0.1948E-01  0.5294E+00  0.5294E+00
      8.996  0.2172E-01  0.2172E-01  0.5311E+00  0.5311E+00
      9.072  0.2074E-01  0.2074E-01  0.5326E+00  0.5326E+00
      9.148  0.1889E-01  0.1890E-01  0.5341E+00  0.5341E+00
      9.225  0.1857E-01  0.1857E-01  0.5355E+00  0.5355E+00
      9.301  0.1933E-01  0.1933E-01  0.5370E+00  0.5370E+00
      9.377  0.1960E-01  0.1959E-01  0.5385E+00  0.5385E+00
      9.454  0.1897E-01  0.1897E-01  0.5399E+00  0.5399E+00
      9.530  0.1809E-01  0.1809E-01  0.5413E+00  0.5413E+00
      9.606  0.1735E-01  0.1735E-01  0.5426E+00  0.5426E+00
      9.682  0.1680E-01  0.1680E-01  0.5439E+00  0.5439E+00
      9.759  0.1677E-01  0.1676E-01  0.5452E+00  0.5452E+00
      9.835  0.1732E-01  0.1732E-01  0.5465E+00  0.5465E+00
      9.911  0.1770E-01  0.1770E-01  0.5478E+00  0.5478E+00
      9.988  0.1700E-01  0.1700E-01  0.5491E+00  0.5491E+00
     10.064  0.1526E-01  0.1526E-01  0.5503E+00  0.5503E+00
     10.140  0.1409E-01  0.1409E-01  0.5514E+00  0.5514E+00
     10.216  0.1589E-01  0.1589E-01  0.5526E+00  0.5526E+00
     10.293  0.2103E-01  0.2103E-01  0.5542E+00  0.5542E+00
     10.369  0.2641E-01  0.2641E-01  0.5562E+00  0.5562E+00
     10.445  0.2782E-01  0.2782E-01  0.5583E+00  0.5583E+00
     10.522  0.2391E-01  0.2391E-01  0.5602E+00  0.5602E+00
     10.598  0.1754E-01  0.1754E-01  0.5615E+00  0.5615E+00
     10.674  0.1272E-01  0.1272E-01  0.5625E+00  0.5625E+00
     10.751  0.1086E-01  0.1086E-01  0.5633E+00  0.5633E+00
     10.827  0.1093E-01  0.1093E-01  0.5641E+00  0.5641E+00
     10.903  0.1211E-01  0.1211E-01  0.5651E+00  0.5651E+00
     10.979  0.1375E-01  0.1375E-01  0.5661E+00  0.5661E+00
     11.056  0.1415E-01  0.1415E-01  0.5672E+00  0.5672E+00
     11.132  0.1211E-01  0.1212E-01  0.5681E+00  0.5681E+00
     11.208  0.8857E-02  0.8875E-02  0.5688E+00  0.5688E+00
     11.285  0.6442E-02  0.6464E-02  0.5693E+00  0.5693E+00
     11.361  0.5011E-02  0.5017E-02  0.5697E+00  0.5697E+00
     11.437  0.3409E-02  0.3394E-02  0.5699E+00  0.5699E+00
     11.513  0.1501E-02  0.1480E-02  0.5700E+00  0.5700E+00
     11.590  0.1623E-03  0.1496E-03  0.5700E+00  0.5700E+00
     11.666 -0.2638E-03 -0.2663E-03  0.5700E+00  0.5700E+00
     11.742 -0.2002E-03 -0.1990E-03  0.5700E+00  0.5700E+00
     11.819 -0.7728E-04 -0.7623E-04  0.5700E+00  0.5700E+00
     11.895 -0.1932E-04 -0.1893E-04  0.5700E+00  0.5700E+00
     11.971 -0.3347E-05 -0.3261E-05  0.5700E+00  0.5700E+00
     12.047 -0.4137E-06 -0.4007E-06  0.5700E+00  0.5700E+00
     12.124 -0.3706E-07 -0.3569E-07  0.5700E+00  0.5700E+00
     12.200 -0.2428E-08 -0.2324E-08  0.5700E+00  0.5700E+00
     12.276 -0.1170E-09 -0.1113E-09  0.5700E+00  0.5700E+00
     12.353 -0.4165E-11 -0.3937E-11  0.5700E+00  0.5700E+00
     12.429 -0.1098E-12 -0.1031E-12  0.5700E+00  0.5700E+00
     12.505 -0.2147E-14 -0.2003E-14  0.5700E+00  0.5700E+00
     12.582 -0.3234E-16 -0.2991E-16  0.5700E+00  0.5700E+00
     12.658  0.0000E+00  0.0000E+00  0.5700E+00  0.5700E+00
     12.734  0.0000E+00  0.0000E+00  0.5700E+00  0.5700E+00
     12.810  0.0000E+00  0.0000E+00  0.5700E+00  0.5700E+00
     12.887  0.0000E+00  0.0000E+00  0.5700E+00  0.5700E+00
     12.963  0.0000E+00  0.0000E+00  0.5700E+00  0.5700E+00
     13.039  0.0000E+00  0.0000E+00  0.5700E+00  0.5700E+00
     13.116  0.0000E+00  0.0000E+00  0.5700E+00  0.5700E+00
     13.192  0.0000E+00  0.0000E+00  0.5700E+00  0.5700E+00
     13.268  0.0000E+00  0.0000E+00  0.5700E+00  0.5700E+00
     13.344  0.0000E+00  0.0000E+00  0.5700E+00  0.5700E+00
