<?xml version="1.0" encoding="ISO-8859-1"?>
<modeling>
 <generator>
  <i name="program" type="string">vasp </i>
  <i name="version" type="string">6.3.2  </i>
  <i name="subversion" type="string">27Jun22 (build Aug 17 2022 15:43:34) complex                          parallel </i>
  <i name="platform" type="string">tv2STDVTST </i>
  <i name="date" type="string">2025 02 17 </i>
  <i name="time" type="string">15:53:35 </i>
 </generator>
 <incar>
  <i type="int" name="ISTART">     0</i>
  <i type="string" name="PREC">Normal</i>
  <i type="int" name="ISPIN">     2</i>
  <i type="int" name="ICHARG">     2</i>
  <i type="int" name="IBRION">     2</i>
  <i name="EDIFF">      0.00020000</i>
  <i name="EDIFFG">     -0.03000000</i>
  <i type="int" name="NSW">   800</i>
  <i type="int" name="ISIF">     2</i>
  <i type="int" name="ISYM">     1</i>
  <i name="ENCUT">    400.00000000</i>
  <i name="POTIM">      0.50000000</i>
  <i type="logical" name="LREAL"> F  </i>
  <i type="int" name="ISMEAR">     1</i>
  <i name="SIGMA">      0.20000000</i>
  <i type="logical" name="LWAVE"> F  </i>
  <i type="logical" name="LCHARG"> F  </i>
  <i type="string" name="GGA">PE</i>
  <i type="int" name="IVDW">    11</i>
 </incar>
 <primitive_cell>
  <structure name="primitive_cell" >
   <crystal>
    <varray name="basis" >
     <v>       7.26000023       0.00000000       0.00000000 </v>
     <v>       0.00000000       7.26000023       0.00000000 </v>
     <v>       0.00000000       0.00000000      27.70499992 </v>
    </varray>
    <i name="volume">   1460.26414606 </i>
    <varray name="rec_basis" >
     <v>       0.13774104       0.00000000       0.00000000 </v>
     <v>       0.00000000       0.13774104       0.00000000 </v>
     <v>       0.00000000       0.00000000       0.03609457 </v>
    </varray>
   </crystal>
   <varray name="positions" >
    <v>       0.00000000       0.00000000       0.00000000 </v>
    <v>       0.00000000       0.50000000       0.00000000 </v>
    <v>       0.50000000       0.00000000       0.00000000 </v>
    <v>       0.50000000       0.50000000       0.00000000 </v>
    <v>       0.25000000       0.25000000       0.00000000 </v>
    <v>       0.25000000       0.75000000       0.00000000 </v>
    <v>       0.75000000       0.25000000       0.00000000 </v>
    <v>       0.75000000       0.75000000       0.00000000 </v>
    <v>       0.00000000       0.25000000       0.06551164 </v>
    <v>       0.00000000       0.75000000       0.06551164 </v>
    <v>       0.50000000       0.25000000       0.06551164 </v>
    <v>       0.50000000       0.75000000       0.06551164 </v>
    <v>       0.25000000       0.00000000       0.06551164 </v>
    <v>       0.25000000       0.50000000       0.06551164 </v>
    <v>       0.75000000       0.00000000       0.06551164 </v>
    <v>       0.75000000       0.50000000       0.06551164 </v>
    <v>       0.00000000       0.00000000       0.13164128 </v>
    <v>       0.00000000       0.50000000       0.13164128 </v>
    <v>       0.50000000       0.00000000       0.13164128 </v>
    <v>       0.50000000       0.50000000       0.13164128 </v>
    <v>       0.25000000       0.25000000       0.13164128 </v>
    <v>       0.25000000       0.75000000       0.13164128 </v>
    <v>       0.75000000       0.25000000       0.13164128 </v>
    <v>       0.75000000       0.75000000       0.13164128 </v>
    <v>       0.00000000       0.25000000       0.19677891 </v>
    <v>       0.00000000       0.75000000       0.19677891 </v>
    <v>       0.50000000       0.25000000       0.19677891 </v>
    <v>       0.50000000       0.75000000       0.19677891 </v>
    <v>       0.25000000       0.00000000       0.19677891 </v>
    <v>       0.25000000       0.50000000       0.19677891 </v>
    <v>       0.75000000       0.00000000       0.19677891 </v>
    <v>       0.75000000       0.50000000       0.19677891 </v>
    <v>       0.00000000       0.00000000       0.26184662 </v>
    <v>       0.00000000       0.50000000       0.26184662 </v>
    <v>       0.50000000       0.00000000       0.26184662 </v>
    <v>       0.50000000       0.50000000       0.26184662 </v>
    <v>       0.25000000       0.25000000       0.26184662 </v>
    <v>       0.25000000       0.75000000       0.26184662 </v>
    <v>       0.75000000       0.25000000       0.26184662 </v>
    <v>       0.75000000       0.75000000       0.26184662 </v>
    <v>       0.00000000       0.25000000       0.32758887 </v>
    <v>       0.00000000       0.75000000       0.32758887 </v>
    <v>       0.50000000       0.25000000       0.32758887 </v>
    <v>       0.50000000       0.75000000       0.32758887 </v>
    <v>       0.25000000       0.00000000       0.32758887 </v>
    <v>       0.25000000       0.50000000       0.32758887 </v>
    <v>       0.75000000       0.00000000       0.32758887 </v>
    <v>       0.75000000       0.50000000       0.32758887 </v>
    <v>       0.00000000       0.00000000       0.39185763 </v>
    <v>       0.00000000       0.50000000       0.39185763 </v>
    <v>       0.50000000       0.00000000       0.39185763 </v>
    <v>       0.50000000       0.50000000       0.39185763 </v>
    <v>       0.25000000       0.25000000       0.39185763 </v>
    <v>       0.25000000       0.75000000       0.39185763 </v>
    <v>       0.75000000       0.25000000       0.39185763 </v>
    <v>       0.75000000       0.75000000       0.39185763 </v>
    <v>       0.00000000       0.25000000       0.45475490 </v>
    <v>       0.00000000       0.75000000       0.45475490 </v>
    <v>       0.50000000       0.25000000       0.45475490 </v>
    <v>       0.50000000       0.75000000       0.45475490 </v>
    <v>       0.25000000       0.00000000       0.45475490 </v>
    <v>       0.25000000       0.50000000       0.45475490 </v>
    <v>       0.75000000       0.00000000       0.45475490 </v>
    <v>       0.75000000       0.50000000       0.45475490 </v>
    <v>       0.37500000       0.62500000       0.50150658 </v>
    <v>       0.37500000       0.62500000       0.52843313 </v>
   </varray>
  </structure>
  <varray name="primitive_index" >
   <v type="int" >        1 </v>
   <v type="int" >        2 </v>
   <v type="int" >        3 </v>
   <v type="int" >        4 </v>
   <v type="int" >        5 </v>
   <v type="int" >        6 </v>
   <v type="int" >        7 </v>
   <v type="int" >        8 </v>
   <v type="int" >        9 </v>
   <v type="int" >       10 </v>
   <v type="int" >       11 </v>
   <v type="int" >       12 </v>
   <v type="int" >       13 </v>
   <v type="int" >       14 </v>
   <v type="int" >       15 </v>
   <v type="int" >       16 </v>
   <v type="int" >       17 </v>
   <v type="int" >       18 </v>
   <v type="int" >       19 </v>
   <v type="int" >       20 </v>
   <v type="int" >       21 </v>
   <v type="int" >       22 </v>
   <v type="int" >       23 </v>
   <v type="int" >       24 </v>
   <v type="int" >       25 </v>
   <v type="int" >       26 </v>
   <v type="int" >       27 </v>
   <v type="int" >       28 </v>
   <v type="int" >       29 </v>
   <v type="int" >       30 </v>
   <v type="int" >       31 </v>
   <v type="int" >       32 </v>
   <v type="int" >       33 </v>
   <v type="int" >       34 </v>
   <v type="int" >       35 </v>
   <v type="int" >       36 </v>
   <v type="int" >       37 </v>
   <v type="int" >       38 </v>
   <v type="int" >       39 </v>
   <v type="int" >       40 </v>
   <v type="int" >       41 </v>
   <v type="int" >       42 </v>
   <v type="int" >       43 </v>
   <v type="int" >       44 </v>
   <v type="int" >       45 </v>
   <v type="int" >       46 </v>
   <v type="int" >       47 </v>
   <v type="int" >       48 </v>
   <v type="int" >       49 </v>
   <v type="int" >       50 </v>
   <v type="int" >       51 </v>
   <v type="int" >       52 </v>
   <v type="int" >       53 </v>
   <v type="int" >       54 </v>
   <v type="int" >       55 </v>
   <v type="int" >       56 </v>
   <v type="int" >       57 </v>
   <v type="int" >       58 </v>
   <v type="int" >       59 </v>
   <v type="int" >       60 </v>
   <v type="int" >       61 </v>
   <v type="int" >       62 </v>
   <v type="int" >       63 </v>
   <v type="int" >       64 </v>
   <v type="int" >       65 </v>
   <v type="int" >       66 </v>
  </varray>
 </primitive_cell>
 <kpoints>
  <generation param="Monkhorst-Pack">
   <v type="int" name="divisions">       3        3        1 </v>
   <v name="usershift">      0.00000000       0.00000000       0.00000000 </v>
   <v name="genvec1">      0.33333333       0.00000000       0.00000000 </v>
   <v name="genvec2">      0.00000000       0.33333333       0.00000000 </v>
   <v name="genvec3">      0.00000000       0.00000000       1.00000000 </v>
   <v name="shift">      0.00000000       0.00000000       0.00000000 </v>
  </generation>
  <varray name="kpointlist" >
   <v>       0.00000000       0.00000000       0.00000000 </v>
   <v>       0.33333333       0.00000000       0.00000000 </v>
   <v>       0.33333333       0.33333333       0.00000000 </v>
   <v>      -0.33333333       0.33333333       0.00000000 </v>
  </varray>
  <varray name="weights" >
   <v>       0.11111111 </v>
   <v>       0.44444444 </v>
   <v>       0.22222222 </v>
   <v>       0.22222222 </v>
  </varray>
 </kpoints>
 <parameters>
  <separator name="general" >
   <i type="string" name="SYSTEM">unknown system</i>
   <i type="logical" name="LCOMPAT"> F  </i>
  </separator>
  <separator name="electronic" >
   <i type="string" name="PREC">normal</i>
   <i name="ENMAX">    400.00000000</i>
   <i name="ENAUG">    586.98000000</i>
   <i name="EDIFF">      0.00020000</i>
   <i type="int" name="IALGO">    38</i>
   <i type="int" name="IWAVPR">    11</i>
   <i type="int" name="NBANDS">   456</i>
   <i type="int" name="NBANDSLOW">    -1</i>
   <i type="int" name="NBANDSHIGH">    -1</i>
   <i name="NELECT">    706.00000000</i>
   <i type="int" name="TURBO">     0</i>
   <i type="int" name="IRESTART">     0</i>
   <i type="int" name="NREBOOT">     0</i>
   <i type="int" name="NMIN">     0</i>
   <i name="EREF">      0.00000000</i>
   <separator name="electronic smearing" >
    <i type="int" name="ISMEAR">     1</i>
    <i name="SIGMA">      0.20000000</i>
    <i name="KSPACING">      0.50000000</i>
    <i type="logical" name="KGAMMA"> T  </i>
    <i type="logical" name="KBLOWUP"> T  </i>
   </separator>
   <separator name="electronic projectors" >
    <i type="logical" name="LREAL"> F  </i>
    <v name="ROPT">      0.00000000      0.00000000</v>
    <i type="int" name="LMAXPAW">  -100</i>
    <i type="int" name="LMAXMIX">     2</i>
    <i type="logical" name="NLSPLINE"> F  </i>
   </separator>
   <separator name="electronic startup" >
    <i type="int" name="ISTART">     0</i>
    <i type="int" name="ICHARG">     2</i>
    <i type="int" name="INIWAV">     1</i>
   </separator>
   <separator name="electronic spin" >
    <i type="int" name="ISPIN">     2</i>
    <i type="logical" name="LNONCOLLINEAR"> F  </i>
    <v name="MAGMOM">      1.00000000      1.00000000      1.00000000      1.00000000      1.00000000      1.00000000      1.00000000      1.00000000      1.00000000      1.00000000      1.00000000      1.00000000      1.00000000      1.00000000      1.00000000      1.00000000      1.00000000      1.00000000      1.00000000      1.00000000
      1.00000000      1.00000000      1.00000000      1.00000000      1.00000000      1.00000000      1.00000000      1.00000000      1.00000000      1.00000000      1.00000000      1.00000000      1.00000000      1.00000000      1.00000000      1.00000000      1.00000000      1.00000000      1.00000000      1.00000000
      1.00000000      1.00000000      1.00000000      1.00000000      1.00000000      1.00000000      1.00000000      1.00000000      1.00000000      1.00000000      1.00000000      1.00000000      1.00000000      1.00000000      1.00000000      1.00000000      1.00000000      1.00000000      1.00000000      1.00000000
      1.00000000      1.00000000      1.00000000      1.00000000      1.00000000      1.00000000</v>
    <i name="NUPDOWN">     -1.00000000</i>
    <i type="logical" name="LSORBIT"> F  </i>
    <v name="SAXIS">      0.00000000      0.00000000      1.00000000</v>
    <i type="logical" name="LSPIRAL"> F  </i>
    <v name="QSPIRAL">      0.00000000      0.00000000      0.00000000</v>
    <i type="logical" name="LZEROZ"> F  </i>
   </separator>
   <separator name="electronic exchange-correlation" >
    <i type="logical" name="LASPH"> F  </i>
    <i type="logical" name="LMETAGGA"> F  </i>
   </separator>
   <separator name="electronic convergence" >
    <i type="int" name="NELM">    60</i>
    <i type="int" name="NELMDL">    -5</i>
    <i type="int" name="NELMIN">     2</i>
    <i name="ENINI">    400.00000000</i>
    <separator name="electronic convergence detail" >
     <i type="logical" name="LDIAG"> T  </i>
     <i type="logical" name="LSUBROT"> F  </i>
     <i name="WEIMIN">      0.00100000</i>
     <i name="EBREAK">      0.00000011</i>
     <i name="DEPER">      0.30000000</i>
     <i type="int" name="NRMM">     4</i>
     <i name="TIME">      0.40000000</i>
    </separator>
   </separator>
   <separator name="electronic mixer" >
    <i name="AMIX">      0.40000000</i>
    <i name="BMIX">      1.00000000</i>
    <i name="AMIN">      0.10000000</i>
    <i name="AMIX_MAG">      1.60000000</i>
    <i name="BMIX_MAG">      1.00000000</i>
    <separator name="electronic mixer details" >
     <i type="int" name="IMIX">     4</i>
     <i type="logical" name="MIXFIRST"> F  </i>
     <i type="int" name="MAXMIX">   -45</i>
     <i name="WC">    100.00000000</i>
     <i type="int" name="INIMIX">     1</i>
     <i type="int" name="MIXPRE">     1</i>
     <i type="int" name="MREMOVE">     5</i>
    </separator>
   </separator>
   <separator name="electronic dipolcorrection" >
    <i type="logical" name="LDIPOL"> F  </i>
    <i type="logical" name="LMONO"> F  </i>
    <i type="int" name="IDIPOL">     0</i>
    <i name="EPSILON">      1.00000000</i>
    <v name="DIPOL">   -100.00000000   -100.00000000   -100.00000000</v>
    <i name="EFIELD">      0.00000000</i>
   </separator>
  </separator>
  <separator name="grids" >
   <i type="int" name="NGX">    36</i>
   <i type="int" name="NGY">    36</i>
   <i type="int" name="NGZ">   140</i>
   <i type="int" name="NGXF">    72</i>
   <i type="int" name="NGYF">    72</i>
   <i type="int" name="NGZF">   280</i>
   <i type="logical" name="ADDGRID"> F  </i>
  </separator>
  <separator name="ionic" >
   <i type="int" name="NSW">   800</i>
   <i type="int" name="IBRION">     2</i>
   <i type="int" name="MDALGO">     0</i>
   <i type="int" name="ISIF">     2</i>
   <i name="PSTRESS">      0.00000000</i>
   <i name="EDIFFG">     -0.03000000</i>
   <i type="int" name="NFREE">     1</i>
   <i name="POTIM">      0.50000000</i>
   <i name="SMASS">     -3.00000000</i>
   <i name="SCALEE">      1.00000000</i>
  </separator>
  <separator name="ionic md" >
   <i name="TEBEG">      0.00010000</i>
   <i name="TEEND">      0.00010000</i>
   <i type="int" name="NBLOCK">     1</i>
   <i type="int" name="KBLOCK">   800</i>
   <i type="int" name="NPACO">   256</i>
   <i name="APACO">     10.00000000</i>
  </separator>
  <separator name="symmetry" >
   <i type="int" name="ISYM">     1</i>
   <i name="SYMPREC">      0.00001000</i>
  </separator>
  <separator name="dos" >
   <i type="int" name="LORBIT">     0</i>
   <v name="RWIGS">     -1.00000000     -1.00000000</v>
   <i type="int" name="NEDOS">   301</i>
   <i name="EMIN">     10.00000000</i>
   <i name="EMAX">    -10.00000000</i>
   <i name="EFERMI">      0.00000000</i>
  </separator>
  <separator name="writing" >
   <i type="int" name="NWRITE">     2</i>
   <i type="logical" name="LWAVE"> F  </i>
   <i type="logical" name="LDOWNSAMPLE"> F  </i>
   <i type="logical" name="LCHARG"> F  </i>
   <i type="logical" name="LPARD"> F  </i>
   <i type="logical" name="LVTOT"> F  </i>
   <i type="logical" name="LVHAR"> F  </i>
   <i type="logical" name="LELF"> F  </i>
   <i type="logical" name="LOPTICS"> F  </i>
   <v name="STM">      0.00000000      0.00000000      0.00000000      0.00000000      0.00000000      0.00000000      0.00000000</v>
  </separator>
  <separator name="performance" >
   <i type="int" name="NPAR">     4</i>
   <i type="int" name="NSIM">     4</i>
   <i type="int" name="NBLK">    -1</i>
   <i type="logical" name="LPLANE"> T  </i>
   <i type="logical" name="LSCALAPACK"> T  </i>
   <i type="logical" name="LSCAAWARE"> F  </i>
   <i type="logical" name="LSCALU"> F  </i>
   <i type="logical" name="LASYNC"> F  </i>
   <i type="logical" name="LORBITALREAL"> F  </i>
  </separator>
  <separator name="miscellaneous" >
   <i type="int" name="IDIOT">     3</i>
   <i type="int" name="PHON_NSTRUCT">    -1</i>
   <i type="logical" name="LMUSIC"> F  </i>
   <v name="POMASS">     63.54600000      1.00000000</v>
   <v name="DARWINR">      0.00000000      0.00000000</v>
   <v name="DARWINV">      1.00000000      1.00000000</v>
   <i type="logical" name="LCORR"> T  </i>
  </separator>
  <i type="logical" name="GGA_COMPAT"> T  </i>
  <i type="logical" name="LBERRY"> F  </i>
  <i type="int" name="ICORELEVEL">     0</i>
  <i type="logical" name="LDAU"> F  </i>
  <i type="int" name="I_CONSTRAINED_M">     0</i>
  <separator name="electronic exchange-correlation" >
   <i type="string" name="GGA">PE</i>
   <i type="int" name="VOSKOWN">     0</i>
   <i type="logical" name="LHFCALC"> F  </i>
   <i type="string" name="PRECFOCK"></i>
   <i type="logical" name="LSYMGRAD"> F  </i>
   <i type="logical" name="LHFONE"> F  </i>
   <i type="logical" name="LRHFCALC"> F  </i>
   <i type="logical" name="LTHOMAS"> F  </i>
   <i type="logical" name="LMODELHF"> F  </i>
   <i type="logical" name="LFOCKACE"> F  </i>
   <i name="ENCUT4O">     -1.00000000</i>
   <i type="int" name="EXXOEP">     0</i>
   <i type="int" name="FOURORBIT">     0</i>
   <i name="AEXX">      0.00000000</i>
   <i name="HFALPHA">      0.00000000</i>
   <i name="MCALPHA">      0.00000000</i>
   <i name="ALDAX">      1.00000000</i>
   <i name="AGGAX">      1.00000000</i>
   <i name="ALDAC">      1.00000000</i>
   <i name="AGGAC">      1.00000000</i>
   <i type="int" name="NKREDX">     1</i>
   <i type="int" name="NKREDY">     1</i>
   <i type="int" name="NKREDZ">     1</i>
   <i type="logical" name="SHIFTRED"> F  </i>
   <i type="logical" name="ODDONLY"> F  </i>
   <i type="logical" name="EVENONLY"> F  </i>
   <i type="int" name="LMAXFOCK">     0</i>
   <i type="int" name="NMAXFOCKAE">     0</i>
   <i type="logical" name="LFOCKAEDFT"> F  </i>
   <i name="HFSCREEN">      0.00000000</i>
   <i name="HFSCREENC">      0.00000000</i>
   <i type="int" name="NBANDSGWLOW">     0</i>
  </separator>
  <separator name="vdW DFT" >
   <i type="logical" name="LUSE_VDW"> F  </i>
   <i name="Zab_VDW">     -0.84910000</i>
   <i name="PARAM1">      0.12340000</i>
   <i name="PARAM2">      1.00000000</i>
   <i name="PARAM3">      0.00000000</i>
  </separator>
  <separator name="model GW" >
   <i type="int" name="MODEL_GW">     0</i>
   <i name="MODEL_EPS0">     13.27512860</i>
   <i name="MODEL_ALPHA">      1.00000000</i>
  </separator>
  <separator name="linear response parameters" >
   <i type="logical" name="LEPSILON"> F  </i>
   <i type="logical" name="LRPA"> F  </i>
   <i type="logical" name="LNABLA"> F  </i>
   <i type="logical" name="LVEL"> F  </i>
   <i name="CSHIFT">      0.10000000</i>
   <i name="OMEGAMAX">     -1.00000000</i>
   <i name="DEG_THRESHOLD">      0.00200000</i>
   <i name="RTIME">     -0.10000000</i>
   <i name="WPLASMAI">      0.00000000</i>
   <v name="DFIELD">      0.00000000      0.00000000      0.00000000</v>
   <v name="WPLASMA">      0.00000000      0.00000000      0.00000000      0.00000000      0.00000000      0.00000000      0.00000000      0.00000000      0.00000000</v>
  </separator>
  <separator name="orbital magnetization" >
   <i type="logical" name="NUCIND"> F  </i>
   <v name="MAGPOS">      0.00000000      0.00000000      0.00000000</v>
   <i type="logical" name="LNICSALL"> T  </i>
   <i type="logical" name="ORBITALMAG"> F  </i>
   <i type="logical" name="LMAGBLOCH"> F  </i>
   <i type="logical" name="LCHIMAG"> F  </i>
   <i type="logical" name="LGAUGE"> T  </i>
   <i type="int" name="MAGATOM">     0</i>
   <v name="MAGDIPOL">      0.00000000      0.00000000      0.00000000</v>
   <v name="AVECCONST">      0.00000000      0.00000000      0.00000000</v>
  </separator>
  <separator name="response functions" >
   <i type="logical" name="LFINITE_TEMPERATURE"> F  </i>
   <i type="logical" name="LADDER"> F  </i>
   <i type="logical" name="LRPAFORCE"> F  </i>
   <i type="logical" name="LFXC"> F  </i>
   <i type="logical" name="LHARTREE"> T  </i>
   <i type="int" name="IBSE">     0</i>
   <v type="int" name="KPOINT">    -1     0     0     0</v>
   <i type="logical" name="LTCTC"> F  </i>
   <i type="logical" name="LTCTE"> F  </i>
   <i type="logical" name="LTETE"> F  </i>
   <i type="logical" name="LTRIPLET"> F  </i>
   <i type="logical" name="LFXCEPS"> F  </i>
   <i type="logical" name="LFXHEG"> F  </i>
   <i type="int" name="NATURALO">     2</i>
   <i type="logical" name="LHOLEGF"> F  </i>
   <i type="logical" name="L2ORDER"> F  </i>
   <i type="logical" name="LDMP1"> F  </i>
   <i type="logical" name="LMP2LT"> F  </i>
   <i type="logical" name="LSMP2LT"> F  </i>
   <i type="logical" name="LGWLF"> F  </i>
   <i name="ENCUTGW">     -2.00000000</i>
   <i name="ENCUTGWSOFT">     -2.00000000</i>
   <i name="ENCUTLF">     -1.00000000</i>
   <i type="logical" name="LESF_SPLINES"> F  </i>
   <i type="int" name="LMAXMP2">    -1</i>
   <i name="SCISSOR">      0.00000000</i>
   <i type="int" name="NOMEGA">     0</i>
   <i type="int" name="NOMEGAR">     0</i>
   <i type="int" name="NBANDSGW">    -1</i>
   <i type="int" name="NBANDSO">    -1</i>
   <i type="int" name="NBANDSV">    -1</i>
   <i type="int" name="NELMGW">     1</i>
   <i type="int" name="NELMHF">     1</i>
   <i type="int" name="DIM">     3</i>
   <i type="int" name="IESPILON">     4</i>
   <i type="int" name="ANTIRES">     0</i>
   <i name="OMEGAMAX">    -30.00000000</i>
   <i name="OMEGAMIN">    -30.00000000</i>
   <i name="OMEGATL">   -200.00000000</i>
   <i type="int" name="OMEGAGRID">     0</i>
   <i name="CSHIFT">     -0.10000000</i>
   <i type="logical" name="LSELFENERGY"> F  </i>
   <i type="logical" name="LSPECTRAL"> F  </i>
   <i type="logical" name="LSPECTRALGW"> F  </i>
   <i type="logical" name="LSINGLES"> F  </i>
   <i type="logical" name="LFERMIGW"> F  </i>
   <i type="logical" name="ODDONLYGW"> F  </i>
   <i type="logical" name="EVENONLYGW"> F  </i>
   <i type="int" name="NKREDLFX">     1</i>
   <i type="int" name="NKREDLFY">     1</i>
   <i type="int" name="NKREDLFZ">     1</i>
   <i type="int" name="MAXMEM">  2800</i>
   <i type="int" name="TELESCOPE">     0</i>
   <i type="int" name="NTAUPAR">    -1</i>
   <i type="int" name="NOMEGAPAR">    -1</i>
   <i name="DAMP_NEWTON">      0.80000001</i>
   <i name="LAMBDA">      1.00000000</i>
  </separator>
  <separator name="External order field" >
   <i name="OFIELD_KAPPA">      0.00000000</i>
   <v name="OFIELD_K">      0.00000000      0.00000000      0.00000000</v>
   <i name="OFIELD_Q6_NEAR">      0.00000000</i>
   <i name="OFIELD_Q6_FAR">      0.00000000</i>
   <i name="OFIELD_A">      0.00000000</i>
  </separator>
  <separator name="optional k-points parameters" >
   <i type="int" name="KPOINTS_OPT_MODE">     1</i>
   <i type="logical" name="LKPOINTS_OPT"> F  </i>
  </separator>
 </parameters>
 <atominfo>
  <atoms>      66 </atoms>
  <types>       2 </types>
  <array name="atoms" >
   <dimension dim="1">ion</dimension>
   <field type="string">element</field>
   <field type="int">atomtype</field>
   <set>
    <rc><c>Cu</c><c>   1</c></rc>
    <rc><c>Cu</c><c>   1</c></rc>
    <rc><c>Cu</c><c>   1</c></rc>
    <rc><c>Cu</c><c>   1</c></rc>
    <rc><c>Cu</c><c>   1</c></rc>
    <rc><c>Cu</c><c>   1</c></rc>
    <rc><c>Cu</c><c>   1</c></rc>
    <rc><c>Cu</c><c>   1</c></rc>
    <rc><c>Cu</c><c>   1</c></rc>
    <rc><c>Cu</c><c>   1</c></rc>
    <rc><c>Cu</c><c>   1</c></rc>
    <rc><c>Cu</c><c>   1</c></rc>
    <rc><c>Cu</c><c>   1</c></rc>
    <rc><c>Cu</c><c>   1</c></rc>
    <rc><c>Cu</c><c>   1</c></rc>
    <rc><c>Cu</c><c>   1</c></rc>
    <rc><c>Cu</c><c>   1</c></rc>
    <rc><c>Cu</c><c>   1</c></rc>
    <rc><c>Cu</c><c>   1</c></rc>
    <rc><c>Cu</c><c>   1</c></rc>
    <rc><c>Cu</c><c>   1</c></rc>
    <rc><c>Cu</c><c>   1</c></rc>
    <rc><c>Cu</c><c>   1</c></rc>
    <rc><c>Cu</c><c>   1</c></rc>
    <rc><c>Cu</c><c>   1</c></rc>
    <rc><c>Cu</c><c>   1</c></rc>
    <rc><c>Cu</c><c>   1</c></rc>
    <rc><c>Cu</c><c>   1</c></rc>
    <rc><c>Cu</c><c>   1</c></rc>
    <rc><c>Cu</c><c>   1</c></rc>
    <rc><c>Cu</c><c>   1</c></rc>
    <rc><c>Cu</c><c>   1</c></rc>
    <rc><c>Cu</c><c>   1</c></rc>
    <rc><c>Cu</c><c>   1</c></rc>
    <rc><c>Cu</c><c>   1</c></rc>
    <rc><c>Cu</c><c>   1</c></rc>
    <rc><c>Cu</c><c>   1</c></rc>
    <rc><c>Cu</c><c>   1</c></rc>
    <rc><c>Cu</c><c>   1</c></rc>
    <rc><c>Cu</c><c>   1</c></rc>
    <rc><c>Cu</c><c>   1</c></rc>
    <rc><c>Cu</c><c>   1</c></rc>
    <rc><c>Cu</c><c>   1</c></rc>
    <rc><c>Cu</c><c>   1</c></rc>
    <rc><c>Cu</c><c>   1</c></rc>
    <rc><c>Cu</c><c>   1</c></rc>
    <rc><c>Cu</c><c>   1</c></rc>
    <rc><c>Cu</c><c>   1</c></rc>
    <rc><c>Cu</c><c>   1</c></rc>
    <rc><c>Cu</c><c>   1</c></rc>
    <rc><c>Cu</c><c>   1</c></rc>
    <rc><c>Cu</c><c>   1</c></rc>
    <rc><c>Cu</c><c>   1</c></rc>
    <rc><c>Cu</c><c>   1</c></rc>
    <rc><c>Cu</c><c>   1</c></rc>
    <rc><c>Cu</c><c>   1</c></rc>
    <rc><c>Cu</c><c>   1</c></rc>
    <rc><c>Cu</c><c>   1</c></rc>
    <rc><c>Cu</c><c>   1</c></rc>
    <rc><c>Cu</c><c>   1</c></rc>
    <rc><c>Cu</c><c>   1</c></rc>
    <rc><c>Cu</c><c>   1</c></rc>
    <rc><c>Cu</c><c>   1</c></rc>
    <rc><c>Cu</c><c>   1</c></rc>
    <rc><c>H </c><c>   2</c></rc>
    <rc><c>H </c><c>   2</c></rc>
   </set>
  </array>
  <array name="atomtypes" >
   <dimension dim="1">type</dimension>
   <field type="int">atomspertype</field>
   <field type="string">element</field>
   <field>mass</field>
   <field>valence</field>
   <field type="string">pseudopotential</field>
   <set>
    <rc><c>  64</c><c>Cu</c><c>     63.54600000</c><c>     11.00000000</c><c>  PAW_PBE Cu 22Jun2005                  </c></rc>
    <rc><c>   2</c><c>H </c><c>      1.00000000</c><c>      1.00000000</c><c>  PAW_PBE H 15Jun2001                   </c></rc>
   </set>
  </array>
 </atominfo>
 <structure name="initialpos" >
  <crystal>
   <varray name="basis" >
    <v>       7.26000023       0.00000000       0.00000000 </v>
    <v>       0.00000000       7.26000023       0.00000000 </v>
    <v>       0.00000000       0.00000000      27.70499992 </v>
   </varray>
   <i name="volume">   1460.26414606 </i>
   <varray name="rec_basis" >
    <v>       0.13774104       0.00000000       0.00000000 </v>
    <v>       0.00000000       0.13774104       0.00000000 </v>
    <v>       0.00000000       0.00000000       0.03609457 </v>
   </varray>
  </crystal>
  <varray name="positions" >
   <v>       0.00000000       0.00000000       0.00000000 </v>
   <v>       0.00000000       0.50000000       0.00000000 </v>
   <v>       0.50000000       0.00000000       0.00000000 </v>
   <v>       0.50000000       0.50000000       0.00000000 </v>
   <v>       0.25000000       0.25000000       0.00000000 </v>
   <v>       0.25000000       0.75000000       0.00000000 </v>
   <v>       0.75000000       0.25000000       0.00000000 </v>
   <v>       0.75000000       0.75000000       0.00000000 </v>
   <v>       0.00000000       0.25000000       0.06551164 </v>
   <v>       0.00000000       0.75000000       0.06551164 </v>
   <v>       0.50000000       0.25000000       0.06551164 </v>
   <v>       0.50000000       0.75000000       0.06551164 </v>
   <v>       0.25000000       0.00000000       0.06551164 </v>
   <v>       0.25000000       0.50000000       0.06551164 </v>
   <v>       0.75000000       0.00000000       0.06551164 </v>
   <v>       0.75000000       0.50000000       0.06551164 </v>
   <v>       0.00000000       0.00000000       0.13164128 </v>
   <v>       0.00000000       0.50000000       0.13164128 </v>
   <v>       0.50000000       0.00000000       0.13164128 </v>
   <v>       0.50000000       0.50000000       0.13164128 </v>
   <v>       0.25000000       0.25000000       0.13164128 </v>
   <v>       0.25000000       0.75000000       0.13164128 </v>
   <v>       0.75000000       0.25000000       0.13164128 </v>
   <v>       0.75000000       0.75000000       0.13164128 </v>
   <v>       0.00000000       0.25000000       0.19677891 </v>
   <v>       0.00000000       0.75000000       0.19677891 </v>
   <v>       0.50000000       0.25000000       0.19677891 </v>
   <v>       0.50000000       0.75000000       0.19677891 </v>
   <v>       0.25000000       0.00000000       0.19677891 </v>
   <v>       0.25000000       0.50000000       0.19677891 </v>
   <v>       0.75000000       0.00000000       0.19677891 </v>
   <v>       0.75000000       0.50000000       0.19677891 </v>
   <v>       0.00000000       0.00000000       0.26184662 </v>
   <v>       0.00000000       0.50000000       0.26184662 </v>
   <v>       0.50000000       0.00000000       0.26184662 </v>
   <v>       0.50000000       0.50000000       0.26184662 </v>
   <v>       0.25000000       0.25000000       0.26184662 </v>
   <v>       0.25000000       0.75000000       0.26184662 </v>
   <v>       0.75000000       0.25000000       0.26184662 </v>
   <v>       0.75000000       0.75000000       0.26184662 </v>
   <v>       0.00000000       0.25000000       0.32758887 </v>
   <v>       0.00000000       0.75000000       0.32758887 </v>
   <v>       0.50000000       0.25000000       0.32758887 </v>
   <v>       0.50000000       0.75000000       0.32758887 </v>
   <v>       0.25000000       0.00000000       0.32758887 </v>
   <v>       0.25000000       0.50000000       0.32758887 </v>
   <v>       0.75000000       0.00000000       0.32758887 </v>
   <v>       0.75000000       0.50000000       0.32758887 </v>
   <v>       0.00000000       0.00000000       0.39185763 </v>
   <v>       0.00000000       0.50000000       0.39185763 </v>
   <v>       0.50000000       0.00000000       0.39185763 </v>
   <v>       0.50000000       0.50000000       0.39185763 </v>
   <v>       0.25000000       0.25000000       0.39185763 </v>
   <v>       0.25000000       0.75000000       0.39185763 </v>
   <v>       0.75000000       0.25000000       0.39185763 </v>
   <v>       0.75000000       0.75000000       0.39185763 </v>
   <v>       0.00000000       0.25000000       0.45475490 </v>
   <v>       0.00000000       0.75000000       0.45475490 </v>
   <v>       0.50000000       0.25000000       0.45475490 </v>
   <v>       0.50000000       0.75000000       0.45475490 </v>
   <v>       0.25000000       0.00000000       0.45475490 </v>
   <v>       0.25000000       0.50000000       0.45475490 </v>
   <v>       0.75000000       0.00000000       0.45475490 </v>
   <v>       0.75000000       0.50000000       0.45475490 </v>
   <v>       0.37500000       0.62500000       0.50150658 </v>
   <v>       0.37500000       0.62500000       0.52843313 </v>
  </varray>
 </structure>
 <calculation>
  <scstep>
   <time name="dav">   42.35   42.66</time>
   <time name="total">   42.48   42.79</time>
   <energy>
    <i name="alphaZ">   2059.53800561 </i>
    <i name="ewald"> 387444.85953986 </i>
    <i name="hartreedc">-474964.60580871 </i>
    <i name="XCdc">   2932.84416477 </i>
    <i name="pawpsdc">  78601.82840687 </i>
    <i name="pawaedc"> -85374.54502045 </i>
    <i name="eentropy">      0.00098583 </i>
    <i name="bandstr">   7099.41692817 </i>
    <i name="atom">  89046.24623812 </i>
    <i name="e_fr_energy">   6845.58344006 </i>
    <i name="e_wo_entrp">   6845.58245423 </i>
    <i name="e_0_energy">   6845.58311145 </i>
   </energy>
  </scstep>
  <scstep>
   <time name="dav">   42.87   43.20</time>
   <time name="total">   42.88   43.20</time>
   <energy>
    <i name="e_fr_energy">    959.50778772 </i>
    <i name="e_wo_entrp">    959.51077558 </i>
    <i name="e_0_energy">    959.50878367 </i>
   </energy>
  </scstep>
  <scstep>
   <time name="dav">   43.80   44.15</time>
   <time name="total">   43.80   44.15</time>
   <energy>
    <i name="e_fr_energy">   -180.28811229 </i>
    <i name="e_wo_entrp">   -180.37394103 </i>
    <i name="e_0_energy">   -180.31672187 </i>
   </energy>
  </scstep>
  <scstep>
   <time name="dav">   45.41   45.73</time>
   <time name="total">   45.41   45.74</time>
   <energy>
    <i name="e_fr_energy">   -271.84933010 </i>
    <i name="e_wo_entrp">   -271.97673086 </i>
    <i name="e_0_energy">   -271.89179702 </i>
   </energy>
  </scstep>
  <scstep>
   <time name="dav">   45.56   45.88</time>
   <time name="total">   46.43   46.76</time>
   <energy>
    <i name="e_fr_energy">   -274.21396159 </i>
    <i name="e_wo_entrp">   -274.34320384 </i>
    <i name="e_0_energy">   -274.25704234 </i>
   </energy>
  </scstep>
  <scstep>
   <time name="dav">   47.53   48.42</time>
   <time name="total">   48.57   49.47</time>
   <energy>
    <i name="e_fr_energy">   -224.65933160 </i>
    <i name="e_wo_entrp">   -224.67639988 </i>
    <i name="e_0_energy">   -224.66502103 </i>
   </energy>
  </scstep>
  <scstep>
   <time name="dav">   47.63   47.97</time>
   <time name="total">   48.59   48.94</time>
   <energy>
    <i name="e_fr_energy">   -197.82398482 </i>
    <i name="e_wo_entrp">   -197.89508700 </i>
    <i name="e_0_energy">   -197.84768555 </i>
   </energy>
  </scstep>
  <scstep>
   <time name="dav">   48.39   48.71</time>
   <time name="total">   49.37   49.70</time>
   <energy>
    <i name="e_fr_energy">   -200.04643061 </i>
    <i name="e_wo_entrp">   -200.22245289 </i>
    <i name="e_0_energy">   -200.10510470 </i>
   </energy>
  </scstep>
  <scstep>
   <time name="dav">   53.20   53.56</time>
   <time name="total">   54.18   54.55</time>
   <energy>
    <i name="e_fr_energy">   -197.03730709 </i>
    <i name="e_wo_entrp">   -197.12009617 </i>
    <i name="e_0_energy">   -197.06490345 </i>
   </energy>
  </scstep>
  <scstep>
   <time name="dav">   56.36   56.73</time>
   <time name="total">   57.35   57.72</time>
   <energy>
    <i name="e_fr_energy">   -193.75705181 </i>
    <i name="e_wo_entrp">   -193.81836214 </i>
    <i name="e_0_energy">   -193.77748859 </i>
   </energy>
  </scstep>
  <scstep>
   <time name="dav">   57.87   58.24</time>
   <time name="total">   58.87   59.24</time>
   <energy>
    <i name="e_fr_energy">   -194.89211924 </i>
    <i name="e_wo_entrp">   -194.95553380 </i>
    <i name="e_0_energy">   -194.91325742 </i>
   </energy>
  </scstep>
  <scstep>
   <time name="dav">   50.48   50.90</time>
   <time name="total">   52.00   52.44</time>
   <energy>
    <i name="e_fr_energy">   -199.45317299 </i>
    <i name="e_wo_entrp">   -199.48386953 </i>
    <i name="e_0_energy">   -199.46340517 </i>
   </energy>
  </scstep>
  <scstep>
   <time name="dav">   49.16   49.51</time>
   <time name="total">   50.16   50.51</time>
   <energy>
    <i name="e_fr_energy">   -203.49724094 </i>
    <i name="e_wo_entrp">   -203.52224044 </i>
    <i name="e_0_energy">   -203.50557411 </i>
   </energy>
  </scstep>
  <scstep>
   <time name="dav">   48.62   48.93</time>
   <time name="total">   49.62   49.93</time>
   <energy>
    <i name="e_fr_energy">   -210.69358282 </i>
    <i name="e_wo_entrp">   -210.71435149 </i>
    <i name="e_0_energy">   -210.70050571 </i>
   </energy>
  </scstep>
  <scstep>
   <time name="dav">   50.92   51.26</time>
   <time name="total">   51.93   52.27</time>
   <energy>
    <i name="e_fr_energy">   -215.75151948 </i>
    <i name="e_wo_entrp">   -215.78239928 </i>
    <i name="e_0_energy">   -215.76181275 </i>
   </energy>
  </scstep>
  <scstep>
   <time name="dav">   49.88   50.18</time>
   <time name="total">   50.86   51.17</time>
   <energy>
    <i name="e_fr_energy">   -223.59616897 </i>
    <i name="e_wo_entrp">   -223.59701404 </i>
    <i name="e_0_energy">   -223.59645066 </i>
   </energy>
  </scstep>
  <scstep>
   <time name="dav">   45.57   45.85</time>
   <time name="total">   46.55   46.84</time>
   <energy>
    <i name="e_fr_energy">   -226.17377917 </i>
    <i name="e_wo_entrp">   -226.13568343 </i>
    <i name="e_0_energy">   -226.16108059 </i>
   </energy>
  </scstep>
  <scstep>
   <time name="dav">   47.30   47.76</time>
   <time name="total">   48.27   48.74</time>
   <energy>
    <i name="e_fr_energy">   -227.34383102 </i>
    <i name="e_wo_entrp">   -227.28106470 </i>
    <i name="e_0_energy">   -227.32290891 </i>
   </energy>
  </scstep>
  <scstep>
   <time name="dav">   55.34   55.97</time>
   <time name="total">   56.31   56.95</time>
   <energy>
    <i name="e_fr_energy">   -229.30479901 </i>
    <i name="e_wo_entrp">   -229.19487301 </i>
    <i name="e_0_energy">   -229.26815701 </i>
   </energy>
  </scstep>
  <scstep>
   <time name="dav">   47.37   47.73</time>
   <time name="total">   48.35   48.72</time>
   <energy>
    <i name="e_fr_energy">   -230.77592249 </i>
    <i name="e_wo_entrp">   -230.63105846 </i>
    <i name="e_0_energy">   -230.72763448 </i>
   </energy>
  </scstep>
  <scstep>
   <time name="dav">   55.69   56.08</time>
   <time name="total">   56.68   57.07</time>
   <energy>
    <i name="e_fr_energy">   -232.00736458 </i>
    <i name="e_wo_entrp">   -231.83095945 </i>
    <i name="e_0_energy">   -231.94856287 </i>
   </energy>
  </scstep>
  <scstep>
   <time name="dav">   52.60   52.94</time>
   <time name="total">   53.60   53.95</time>
   <energy>
    <i name="e_fr_energy">   -232.86053449 </i>
    <i name="e_wo_entrp">   -232.66544687 </i>
    <i name="e_0_energy">   -232.79550528 </i>
   </energy>
  </scstep>
  <scstep>
   <time name="dav">   54.11   54.51</time>
   <time name="total">   55.08   55.48</time>
   <energy>
    <i name="e_fr_energy">   -233.54875732 </i>
    <i name="e_wo_entrp">   -233.34246228 </i>
    <i name="e_0_energy">   -233.47999231 </i>
   </energy>
  </scstep>
  <scstep>
   <time name="dav">   54.39   54.99</time>
   <time name="total">   55.35   55.96</time>
   <energy>
    <i name="e_fr_energy">   -233.96839685 </i>
    <i name="e_wo_entrp">   -233.75985969 </i>
    <i name="e_0_energy">   -233.89888446 </i>
   </energy>
  </scstep>
  <scstep>
   <time name="dav">   49.29   49.71</time>
   <time name="total">   50.25   50.68</time>
   <energy>
    <i name="e_fr_energy">   -234.21182112 </i>
    <i name="e_wo_entrp">   -234.00537077 </i>
    <i name="e_0_energy">   -234.14300434 </i>
   </energy>
  </scstep>
  <scstep>
   <time name="dav">   51.17   51.50</time>
   <time name="total">   52.15   52.49</time>
   <energy>
    <i name="e_fr_energy">   -234.51591682 </i>
    <i name="e_wo_entrp">   -234.30837610 </i>
    <i name="e_0_energy">   -234.44673658 </i>
   </energy>
  </scstep>
  <scstep>
   <time name="dav">   48.38   48.72</time>
   <time name="total">   49.35   49.69</time>
   <energy>
    <i name="e_fr_energy">   -234.74602856 </i>
    <i name="e_wo_entrp">   -234.53813131 </i>
    <i name="e_0_energy">   -234.67672947 </i>
   </energy>
  </scstep>
  <scstep>
   <time name="dav">   47.13   47.42</time>
   <time name="total">   48.10   48.40</time>
   <energy>
    <i name="e_fr_energy">   -234.87273934 </i>
    <i name="e_wo_entrp">   -234.66593006 </i>
    <i name="e_0_energy">   -234.80380291 </i>
   </energy>
  </scstep>
  <scstep>
   <time name="dav">   46.19   46.54</time>
   <time name="total">   47.17   47.53</time>
   <energy>
    <i name="e_fr_energy">   -234.93840489 </i>
    <i name="e_wo_entrp">   -234.73196451 </i>
    <i name="e_0_energy">   -234.86959143 </i>
   </energy>
  </scstep>
  <scstep>
   <time name="dav">   39.96   40.45</time>
   <time name="total">   40.94   41.43</time>
   <energy>
    <i name="e_fr_energy">   -234.95573240 </i>
    <i name="e_wo_entrp">   -234.74855279 </i>
    <i name="e_0_energy">   -234.88667253 </i>
   </energy>
  </scstep>
  <scstep>
   <time name="dav">   34.78   35.04</time>
   <time name="total">   35.78   36.05</time>
   <energy>
    <i name="e_fr_energy">   -234.96000204 </i>
    <i name="e_wo_entrp">   -234.75301898 </i>
    <i name="e_0_energy">   -234.89100769 </i>
   </energy>
  </scstep>
  <scstep>
   <time name="dav">   31.68   31.88</time>
   <time name="total">   32.66   32.86</time>
   <energy>
    <i name="e_fr_energy">   -234.96128987 </i>
    <i name="e_wo_entrp">   -234.75445564 </i>
    <i name="e_0_energy">   -234.89234513 </i>
   </energy>
  </scstep>
  <scstep>
   <time name="dav">   31.55   31.75</time>
   <time name="total">   32.55   32.76</time>
   <energy>
    <i name="e_fr_energy">   -234.96157107 </i>
    <i name="e_wo_entrp">   -234.75460586 </i>
    <i name="e_0_energy">   -234.89258267 </i>
   </energy>
  </scstep>
  <scstep>
   <time name="dav">   31.46   31.77</time>
   <time name="total">   32.42   32.75</time>
   <energy>
    <i name="e_fr_energy">   -234.96188229 </i>
    <i name="e_wo_entrp">   -234.75489680 </i>
    <i name="e_0_energy">   -234.89288713 </i>
   </energy>
  </scstep>
  <scstep>
   <time name="dav">   30.63   30.84</time>
   <time name="total">   31.61   31.82</time>
   <energy>
    <i name="e_fr_energy">   -234.96229643 </i>
    <i name="e_wo_entrp">   -234.75538300 </i>
    <i name="e_0_energy">   -234.89332529 </i>
   </energy>
  </scstep>
  <scstep>
   <time name="dav">   30.82   31.02</time>
   <time name="total">   31.78   31.99</time>
   <energy>
    <i name="e_fr_energy">   -234.96283439 </i>
    <i name="e_wo_entrp">   -234.75583488 </i>
    <i name="e_0_energy">   -234.89383455 </i>
   </energy>
  </scstep>
  <scstep>
   <time name="dav">   30.99   31.21</time>
   <time name="total">   31.96   32.19</time>
   <energy>
    <i name="e_fr_energy">   -234.96339601 </i>
    <i name="e_wo_entrp">   -234.75640524 </i>
    <i name="e_0_energy">   -234.89439909 </i>
   </energy>
  </scstep>
  <scstep>
   <time name="dav">   31.58   31.79</time>
   <time name="total">   32.58   32.81</time>
   <energy>
    <i name="e_fr_energy">   -234.96363304 </i>
    <i name="e_wo_entrp">   -234.75664697 </i>
    <i name="e_0_energy">   -234.89463769 </i>
   </energy>
  </scstep>
  <scstep>
   <time name="dav">   32.15   32.68</time>
   <time name="total">   32.28   32.82</time>
   <energy>
    <i name="alphaZ">   2059.53800561 </i>
    <i name="ewald"> 387444.85953986 </i>
    <i name="hartreedc">-474003.15212946 </i>
    <i name="XCdc">   2858.84711834 </i>
    <i name="pawpsdc">  83699.22076838 </i>
    <i name="pawaedc"> -90591.75340447 </i>
    <i name="eentropy">     -0.20698193 </i>
    <i name="bandstr">   -748.56288674 </i>
    <i name="atom">  89046.24623812 </i>
    <i name="e_fr_energy">   -234.96373230 </i>
    <i name="e_wo_entrp">   -234.75675037 </i>
    <i name="e_0_energy">   -234.89473832 </i>
   </energy>
  </scstep>
  <structure>
   <crystal>
    <varray name="basis" >
     <v>       7.26000023       0.00000000       0.00000000 </v>
     <v>       0.00000000       7.26000023       0.00000000 </v>
     <v>       0.00000000       0.00000000      27.70499992 </v>
    </varray>
    <i name="volume">   1460.26414606 </i>
    <varray name="rec_basis" >
     <v>       0.13774104       0.00000000       0.00000000 </v>
     <v>       0.00000000       0.13774104       0.00000000 </v>
     <v>       0.00000000       0.00000000       0.03609457 </v>
    </varray>
   </crystal>
   <varray name="positions" >
    <v>       0.00000000       0.00000000       0.00000000 </v>
    <v>       0.00000000       0.50000000       0.00000000 </v>
    <v>       0.50000000       0.00000000       0.00000000 </v>
    <v>       0.50000000       0.50000000       0.00000000 </v>
    <v>       0.25000000       0.25000000       0.00000000 </v>
    <v>       0.25000000       0.75000000       0.00000000 </v>
    <v>       0.75000000       0.25000000       0.00000000 </v>
    <v>       0.75000000       0.75000000       0.00000000 </v>
    <v>       0.00000000       0.25000000       0.06551164 </v>
    <v>       0.00000000       0.75000000       0.06551164 </v>
    <v>       0.50000000       0.25000000       0.06551164 </v>
    <v>       0.50000000       0.75000000       0.06551164 </v>
    <v>       0.25000000       0.00000000       0.06551164 </v>
    <v>       0.25000000       0.50000000       0.06551164 </v>
    <v>       0.75000000       0.00000000       0.06551164 </v>
    <v>       0.75000000       0.50000000       0.06551164 </v>
    <v>       0.00000000       0.00000000       0.13164128 </v>
    <v>       0.00000000       0.50000000       0.13164128 </v>
    <v>       0.50000000       0.00000000       0.13164128 </v>
    <v>       0.50000000       0.50000000       0.13164128 </v>
    <v>       0.25000000       0.25000000       0.13164128 </v>
    <v>       0.25000000       0.75000000       0.13164128 </v>
    <v>       0.75000000       0.25000000       0.13164128 </v>
    <v>       0.75000000       0.75000000       0.13164128 </v>
    <v>       0.00000000       0.25000000       0.19677891 </v>
    <v>       0.00000000       0.75000000       0.19677891 </v>
    <v>       0.50000000       0.25000000       0.19677891 </v>
    <v>       0.50000000       0.75000000       0.19677891 </v>
    <v>       0.25000000       0.00000000       0.19677891 </v>
    <v>       0.25000000       0.50000000       0.19677891 </v>
    <v>       0.75000000       0.00000000       0.19677891 </v>
    <v>       0.75000000       0.50000000       0.19677891 </v>
    <v>       0.00000000       0.00000000       0.26184662 </v>
    <v>       0.00000000       0.50000000       0.26184662 </v>
    <v>       0.50000000       0.00000000       0.26184662 </v>
    <v>       0.50000000       0.50000000       0.26184662 </v>
    <v>       0.25000000       0.25000000       0.26184662 </v>
    <v>       0.25000000       0.75000000       0.26184662 </v>
    <v>       0.75000000       0.25000000       0.26184662 </v>
    <v>       0.75000000       0.75000000       0.26184662 </v>
    <v>       0.00000000       0.25000000       0.32758887 </v>
    <v>       0.00000000       0.75000000       0.32758887 </v>
    <v>       0.50000000       0.25000000       0.32758887 </v>
    <v>       0.50000000       0.75000000       0.32758887 </v>
    <v>       0.25000000       0.00000000       0.32758887 </v>
    <v>       0.25000000       0.50000000       0.32758887 </v>
    <v>       0.75000000       0.00000000       0.32758887 </v>
    <v>       0.75000000       0.50000000       0.32758887 </v>
    <v>       0.00000000       0.00000000       0.39185763 </v>
    <v>       0.00000000       0.50000000       0.39185763 </v>
    <v>       0.50000000       0.00000000       0.39185763 </v>
    <v>       0.50000000       0.50000000       0.39185763 </v>
    <v>       0.25000000       0.25000000       0.39185763 </v>
    <v>       0.25000000       0.75000000       0.39185763 </v>
    <v>       0.75000000       0.25000000       0.39185763 </v>
    <v>       0.75000000       0.75000000       0.39185763 </v>
    <v>       0.00000000       0.25000000       0.45475490 </v>
    <v>       0.00000000       0.75000000       0.45475490 </v>
    <v>       0.50000000       0.25000000       0.45475490 </v>
    <v>       0.50000000       0.75000000       0.45475490 </v>
    <v>       0.25000000       0.00000000       0.45475490 </v>
    <v>       0.25000000       0.50000000       0.45475490 </v>
    <v>       0.75000000       0.00000000       0.45475490 </v>
    <v>       0.75000000       0.50000000       0.45475490 </v>
    <v>       0.37500000       0.62500000       0.50150658 </v>
    <v>       0.37500000       0.62500000       0.52843313 </v>
   </varray>
  </structure>
  <varray name="forces" >
   <v>       0.00844856      -0.00844856       0.30818319 </v>
   <v>      -0.00244747       0.00949726       0.31522288 </v>
   <v>      -0.00949726       0.00244747       0.31522288 </v>
   <v>       0.00661792      -0.00661792       0.31629531 </v>
   <v>       0.00949726      -0.00244747       0.31522288 </v>
   <v>      -0.00661792       0.00661792       0.31629531 </v>
   <v>      -0.00844856       0.00844856       0.30818319 </v>
   <v>       0.00244747      -0.00949726       0.31522288 </v>
   <v>       0.00545050       0.00545050      -0.06241163 </v>
   <v>       0.00621774      -0.00251231      -0.06703779 </v>
   <v>      -0.00251231       0.00621774      -0.06703779 </v>
   <v>       0.01124031       0.01124031      -0.05910203 </v>
   <v>       0.00251231      -0.00621774      -0.06703779 </v>
   <v>      -0.01124031      -0.01124031      -0.05910203 </v>
   <v>      -0.00545050      -0.00545050      -0.06241163 </v>
   <v>      -0.00621774       0.00251231      -0.06703779 </v>
   <v>       0.01365282      -0.01365282      -0.04911105 </v>
   <v>       0.00837704       0.00470760      -0.05246937 </v>
   <v>      -0.00470760      -0.00837704      -0.05246937 </v>
   <v>       0.00577648      -0.00577648      -0.06640475 </v>
   <v>       0.00470760       0.00837704      -0.05246937 </v>
   <v>      -0.00577648       0.00577648      -0.06640475 </v>
   <v>      -0.01365282       0.01365282      -0.04911105 </v>
   <v>      -0.00837704      -0.00470760      -0.05246937 </v>
   <v>       0.00598412       0.00598412       0.02263578 </v>
   <v>       0.01028501      -0.00624800       0.04379052 </v>
   <v>      -0.00624800       0.01028501       0.04379052 </v>
   <v>      -0.00563351      -0.00563351       0.01914042 </v>
   <v>       0.00624800      -0.01028501       0.04379052 </v>
   <v>       0.00563351       0.00563351       0.01914042 </v>
   <v>      -0.00598412      -0.00598412       0.02263578 </v>
   <v>      -0.01028501       0.00624800       0.04379052 </v>
   <v>      -0.00192692       0.00192692       0.00786154 </v>
   <v>       0.01188614      -0.00806147       0.00048300 </v>
   <v>       0.00806147      -0.01188614       0.00048300 </v>
   <v>       0.00788837      -0.00788837       0.05216338 </v>
   <v>      -0.00806147       0.01188614       0.00048300 </v>
   <v>      -0.00788837       0.00788837       0.05216338 </v>
   <v>       0.00192692      -0.00192692       0.00786154 </v>
   <v>      -0.01188614       0.00806147       0.00048300 </v>
   <v>      -0.00495447      -0.00495447      -0.18699163 </v>
   <v>      -0.02344163      -0.00430286      -0.21256437 </v>
   <v>      -0.00430286      -0.02344163      -0.21256437 </v>
   <v>       0.00032388       0.00032388      -0.21069350 </v>
   <v>       0.00430286       0.02344163      -0.21256437 </v>
   <v>      -0.00032388      -0.00032388      -0.21069350 </v>
   <v>       0.00495447       0.00495447      -0.18699163 </v>
   <v>       0.02344163       0.00430286      -0.21256437 </v>
   <v>       0.01282532      -0.01282532      -0.00540722 </v>
   <v>       0.04124531       0.01169854       0.01863746 </v>
   <v>      -0.01169854      -0.04124531       0.01863746 </v>
   <v>       0.03889940      -0.03889940      -0.08890334 </v>
   <v>       0.01169854       0.04124531       0.01863746 </v>
   <v>      -0.03889940       0.03889940      -0.08890334 </v>
   <v>      -0.01282532       0.01282532      -0.00540722 </v>
   <v>      -0.04124531      -0.01169854       0.01863746 </v>
   <v>       0.00895872       0.00895872      -0.00827688 </v>
   <v>      -0.10279461       0.01745643      -0.07997405 </v>
   <v>       0.01745643      -0.10279461      -0.07997405 </v>
   <v>       0.31150790       0.31150790      -0.32094459 </v>
   <v>      -0.01745643       0.10279461      -0.07997405 </v>
   <v>      -0.31150790      -0.31150790      -0.32094459 </v>
   <v>      -0.00895872      -0.00895872      -0.00827688 </v>
   <v>       0.10279461      -0.01745643      -0.07997405 </v>
   <v>       0.00000000      -0.00000000      -0.80056119 </v>
   <v>       0.00000000      -0.00000000       1.60014211 </v>
  </varray>
  <varray name="stress" >
   <v>     -44.98998325       0.00335157       0.00000000 </v>
   <v>       0.00335157     -44.98998325       0.00000000 </v>
   <v>       0.00000000       0.00000000     -23.19143200 </v>
  </varray>
  <energy>
   <i name="e_fr_energy">   -261.39416236 </i>
   <i name="e_wo_entrp">   -261.18718043 </i>
   <i name="e_0_energy">   -261.32516838 </i>
  </energy>
  <time name="totalsc"> 1891.79 1906.89</time>
 </calculation>
 <calculation>
  <scstep>
   <time name="dav">   43.84   44.23</time>
   <time name="total">   44.81   45.21</time>
   <energy>
    <i name="alphaZ">   2059.53800561 </i>
    <i name="ewald"> 388413.14648689 </i>
    <i name="hartreedc">-474971.39049773 </i>
    <i name="XCdc">   2858.99895972 </i>
    <i name="pawpsdc">  83699.23054500 </i>
    <i name="pawaedc"> -90591.77162557 </i>
    <i name="eentropy">     -0.20567099 </i>
    <i name="bandstr">   -748.72976440 </i>
    <i name="atom">  89046.24623812 </i>
    <i name="e_fr_energy">   -234.93732336 </i>
    <i name="e_wo_entrp">   -234.73165237 </i>
    <i name="e_0_energy">   -234.86876636 </i>
   </energy>
  </scstep>
  <scstep>
   <time name="dav">   56.47   56.82</time>
   <time name="total">   57.45   57.81</time>
   <energy>
    <i name="e_fr_energy">   -234.99656633 </i>
    <i name="e_wo_entrp">   -234.78823296 </i>
    <i name="e_0_energy">   -234.92712188 </i>
   </energy>
  </scstep>
  <scstep>
   <time name="dav">   47.41   47.71</time>
   <time name="total">   48.39   48.70</time>
   <energy>
    <i name="e_fr_energy">   -234.99362451 </i>
    <i name="e_wo_entrp">   -234.78517051 </i>
    <i name="e_0_energy">   -234.92413984 </i>
   </energy>
  </scstep>
  <scstep>
   <time name="dav">   48.95   49.60</time>
   <time name="total">   49.93   50.60</time>
   <energy>
    <i name="e_fr_energy">   -235.00214351 </i>
    <i name="e_wo_entrp">   -234.79850259 </i>
    <i name="e_0_energy">   -234.93426320 </i>
   </energy>
  </scstep>
  <scstep>
   <time name="dav">   56.55   57.10</time>
   <time name="total">   57.54   58.10</time>
   <energy>
    <i name="e_fr_energy">   -234.99695588 </i>
    <i name="e_wo_entrp">   -234.78725203 </i>
    <i name="e_0_energy">   -234.92705459 </i>
   </energy>
  </scstep>
  <scstep>
   <time name="dav">   63.65   64.08</time>
   <time name="total">   64.64   65.07</time>
   <energy>
    <i name="e_fr_energy">   -234.99174304 </i>
    <i name="e_wo_entrp">   -234.78410150 </i>
    <i name="e_0_energy">   -234.92252919 </i>
   </energy>
  </scstep>
  <scstep>
   <time name="dav">   59.23   59.73</time>
   <time name="total">   60.23   60.74</time>
   <energy>
    <i name="e_fr_energy">   -234.98998192 </i>
    <i name="e_wo_entrp">   -234.78165065 </i>
    <i name="e_0_energy">   -234.92053817 </i>
   </energy>
  </scstep>
  <scstep>
   <time name="dav">   43.68   43.97</time>
   <time name="total">   44.64   44.94</time>
   <energy>
    <i name="e_fr_energy">   -234.99025893 </i>
    <i name="e_wo_entrp">   -234.78180454 </i>
    <i name="e_0_energy">   -234.92077414 </i>
   </energy>
  </scstep>
  <scstep>
   <time name="dav">   42.46   42.77</time>
   <time name="total">   42.59   42.90</time>
   <energy>
    <i name="alphaZ">   2059.53800561 </i>
    <i name="ewald"> 388413.14648689 </i>
    <i name="hartreedc">-474965.65005832 </i>
    <i name="XCdc">   2858.79205500 </i>
    <i name="pawpsdc">  83722.79452369 </i>
    <i name="pawaedc"> -90615.83330480 </i>
    <i name="eentropy">     -0.20850731 </i>
    <i name="bandstr">   -753.81580844 </i>
    <i name="atom">  89046.24623812 </i>
    <i name="e_fr_energy">   -234.99036958 </i>
    <i name="e_wo_entrp">   -234.78186227 </i>
    <i name="e_0_energy">   -234.92086715 </i>
   </energy>
  </scstep>
  <structure>
   <crystal>
    <varray name="basis" >
     <v>       7.26000023       0.00000000       0.00000000 </v>
     <v>       0.00000000       7.26000023       0.00000000 </v>
     <v>       0.00000000       0.00000000      27.70499992 </v>
    </varray>
    <i name="volume">   1460.26414606 </i>
    <varray name="rec_basis" >
     <v>       0.13774104       0.00000000       0.00000000 </v>
     <v>       0.00000000       0.13774104       0.00000000 </v>
     <v>       0.00000000       0.00000000       0.03609457 </v>
    </varray>
   </crystal>
   <varray name="positions" >
    <v>       0.00005614      -0.00005614       0.00053664 </v>
    <v>      -0.00001626       0.50006311       0.00054890 </v>
    <v>       0.49993689       0.00001626       0.00054890 </v>
    <v>       0.50004398       0.49995602       0.00055076 </v>
    <v>       0.25006311       0.24998374       0.00054890 </v>
    <v>       0.24995602       0.75004398       0.00055076 </v>
    <v>       0.74994386       0.25005614       0.00053664 </v>
    <v>       0.75001626       0.74993689       0.00054890 </v>
    <v>       0.00003622       0.25003622       0.06540296 </v>
    <v>       0.00004132       0.74998331       0.06539491 </v>
    <v>       0.49998331       0.25004132       0.06539491 </v>
    <v>       0.50007469       0.75007469       0.06540873 </v>
    <v>       0.25001669      -0.00004132       0.06539491 </v>
    <v>       0.24992531       0.49992531       0.06540873 </v>
    <v>       0.74996378      -0.00003622       0.06540296 </v>
    <v>       0.74995868       0.50001669       0.06539491 </v>
    <v>       0.00009072      -0.00009072       0.13155576 </v>
    <v>       0.00005567       0.50003128       0.13154992 </v>
    <v>       0.49996872      -0.00005567       0.13154992 </v>
    <v>       0.50003838       0.49996162       0.13152565 </v>
    <v>       0.25003128       0.25005567       0.13154992 </v>
    <v>       0.24996162       0.75003838       0.13152565 </v>
    <v>       0.74990928       0.25009072       0.13155576 </v>
    <v>       0.74994433       0.74996872       0.13154992 </v>
    <v>       0.00003976       0.25003976       0.19681833 </v>
    <v>       0.00006834       0.74995848       0.19685517 </v>
    <v>       0.49995848       0.25006834       0.19685517 </v>
    <v>       0.49996257       0.74996257       0.19681224 </v>
    <v>       0.25004152      -0.00006834       0.19685517 </v>
    <v>       0.25003743       0.50003743       0.19681224 </v>
    <v>       0.74996024      -0.00003976       0.19681833 </v>
    <v>       0.74993166       0.50004152       0.19685517 </v>
    <v>      -0.00001280       0.00001280       0.26186031 </v>
    <v>       0.00007898       0.49994643       0.26184747 </v>
    <v>       0.50005357      -0.00007898       0.26184747 </v>
    <v>       0.50005242       0.49994758       0.26193746 </v>
    <v>       0.24994643       0.25007898       0.26184747 </v>
    <v>       0.24994758       0.75005242       0.26193746 </v>
    <v>       0.75001280       0.24998720       0.26186031 </v>
    <v>       0.74992102       0.75005357       0.26184747 </v>
    <v>      -0.00003292       0.24996708       0.32726326 </v>
    <v>      -0.00015577       0.74997141       0.32721873 </v>
    <v>       0.49997141       0.24984423       0.32721873 </v>
    <v>       0.50000215       0.75000215       0.32722199 </v>
    <v>       0.25002859       0.00015577       0.32721873 </v>
    <v>       0.24999785       0.49999785       0.32722199 </v>
    <v>       0.75003292       0.00003292       0.32726326 </v>
    <v>       0.75015577       0.50002859       0.32721873 </v>
    <v>       0.00008522      -0.00008522       0.39184821 </v>
    <v>       0.00027407       0.50007774       0.39189008 </v>
    <v>       0.49992226      -0.00027407       0.39189008 </v>
    <v>       0.50025849       0.49974151       0.39170282 </v>
    <v>       0.25007774       0.25027407       0.39189008 </v>
    <v>       0.24974151       0.75025849       0.39170282 </v>
    <v>       0.74991478       0.25008522       0.39184821 </v>
    <v>       0.74972593       0.74992226       0.39189008 </v>
    <v>       0.00005953       0.25005953       0.45474048 </v>
    <v>      -0.00068307       0.75011600       0.45461564 </v>
    <v>       0.50011600       0.24931693       0.45461564 </v>
    <v>       0.50206997       0.75206997       0.45419604 </v>
    <v>       0.24988400       0.00068307       0.45461564 </v>
    <v>       0.24793003       0.49793003       0.45419604 </v>
    <v>       0.74994047      -0.00005953       0.45474048 </v>
    <v>       0.75068307       0.49988400       0.45461564 </v>
    <v>       0.37500000       0.62500000       0.50011256 </v>
    <v>       0.37500000       0.62500000       0.53121945 </v>
   </varray>
  </structure>
  <varray name="forces" >
   <v>       0.00433476      -0.00433476       0.23995409 </v>
   <v>      -0.00104286       0.00541239       0.24434370 </v>
   <v>      -0.00541239       0.00104286       0.24434370 </v>
   <v>       0.00185718      -0.00185718       0.24575988 </v>
   <v>       0.00541239      -0.00104286       0.24434370 </v>
   <v>      -0.00185718       0.00185718       0.24575988 </v>
   <v>      -0.00433476       0.00433476       0.23995409 </v>
   <v>       0.00104286      -0.00541239       0.24434370 </v>
   <v>       0.00154356       0.00154356      -0.00397903 </v>
   <v>       0.00111427      -0.00207052      -0.00667120 </v>
   <v>      -0.00207052       0.00111427      -0.00667120 </v>
   <v>       0.00547221       0.00547221      -0.00325266 </v>
   <v>       0.00207052      -0.00111427      -0.00667120 </v>
   <v>      -0.00547221      -0.00547221      -0.00325266 </v>
   <v>      -0.00154356      -0.00154356      -0.00397903 </v>
   <v>      -0.00111427       0.00207052      -0.00667120 </v>
   <v>       0.00780321      -0.00780321      -0.02746309 </v>
   <v>       0.00247247       0.00463966      -0.02973014 </v>
   <v>      -0.00463966      -0.00247247      -0.02973014 </v>
   <v>       0.00231444      -0.00231444      -0.04143763 </v>
   <v>       0.00463966       0.00247247      -0.02973014 </v>
   <v>      -0.00231444       0.00231444      -0.04143763 </v>
   <v>      -0.00780321       0.00780321      -0.02746309 </v>
   <v>      -0.00247247      -0.00463966      -0.02973014 </v>
   <v>       0.00379742       0.00379742       0.00342475 </v>
   <v>       0.00656293      -0.00521101       0.02055708 </v>
   <v>      -0.00521101       0.00656293       0.02055708 </v>
   <v>      -0.00774048      -0.00774048       0.00438787 </v>
   <v>       0.00521101      -0.00656293       0.02055708 </v>
   <v>       0.00774048       0.00774048       0.00438787 </v>
   <v>      -0.00379742      -0.00379742       0.00342475 </v>
   <v>      -0.00656293       0.00521101       0.02055708 </v>
   <v>      -0.00319843       0.00319843      -0.02209756 </v>
   <v>       0.00745059      -0.00609380      -0.02764178 </v>
   <v>       0.00609380      -0.00745059      -0.02764178 </v>
   <v>       0.00322341      -0.00322341       0.01056760 </v>
   <v>      -0.00609380       0.00745059      -0.02764178 </v>
   <v>      -0.00322341       0.00322341       0.01056760 </v>
   <v>       0.00319843      -0.00319843      -0.02209756 </v>
   <v>      -0.00745059       0.00609380      -0.02764178 </v>
   <v>      -0.00309771      -0.00309771      -0.11581332 </v>
   <v>      -0.02394663      -0.00243550      -0.13974370 </v>
   <v>      -0.00243550      -0.02394663      -0.13974370 </v>
   <v>       0.00413835       0.00413835      -0.13886600 </v>
   <v>       0.00243550       0.02394663      -0.13974370 </v>
   <v>      -0.00413835      -0.00413835      -0.13886600 </v>
   <v>       0.00309771       0.00309771      -0.11581332 </v>
   <v>       0.02394663       0.00243550      -0.13974370 </v>
   <v>       0.00192833      -0.00192833      -0.04398883 </v>
   <v>      -0.00523818       0.00840985      -0.06847619 </v>
   <v>      -0.00840985       0.00523818      -0.06847619 </v>
   <v>       0.02077092      -0.02077092      -0.09059261 </v>
   <v>       0.00840985      -0.00523818      -0.06847619 </v>
   <v>      -0.02077092       0.02077092      -0.09059261 </v>
   <v>      -0.00192833       0.00192833      -0.04398883 </v>
   <v>       0.00523818      -0.00840985      -0.06847619 </v>
   <v>      -0.02147567      -0.02147567      -0.01344425 </v>
   <v>      -0.06338121       0.02109867      -0.06782139 </v>
   <v>       0.02109867      -0.06338121      -0.06782139 </v>
   <v>       0.12173619       0.12173619      -0.15034162 </v>
   <v>      -0.02109867       0.06338121      -0.06782139 </v>
   <v>      -0.12173619      -0.12173619      -0.15034162 </v>
   <v>       0.02147567       0.02147567      -0.01344425 </v>
   <v>       0.06338121      -0.02109867      -0.06782139 </v>
   <v>       0.00000000      -0.00000000       1.34724440 </v>
   <v>       0.00000000      -0.00000000      -0.75214509 </v>
  </varray>
  <varray name="stress" >
   <v>     -44.02249210      -0.02024471       0.00000000 </v>
   <v>      -0.02024471     -44.02249210       0.00000000 </v>
   <v>       0.00000000      -0.00000000     -24.50163607 </v>
  </varray>
  <energy>
   <i name="e_fr_energy">   -261.46723471 </i>
   <i name="e_wo_entrp">   -261.25872740 </i>
   <i name="e_0_energy">   -261.39773227 </i>
  </energy>
  <time name="totalsc">  567.81  573.13</time>
 </calculation>
 <calculation>
  <scstep>
   <time name="dav">   43.83   44.16</time>
   <time name="total">   44.80   45.14</time>
   <energy>
    <i name="alphaZ">   2059.53800561 </i>
    <i name="ewald"> 388150.75134122 </i>
    <i name="hartreedc">-474702.92526938 </i>
    <i name="XCdc">   2858.74874802 </i>
    <i name="pawpsdc">  83723.13920166 </i>
    <i name="pawaedc"> -90616.19093259 </i>
    <i name="eentropy">     -0.20861174 </i>
    <i name="bandstr">   -754.10906974 </i>
    <i name="atom">  89046.24623812 </i>
    <i name="e_fr_energy">   -235.01034884 </i>
    <i name="e_wo_entrp">   -234.80173709 </i>
    <i name="e_0_energy">   -234.94081159 </i>
   </energy>
  </scstep>
  <scstep>
   <time name="dav">   55.50   55.89</time>
   <time name="total">   56.48   56.89</time>
   <energy>
    <i name="e_fr_energy">   -235.01471934 </i>
    <i name="e_wo_entrp">   -234.80669794 </i>
    <i name="e_0_energy">   -234.94537888 </i>
   </energy>
  </scstep>
  <scstep>
   <time name="dav">   46.89   47.18</time>
   <time name="total">   47.87   48.17</time>
   <energy>
    <i name="e_fr_energy">   -235.01502312 </i>
    <i name="e_wo_entrp">   -234.80620225 </i>
    <i name="e_0_energy">   -234.94541616 </i>
   </energy>
  </scstep>
  <scstep>
   <time name="dav">   34.24   34.48</time>
   <time name="total">   35.22   35.47</time>
   <energy>
    <i name="e_fr_energy">   -235.01475250 </i>
    <i name="e_wo_entrp">   -234.80743811 </i>
    <i name="e_0_energy">   -234.94564771 </i>
   </energy>
  </scstep>
  <scstep>
   <time name="dav">   31.97   32.21</time>
   <time name="total">   32.95   33.20</time>
   <energy>
    <i name="e_fr_energy">   -235.01454864 </i>
    <i name="e_wo_entrp">   -234.80631314 </i>
    <i name="e_0_energy">   -234.94513681 </i>
   </energy>
  </scstep>
  <scstep>
   <time name="dav">   35.84   36.25</time>
   <time name="total">   35.97   36.38</time>
   <energy>
    <i name="alphaZ">   2059.53800561 </i>
    <i name="ewald"> 388150.75134122 </i>
    <i name="hartreedc">-474703.13394982 </i>
    <i name="XCdc">   2858.79533857 </i>
    <i name="pawpsdc">  83716.73706762 </i>
    <i name="pawaedc"> -90609.68770933 </i>
    <i name="eentropy">     -0.20803605 </i>
    <i name="bandstr">   -754.05280765 </i>
    <i name="atom">  89046.24623812 </i>
    <i name="e_fr_energy">   -235.01451171 </i>
    <i name="e_wo_entrp">   -234.80647566 </i>
    <i name="e_0_energy">   -234.94516636 </i>
   </energy>
  </scstep>
  <structure>
   <crystal>
    <varray name="basis" >
     <v>       7.26000023       0.00000000       0.00000000 </v>
     <v>       0.00000000       7.26000023       0.00000000 </v>
     <v>       0.00000000       0.00000000      27.70499992 </v>
    </varray>
    <i name="volume">   1460.26414606 </i>
    <varray name="rec_basis" >
     <v>       0.13774104       0.00000000       0.00000000 </v>
     <v>       0.00000000       0.13774104       0.00000000 </v>
     <v>       0.00000000       0.00000000       0.03609457 </v>
    </varray>
   </crystal>
   <varray name="positions" >
    <v>       0.00004095      -0.00004095       0.00039147 </v>
    <v>      -0.00001186       0.50004604       0.00040041 </v>
    <v>       0.49995396       0.00001186       0.00040041 </v>
    <v>       0.50003208       0.49996792       0.00040177 </v>
    <v>       0.25004604       0.24998814       0.00040041 </v>
    <v>       0.24996792       0.75003208       0.00040177 </v>
    <v>       0.74995905       0.25004095       0.00039147 </v>
    <v>       0.75001186       0.74995396       0.00040041 </v>
    <v>       0.00002642       0.25002642       0.06543236 </v>
    <v>       0.00003014       0.74998782       0.06542649 </v>
    <v>       0.49998782       0.25003014       0.06542649 </v>
    <v>       0.50005449       0.75005449       0.06543657 </v>
    <v>       0.25001218      -0.00003014       0.06542649 </v>
    <v>       0.24994551       0.49994551       0.06543657 </v>
    <v>       0.74997358      -0.00002642       0.06543236 </v>
    <v>       0.74996986       0.50001218       0.06542649 </v>
    <v>       0.00006618      -0.00006618       0.13157890 </v>
    <v>       0.00004061       0.50002282       0.13157463 </v>
    <v>       0.49997718      -0.00004061       0.13157463 </v>
    <v>       0.50002800       0.49997200       0.13155693 </v>
    <v>       0.25002282       0.25004061       0.13157463 </v>
    <v>       0.24997200       0.75002800       0.13155693 </v>
    <v>       0.74993382       0.25006618       0.13157890 </v>
    <v>       0.74995939       0.74997718       0.13157463 </v>
    <v>       0.00002901       0.25002901       0.19680767 </v>
    <v>       0.00004986       0.74996971       0.19683454 </v>
    <v>       0.49996971       0.25004986       0.19683454 </v>
    <v>       0.49997269       0.74997269       0.19680323 </v>
    <v>       0.25003029      -0.00004986       0.19683454 </v>
    <v>       0.25002731       0.50002731       0.19680323 </v>
    <v>       0.74997099      -0.00002901       0.19680767 </v>
    <v>       0.74995014       0.50003029       0.19683454 </v>
    <v>      -0.00000934       0.00000934       0.26185661 </v>
    <v>       0.00005762       0.49996092       0.26184724 </v>
    <v>       0.50003908      -0.00005762       0.26184724 </v>
    <v>       0.50003824       0.49996176       0.26191289 </v>
    <v>       0.24996092       0.25005762       0.26184724 </v>
    <v>       0.24996176       0.75003824       0.26191289 </v>
    <v>       0.75000934       0.24999066       0.26185661 </v>
    <v>       0.74994238       0.75003908       0.26184724 </v>
    <v>      -0.00002402       0.24997598       0.32735135 </v>
    <v>      -0.00011363       0.74997914       0.32731886 </v>
    <v>       0.49997914       0.24988637       0.32731886 </v>
    <v>       0.50000157       0.75000157       0.32732124 </v>
    <v>       0.25002086       0.00011363       0.32731886 </v>
    <v>       0.24999843       0.49999843       0.32732124 </v>
    <v>       0.75002402       0.00002402       0.32735135 </v>
    <v>       0.75011363       0.50002086       0.32731886 </v>
    <v>       0.00006217      -0.00006217       0.39185076 </v>
    <v>       0.00019993       0.50005671       0.39188130 </v>
    <v>       0.49994329      -0.00019993       0.39188130 </v>
    <v>       0.50018856       0.49981144       0.39174470 </v>
    <v>       0.25005671       0.25019993       0.39188130 </v>
    <v>       0.24981144       0.75018856       0.39174470 </v>
    <v>       0.74993783       0.25006217       0.39185076 </v>
    <v>       0.74980007       0.74994329       0.39188130 </v>
    <v>       0.00004343       0.25004343       0.45474438 </v>
    <v>      -0.00049829       0.75008462       0.45465331 </v>
    <v>       0.50008462       0.24950171       0.45465331 </v>
    <v>       0.50151001       0.75151000       0.45434722 </v>
    <v>       0.24991538       0.00049829       0.45465331 </v>
    <v>       0.24848999       0.49848999       0.45434722 </v>
    <v>       0.74995657      -0.00004343       0.45474438 </v>
    <v>       0.75049829       0.49991538       0.45465331 </v>
    <v>       0.37500000       0.62500000       0.50048967 </v>
    <v>       0.37500000       0.62500000       0.53046570 </v>
   </varray>
  </structure>
  <varray name="forces" >
   <v>       0.00610910      -0.00610910       0.27491343 </v>
   <v>      -0.00160168       0.00728870       0.28032323 </v>
   <v>      -0.00728870       0.00160168       0.28032323 </v>
   <v>       0.00383952      -0.00383952       0.28187913 </v>
   <v>       0.00728870      -0.00160168       0.28032323 </v>
   <v>      -0.00383952       0.00383952       0.28187913 </v>
   <v>      -0.00610910       0.00610910       0.27491343 </v>
   <v>       0.00160168      -0.00728870       0.28032323 </v>
   <v>       0.00325922       0.00325922      -0.02853103 </v>
   <v>       0.00316182      -0.00240331      -0.03224535 </v>
   <v>      -0.00240331       0.00316182      -0.03224535 </v>
   <v>       0.00813202       0.00813202      -0.02682201 </v>
   <v>       0.00240331      -0.00316182      -0.03224535 </v>
   <v>      -0.00813202      -0.00813202      -0.02682201 </v>
   <v>      -0.00325922      -0.00325922      -0.02853103 </v>
   <v>      -0.00316182       0.00240331      -0.03224535 </v>
   <v>       0.01069244      -0.01069244      -0.03872051 </v>
   <v>       0.00496837       0.00495030      -0.04155283 </v>
   <v>      -0.00495030      -0.00496837      -0.04155283 </v>
   <v>       0.00394007      -0.00394007      -0.05498377 </v>
   <v>       0.00495030       0.00496837      -0.04155283 </v>
   <v>      -0.00394007       0.00394007      -0.05498377 </v>
   <v>      -0.01069244       0.01069244      -0.03872051 </v>
   <v>      -0.00496837      -0.00495030      -0.04155283 </v>
   <v>       0.00489769       0.00489769       0.01353279 </v>
   <v>       0.00841718      -0.00601290       0.03332893 </v>
   <v>      -0.00601290       0.00841718       0.03332893 </v>
   <v>      -0.00742465      -0.00742465       0.01260915 </v>
   <v>       0.00601290      -0.00841718       0.03332893 </v>
   <v>       0.00742465       0.00742465       0.01260915 </v>
   <v>      -0.00489769      -0.00489769       0.01353279 </v>
   <v>      -0.00841718       0.00601290       0.03332893 </v>
   <v>      -0.00286472       0.00286472      -0.00804525 </v>
   <v>       0.00968850      -0.00726524      -0.01449821 </v>
   <v>       0.00726524      -0.00968850      -0.01449821 </v>
   <v>       0.00535085      -0.00535085       0.03163581 </v>
   <v>      -0.00726524       0.00968850      -0.01449821 </v>
   <v>      -0.00535085       0.00535085       0.03163581 </v>
   <v>       0.00286472      -0.00286472      -0.00804525 </v>
   <v>      -0.00968850       0.00726524      -0.01449821 </v>
   <v>      -0.00420738      -0.00420738      -0.14524636 </v>
   <v>      -0.02587898      -0.00329101      -0.17175779 </v>
   <v>      -0.00329101      -0.02587898      -0.17175779 </v>
   <v>       0.00309384       0.00309384      -0.17068740 </v>
   <v>       0.00329101       0.02587898      -0.17175779 </v>
   <v>      -0.00309384      -0.00309384      -0.17068740 </v>
   <v>       0.00420738       0.00420738      -0.14524636 </v>
   <v>       0.02587898       0.00329101      -0.17175779 </v>
   <v>       0.00592704      -0.00592704      -0.02815390 </v>
   <v>       0.01217399       0.01010616      -0.03524282 </v>
   <v>      -0.01010616      -0.01217399      -0.03524282 </v>
   <v>       0.02970324      -0.02970324      -0.09357994 </v>
   <v>       0.01010616       0.01217399      -0.03524282 </v>
   <v>      -0.02970324       0.02970324      -0.09357994 </v>
   <v>      -0.00592704       0.00592704      -0.02815390 </v>
   <v>      -0.01217399      -0.01010616      -0.03524282 </v>
   <v>      -0.01159998      -0.01159998      -0.00897345 </v>
   <v>      -0.08484345       0.02195546      -0.07448726 </v>
   <v>       0.02195546      -0.08484345      -0.07448726 </v>
   <v>       0.19904007       0.19904007      -0.22124060 </v>
   <v>      -0.02195546       0.08484345      -0.07448726 </v>
   <v>      -0.19904007      -0.19904007      -0.22124060 </v>
   <v>       0.01159998       0.01159998      -0.00897345 </v>
   <v>       0.08484345      -0.02195546      -0.07448726 </v>
   <v>       0.00000000      -0.00000000       0.97739997 </v>
   <v>       0.00000000      -0.00000000      -0.33204375 </v>
  </varray>
  <varray name="stress" >
   <v>     -43.26601883      -0.01938167       0.00000000 </v>
   <v>      -0.01938167     -43.26601883       0.00000000 </v>
   <v>       0.00000000       0.00000000     -23.09000591 </v>
  </varray>
  <energy>
   <i name="e_fr_energy">   -261.47355473 </i>
   <i name="e_wo_entrp">   -261.26551868 </i>
   <i name="e_0_energy">   -261.40420938 </i>
  </energy>
  <time name="totalsc">  350.34  353.14</time>
 </calculation>
 <calculation>
  <scstep>
   <time name="dav">   46.07   46.39</time>
   <time name="total">   47.04   47.37</time>
   <energy>
    <i name="alphaZ">   2059.53800561 </i>
    <i name="ewald"> 389400.00643961 </i>
    <i name="hartreedc">-475951.93361290 </i>
    <i name="XCdc">   2859.09389520 </i>
    <i name="pawpsdc">  83716.73872921 </i>
    <i name="pawaedc"> -90609.69760103 </i>
    <i name="eentropy">     -0.20881656 </i>
    <i name="bandstr">   -754.79098520 </i>
    <i name="atom">  89046.24623812 </i>
    <i name="e_fr_energy">   -235.00770795 </i>
    <i name="e_wo_entrp">   -234.79889139 </i>
    <i name="e_0_energy">   -234.93810243 </i>
   </energy>
  </scstep>
  <scstep>
   <time name="dav">   57.29   57.64</time>
   <time name="total">   58.28   58.64</time>
   <energy>
    <i name="e_fr_energy">   -235.07523882 </i>
    <i name="e_wo_entrp">   -234.86532592 </i>
    <i name="e_0_energy">   -235.00526785 </i>
   </energy>
  </scstep>
  <scstep>
   <time name="dav">   44.56   44.84</time>
   <time name="total">   45.54   45.83</time>
   <energy>
    <i name="e_fr_energy">   -235.07115844 </i>
    <i name="e_wo_entrp">   -234.86206236 </i>
    <i name="e_0_energy">   -235.00145975 </i>
   </energy>
  </scstep>
  <scstep>
   <time name="dav">   50.27   50.99</time>
   <time name="total">   51.27   51.99</time>
   <energy>
    <i name="e_fr_energy">   -235.07096518 </i>
    <i name="e_wo_entrp">   -234.86220865 </i>
    <i name="e_0_energy">   -235.00137967 </i>
   </energy>
  </scstep>
  <scstep>
   <time name="dav">   46.65   47.16</time>
   <time name="total">   47.64   48.16</time>
   <energy>
    <i name="e_fr_energy">   -235.07110422 </i>
    <i name="e_wo_entrp">   -234.86142908 </i>
    <i name="e_0_energy">   -235.00121251 </i>
   </energy>
  </scstep>
  <scstep>
   <time name="dav">   47.33   47.69</time>
   <time name="total">   48.31   48.67</time>
   <energy>
    <i name="e_fr_energy">   -235.07173669 </i>
    <i name="e_wo_entrp">   -234.86492808 </i>
    <i name="e_0_energy">   -235.00280048 </i>
   </energy>
  </scstep>
  <scstep>
   <time name="dav">   63.54   64.03</time>
   <time name="total">   64.53   65.03</time>
   <energy>
    <i name="e_fr_energy">   -235.06882041 </i>
    <i name="e_wo_entrp">   -234.86065949 </i>
    <i name="e_0_energy">   -234.99943344 </i>
   </energy>
  </scstep>
  <scstep>
   <time name="dav">   49.13   49.43</time>
   <time name="total">   50.12   50.43</time>
   <energy>
    <i name="e_fr_energy">   -235.06913103 </i>
[...]
       <r>    12.8867     0.0000   456.0000 </r>
       <r>    12.9630     0.0000   456.0000 </r>
       <r>    13.0393     0.0000   456.0000 </r>
       <r>    13.1156     0.0000   456.0000 </r>
       <r>    13.1919     0.0000   456.0000 </r>
       <r>    13.2682     0.0000   456.0000 </r>
       <r>    13.3445     0.0000   456.0000 </r>
      </set>
      <set comment="spin 2">
       <r>    -9.5432     0.0000     0.0000 </r>
       <r>    -9.4669     0.0000     0.0000 </r>
       <r>    -9.3906     0.0000     0.0000 </r>
       <r>    -9.3143     0.0000     0.0000 </r>
       <r>    -9.2380     0.0000     0.0000 </r>
       <r>    -9.1617    -0.0000    -0.0000 </r>
       <r>    -9.0854    -0.0000    -0.0000 </r>
       <r>    -9.0092    -0.0000    -0.0000 </r>
       <r>    -8.9329    -0.0000    -0.0000 </r>
       <r>    -8.8566    -0.0000    -0.0000 </r>
       <r>    -8.7803    -0.0000    -0.0000 </r>
       <r>    -8.7040    -0.0000    -0.0000 </r>
       <r>    -8.6277    -0.0000    -0.0000 </r>
       <r>    -8.5514    -0.0000    -0.0000 </r>
       <r>    -8.4751    -0.0000    -0.0000 </r>
       <r>    -8.3988    -0.0000    -0.0000 </r>
       <r>    -8.3225    -0.0000    -0.0000 </r>
       <r>    -8.2462    -0.0000    -0.0000 </r>
       <r>    -8.1699    -0.0001    -0.0000 </r>
       <r>    -8.0936    -0.0004    -0.0000 </r>
       <r>    -8.0174    -0.0024    -0.0002 </r>
       <r>    -7.9411    -0.0091    -0.0009 </r>
       <r>    -7.8648    -0.0211    -0.0025 </r>
       <r>    -7.7885    -0.0195    -0.0040 </r>
       <r>    -7.7122     0.0450    -0.0006 </r>
       <r>    -7.6359     0.1960     0.0144 </r>
       <r>    -7.5596     0.3404     0.0403 </r>
       <r>    -7.4833     0.3553     0.0674 </r>
       <r>    -7.4070     0.3628     0.0951 </r>
       <r>    -7.3307     0.6925     0.1480 </r>
       <r>    -7.2544     1.3299     0.2494 </r>
       <r>    -7.1781     1.7262     0.3811 </r>
       <r>    -7.1018     1.5862     0.5021 </r>
       <r>    -7.0256     1.4099     0.6097 </r>
       <r>    -6.9493     1.6773     0.7377 </r>
       <r>    -6.8730     2.0705     0.8956 </r>
       <r>    -6.7967     2.1361     1.0586 </r>
       <r>    -6.7204     2.0035     1.2114 </r>
       <r>    -6.6441     1.8326     1.3513 </r>
       <r>    -6.5678     1.4552     1.4623 </r>
       <r>    -6.4915     1.1040     1.5465 </r>
       <r>    -6.4152     1.4703     1.6587 </r>
       <r>    -6.3389     2.5412     1.8525 </r>
       <r>    -6.2626     3.2731     2.1023 </r>
       <r>    -6.1863     2.9563     2.3278 </r>
       <r>    -6.1101     2.3219     2.5049 </r>
       <r>    -6.0338     2.6336     2.7059 </r>
       <r>    -5.9575     3.9303     3.0057 </r>
       <r>    -5.8812     4.9526     3.3836 </r>
       <r>    -5.8049     4.7953     3.7494 </r>
       <r>    -5.7286     3.8396     4.0423 </r>
       <r>    -5.6523     3.1432     4.2821 </r>
       <r>    -5.5760     3.4649     4.5465 </r>
       <r>    -5.4997     4.4717     4.8876 </r>
       <r>    -5.4234     4.7924     5.2533 </r>
       <r>    -5.3471     3.5831     5.5266 </r>
       <r>    -5.2708     1.7864     5.6629 </r>
       <r>    -5.1945     1.0242     5.7410 </r>
       <r>    -5.1183     1.6606     5.8677 </r>
       <r>    -5.0420     2.7399     6.0768 </r>
       <r>    -4.9657     3.5841     6.3502 </r>
       <r>    -4.8894     4.6517     6.7051 </r>
       <r>    -4.8131     6.5086     7.2016 </r>
       <r>    -4.7368     8.5849     7.8566 </r>
       <r>    -4.6605     9.6678     8.5942 </r>
       <r>    -4.5842     9.2497     9.2999 </r>
       <r>    -4.5079     7.9265     9.9046 </r>
       <r>    -4.4316     6.7996    10.4234 </r>
       <r>    -4.3553     6.4187    10.9131 </r>
       <r>    -4.2790     6.3938    11.4008 </r>
       <r>    -4.2027     6.3281    11.8836 </r>
       <r>    -4.1265     6.2783    12.3626 </r>
       <r>    -4.0502     6.4090    12.8516 </r>
       <r>    -3.9739     7.0546    13.3898 </r>
       <r>    -3.8976     8.3027    14.0232 </r>
       <r>    -3.8213     9.6612    14.7603 </r>
       <r>    -3.7450    11.0187    15.6009 </r>
       <r>    -3.6687    12.5951    16.5618 </r>
       <r>    -3.5924    13.7768    17.6129 </r>
       <r>    -3.5161    13.7302    18.6604 </r>
       <r>    -3.4398    12.5898    19.6209 </r>
       <r>    -3.3635    11.2491    20.4791 </r>
       <r>    -3.2872    11.3268    21.3433 </r>
       <r>    -3.2109    15.2057    22.5033 </r>
       <r>    -3.1347    23.8077    24.3197 </r>
       <r>    -3.0584    33.6019    26.8832 </r>
       <r>    -2.9821    38.2786    29.8036 </r>
       <r>    -2.9058    35.7920    32.5343 </r>
       <r>    -2.8295    31.7797    34.9588 </r>
       <r>    -2.7532    32.8965    37.4685 </r>
       <r>    -2.6769    38.9185    40.4377 </r>
       <r>    -2.6006    45.3081    43.8944 </r>
       <r>    -2.5243    51.6251    47.8330 </r>
       <r>    -2.4480    61.7440    52.5436 </r>
       <r>    -2.3717    74.7402    58.2456 </r>
       <r>    -2.2954    81.4304    64.4582 </r>
       <r>    -2.2191    74.8672    70.1699 </r>
       <r>    -2.1429    60.7286    74.8031 </r>
       <r>    -2.0666    51.5740    78.7377 </r>
       <r>    -1.9903    53.2869    82.8031 </r>
       <r>    -1.9140    61.8141    87.5191 </r>
       <r>    -1.8377    70.1136    92.8682 </r>
       <r>    -1.7614    74.0359    98.5165 </r>
       <r>    -1.6851    74.0405   104.1653 </r>
       <r>    -1.6088    74.5074   109.8496 </r>
       <r>    -1.5325    79.8882   115.9444 </r>
       <r>    -1.4562    90.0749   122.8164 </r>
       <r>    -1.3799   100.3359   130.4713 </r>
       <r>    -1.3036   106.3164   138.5824 </r>
       <r>    -1.2274   108.5617   146.8648 </r>
       <r>    -1.1511   109.9261   155.2513 </r>
       <r>    -1.0748   109.5621   163.6100 </r>
       <r>    -0.9985   105.1149   171.6295 </r>
       <r>    -0.9222    98.6725   179.1574 </r>
       <r>    -0.8459    93.9375   186.3241 </r>
       <r>    -0.7696    92.4418   193.3767 </r>
       <r>    -0.6933    96.2104   200.7168 </r>
       <r>    -0.6170   105.8721   208.7940 </r>
       <r>    -0.5407   115.7264   217.6230 </r>
       <r>    -0.4644   119.0150   226.7030 </r>
       <r>    -0.3881   116.6104   235.5994 </r>
       <r>    -0.3118   114.3039   244.3199 </r>
       <r>    -0.2356   114.3213   253.0417 </r>
       <r>    -0.1593   115.5821   261.8597 </r>
       <r>    -0.0830   120.3253   271.0396 </r>
       <r>    -0.0067   133.2855   281.2083 </r>
       <r>     0.0696   151.9406   292.8001 </r>
       <r>     0.1459   163.1344   305.2460 </r>
       <r>     0.2222   153.8167   316.9810 </r>
       <r>     0.2985   122.7469   326.3457 </r>
       <r>     0.3748    81.3175   332.5495 </r>
       <r>     0.4511    45.3229   336.0073 </r>
       <r>     0.5274    23.9454   337.8342 </r>
       <r>     0.6037    15.4783   339.0150 </r>
       <r>     0.6800    13.6376   340.0555 </r>
       <r>     0.7562    14.0392   341.1266 </r>
       <r>     0.8325    14.6317   342.2429 </r>
       <r>     0.9088    15.0775   343.3932 </r>
       <r>     0.9851    15.8092   344.5993 </r>
       <r>     1.0614    15.8051   345.8051 </r>
       <r>     1.1377    13.4371   346.8302 </r>
       <r>     1.2140     9.3970   347.5471 </r>
       <r>     1.2903     5.8803   347.9958 </r>
       <r>     1.3666     3.8043   348.2860 </r>
       <r>     1.4429     2.7426   348.4952 </r>
       <r>     1.5192     2.4867   348.6850 </r>
       <r>     1.5955     3.6566   348.9639 </r>
       <r>     1.6718     7.1640   349.5105 </r>
       <r>     1.7480    13.1904   350.5168 </r>
       <r>     1.8243    20.0919   352.0497 </r>
       <r>     1.9006    24.0659   353.8857 </r>
       <r>     1.9769    21.5572   355.5304 </r>
       <r>     2.0532    13.4240   356.5545 </r>
       <r>     2.1295     5.1149   356.9447 </r>
       <r>     2.2058     1.5663   357.0642 </r>
       <r>     2.2821     3.0512   357.2970 </r>
       <r>     2.3584     6.0732   357.7603 </r>
       <r>     2.4347     7.5385   358.3355 </r>
       <r>     2.5110     7.6119   358.9162 </r>
       <r>     2.5873     8.1311   359.5365 </r>
       <r>     2.6636     9.6560   360.2732 </r>
       <r>     2.7398    11.1584   361.1245 </r>
       <r>     2.8161    11.1341   361.9740 </r>
       <r>     2.8924     9.0137   362.6616 </r>
       <r>     2.9687     6.7031   363.1730 </r>
       <r>     3.0450     7.3935   363.7371 </r>
       <r>     3.1213    11.6902   364.6290 </r>
       <r>     3.1976    16.3299   365.8748 </r>
       <r>     3.2739    17.4284   367.2045 </r>
       <r>     3.3502    14.0470   368.2761 </r>
       <r>     3.4265     8.3892   368.9162 </r>
       <r>     3.5028     3.5770   369.1891 </r>
       <r>     3.5791     1.8732   369.3320 </r>
       <r>     3.6553     3.9374   369.6324 </r>
       <r>     3.7316     8.2256   370.2599 </r>
       <r>     3.8079    11.4505   371.1335 </r>
       <r>     3.8842    11.0887   371.9795 </r>
       <r>     3.9605     7.7703   372.5723 </r>
       <r>     4.0368     4.7488   372.9346 </r>
       <r>     4.1131     4.5482   373.2816 </r>
       <r>     4.1894     6.2384   373.7575 </r>
       <r>     4.2657     7.1217   374.3009 </r>
       <r>     4.3420     6.4982   374.7966 </r>
       <r>     4.4183     5.6336   375.2264 </r>
       <r>     4.4946     5.4053   375.6388 </r>
       <r>     4.5709     6.4388   376.1300 </r>
       <r>     4.6471     9.3199   376.8411 </r>
       <r>     4.7234    12.6319   377.8048 </r>
       <r>     4.7997    13.4463   378.8306 </r>
       <r>     4.8760    11.0952   379.6771 </r>
       <r>     4.9523     8.0988   380.2950 </r>
       <r>     5.0286     6.8716   380.8192 </r>
       <r>     5.1049     7.3940   381.3833 </r>
       <r>     5.1812     8.2399   382.0120 </r>
       <r>     5.2575     8.5705   382.6658 </r>
       <r>     5.3338     8.9185   383.3462 </r>
       <r>     5.4101    10.2002   384.1244 </r>
       <r>     5.4864    11.7044   385.0174 </r>
       <r>     5.5627    11.2567   385.8762 </r>
       <r>     5.6389     8.4039   386.5173 </r>
       <r>     5.7152     5.4951   386.9366 </r>
       <r>     5.7915     4.7037   387.2954 </r>
       <r>     5.8678     5.8684   387.7431 </r>
       <r>     5.9441     7.6306   388.3253 </r>
       <r>     6.0204     9.1264   389.0216 </r>
       <r>     6.0967     9.9504   389.7807 </r>
       <r>     6.1730     9.7960   390.5281 </r>
       <r>     6.2493     9.2213   391.2316 </r>
       <r>     6.3256     9.7831   391.9779 </r>
       <r>     6.4019    12.3569   392.9207 </r>
       <r>     6.4782    15.5753   394.1090 </r>
       <r>     6.5545    16.7378   395.3859 </r>
       <r>     6.6307    15.0080   396.5309 </r>
       <r>     6.7070    12.9425   397.5183 </r>
       <r>     6.7833    13.1465   398.5213 </r>
       <r>     6.8596    14.3118   399.6132 </r>
       <r>     6.9359    12.9923   400.6044 </r>
       <r>     7.0122     8.7053   401.2685 </r>
       <r>     7.0885     4.8320   401.6372 </r>
       <r>     7.1648     4.4584   401.9773 </r>
       <r>     7.2411     7.1148   402.5201 </r>
       <r>     7.3174     9.9473   403.2790 </r>
       <r>     7.3937    11.0035   404.1185 </r>
       <r>     7.4700    10.7434   404.9382 </r>
       <r>     7.5462    10.6837   405.7532 </r>
       <r>     7.6225    11.5497   406.6344 </r>
       <r>     7.6988    13.3084   407.6497 </r>
       <r>     7.7751    16.0223   408.8721 </r>
       <r>     7.8514    19.0439   410.3250 </r>
       <r>     7.9277    19.8800   411.8417 </r>
       <r>     8.0040    16.3878   413.0919 </r>
       <r>     8.0803    10.2053   413.8705 </r>
       <r>     8.1566     6.1608   414.3406 </r>
       <r>     8.2329     7.9867   414.9499 </r>
       <r>     8.3092    14.3218   416.0425 </r>
       <r>     8.3855    19.0709   417.4975 </r>
       <r>     8.4618    17.5582   418.8370 </r>
       <r>     8.5380    11.7703   419.7350 </r>
       <r>     8.6143     7.2039   420.2846 </r>
       <r>     8.6906     6.4119   420.7738 </r>
       <r>     8.7669     8.4317   421.4171 </r>
       <r>     8.8432    11.9316   422.3274 </r>
       <r>     8.9195    15.5836   423.5163 </r>
       <r>     8.9958    17.3734   424.8417 </r>
       <r>     9.0721    16.5911   426.1075 </r>
       <r>     9.1484    15.1168   427.2608 </r>
       <r>     9.2247    14.8525   428.3939 </r>
       <r>     9.3010    15.4630   429.5736 </r>
       <r>     9.3773    15.6759   430.7696 </r>
       <r>     9.4536    15.1782   431.9275 </r>
       <r>     9.5298    14.4745   433.0318 </r>
       <r>     9.6061    13.8811   434.0909 </r>
       <r>     9.6824    13.4428   435.1164 </r>
       <r>     9.7587    13.4113   436.1396 </r>
       <r>     9.8350    13.8541   437.1966 </r>
       <r>     9.9113    14.1582   438.2767 </r>
       <r>     9.9876    13.5998   439.3143 </r>
       <r>    10.0639    12.2059   440.2455 </r>
       <r>    10.1402    11.2756   441.1057 </r>
       <r>    10.2165    12.7146   442.0758 </r>
       <r>    10.2928    16.8249   443.3594 </r>
       <r>    10.3691    21.1248   444.9710 </r>
       <r>    10.4454    22.2527   446.6687 </r>
       <r>    10.5216    19.1297   448.1282 </r>
       <r>    10.5979    14.0290   449.1985 </r>
       <r>    10.6742    10.1753   449.9748 </r>
       <r>    10.7505     8.6841   450.6373 </r>
       <r>    10.8268     8.7425   451.3043 </r>
       <r>    10.9031     9.6868   452.0433 </r>
       <r>    10.9794    10.9980   452.8824 </r>
       <r>    11.0557    11.3198   453.7460 </r>
       <r>    11.1320     9.6921   454.4854 </r>
       <r>    11.2083     7.1001   455.0271 </r>
       <r>    11.2846     5.1710   455.4216 </r>
       <r>    11.3609     4.0140   455.7279 </r>
       <r>    11.4372     2.7151   455.9350 </r>
       <r>    11.5134     1.1836   456.0253 </r>
       <r>    11.5897     0.1197   456.0344 </r>
       <r>    11.6660    -0.2131   456.0182 </r>
       <r>    11.7423    -0.1592   456.0060 </r>
       <r>    11.8186    -0.0610   456.0014 </r>
       <r>    11.8949    -0.0151   456.0002 </r>
       <r>    11.9712    -0.0026   456.0000 </r>
       <r>    12.0475    -0.0003   456.0000 </r>
       <r>    12.1238    -0.0000   456.0000 </r>
       <r>    12.2001    -0.0000   456.0000 </r>
       <r>    12.2764    -0.0000   456.0000 </r>
       <r>    12.3527    -0.0000   456.0000 </r>
       <r>    12.4289    -0.0000   456.0000 </r>
       <r>    12.5052    -0.0000   456.0000 </r>
       <r>    12.5815    -0.0000   456.0000 </r>
       <r>    12.6578     0.0000   456.0000 </r>
       <r>    12.7341     0.0000   456.0000 </r>
       <r>    12.8104     0.0000   456.0000 </r>
       <r>    12.8867     0.0000   456.0000 </r>
       <r>    12.9630     0.0000   456.0000 </r>
       <r>    13.0393     0.0000   456.0000 </r>
       <r>    13.1156     0.0000   456.0000 </r>
       <r>    13.1919     0.0000   456.0000 </r>
       <r>    13.2682     0.0000   456.0000 </r>
       <r>    13.3445     0.0000   456.0000 </r>
      </set>
     </set>
    </array>
   </total>
  </dos>
 </calculation>
 <structure name="finalpos" >
  <crystal>
   <varray name="basis" >
    <v>       7.26000023       0.00000000       0.00000000 </v>
    <v>       0.00000000       7.26000023       0.00000000 </v>
    <v>       0.00000000       0.00000000      27.70499992 </v>
   </varray>
   <i name="volume">   1460.26414606 </i>
   <varray name="rec_basis" >
    <v>       0.13774104       0.00000000       0.00000000 </v>
    <v>       0.00000000       0.13774104       0.00000000 </v>
    <v>       0.00000000       0.00000000       0.03609457 </v>
   </varray>
  </crystal>
  <varray name="positions" >
   <v>       0.00011124      -0.00011124       0.00762881 </v>
   <v>      -0.00004324       0.50005390       0.00766980 </v>
   <v>       0.49994610       0.00004324       0.00766980 </v>
   <v>       0.49998611       0.50001389       0.00759783 </v>
   <v>       0.25005390       0.24995676       0.00766980 </v>
   <v>       0.25001389       0.74998611       0.00759783 </v>
   <v>       0.74988876       0.25011124       0.00762881 </v>
   <v>       0.75004324       0.74994610       0.00766980 </v>
   <v>       0.00000329       0.25000329       0.06991860 </v>
   <v>      -0.00000846       0.75000256       0.06994056 </v>
   <v>       0.50000256       0.24999154       0.06994056 </v>
   <v>       0.50007612       0.75007612       0.06986665 </v>
   <v>       0.24999744       0.00000846       0.06994056 </v>
   <v>       0.24992388       0.49992388       0.06986665 </v>
   <v>       0.74999671      -0.00000329       0.06991860 </v>
   <v>       0.75000846       0.49999744       0.06994056 </v>
   <v>       0.00004194      -0.00004194       0.13353688 </v>
   <v>       0.00010629       0.50009708       0.13350908 </v>
   <v>       0.49990292      -0.00010629       0.13350908 </v>
   <v>       0.49994181       0.50005819       0.13348648 </v>
   <v>       0.25009708       0.25010629       0.13350908 </v>
   <v>       0.25005819       0.74994181       0.13348648 </v>
   <v>       0.74995806       0.25004194       0.13353688 </v>
   <v>       0.74989371       0.74990292       0.13350908 </v>
   <v>      -0.00011585       0.24988415       0.19636221 </v>
   <v>       0.00014005       0.75013646       0.19637124 </v>
   <v>       0.50013646       0.25014005       0.19637124 </v>
   <v>       0.49979860       0.74979860       0.19643722 </v>
   <v>       0.24986354      -0.00014005       0.19637124 </v>
   <v>       0.25020140       0.50020140       0.19643722 </v>
   <v>       0.75011585       0.00011585       0.19636221 </v>
   <v>       0.74985995       0.49986354       0.19637124 </v>
   <v>      -0.00015870       0.00015870       0.25895317 </v>
   <v>      -0.00006004       0.49987977       0.25888627 </v>
   <v>       0.50012023       0.00006004       0.25888627 </v>
   <v>       0.50017038       0.49982962       0.25895319 </v>
   <v>       0.24987977       0.24993996       0.25888627 </v>
   <v>       0.24982962       0.75017038       0.25895319 </v>
   <v>       0.75015870       0.24984130       0.25895317 </v>
   <v>       0.75006004       0.75012023       0.25888627 </v>
   <v>       0.00010002       0.25010002       0.32199601 </v>
   <v>      -0.00018744       0.74997220       0.32195860 </v>
   <v>       0.49997220       0.24981256       0.32195860 </v>
   <v>       0.50004504       0.75004504       0.32182063 </v>
   <v>       0.25002780       0.00018744       0.32195860 </v>
   <v>       0.24995496       0.49995496       0.32182063 </v>
   <v>       0.74989998      -0.00010002       0.32199601 </v>
   <v>       0.75018744       0.50002780       0.32195860 </v>
   <v>      -0.00004333       0.00004333       0.38587093 </v>
   <v>       0.00006479       0.50008252       0.38576752 </v>
   <v>       0.49991748      -0.00006479       0.38576752 </v>
   <v>       0.50009796       0.49990204       0.38570566 </v>
   <v>       0.25008252       0.25006479       0.38576752 </v>
   <v>       0.24990204       0.75009796       0.38570566 </v>
   <v>       0.75004333       0.24995667       0.38587093 </v>
   <v>       0.74993521       0.74991748       0.38576752 </v>
   <v>       0.00012467       0.25012467       0.44826678 </v>
   <v>       0.00002715       0.74998684       0.44815404 </v>
   <v>       0.49998684       0.25002715       0.44815404 </v>
   <v>       0.49992136       0.74992136       0.44804584 </v>
   <v>       0.25001316      -0.00002715       0.44815404 </v>
   <v>       0.25007864       0.50007864       0.44804584 </v>
   <v>       0.74987533      -0.00012467       0.44826678 </v>
   <v>       0.74997285       0.50001316       0.44815404 </v>
   <v>       0.37500000       0.62500000       0.53221919 </v>
   <v>       0.37500000       0.62500000       0.55963715 </v>
  </varray>
 </structure>
</modeling>
