unknown system                          
           1
     7.260000    0.000000    0.000000
     0.000000    7.260000    0.000000
     0.000000    0.000000   27.705000
   Cu   H 
    64     2
Direct configuration=     1
   0.00000000  0.00000000  0.00000000
   0.00000000  0.50000000  0.00000000
   0.50000000  0.00000000  0.00000000
   0.50000000  0.50000000  0.00000000
   0.25000000  0.25000000  0.00000000
   0.25000000  0.75000000  0.00000000
   0.75000000  0.25000000  0.00000000
   0.75000000  0.75000000  0.00000000
   0.00000000  0.25000000  0.06551164
   0.00000000  0.75000000  0.06551164
   0.50000000  0.25000000  0.06551164
   0.50000000  0.75000000  0.06551164
   0.25000000  0.00000000  0.06551164
   0.25000000  0.50000000  0.06551164
   0.75000000  0.00000000  0.06551164
   0.75000000  0.50000000  0.06551164
   0.00000000  0.00000000  0.13164128
   0.00000000  0.50000000  0.13164128
   0.50000000  0.00000000  0.13164128
   0.50000000  0.50000000  0.13164128
   0.25000000  0.25000000  0.13164128
   0.25000000  0.75000000  0.13164128
   0.75000000  0.25000000  0.13164128
   0.75000000  0.75000000  0.13164128
   0.00000000  0.25000000  0.19677891
   0.00000000  0.75000000  0.19677891
   0.50000000  0.25000000  0.19677891
   0.50000000  0.75000000  0.19677891
   0.25000000  0.00000000  0.19677891
   0.25000000  0.50000000  0.19677891
   0.75000000  0.00000000  0.19677891
   0.75000000  0.50000000  0.19677891
   0.00000000  0.00000000  0.26184662
   0.00000000  0.50000000  0.26184662
   0.50000000  0.00000000  0.26184662
   0.50000000  0.50000000  0.26184662
   0.25000000  0.25000000  0.26184662
   0.25000000  0.75000000  0.26184662
   0.75000000  0.25000000  0.26184662
   0.75000000  0.75000000  0.26184662
   0.00000000  0.25000000  0.32758887
   0.00000000  0.75000000  0.32758887
   0.50000000  0.25000000  0.32758887
   0.50000000  0.75000000  0.32758887
   0.25000000  0.00000000  0.32758887
   0.25000000  0.50000000  0.32758887
   0.75000000  0.00000000  0.32758887
   0.75000000  0.50000000  0.32758887
   0.00000000  0.00000000  0.39185763
   0.00000000  0.50000000  0.39185763
   0.50000000  0.00000000  0.39185763
   0.50000000  0.50000000  0.39185763
   0.25000000  0.25000000  0.39185763
   0.25000000  0.75000000  0.39185763
   0.75000000  0.25000000  0.39185763
   0.75000000  0.75000000  0.39185763
   0.00000000  0.25000000  0.45475490
   0.00000000  0.75000000  0.45475490
   0.50000000  0.25000000  0.45475490
   0.50000000  0.75000000  0.45475490
   0.25000000  0.00000000  0.45475490
   0.25000000  0.50000000  0.45475490
   0.75000000  0.00000000  0.45475490
   0.75000000  0.50000000  0.45475490
   0.37500000  0.62500000  0.50150658
   0.37500000  0.62500000  0.52843313
Direct configuration=     2
   0.00005614 -0.00005614  0.00053664
  -0.00001626  0.50006311  0.00054890
   0.49993689  0.00001626  0.00054890
   0.50004398  0.49995602  0.00055076
   0.25006311  0.24998374  0.00054890
   0.24995602  0.75004398  0.00055076
   0.74994386  0.25005614  0.00053664
   0.75001626  0.74993689  0.00054890
   0.00003622  0.25003622  0.06540296
   0.00004132  0.74998331  0.06539491
   0.49998331  0.25004132  0.06539491
   0.50007469  0.75007469  0.06540873
   0.25001669 -0.00004132  0.06539491
   0.24992531  0.49992531  0.06540873
   0.74996378 -0.00003622  0.06540296
   0.74995868  0.50001669  0.06539491
   0.00009072 -0.00009072  0.13155576
   0.00005567  0.50003128  0.13154992
   0.49996872 -0.00005567  0.13154992
   0.50003838  0.49996162  0.13152565
   0.25003128  0.25005567  0.13154992
   0.24996162  0.75003838  0.13152565
   0.74990928  0.25009072  0.13155576
   0.74994433  0.74996872  0.13154992
   0.00003976  0.25003976  0.19681833
   0.00006834  0.74995848  0.19685517
   0.49995848  0.25006834  0.19685517
   0.49996257  0.74996257  0.19681224
   0.25004152 -0.00006834  0.19685517
   0.25003743  0.50003743  0.19681224
   0.74996024 -0.00003976  0.19681833
   0.74993166  0.50004152  0.19685517
  -0.00001280  0.00001280  0.26186031
   0.00007898  0.49994643  0.26184747
   0.50005357 -0.00007898  0.26184747
   0.50005242  0.49994758  0.26193746
   0.24994643  0.25007898  0.26184747
   0.24994758  0.75005242  0.26193746
   0.75001280  0.24998720  0.26186031
   0.74992102  0.75005357  0.26184747
  -0.00003292  0.24996708  0.32726326
  -0.00015577  0.74997141  0.32721873
   0.49997141  0.24984423  0.32721873
   0.50000215  0.75000215  0.32722199
   0.25002859  0.00015577  0.32721873
   0.24999785  0.49999785  0.32722199
   0.75003292  0.00003292  0.32726326
   0.75015577  0.50002859  0.32721873
   0.00008522 -0.00008522  0.39184821
   0.00027407  0.50007774  0.39189008
   0.49992226 -0.00027407  0.39189008
   0.50025849  0.49974151  0.39170282
   0.25007774  0.25027407  0.39189008
   0.24974151  0.75025849  0.39170282
   0.74991478  0.25008522  0.39184821
   0.74972593  0.74992226  0.39189008
   0.00005953  0.25005953  0.45474048
  -0.00068307  0.75011600  0.45461564
   0.50011600  0.24931693  0.45461564
   0.50206997  0.75206997  0.45419604
   0.24988400  0.00068307  0.45461564
   0.24793003  0.49793003  0.45419604
   0.74994047 -0.00005953  0.45474048
   0.75068307  0.49988400  0.45461564
   0.37500000  0.62500000  0.50011256
   0.37500000  0.62500000  0.53121945
Direct configuration=     3
   0.00004095 -0.00004095  0.00039147
  -0.00001186  0.50004604  0.00040041
   0.49995396  0.00001186  0.00040041
   0.50003208  0.49996792  0.00040177
   0.25004604  0.24998814  0.00040041
   0.24996792  0.75003208  0.00040177
   0.74995905  0.25004095  0.00039147
   0.75001186  0.74995396  0.00040041
   0.00002642  0.25002642  0.06543236
   0.00003014  0.74998782  0.06542649
   0.49998782  0.25003014  0.06542649
   0.50005449  0.75005449  0.06543657
   0.25001218 -0.00003014  0.06542649
   0.24994551  0.49994551  0.06543657
   0.74997358 -0.00002642  0.06543236
   0.74996986  0.50001218  0.06542649
   0.00006618 -0.00006618  0.13157890
   0.00004061  0.50002282  0.13157463
   0.49997718 -0.00004061  0.13157463
   0.50002800  0.49997200  0.13155693
   0.25002282  0.25004061  0.13157463
   0.24997200  0.75002800  0.13155693
   0.74993382  0.25006618  0.13157890
   0.74995939  0.74997718  0.13157463
   0.00002901  0.25002901  0.19680767
   0.00004986  0.74996971  0.19683454
   0.49996971  0.25004986  0.19683454
   0.49997269  0.74997269  0.19680323
   0.25003029 -0.00004986  0.19683454
   0.25002731  0.50002731  0.19680323
   0.74997099 -0.00002901  0.19680767
   0.74995014  0.50003029  0.19683454
  -0.00000934  0.00000934  0.26185661
   0.00005762  0.49996092  0.26184724
   0.50003908 -0.00005762  0.26184724
   0.50003824  0.49996176  0.26191289
   0.24996092  0.25005762  0.26184724
   0.24996176  0.75003824  0.26191289
   0.75000934  0.24999066  0.26185661
   0.74994238  0.75003908  0.26184724
  -0.00002402  0.24997598  0.32735135
  -0.00011363  0.74997914  0.32731886
   0.49997914  0.24988637  0.32731886
   0.50000157  0.75000157  0.32732124
   0.25002086  0.00011363  0.32731886
   0.24999843  0.49999843  0.32732124
   0.75002402  0.00002402  0.32735135
   0.75011363  0.50002086  0.32731886
   0.00006217 -0.00006217  0.39185076
   0.00019993  0.50005671  0.39188130
   0.49994329 -0.00019993  0.39188130
   0.50018856  0.49981144  0.39174470
   0.25005671  0.25019993  0.39188130
   0.24981144  0.75018856  0.39174470
   0.74993783  0.25006217  0.39185076
   0.74980007  0.74994329  0.39188130
   0.00004343  0.25004343  0.45474438
  -0.00049829  0.75008462  0.45465331
   0.50008462  0.24950171  0.45465331
   0.50151001  0.75151000  0.45434722
   0.24991538  0.00049829  0.45465331
   0.24848999  0.49848999  0.45434722
   0.74995657 -0.00004343  0.45474438
   0.75049829  0.49991538  0.45465331
   0.37500000  0.62500000  0.50048967
   0.37500000  0.62500000  0.53046570
Direct configuration=     4
   0.00010122 -0.00010122  0.00105329
  -0.00002827  0.50011643  0.00107592
   0.49988357  0.00002827  0.00107592
   0.50007334  0.49992666  0.00108057
   0.25011643  0.24997173  0.00107592
   0.24992666  0.75007334  0.00108057
   0.74989878  0.25010122  0.00105329
   0.75002827  0.74988357  0.00107592
   0.00006101  0.25006101  0.06534304
   0.00006611  0.74996621  0.06532791
   0.49996621  0.25006611  0.06532791
   0.50013469  0.75013469  0.06535231
   0.25003379 -0.00006611  0.06532791
   0.24986531  0.49986531  0.06535231
   0.74993899 -0.00006101  0.06534304
   0.74993389  0.50003379  0.06532791
   0.00016872 -0.00016872  0.13148181
   0.00009352  0.50006612  0.13147061
   0.49993388 -0.00009352  0.13147061
   0.50006772  0.49993228  0.13142133
   0.25006612  0.25009352  0.13147061
   0.24993228  0.75006772  0.13142133
   0.74983128  0.25016872  0.13148181
   0.74990648  0.74993388  0.13147061
   0.00007528  0.25007528  0.19684531
   0.00012938  0.74991575  0.19691913
   0.49991575  0.25012938  0.19691913
   0.49991144  0.74991144  0.19683698
   0.25008425 -0.00012938  0.19691913
   0.25008856  0.50008856  0.19683698
   0.74992472 -0.00007528  0.19684531
   0.74987062  0.50008425  0.19691913
  -0.00003233  0.00003233  0.26184869
   0.00014928  0.49989439  0.26182369
   0.50010561 -0.00014928  0.26182369
   0.50009229  0.49990771  0.26200037
   0.24989439  0.25014928  0.26182369
   0.24990771  0.75009229  0.26200037
   0.75003233  0.24996767  0.26184869
   0.74985072  0.75010561  0.26182369
  -0.00006328  0.24993672  0.32698529
  -0.00033696  0.74994732  0.32689180
   0.49994732  0.24966304  0.32689180
   0.50002185  0.75002185  0.32689721
   0.25005268  0.00033696  0.32689180
   0.24997815  0.49997815  0.32689721
   0.75006328  0.00006328  0.32698529
   0.75033696  0.50005268  0.32689180
   0.00013262 -0.00013262  0.39180072
   0.00038320  0.50015051  0.39183589
   0.49984949 -0.00038320  0.39183589
   0.50047594  0.49952406  0.39153027
   0.25015051  0.25038320  0.39183589
   0.24952406  0.75047594  0.39153027
   0.74986738  0.25013262  0.39180072
   0.74961680  0.74984949  0.39183589
  -0.00000630  0.24999370  0.45472399
  -0.00129761  0.75026780  0.45447638
   0.50026780  0.24870238  0.45447638
   0.50356729  0.75356729  0.45376515
   0.24973220  0.00129761  0.45447638
   0.24643271  0.49643271  0.45376515
   0.75000630  0.00000630  0.45472399
   0.75129761  0.49973220  0.45447638
   0.37500000  0.62500000  0.50155658
   0.37500000  0.62500000  0.53100403
Direct configuration=     5
   0.00019337 -0.00019337  0.00206524
  -0.00005334  0.50022406  0.00210879
   0.49977594  0.00005334  0.00210879
   0.50013643  0.49986357  0.00211848
   0.25022406  0.24994666  0.00210879
   0.24986357  0.75013643  0.00211848
   0.74980663  0.25019337  0.00206524
   0.75005334  0.74977594  0.00210879
   0.00011391  0.25011391  0.06520647
   0.00012110  0.74993317  0.06517718
   0.49993317  0.25012110  0.06517718
   0.50025733  0.75025733  0.06522347
   0.25006683 -0.00012110  0.06517718
   0.24974267  0.49974267  0.06522347
   0.74988609 -0.00011391  0.06520647
   0.74987890  0.50006683  0.06517718
   0.00032552 -0.00032552  0.13133337
   0.00017442  0.50013232  0.13131154
   0.49986768 -0.00017442  0.13131154
   0.50012844  0.49987156  0.13121399
   0.25013232  0.25017442  0.13131154
   0.24987156  0.75012844  0.13121399
   0.74967448  0.25032552  0.13133337
   0.74982558  0.74986768  0.13131154
   0.00014603  0.25014603  0.19690286
   0.00025098  0.74983323  0.19704848
   0.49983323  0.25025098  0.19704848
   0.49981779  0.74981779  0.19688858
   0.25016677 -0.00025098  0.19704848
   0.25018221  0.50018221  0.19688858
   0.74985397 -0.00014603  0.19690286
   0.74974902  0.50016677  0.19704848
  -0.00006749  0.00006749  0.26183658
   0.00028943  0.49979267  0.26178767
   0.50020733 -0.00028943  0.26178767
   0.50017493  0.49982507  0.26213414
   0.24979267  0.25028943  0.26178767
   0.24982507  0.75017493  0.26213414
   0.75006749  0.24993251  0.26183658
   0.74971057  0.75020733  0.26178767
  -0.00012333  0.24987667  0.32642558
  -0.00067845  0.74989866  0.32623880
   0.49989866  0.24932155  0.32623880
   0.50005287  0.75005287  0.32624884
   0.25010134  0.00067845  0.32623880
   0.24994713  0.49994713  0.32624884
   0.75012333  0.00012333  0.32642558
   0.75067845  0.50010134  0.32623880
   0.00024034 -0.00024034  0.39172421
   0.00066343  0.50029393  0.39176646
   0.49970607 -0.00066343  0.39176646
   0.50091535  0.49908465  0.39120239
   0.25029393  0.25066343  0.39176646
   0.24908465  0.75091535  0.39120239
   0.74975966  0.25024034  0.39172421
   0.74933657  0.74970607  0.39176646
  -0.00008233  0.24991767  0.45469281
  -0.00251982  0.75054789  0.45420585
   0.50054789  0.24748018  0.45420585
   0.50671298  0.75671298  0.45287513
   0.24945211  0.00251982  0.45420585
   0.24328702  0.49328702  0.45287513
   0.75008233  0.00008233  0.45469281
   0.75251982  0.49945211  0.45420585
   0.37500000  0.62500000  0.50318794
   0.37500000  0.62500000  0.53182716
Direct configuration=     6
   0.00020931 -0.00020931  0.00224029
  -0.00005768  0.50024268  0.00228746
   0.49975732  0.00005768  0.00228746
   0.50014735  0.49985265  0.00229802
   0.25024268  0.24994232  0.00228746
   0.24985265  0.75014735  0.00229802
   0.74979069  0.25020931  0.00224029
   0.75005768  0.74975732  0.00228746
   0.00012306  0.25012306  0.06518284
   0.00013061  0.74992746  0.06515111
   0.49992746  0.25013061  0.06515111
   0.50027854  0.75027854  0.06520118
   0.25007254 -0.00013061  0.06515111
   0.24972146  0.49972146  0.06520118
   0.74987694 -0.00012306  0.06518284
   0.74986939  0.50007254  0.06515111
   0.00035264 -0.00035264  0.13130769
   0.00018841  0.50014378  0.13128403
   0.49985622 -0.00018841  0.13128403
   0.50013895  0.49986105  0.13117813
   0.25014378  0.25018841  0.13128403
   0.24986105  0.75013895  0.13117813
   0.74964736  0.25035264  0.13130769
   0.74981159  0.74985622  0.13128403
   0.00015827  0.25015827  0.19691282
   0.00027201  0.74981896  0.19707086
   0.49981896  0.25027201  0.19707086
   0.49980159  0.74980159  0.19689751
   0.25018104 -0.00027201  0.19707086
   0.25019841  0.50019841  0.19689751
   0.74984173 -0.00015827  0.19691282
   0.74972799  0.50018104  0.19707086
  -0.00007357  0.00007357  0.26183449
   0.00031367  0.49977507  0.26178144
   0.50022493 -0.00031367  0.26178144
   0.50018923  0.49981077  0.26215728
   0.24977507  0.25031367  0.26178144
   0.24981077  0.75018923  0.26215728
   0.75007357  0.24992643  0.26183449
   0.74968633  0.75022493  0.26178144
  -0.00013371  0.24986629  0.32632876
  -0.00073752  0.74989025  0.32612584
   0.49989025  0.24926248  0.32612584
   0.50005824  0.75005824  0.32613669
   0.25010975  0.00073752  0.32612584
   0.24994176  0.49994176  0.32613669
   0.75013371  0.00013371  0.32632876
   0.75073752  0.50010975  0.32612584
   0.00025897 -0.00025897  0.39171097
   0.00071190  0.50031874  0.39175445
   0.49968126 -0.00071190  0.39175445
   0.50099136  0.49900864  0.39114568
   0.25031874  0.25071190  0.39175445
   0.24900864  0.75099136  0.39114568
   0.74974103  0.25025897  0.39171097
   0.74928810  0.74968126  0.39175445
  -0.00009548  0.24990452  0.45468741
  -0.00273125  0.75059634  0.45415906
   0.50059634  0.24726875  0.45415906
   0.50725713  0.75725713  0.45272117
   0.24940366  0.00273125  0.45415906
   0.24274287  0.49274287  0.45272117
   0.75009548  0.00009548  0.45468741
   0.75273125  0.49940366  0.45415906
   0.37500000  0.62500000  0.50347014
   0.37500000  0.62500000  0.53196955
Direct configuration=     7
   0.00018513 -0.00018513  0.00273425
  -0.00005574  0.50023764  0.00278397
   0.49976236  0.00005574  0.00278397
   0.50009627  0.49990373  0.00280418
   0.25023764  0.24994426  0.00278397
   0.24990373  0.75009627  0.00280418
   0.74981487  0.25018513  0.00273425
   0.75005574  0.74976236  0.00278397
   0.00007217  0.25007217  0.06554273
   0.00006680  0.74992280  0.06551070
   0.49992280  0.25006680  0.06551070
   0.50026007  0.75026007  0.06554403
   0.25007720 -0.00006680  0.06551070
   0.24973993  0.49973993  0.06554403
   0.74992783 -0.00007217  0.06554273
   0.74993320  0.50007720  0.06551070
   0.00034980 -0.00034980  0.13132901
   0.00012671  0.50018149  0.13130964
   0.49981851 -0.00012671  0.13130964
   0.50012106  0.49987894  0.13117102
   0.25018149  0.25012671  0.13130964
   0.24987894  0.75012106  0.13117102
   0.74965020  0.25034980  0.13132901
   0.74987329  0.74981851  0.13130964
   0.00015680  0.25015680  0.19680245
   0.00029867  0.74978320  0.19700076
   0.49978320  0.25029867  0.19700076
   0.49969006  0.74969006  0.19681000
   0.25021680 -0.00029867  0.19700076
   0.25030994  0.50030994  0.19681000
   0.74984320 -0.00015680  0.19680245
   0.74970133  0.50021680  0.19700076
  -0.00013556  0.00013556  0.26159695
   0.00033907  0.49973013  0.26152029
   0.50026987 -0.00033907  0.26152029
   0.50018120  0.49981880  0.26196042
   0.24973013  0.25033907  0.26152029
   0.24981880  0.75018120  0.26196042
   0.75013556  0.24986444  0.26159695
   0.74966093  0.75026987  0.26152029
  -0.00015404  0.24984596  0.32624393
  -0.00097640  0.74994830  0.32597335
   0.49994830  0.24902360  0.32597335
   0.50014100  0.75014100  0.32598727
   0.25005170  0.00097640  0.32597335
   0.24985900  0.49985900  0.32598727
   0.75015404  0.00015404  0.32624393
   0.75097640  0.50005170  0.32597335
   0.00007285 -0.00007285  0.39134082
  -0.00005947  0.50039654  0.39109903
   0.49960346  0.00005947  0.39109903
   0.50088432  0.49911568  0.39088342
   0.25039654  0.24994053  0.39109903
   0.24911568  0.75088432  0.39088342
   0.74992715  0.25007285  0.39134082
   0.75005947  0.74960346  0.39109903
  -0.00092298  0.24907702  0.45460511
  -0.00273402  0.75086159  0.45395372
   0.50086159  0.24726598  0.45395372
   0.50696960  0.75696960  0.45250005
   0.24913841  0.00273402  0.45395372
   0.24303040  0.49303040  0.45250005
   0.75092298  0.00092298  0.45460511
   0.75273402  0.49913841  0.45395372
   0.37500000  0.62500000  0.50498961
   0.37500000  0.62500000  0.53247188
Direct configuration=     8
   0.00016665 -0.00016665  0.00311180
  -0.00005425  0.50023378  0.00316347
   0.49976622  0.00005425  0.00316347
   0.50005723  0.49994277  0.00319107
   0.25023378  0.24994575  0.00316347
   0.24994277  0.75005723  0.00319107
   0.74983335  0.25016665  0.00311180
   0.75005425  0.74976622  0.00316347
   0.00003327  0.25003327  0.06581781
   0.00001803  0.74991923  0.06578554
   0.49991923  0.25001803  0.06578554
   0.50024594  0.75024594  0.06580608
   0.25008077 -0.00001803  0.06578554
   0.24975406  0.49975406  0.06580608
   0.74996673 -0.00003327  0.06581781
   0.74998197  0.50008077  0.06578554
   0.00034762 -0.00034762  0.13134531
   0.00007955  0.50021031  0.13132922
   0.49978969 -0.00007955  0.13132922
   0.50010739  0.49989261  0.13116558
   0.25021031  0.25007955  0.13132922
   0.24989261  0.75010739  0.13116558
   0.74965237  0.25034762  0.13134531
   0.74992045  0.74978969  0.13132922
   0.00015567  0.25015567  0.19671809
   0.00031905  0.74975587  0.19694717
   0.49975587  0.25031905  0.19694717
   0.49960481  0.74960481  0.19674311
   0.25024413 -0.00031905  0.19694717
   0.25039519  0.50039519  0.19674311
   0.74984433 -0.00015567  0.19671809
   0.74968095  0.50024413  0.19694717
  -0.00018294  0.00018294  0.26141539
   0.00035849  0.49969577  0.26132068
   0.50030423 -0.00035849  0.26132068
   0.50017507  0.49982493  0.26180995
   0.24969577  0.25035849  0.26132068
   0.24982493  0.75017507  0.26180995
   0.75018294  0.24981706  0.26141539
   0.74964151  0.75030423  0.26132068
  -0.00016957  0.24983043  0.32617908
  -0.00115898  0.74999267  0.32585679
   0.49999267  0.24884102  0.32585679
   0.50020426  0.75020426  0.32587306
   0.25000733  0.00115898  0.32585679
   0.24979574  0.49979574  0.32587306
   0.75016957  0.00016957  0.32617908
   0.75115898  0.50000733  0.32585679
  -0.00006942  0.00006942  0.39105790
  -0.00064905  0.50045601  0.39059806
   0.49954399  0.00064905  0.39059806
   0.50080251  0.49919749  0.39068297
   0.25045601  0.24935095  0.39059806
   0.24919749  0.75080251  0.39068297
   0.75006942  0.24993058  0.39105790
   0.75064905  0.74954399  0.39059806
  -0.00155546  0.24844454  0.45454220
  -0.00273613  0.75106432  0.45379678
   0.50106432  0.24726387  0.45379678
   0.50674983  0.75674983  0.45233103
   0.24893568  0.00273613  0.45379678
   0.24325017  0.49325017  0.45233103
   0.75155546  0.00155546  0.45454220
   0.75273613  0.49893568  0.45379678
   0.37500000  0.62500000  0.50615100
   0.37500000  0.62500000  0.53285583
Direct configuration=     9
   0.00015430 -0.00015430  0.00328665
  -0.00005280  0.50022517  0.00333796
   0.49977483  0.00005280  0.00333796
   0.50003847  0.49996153  0.00336948
   0.25022517  0.24994720  0.00333796
   0.24996153  0.75003847  0.00336948
   0.74984570  0.25015430  0.00328665
   0.75005280  0.74977483  0.00333796
   0.00001336  0.25001336  0.06598664
  -0.00000745  0.74992195  0.06595359
   0.49992195  0.24999255  0.06595359
   0.50023677  0.75023677  0.06596780
   0.25007805  0.00000745  0.06595359
   0.24976323  0.49976323  0.06596780
   0.74998664 -0.00001336  0.06598664
   0.75000745  0.50007805  0.06595359
   0.00034120 -0.00034120  0.13137602
   0.00005577  0.50021848  0.13136192
   0.49978152 -0.00005577  0.13136192
   0.50009952  0.49990048  0.13118739
   0.25021848  0.25005577  0.13136192
   0.24990048  0.75009952  0.13118739
   0.74965880  0.25034120  0.13137602
   0.74994423  0.74978152  0.13136192
   0.00015124  0.25015124  0.19666353
   0.00032850  0.74974998  0.19690554
   0.49974998  0.25032850  0.19690554
   0.49956751  0.74956751  0.19669813
   0.25025002 -0.00032850  0.19690554
   0.25043249  0.50043249  0.19669813
   0.74984876 -0.00015124  0.19666353
   0.74967150  0.50025002  0.19690554
  -0.00020651  0.00020651  0.26131636
   0.00036218  0.49968258  0.26121366
   0.50031742 -0.00036218  0.26121366
   0.50017152  0.49982848  0.26172135
   0.24968258  0.25036218  0.26121366
   0.24982848  0.75017152  0.26172135
   0.75020651  0.24979349  0.26131636
   0.74963782  0.75031742  0.26121366
  -0.00018336  0.24981664  0.32613570
  -0.00119082  0.75003981  0.32579206
   0.50003981  0.24880918  0.32579206
   0.50022226  0.75022226  0.32581776
   0.24996019  0.00119082  0.32579206
   0.24977774  0.49977774  0.32581776
   0.75018336  0.00018336  0.32613570
   0.75119082  0.49996019  0.32579206
  -0.00013080  0.00013080  0.39090466
  -0.00089695  0.50044626  0.39035556
   0.49955374  0.00089695  0.39035556
   0.50074479  0.49925521  0.39058410
   0.25044626  0.24910305  0.39035556
   0.24925521  0.75074479  0.39058410
   0.75013080  0.24986920  0.39090466
   0.75089695  0.74955374  0.39035556
  -0.00181559  0.24818441  0.45448242
  -0.00268378  0.75113069  0.45370145
   0.50113069  0.24731622  0.45370145
   0.50654942  0.75654942  0.45223768
   0.24886931  0.00268378  0.45370145
   0.24345058  0.49345058  0.45223768
   0.75181559  0.00181559  0.45448242
   0.75268378  0.49886931  0.45370145
   0.37500000  0.62500000  0.50637814
   0.37500000  0.62500000  0.53344204
Direct configuration=    10
   0.00011724 -0.00011724  0.00381118
  -0.00004844  0.50019934  0.00386143
   0.49980065  0.00004844  0.00386143
   0.49998219  0.50001781  0.00390472
   0.25019934  0.24995156  0.00386143
   0.25001781  0.74998219  0.00390472
   0.74988276  0.25011724  0.00381118
   0.75004844  0.74980065  0.00386143
  -0.00004637  0.24995363  0.06649314
  -0.00008389  0.74993010  0.06645775
   0.49993010  0.24991611  0.06645775
   0.50020924  0.75020924  0.06645295
   0.25006990  0.00008389  0.06645775
   0.24979076  0.49979076  0.06645295
   0.75004637  0.00004637  0.06649314
   0.75008389  0.50006990  0.06645775
   0.00032193 -0.00032193  0.13146817
  -0.00001559  0.50024301  0.13146004
   0.49975699  0.00001559  0.13146004
   0.50007590  0.49992410  0.13125281
   0.25024301  0.24998441  0.13146004
   0.24992410  0.75007590  0.13125281
   0.74967807  0.25032193  0.13146817
   0.75001559  0.74975699  0.13146004
   0.00013796  0.25013796  0.19649984
   0.00035685  0.74973232  0.19678063
   0.49973232  0.25035685  0.19678063
   0.49945563  0.74945563  0.19656320
   0.25026768 -0.00035685  0.19678063
   0.25054437  0.50054437  0.19656320
   0.74986204 -0.00013796  0.19649984
   0.74964315  0.50026768  0.19678063
  -0.00027723  0.00027723  0.26101925
   0.00037326  0.49964301  0.26089262
   0.50035699 -0.00037326  0.26089262
   0.50016089  0.49983911  0.26145553
   0.24964301  0.25037326  0.26089262
   0.24983911  0.75016089  0.26145553
   0.75027723  0.24972277  0.26101925
   0.74962674  0.75035699  0.26089262
  -0.00022475  0.24977525  0.32600556
  -0.00128635  0.75018122  0.32559788
   0.50018122  0.24871365  0.32559788
   0.50027626  0.75027626  0.32565187
   0.24981878  0.00128635  0.32559788
   0.24972374  0.49972374  0.32565187
   0.75022475  0.00022475  0.32600556
   0.75128635  0.49981878  0.32559788
  -0.00031495  0.00031495  0.39044495
  -0.00164067  0.50041702  0.38962805
   0.49958298  0.00164067  0.38962805
   0.50057162  0.49942838  0.39028750
   0.25041702  0.24835933  0.38962805
   0.24942838  0.75057162  0.39028750
   0.75031495  0.24968505  0.39044495
   0.75164067  0.74958298  0.38962805
  -0.00259597  0.24740403  0.45430309
  -0.00252674  0.75132978  0.45341549
   0.50132978  0.24747326  0.45341549
   0.50594818  0.75594818  0.45195763
   0.24867022  0.00252674  0.45341549
   0.24405182  0.49405182  0.45195763
   0.75259597  0.00259597  0.45430309
   0.75252674  0.49867022  0.45341549
   0.37500000  0.62500000  0.50705958
   0.37500000  0.62500000  0.53520069
Direct configuration=    11
   0.00004314 -0.00004314  0.00486024
  -0.00003972  0.50014770  0.00490837
   0.49985230  0.00003972  0.00490837
   0.49986963  0.50013037  0.00497519
   0.25014770  0.24996028  0.00490837
   0.25013037  0.74986963  0.00497519
   0.74995686  0.25004314  0.00486024
   0.75003972  0.74985230  0.00490837
  -0.00016585  0.24983415  0.06750612
  -0.00023679  0.74994640  0.06746606
   0.49994640  0.24976321  0.06746606
   0.50015417  0.75015417  0.06742326
   0.25005360  0.00023679  0.06746606
   0.24984583  0.49984583  0.06742326
   0.75016585  0.00016585  0.06750612
   0.75023679  0.50005360  0.06746606
   0.00028338 -0.00028338  0.13165246
  -0.00015830  0.50029207  0.13165626
   0.49970793  0.00015830  0.13165626
   0.50002865  0.49997135  0.13138366
   0.25029207  0.24984170  0.13165626
   0.24997135  0.75002865  0.13138366
   0.74971662  0.25028338  0.13165246
   0.75015830  0.74970793  0.13165626
   0.00011139  0.25011139  0.19617245
   0.00041354  0.74969700  0.19653082
   0.49969700  0.25041354  0.19653082
   0.49923185  0.74923185  0.19629334
   0.25030300 -0.00041354  0.19653082
   0.25076815  0.50076815  0.19629334
   0.74988861 -0.00011139  0.19617245
   0.74958646  0.50030300  0.19653082
  -0.00041867  0.00041867  0.26042504
   0.00039542  0.49956387  0.26025053
   0.50043613 -0.00039542  0.26025053
   0.50013961  0.49986039  0.26092389
   0.24956387  0.25039542  0.26025053
   0.24986039  0.75013961  0.26092389
   0.75041867  0.24958133  0.26042504
   0.74960458  0.75043613  0.26025053
  -0.00030752  0.24969248  0.32574527
  -0.00147739  0.75046405  0.32520951
   0.50046405  0.24852261  0.32520951
   0.50038426  0.75038426  0.32532009
   0.24953595  0.00147739  0.32520951
   0.24961574  0.49961574  0.32532009
   0.75030752  0.00030752  0.32574527
   0.75147739  0.49953595  0.32520951
  -0.00068326  0.00068326  0.38952553
  -0.00312810  0.50035854  0.38817302
   0.49964146  0.00312810  0.38817302
   0.50022530  0.49977470  0.38969428
   0.25035854  0.24687190  0.38817302
   0.24977470  0.75022530  0.38969428
   0.75068326  0.24931674  0.38952553
   0.75312810  0.74964146  0.38817302
  -0.00415673  0.24584327  0.45394443
  -0.00221266  0.75172797  0.45284356
   0.50172797  0.24778734  0.45284356
   0.50474569  0.75474569  0.45139753
   0.24827203  0.00221266  0.45284356
   0.24525431  0.49525431  0.45139753
   0.75415673  0.00415673  0.45394443
   0.75221266  0.49827203  0.45284356
   0.37500000  0.62500000  0.50842245
   0.37500000  0.62500000  0.53871799
Direct configuration=    12
   0.00008381 -0.00008381  0.00428445
  -0.00004451  0.50017604  0.00433374
   0.49982396  0.00004451  0.00433374
   0.49993141  0.50006859  0.00438764
   0.25017604  0.24995549  0.00433374
   0.25006859  0.74993141  0.00438764
   0.74991619  0.25008381  0.00428445
   0.75004451  0.74982396  0.00433374
  -0.00010027  0.24989973  0.06695013
  -0.00015287  0.74993745  0.06691263
   0.49993745  0.24984713  0.06691263
   0.50018439  0.75018439  0.06689069
   0.25006255  0.00015287  0.06691263
   0.24981561  0.49981561  0.06689069
   0.75010027  0.00010027  0.06695013
   0.75015287  0.50006255  0.06691263
   0.00030453 -0.00030453  0.13155131
  -0.00007997  0.50026514  0.13154856
   0.49973486  0.00007997  0.13154856
   0.50005458  0.49994542  0.13131184
   0.25026514  0.24992003  0.13154856
   0.24994542  0.75005458  0.13131184
   0.74969547  0.25030453  0.13155131
   0.75007997  0.74973486  0.13154856
   0.00012597  0.25012597  0.19635214
   0.00038242  0.74971638  0.19666793
   0.49971638  0.25038242  0.19666793
   0.49935467  0.74935467  0.19644146
   0.25028362 -0.00038242  0.19666793
   0.25064533  0.50064533  0.19644146
   0.74987403 -0.00012597  0.19635214
   0.74961758  0.50028362  0.19666793
  -0.00034104  0.00034104  0.26075118
   0.00038326  0.49960731  0.26060295
   0.50039269 -0.00038326  0.26060295
   0.50015129  0.49984871  0.26121569
   0.24960731  0.25038326  0.26060295
   0.24984871  0.75015129  0.26121569
   0.75034104  0.24965896  0.26075118
   0.74961674  0.75039269  0.26060295
  -0.00026209  0.24973791  0.32588813
  -0.00137253  0.75030882  0.32542267
   0.50030882  0.24862747  0.32542267
   0.50032498  0.75032498  0.32550219
   0.24969118  0.00137253  0.32542267
   0.24967502  0.49967502  0.32550219
   0.75026209  0.00026209  0.32588813
   0.75137253  0.49969118  0.32542267
  -0.00048111  0.00048111  0.39003017