   5   5   0   0
  0.2668373E+02  0.2566798E-09  0.2566798E-09  0.2338313E-08  0.5000000E-15
  1.000000000000000E-004
  CAR 
 unknown system                          
     11.38221612    -10.05960123  301      0.04634141      1.00000000
    -10.060  0.0000E+00  0.0000E+00  0.0000E+00  0.0000E+00
     -9.988  0.0000E+00  0.0000E+00  0.0000E+00  0.0000E+00
     -9.917  0.0000E+00  0.0000E+00  0.0000E+00  0.0000E+00
     -9.845  0.0000E+00  0.0000E+00  0.0000E+00  0.0000E+00
     -9.774  0.0000E+00  0.0000E+00  0.0000E+00  0.0000E+00
     -9.702 -0.2278E-31 -0.2251E-31 -0.1628E-32 -0.1609E-32
     -9.631 -0.6771E-29 -0.6695E-29 -0.4856E-30 -0.4801E-30
     -9.559 -0.1560E-26 -0.1543E-26 -0.1120E-27 -0.1108E-27
     -9.488 -0.2775E-24 -0.2747E-24 -0.1995E-25 -0.1975E-25
     -9.416 -0.3815E-22 -0.3778E-22 -0.2746E-23 -0.2720E-23
     -9.345 -0.4048E-20 -0.4011E-20 -0.2921E-21 -0.2894E-21
     -9.273 -0.3315E-18 -0.3286E-18 -0.2398E-19 -0.2378E-19
     -9.202 -0.2029E-16 -0.2012E-16 -0.1474E-17 -0.1462E-17
     -9.130 -0.9840E-15 -0.9766E-15 -0.7180E-16 -0.7126E-16
     -9.059 -0.3669E-13 -0.3643E-13 -0.2694E-14 -0.2675E-14
     -8.988 -0.1051E-11 -0.1044E-11 -0.7780E-13 -0.7729E-13
     -8.916 -0.2308E-10 -0.2294E-10 -0.1727E-11 -0.1717E-11
     -8.845 -0.3875E-09 -0.3854E-09 -0.2942E-10 -0.2926E-10
     -8.773 -0.4957E-08 -0.4933E-08 -0.3837E-09 -0.3819E-09
     -8.702 -0.4807E-07 -0.4786E-07 -0.3819E-08 -0.3803E-08
     -8.630 -0.3503E-06 -0.3490E-06 -0.2886E-07 -0.2875E-07
     -8.559 -0.1893E-05 -0.1888E-05 -0.1642E-06 -0.1637E-06
     -8.487 -0.7403E-05 -0.7385E-05 -0.6933E-06 -0.6915E-06
     -8.416 -0.1981E-04 -0.1978E-04 -0.2109E-05 -0.2105E-05
     -8.344 -0.3052E-04 -0.3052E-04 -0.4290E-05 -0.4286E-05
     -8.273  0.4011E-06  0.2542E-06 -0.4262E-05 -0.4268E-05
     -8.201  0.1319E-03  0.1315E-03  0.5164E-05  0.5130E-05
     -8.130  0.3594E-03  0.3590E-03  0.3085E-04  0.3079E-04
     -8.058  0.5501E-03  0.5499E-03  0.7017E-04  0.7009E-04
     -7.987  0.5461E-03  0.5464E-03  0.1092E-03  0.1091E-03
     -7.915  0.3511E-03  0.3516E-03  0.1343E-03  0.1343E-03
     -7.844  0.1253E-03  0.1257E-03  0.1433E-03  0.1433E-03
     -7.772 -0.2062E-05 -0.1922E-05  0.1431E-03  0.1431E-03
     -7.701 -0.3053E-04 -0.3053E-04  0.1409E-03  0.1409E-03
     -7.630 -0.1951E-04 -0.1954E-04  0.1395E-03  0.1395E-03
     -7.558 -0.8391E-05 -0.8403E-05  0.1389E-03  0.1389E-03
     -7.487 -0.7264E-05 -0.7253E-05  0.1384E-03  0.1384E-03
     -7.415 -0.1653E-04 -0.1650E-04  0.1372E-03  0.1372E-03
     -7.344 -0.2961E-04 -0.2959E-04  0.1351E-03  0.1351E-03
     -7.272 -0.1447E-04 -0.1459E-04  0.1341E-03  0.1341E-03
     -7.201  0.8842E-04  0.8802E-04  0.1404E-03  0.1404E-03
     -7.129  0.2999E-03  0.2993E-03  0.1618E-03  0.1618E-03
     -7.058  0.5168E-03  0.5164E-03  0.1988E-03  0.1987E-03
     -6.986  0.5686E-03  0.5688E-03  0.2394E-03  0.2393E-03
     -6.915  0.4091E-03  0.4096E-03  0.2687E-03  0.2686E-03
     -6.843  0.1745E-03  0.1750E-03  0.2811E-03  0.2811E-03
     -6.772  0.1823E-04  0.1847E-04  0.2824E-03  0.2824E-03
     -6.700 -0.2949E-04 -0.2946E-04  0.2803E-03  0.2803E-03
     -6.629 -0.2298E-04 -0.2301E-04  0.2787E-03  0.2787E-03
     -6.557 -0.9431E-05 -0.9457E-05  0.2780E-03  0.2780E-03
     -6.486 -0.2597E-05 -0.2606E-05  0.2778E-03  0.2778E-03
     -6.414 -0.5143E-06 -0.5165E-06  0.2778E-03  0.2778E-03
     -6.343 -0.8872E-07 -0.8900E-07  0.2778E-03  0.2778E-03
     -6.272 -0.1268E-06 -0.1261E-06  0.2778E-03  0.2778E-03
     -6.200 -0.7611E-06 -0.7569E-06  0.2777E-03  0.2777E-03
     -6.129 -0.3582E-05 -0.3567E-05  0.2775E-03  0.2775E-03
     -6.057 -0.1199E-04 -0.1195E-04  0.2766E-03  0.2766E-03
     -5.986 -0.2616E-04 -0.2612E-04  0.2747E-03  0.2747E-03
     -5.914 -0.2577E-04 -0.2584E-04  0.2729E-03  0.2729E-03
     -5.843  0.4302E-04  0.4263E-04  0.2760E-03  0.2759E-03
     -5.771  0.2245E-03  0.2238E-03  0.2920E-03  0.2919E-03
     -5.700  0.4583E-03  0.4576E-03  0.3248E-03  0.3246E-03
     -5.628  0.5764E-03  0.5764E-03  0.3660E-03  0.3658E-03
     -5.557  0.4722E-03  0.4728E-03  0.3997E-03  0.3996E-03
     -5.485  0.2242E-03  0.2250E-03  0.4157E-03  0.4157E-03
     -5.414 -0.1749E-04 -0.1692E-04  0.4145E-03  0.4145E-03
     -5.342 -0.1807E-03 -0.1805E-03  0.4016E-03  0.4016E-03
     -5.271 -0.1811E-03 -0.1814E-03  0.3886E-03  0.3886E-03
     -5.199  0.2492E-03  0.2478E-03  0.4064E-03  0.4063E-03
     -5.128  0.1351E-02  0.1348E-02  0.5030E-03  0.5027E-03
     -5.057  0.2756E-02  0.2754E-02  0.7000E-03  0.6995E-03
     -4.985  0.3463E-02  0.3462E-02  0.9475E-03  0.9470E-03
     -4.914  0.2850E-02  0.2852E-02  0.1151E-02  0.1151E-02
     -4.842  0.1447E-02  0.1450E-02  0.1255E-02  0.1254E-02
     -4.771  0.2545E-03  0.2562E-03  0.1273E-02  0.1273E-02
     -4.699 -0.3062E-03 -0.3057E-03  0.1251E-02  0.1251E-02
     -4.628 -0.3627E-03 -0.3630E-03  0.1225E-02  0.1225E-02
     -4.556  0.8847E-04  0.8683E-04  0.1231E-02  0.1231E-02
     -4.485  0.1269E-02  0.1266E-02  0.1322E-02  0.1322E-02
     -4.413  0.2914E-02  0.2911E-02  0.1530E-02  0.1530E-02
     -4.342  0.3957E-02  0.3957E-02  0.1813E-02  0.1813E-02
     -4.270  0.3530E-02  0.3533E-02  0.2065E-02  0.2065E-02
     -4.199  0.2072E-02  0.2075E-02  0.2214E-02  0.2213E-02
     -4.127  0.7885E-03  0.7903E-03  0.2270E-02  0.2270E-02
     -4.056  0.2599E-03  0.2603E-03  0.2288E-02  0.2288E-02
     -3.984  0.1903E-03  0.1903E-03  0.2302E-02  0.2302E-02
     -3.913  0.3193E-03  0.3188E-03  0.2325E-02  0.2325E-02
     -3.841  0.9088E-03  0.9070E-03  0.2390E-02  0.2390E-02
     -3.770  0.2107E-02  0.2105E-02  0.2540E-02  0.2540E-02
     -3.699  0.3222E-02  0.3221E-02  0.2771E-02  0.2770E-02
     -3.627  0.3228E-02  0.3229E-02  0.3001E-02  0.3001E-02
     -3.556  0.1992E-02  0.1995E-02  0.3144E-02  0.3144E-02
     -3.484  0.4551E-03  0.4575E-03  0.3176E-02  0.3176E-02
     -3.413 -0.2783E-03 -0.2780E-03  0.3156E-02  0.3156E-02
     -3.341  0.4833E-03  0.4808E-03  0.3191E-02  0.3191E-02
     -3.270  0.2826E-02  0.2822E-02  0.3393E-02  0.3393E-02
     -3.198  0.5821E-02  0.5818E-02  0.3809E-02  0.3808E-02
     -3.127  0.7862E-02  0.7860E-02  0.4371E-02  0.4370E-02
     -3.055  0.8245E-02  0.8246E-02  0.4960E-02  0.4960E-02
     -2.984  0.7843E-02  0.7844E-02  0.5521E-02  0.5520E-02
     -2.912  0.7593E-02  0.7594E-02  0.6064E-02  0.6063E-02
     -2.841  0.7193E-02  0.7194E-02  0.6578E-02  0.6577E-02
     -2.769  0.6085E-02  0.6086E-02  0.7013E-02  0.7012E-02
     -2.698  0.4899E-02  0.4899E-02  0.7363E-02  0.7362E-02
     -2.626  0.4772E-02  0.4771E-02  0.7704E-02  0.7703E-02
     -2.555  0.5623E-02  0.5621E-02  0.8106E-02  0.8105E-02
     -2.483  0.6237E-02  0.6236E-02  0.8551E-02  0.8551E-02
     -2.412  0.6002E-02  0.6003E-02  0.8980E-02  0.8980E-02
     -2.341  0.5501E-02  0.5502E-02  0.9374E-02  0.9373E-02
     -2.269  0.5498E-02  0.5498E-02  0.9766E-02  0.9766E-02
     -2.198  0.6354E-02  0.6353E-02  0.1022E-01  0.1022E-01
     -2.126  0.8176E-02  0.8174E-02  0.1080E-01  0.1080E-01
     -2.055  0.1056E-01  0.1056E-01  0.1156E-01  0.1156E-01
     -1.983  0.1244E-01  0.1244E-01  0.1245E-01  0.1245E-01
     -1.912  0.1276E-01  0.1276E-01  0.1336E-01  0.1336E-01
     -1.840  0.1132E-01  0.1132E-01  0.1417E-01  0.1417E-01
     -1.769  0.8891E-02  0.8893E-02  0.1481E-01  0.1480E-01
     -1.697  0.6758E-02  0.6759E-02  0.1529E-01  0.1529E-01
     -1.626  0.5808E-02  0.5808E-02  0.1570E-01  0.1570E-01
     -1.554  0.6126E-02  0.6125E-02  0.1614E-01  0.1614E-01
     -1.483  0.7617E-02  0.7613E-02  0.1669E-01  0.1668E-01
     -1.411  0.1017E-01  0.1017E-01  0.1741E-01  0.1741E-01
     -1.340  0.1280E-01  0.1280E-01  0.1833E-01  0.1833E-01
     -1.268  0.1399E-01  0.1399E-01  0.1933E-01  0.1933E-01
     -1.197  0.1365E-01  0.1365E-01  0.2030E-01  0.2030E-01
     -1.126  0.1340E-01  0.1340E-01  0.2126E-01  0.2126E-01
     -1.054  0.1427E-01  0.1427E-01  0.2228E-01  0.2228E-01
     -0.983  0.1537E-01  0.1537E-01  0.2338E-01  0.2338E-01
     -0.911  0.1537E-01  0.1537E-01  0.2448E-01  0.2448E-01
     -0.840  0.1432E-01  0.1432E-01  0.2550E-01  0.2550E-01
     -0.768  0.1321E-01  0.1321E-01  0.2645E-01  0.2644E-01
     -0.697  0.1236E-01  0.1236E-01  0.2733E-01  0.2733E-01
     -0.625  0.1134E-01  0.1134E-01  0.2814E-01  0.2814E-01
     -0.554  0.1035E-01  0.1035E-01  0.2888E-01  0.2888E-01
     -0.482  0.1020E-01  0.1020E-01  0.2961E-01  0.2961E-01
     -0.411  0.1059E-01  0.1059E-01  0.3037E-01  0.3036E-01
     -0.339  0.1033E-01  0.1033E-01  0.3110E-01  0.3110E-01
     -0.268  0.9566E-02  0.9564E-02  0.3179E-01  0.3179E-01
     -0.196  0.9591E-02  0.9585E-02  0.3247E-01  0.3247E-01
     -0.125  0.1009E-01  0.1008E-01  0.3319E-01  0.3319E-01
     -0.053  0.9092E-02  0.9094E-02  0.3384E-01  0.3384E-01
      0.018  0.6044E-02  0.6051E-02  0.3428E-01  0.3427E-01
      0.090  0.2628E-02  0.2636E-02  0.3446E-01  0.3446E-01
      0.161  0.4932E-03  0.4987E-03  0.3450E-01  0.3450E-01
      0.232 -0.2401E-03 -0.2373E-03  0.3448E-01  0.3448E-01
      0.304 -0.2784E-03 -0.2775E-03  0.3446E-01  0.3446E-01
      0.375 -0.1671E-03 -0.1670E-03  0.3445E-01  0.3445E-01
      0.447 -0.9117E-04 -0.9132E-04  0.3444E-01  0.3444E-01
      0.518 -0.4338E-04 -0.4386E-04  0.3444E-01  0.3444E-01
      0.590  0.5262E-04  0.5121E-04  0.3444E-01  0.3444E-01
      0.661  0.2501E-03  0.2478E-03  0.3446E-01  0.3446E-01
      0.733  0.4809E-03  0.4791E-03  0.3450E-01  0.3450E-01
      0.804  0.5762E-03  0.5764E-03  0.3454E-01  0.3454E-01
      0.876  0.4497E-03  0.4518E-03  0.3457E-01  0.3457E-01
      0.947  0.2004E-03  0.2028E-03  0.3458E-01  0.3458E-01
      1.019 -0.2506E-04 -0.2358E-04  0.3458E-01  0.3458E-01
      1.090 -0.1756E-03 -0.1751E-03  0.3457E-01  0.3457E-01
      1.162 -0.1920E-03 -0.1925E-03  0.3456E-01  0.3456E-01
      1.233  0.1804E-03  0.1775E-03  0.3457E-01  0.3457E-01
      1.305  0.1216E-02  0.1211E-02  0.3466E-01  0.3465E-01
      1.376  0.2631E-02  0.2625E-02  0.3484E-01  0.3484E-01
      1.448  0.3450E-02  0.3450E-02  0.3509E-01  0.3509E-01
      1.519  0.2966E-02  0.2970E-02  0.3530E-01  0.3530E-01
      1.590  0.1608E-02  0.1614E-02  0.3542E-01  0.3542E-01
      1.662  0.4079E-03  0.4116E-03  0.3545E-01  0.3545E-01
      1.733 -0.1210E-03 -0.1200E-03  0.3544E-01  0.3544E-01
      1.805 -0.1702E-03 -0.1705E-03  0.3543E-01  0.3543E-01
      1.876 -0.8620E-04 -0.8654E-04  0.3542E-01  0.3542E-01
      1.948 -0.2763E-04 -0.2778E-04  0.3542E-01  0.3542E-01
      2.019 -0.6226E-05 -0.6269E-05  0.3542E-01  0.3542E-01
      2.091 -0.1027E-05 -0.1035E-05  0.3542E-01  0.3542E-01
      2.162 -0.1263E-06 -0.1275E-06  0.3542E-01  0.3542E-01
      2.234 -0.1172E-07 -0.1185E-07  0.3542E-01  0.3542E-01
      2.305 -0.8263E-09 -0.8360E-09  0.3542E-01  0.3542E-01
      2.377 -0.4444E-10 -0.4502E-10  0.3542E-01  0.3542E-01
      2.448 -0.1853E-11 -0.1879E-11  0.3542E-01  0.3542E-01
      2.520 -0.8487E-12 -0.8329E-12  0.3542E-01  0.3542E-01
      2.591 -0.2053E-10 -0.2013E-10  0.3542E-01  0.3542E-01
      2.663 -0.4080E-09 -0.4008E-09  0.3542E-01  0.3542E-01
      2.734 -0.6196E-08 -0.6096E-08  0.3542E-01  0.3542E-01
      2.805 -0.7155E-07 -0.7052E-07  0.3542E-01  0.3542E-01
      2.877 -0.6246E-06 -0.6167E-06  0.3542E-01  0.3542E-01
      2.948 -0.4081E-05 -0.4037E-05  0.3542E-01  0.3542E-01
      3.020 -0.1963E-04 -0.1946E-04  0.3541E-01  0.3541E-01
      3.091 -0.6728E-04 -0.6684E-04  0.3541E-01  0.3541E-01
      3.163 -0.1517E-03 -0.1512E-03  0.3540E-01  0.3540E-01
      3.234 -0.1629E-03 -0.1637E-03  0.3539E-01  0.3539E-01
      3.306  0.2116E-03  0.2073E-03  0.3540E-01  0.3540E-01
      3.377  0.1258E-02  0.1250E-02  0.3549E-01  0.3549E-01
      3.449  0.2668E-02  0.2660E-02  0.3568E-01  0.3568E-01
      3.520  0.3456E-02  0.3455E-02  0.3593E-01  0.3593E-01
      3.592  0.2934E-02  0.2941E-02  0.3614E-01  0.3614E-01
      3.663  0.1567E-02  0.1576E-02  0.3625E-01  0.3625E-01
      3.735  0.3813E-03  0.3867E-03  0.3628E-01  0.3628E-01
      3.806 -0.1365E-03 -0.1351E-03  0.3627E-01  0.3627E-01
      3.878 -0.2026E-03 -0.2030E-03  0.3626E-01  0.3626E-01
      3.949 -0.1696E-03 -0.1700E-03  0.3624E-01  0.3624E-01
      4.021 -0.1449E-03 -0.1451E-03  0.3623E-01  0.3623E-01
      4.092  0.3040E-04  0.2983E-04  0.3623E-01  0.3623E-01
      4.163  0.5887E-03  0.5876E-03  0.3628E-01  0.3628E-01
      4.235  0.1472E-02  0.1471E-02  0.3638E-01  0.3638E-01
      4.306  0.2175E-02  0.2175E-02  0.3654E-01  0.3654E-01
      4.378  0.2238E-02  0.2242E-02  0.3670E-01  0.3670E-01
      4.449  0.1814E-02  0.1819E-02  0.3683E-01  0.3683E-01
      4.521  0.1379E-02  0.1376E-02  0.3693E-01  0.3693E-01
      4.592  0.1104E-02  0.1074E-02  0.3700E-01  0.3700E-01
      4.664  0.9163E-03  0.8508E-03  0.3707E-01  0.3706E-01
      4.735  0.8881E-03  0.8181E-03  0.3713E-01  0.3712E-01
      4.807  0.1107E-02  0.1090E-02  0.3721E-01  0.3720E-01
      4.878  0.1368E-02  0.1420E-02  0.3731E-01  0.3730E-01
      4.950  0.1338E-02  0.1407E-02  0.3741E-01  0.3740E-01
      5.021  0.9793E-03  0.9939E-03  0.3748E-01  0.3747E-01
      5.093  0.5681E-03  0.5160E-03  0.3752E-01  0.3751E-01
      5.164  0.3140E-03  0.2518E-03  0.3754E-01  0.3753E-01
      5.236  0.2582E-03  0.2501E-03  0.3756E-01  0.3755E-01
      5.307  0.6575E-03  0.7060E-03  0.3760E-01  0.3760E-01
      5.379  0.1968E-02  0.2023E-02  0.3775E-01  0.3774E-01
      5.450  0.3969E-02  0.3997E-02  0.3803E-01  0.3803E-01
      5.521  0.5347E-02  0.5357E-02  0.3841E-01  0.3841E-01
      5.593  0.4927E-02  0.4931E-02  0.3876E-01  0.3876E-01
      5.664  0.3098E-02  0.3083E-02  0.3898E-01  0.3898E-01
      5.736  0.1319E-02  0.1273E-02  0.3908E-01  0.3907E-01
      5.807  0.4748E-03  0.4245E-03  0.3911E-01  0.3910E-01
      5.879  0.3211E-03  0.3137E-03  0.3914E-01  0.3913E-01
      5.950  0.2663E-03  0.3110E-03  0.3915E-01  0.3915E-01
      6.022  0.8457E-04  0.1431E-03  0.3916E-01  0.3916E-01
      6.093 -0.8856E-04 -0.5327E-04  0.3915E-01  0.3915E-01
      6.165 -0.3689E-05  0.4350E-05  0.3915E-01  0.3915E-01
      6.236  0.5431E-03  0.5386E-03  0.3919E-01  0.3919E-01
      6.308  0.1461E-02  0.1455E-02  0.3930E-01  0.3930E-01
      6.379  0.2193E-02  0.2190E-02  0.3945E-01  0.3945E-01
      6.451  0.2143E-02  0.2144E-02  0.3961E-01  0.3961E-01
      6.522  0.1362E-02  0.1364E-02  0.3970E-01  0.3970E-01
      6.594  0.4790E-03  0.4808E-03  0.3974E-01  0.3974E-01
      6.665 -0.2122E-04 -0.2051E-04  0.3974E-01  0.3974E-01
      6.736 -0.1529E-03 -0.1527E-03  0.3973E-01  0.3973E-01
      6.808 -0.1369E-03 -0.1366E-03  0.3972E-01  0.3972E-01
      6.879 -0.5798E-04 -0.5726E-04  0.3971E-01  0.3971E-01
      6.951  0.1672E-03  0.1684E-03  0.3972E-01  0.3972E-01
      7.022  0.5775E-03  0.5783E-03  0.3977E-01  0.3977E-01
      7.094  0.9769E-03  0.9734E-03  0.3984E-01  0.3984E-01
      7.165  0.1086E-02  0.1072E-02  0.3991E-01  0.3991E-01
      7.237  0.9599E-03  0.9243E-03  0.3998E-01  0.3998E-01
      7.308  0.1102E-02  0.1027E-02  0.4006E-01  0.4005E-01
      7.380  0.1971E-02  0.1843E-02  0.4020E-01  0.4018E-01
      7.451  0.3275E-02  0.3135E-02  0.4044E-01  0.4041E-01
      7.523  0.3997E-02  0.3943E-02  0.4072E-01  0.4069E-01
      7.594  0.3466E-02  0.3561E-02  0.4097E-01  0.4094E-01
      7.666  0.2205E-02  0.2386E-02  0.4113E-01  0.4111E-01
      7.737  0.1231E-02  0.1374E-02  0.4121E-01  0.4121E-01
      7.809  0.9931E-03  0.1016E-02  0.4129E-01  0.4129E-01
      7.880  0.1441E-02  0.1339E-02  0.4139E-01  0.4138E-01
      7.952  0.2405E-02  0.2246E-02  0.4156E-01  0.4154E-01
      8.023  0.3304E-02  0.3212E-02  0.4180E-01  0.4177E-01
      8.094  0.3274E-02  0.3329E-02  0.4203E-01  0.4201E-01
      8.166  0.2151E-02  0.2305E-02  0.4218E-01  0.4217E-01
      8.237  0.7277E-03  0.8754E-03  0.4224E-01  0.4224E-01
      8.309 -0.1921E-03 -0.1143E-03  0.4222E-01  0.4223E-01
      8.380 -0.3800E-03 -0.4065E-03  0.4220E-01  0.4220E-01
      8.452  0.1931E-03 -0.2025E-05  0.4221E-01  0.4220E-01
      8.523  0.1601E-02  0.1197E-02  0.4232E-01  0.4228E-01
      8.595  0.3608E-02  0.3084E-02  0.4258E-01  0.4250E-01
      8.666  0.5472E-02  0.5050E-02  0.4297E-01  0.4287E-01
      8.738  0.6308E-02  0.6221E-02  0.4342E-01  0.4331E-01
      8.809  0.5606E-02  0.5937E-02  0.4382E-01  0.4373E-01
      8.881  0.3658E-02  0.4231E-02  0.4409E-01  0.4404E-01
      8.952  0.1493E-02  0.1989E-02  0.4419E-01  0.4418E-01
      9.024  0.5647E-04  0.2983E-03  0.4420E-01  0.4420E-01
      9.095 -0.4413E-03 -0.4085E-03  0.4417E-01  0.4417E-01
      9.167 -0.1835E-03 -0.2622E-03  0.4415E-01  0.4415E-01
      9.238  0.7760E-03  0.6301E-03  0.4421E-01  0.4420E-01
      9.310  0.2227E-02  0.2068E-02  0.4437E-01  0.4435E-01
      9.381  0.3337E-02  0.3268E-02  0.4461E-01  0.4458E-01
      9.452  0.3224E-02  0.3299E-02  0.4484E-01  0.4481E-01
      9.524  0.2007E-02  0.2156E-02  0.4498E-01  0.4497E-01
      9.595  0.6764E-03  0.7912E-03  0.4503E-01  0.4503E-01
      9.667 -0.3950E-04  0.2405E-05  0.4502E-01  0.4503E-01
      9.738 -0.1821E-03 -0.1831E-03  0.4501E-01  0.4501E-01
      9.810 -0.1096E-03 -0.1189E-03  0.4500E-01  0.4500E-01
      9.881 -0.3921E-04 -0.4442E-04  0.4500E-01  0.4500E-01
      9.953 -0.9681E-05 -0.1136E-04  0.4500E-01  0.4500E-01
     10.024 -0.1735E-05 -0.2102E-05  0.4500E-01  0.4500E-01
     10.096 -0.2310E-06 -0.2884E-06  0.4500E-01  0.4500E-01
     10.167 -0.2315E-07 -0.2974E-07  0.4500E-01  0.4500E-01
     10.239 -0.1759E-08 -0.2325E-08  0.4500E-01  0.4500E-01
     10.310 -0.1019E-09 -0.1385E-09  0.4500E-01  0.4500E-01
     10.382 -0.4512E-11 -0.6305E-11  0.4500E-01  0.4500E-01
     10.453 -0.1533E-12 -0.2201E-12  0.4500E-01  0.4500E-01
     10.525 -0.4002E-14 -0.5903E-14  0.4500E-01  0.4500E-01
     10.596 -0.8026E-16 -0.1217E-15  0.4500E-01  0.4500E-01
     10.667  0.0000E+00 -0.2589E-17  0.4500E-01  0.4500E-01
     10.739  0.0000E+00  0.0000E+00  0.4500E-01  0.4500E-01
     10.810  0.0000E+00  0.0000E+00  0.4500E-01  0.4500E-01
     10.882  0.0000E+00  0.0000E+00  0.4500E-01  0.4500E-01
     10.953  0.0000E+00  0.0000E+00  0.4500E-01  0.4500E-01
     11.025  0.0000E+00  0.0000E+00  0.4500E-01  0.4500E-01
     11.096  0.0000E+00  0.0000E+00  0.4500E-01  0.4500E-01
     11.168  0.0000E+00  0.0000E+00  0.4500E-01  0.4500E-01
     11.239  0.0000E+00  0.0000E+00  0.4500E-01  0.4500E-01
     11.311  0.0000E+00  0.0000E+00  0.4500E-01  0.4500E-01
     11.382  0.0000E+00  0.0000E+00  0.4500E-01  0.4500E-01
