    5    5  800    2
  0.2668373E+02  0.2566798E-09  0.2566798E-09  0.2338313E-08  0.5000000E-15
  1.000000000000000E-004
  CAR 
 unknown system                          
     55      3     36
 
  0.0000000E+00  0.0000000E+00  0.0000000E+00  0.1111111E+00
      1         -8.059601       -8.059457   1.000000   1.000000
      2         -7.041428       -7.041251   1.000000   1.000000
      3         -5.660751       -5.660523   1.000000   1.000000
      4         -4.384125       -4.383908   1.000000   1.000000
      5         -4.026968       -4.026827   1.000000   1.000000
      6         -2.210744       -2.210656   1.000000   1.000000
      7         -2.037143       -2.037101   1.000000   1.000000
      8         -2.037139       -2.037097   1.000000   1.000000
      9         -2.015003       -2.014896   1.000000   1.000000
     10         -1.989961       -1.989906   1.000000   1.000000
     11         -1.989959       -1.989904   1.000000   1.000000
     12         -1.849194       -1.849135   1.000000   1.000000
     13         -1.849190       -1.849131   1.000000   1.000000
     14         -1.653467       -1.653314   1.000000   1.000000
     15         -1.401765       -1.401694   1.000000   1.000000
     16         -1.401764       -1.401693   1.000000   1.000000
     17         -1.362668       -1.362412   1.000000   1.000000
     18         -1.309052       -1.308934   1.000000   1.000000
     19         -1.309051       -1.308934   1.000000   1.000000
     20         -1.104809       -1.104709   1.000000   1.000000
     21         -1.104808       -1.104708   1.000000   1.000000
     22         -0.909419       -0.909310   1.000000   1.000000
     23         -0.909419       -0.909310   1.000000   1.000000
     24         -0.814315       -0.814212   1.000000   1.000000
     25         -0.814314       -0.814211   1.000000   1.000000
     26         -0.358252       -0.358203   1.007418   1.007424
     27         -0.358246       -0.358197   1.007418   1.007424
     28         -0.321546       -0.321441   1.012962   1.012981
     29         -0.321544       -0.321439   1.012962   1.012981
     30          0.060016        0.060730   0.442285   0.439288
     31          0.763607        0.764307  -0.000002  -0.000002
     32          4.779348        4.801824  -0.000000  -0.000000
     33          5.191068        5.212640  -0.000000  -0.000000
     34          5.842543        5.860223   0.000000   0.000000
     35          7.307296        7.317263   0.000000   0.000000
     36          7.540709        7.568368   0.000000   0.000000
 
  0.3333333E+00  0.0000000E+00  0.0000000E+00  0.6666667E+00
      1         -5.017904       -5.017774   1.000000   1.000000
      2         -4.357752       -4.357618   1.000000   1.000000
      3         -3.696030       -3.695890   1.000000   1.000000
      4         -3.193130       -3.193021   1.000000   1.000000
      5         -3.149026       -3.148927   1.000000   1.000000
      6         -2.853952       -2.853858   1.000000   1.000000
      7         -2.531034       -2.530921   1.000000   1.000000
      8         -2.322639       -2.322536   1.000000   1.000000
      9         -2.125039       -2.124943   1.000000   1.000000
     10         -2.031362       -2.031245   1.000000   1.000000
     11         -1.913602       -1.913539   1.000000   1.000000
     12         -1.805488       -1.805378   1.000000   1.000000
     13         -1.628041       -1.627926   1.000000   1.000000
     14         -1.508062       -1.507968   1.000000   1.000000
     15         -1.348920       -1.348791   1.000000   1.000000
     16         -1.167090       -1.167029   1.000000   1.000000
     17         -1.103568       -1.103441   1.000000   1.000000
     18         -1.014928       -1.014717   1.000000   1.000000
     19         -0.980500       -0.980457   1.000000   1.000000
     20         -0.933037       -0.932981   1.000000   1.000000
     21         -0.809612       -0.809556   1.000000   1.000000
     22         -0.709630       -0.709488   1.000001   1.000001
     23         -0.645554       -0.645408   1.000006   1.000006
     24         -0.430994       -0.430922   1.001893   1.001895
     25         -0.387249       -0.387158   1.004477   1.004485
     26         -0.165387       -0.165334   1.030191   1.030173
     27         -0.137836       -0.137618   1.014849   1.014677
     28         -0.088871       -0.088626   0.951237   0.950781
     29          1.421728        1.422027  -0.000000  -0.000000
     30          3.492393        3.492843  -0.000000  -0.000000
     31          5.483825        5.484572  -0.000000  -0.000000
     32          7.490611        7.495338   0.000000   0.000000
     33          8.028447        8.035840   0.000000   0.000000
     34          8.610535        8.627308   0.000000   0.000000
     35          8.758355        8.782408   0.000000   0.000000
     36          9.374828        9.382216   0.000000   0.000000
 
 -0.3333333E+00  0.3333333E+00  0.0000000E+00  0.2222222E+00
      1         -3.053869       -3.053779   1.000000   1.000000
      2         -3.004940       -3.004872   1.000000   1.000000
      3         -2.993854       -2.993784   1.000000   1.000000
      4         -2.900622       -2.900541   1.000000   1.000000
      5         -2.871957       -2.871874   1.000000   1.000000
      6         -2.751114       -2.751019   1.000000   1.000000
      7         -2.637719       -2.637620   1.000000   1.000000
      8         -2.551707       -2.551582   1.000000   1.000000
      9         -2.470383       -2.470270   1.000000   1.000000
     10         -2.241012       -2.240934   1.000000   1.000000
     11         -1.969575       -1.969512   1.000000   1.000000
     12         -1.864647       -1.864525   1.000000   1.000000
     13         -1.349150       -1.349092   1.000000   1.000000
     14         -1.324543       -1.324425   1.000000   1.000000
     15         -1.316193       -1.316092   1.000000   1.000000
     16         -1.301304       -1.301243   1.000000   1.000000
     17         -1.274080       -1.273844   1.000000   1.000000
     18         -1.260908       -1.260699   1.000000   1.000000
     19         -0.974522       -0.974446   1.000000   1.000000
     20         -0.807812       -0.807717   1.000000   1.000000
     21         -0.689336       -0.689252   1.000001   1.000001
     22         -0.601688       -0.601620   1.000023   1.000023
     23         -0.594599       -0.594497   1.000028   1.000028
     24         -0.466146       -0.466021   1.000872   1.000875
     25         -0.449147       -0.448946   1.001280   1.001286
     26          4.281257        4.281368  -0.000000  -0.000000
     27          4.314435        4.314551  -0.000000  -0.000000
     28          4.545528        4.545667  -0.000000  -0.000000
     29          4.907762        4.907935  -0.000000  -0.000000
     30          5.512715        5.512920   0.000000   0.000000
     31          5.576703        5.576945   0.000000   0.000000
     32          6.358881        6.359059   0.000000   0.000000
     33          6.390932        6.391099   0.000000   0.000000
     34          7.105459        7.105755   0.000000   0.000000
     35          7.775432        7.775749   0.000000   0.000000
     36          8.792067        8.792578   0.000000   0.000000
