       N       E                     dE             d eps       ncg     rms          rms(c)
DAV:   1     0.440047116255E+03    0.44005E+03   -0.21420E+04   432   0.175E+03
DAV:   2     0.188862132460E+02   -0.42116E+03   -0.40647E+03   432   0.361E+02
DAV:   3    -0.206367532707E+02   -0.39523E+02   -0.38136E+02   448   0.164E+02
DAV:   4    -0.218867963044E+02   -0.12500E+01   -0.12457E+01   472   0.383E+01
DAV:   5    -0.219147360166E+02   -0.27940E-01   -0.27936E-01   516   0.454E+00    0.215E+01
DAV:   6    -0.177866611247E+02    0.41281E+01   -0.55697E+01   468   0.128E+02    0.112E+01
DAV:   7    -0.152518093111E+02    0.25349E+01   -0.13242E+01   480   0.749E+01    0.534E+00
DAV:   8    -0.150726951754E+02    0.17911E+00   -0.27719E+00   512   0.582E+01    0.501E+00
DAV:   9    -0.148100611233E+02    0.26263E+00   -0.81398E-01   600   0.273E+01    0.399E+00
DAV:  10    -0.153410828567E+02   -0.53102E+00   -0.15096E+00   568   0.198E+01    0.316E+00
DAV:  11    -0.158359797548E+02   -0.49490E+00   -0.62687E-01   524   0.216E+01    0.167E+00
DAV:  12    -0.167535702447E+02   -0.91759E+00   -0.76673E-01   620   0.205E+01    0.112E+00
DAV:  13    -0.177000342083E+02   -0.94646E+00   -0.77313E-01   556   0.902E+00    0.731E-01
DAV:  14    -0.181301870696E+02   -0.43015E+00   -0.30860E-01   536   0.543E+00    0.639E-01
DAV:  15    -0.182523762462E+02   -0.12219E+00   -0.68000E-02   572   0.584E+00    0.488E-01
DAV:  16    -0.184033580664E+02   -0.15098E+00   -0.10800E-01   576   0.364E+00    0.433E-01
DAV:  17    -0.184233419591E+02   -0.19984E-01   -0.66000E-02   592   0.385E+00    0.440E-01
DAV:  18    -0.184867594284E+02   -0.63417E-01   -0.21269E-02   536   0.267E+00    0.217E-01
DAV:  19    -0.185295018209E+02   -0.42742E-01   -0.89782E-03   492   0.163E+00    0.273E-01
DAV:  20    -0.185438388968E+02   -0.14337E-01   -0.18492E-03   532   0.711E-01    0.230E-01
DAV:  21    -0.186092153159E+02   -0.65376E-01   -0.38949E-03   532   0.995E-01    0.150E-01
DAV:  22    -0.186121469447E+02   -0.29316E-02   -0.46037E-04   400   0.428E-01    0.137E-01
DAV:  23    -0.186388119883E+02   -0.26665E-01   -0.82705E-04   400   0.414E-01    0.736E-02
DAV:  24    -0.186608643741E+02   -0.22052E-01   -0.24119E-03   448   0.536E-01    0.883E-02
DAV:  25    -0.186783414034E+02   -0.17477E-01   -0.65550E-04   412   0.248E-01    0.619E-02
DAV:  26    -0.186854332806E+02   -0.70919E-02   -0.55289E-04   352   0.232E-01    0.458E-02
DAV:  27    -0.186873235038E+02   -0.18902E-02   -0.42885E-04   324   0.331E-01    0.690E-02
DAV:  28    -0.186888334011E+02   -0.15099E-02   -0.13783E-04   296   0.252E-01    0.312E-02
DAV:  29    -0.186890943506E+02   -0.26095E-03   -0.12569E-04   316   0.205E-01    0.135E-02
DAV:  30    -0.186893433320E+02   -0.24898E-03   -0.70197E-05   276   0.982E-02    0.136E-02
DAV:  31    -0.186893871630E+02   -0.43831E-04   -0.29925E-05   268   0.806E-02
   1 F= -.18689387E+02 E0= -.18697682E+02  d E =-.186894E+02  mag=     0.0066
       N       E                     dE             d eps       ncg     rms          rms(c)
DAV:   1    -0.186943784776E+02   -0.50351E-02   -0.35563E+00   452   0.983E+00    0.140E-01
DAV:   2    -0.187021828632E+02   -0.78044E-02   -0.67961E-02   676   0.439E+00    0.539E-01
DAV:   3    -0.187000604414E+02    0.21224E-02   -0.17325E-02   664   0.295E+00    0.216E-01
DAV:   4    -0.186997784966E+02    0.28194E-03   -0.83078E-04   424   0.130E+00    0.104E-01
DAV:   5    -0.186997627176E+02    0.15779E-04   -0.83111E-04   340   0.822E-01
   2 F= -.18699763E+02 E0= -.18708327E+02  d E =-.103756E-01  mag=     0.0059
       N       E                     dE             d eps       ncg     rms          rms(c)
DAV:   1    -0.186957539522E+02    0.40245E-02   -0.60476E+00   456   0.127E+01    0.205E-01
DAV:   2    -0.187093364028E+02   -0.13582E-01   -0.14642E-01   676   0.665E+00    0.731E-01
DAV:   3    -0.187060936187E+02    0.32428E-02   -0.55157E-02   656   0.371E+00    0.324E-01
DAV:   4    -0.187048150974E+02    0.12785E-02   -0.23114E-03   528   0.234E+00    0.159E-01
DAV:   5    -0.187047349913E+02    0.80106E-04   -0.11964E-03   428   0.624E-01
   3 F= -.18704735E+02 E0= -.18713524E+02  d E =-.153478E-01  mag=     0.0050
       N       E                     dE             d eps       ncg     rms          rms(c)
DAV:   1    -0.187053800287E+02   -0.56493E-03   -0.75578E-01   472   0.481E+00    0.280E-01
DAV:   2    -0.187250369488E+02   -0.19657E-01   -0.26453E-01   604   0.127E+01    0.150E+00
DAV:   3    -0.187091456464E+02    0.15891E-01   -0.16902E-01   744   0.613E+00    0.351E-01
DAV:   4    -0.187075639161E+02    0.15817E-02   -0.62595E-03   576   0.399E+00    0.175E-01
DAV:   5    -0.187070466894E+02    0.51723E-03   -0.31256E-03   592   0.138E+00    0.155E-01
DAV:   6    -0.187063357334E+02    0.71096E-03   -0.94674E-04   368   0.127E+00    0.131E-01
DAV:   7    -0.187062220382E+02    0.11370E-03   -0.55594E-04   408   0.377E-01
   4 F= -.18706222E+02 E0= -.18715094E+02  d E =-.148705E-02  mag=     0.0043
       N       E                     dE             d eps       ncg     rms          rms(c)
DAV:   1    -0.187020459709E+02    0.42898E-02   -0.35128E+00   456   0.978E+00    0.188E-01
DAV:   2    -0.187144354497E+02   -0.12389E-01   -0.14019E-01   700   0.807E+00    0.947E-01
DAV:   3    -0.187089970729E+02    0.54384E-02   -0.73597E-02   664   0.397E+00    0.238E-01
DAV:   4    -0.187079040844E+02    0.10930E-02   -0.27712E-03   552   0.235E+00    0.191E-01
DAV:   5    -0.187075960952E+02    0.30799E-03   -0.12566E-03   528   0.889E-01    0.112E-01
DAV:   6    -0.187074928332E+02    0.10326E-03   -0.32057E-04   320   0.495E-01
   5 F= -.18707493E+02 E0= -.18716282E+02  d E =-.275784E-02  mag=     0.0038
       N       E                     dE             d eps       ncg     rms          rms(c)
DAV:   1    -0.187075045047E+02    0.91590E-04   -0.64577E-01   464   0.425E+00    0.721E-02
DAV:   2    -0.187099873666E+02   -0.24829E-02   -0.26860E-02   688   0.253E+00    0.443E-01
DAV:   3    -0.187082833884E+02    0.17040E-02   -0.19400E-02   536   0.225E+00    0.838E-02
DAV:   4    -0.187084161598E+02   -0.13277E-03   -0.29215E-04   320   0.369E-01
   6 F= -.18708416E+02 E0= -.18717266E+02  d E =-.923327E-03  mag=     0.0035
       N       E                     dE             d eps       ncg     rms          rms(c)
DAV:   1    -0.187011245096E+02    0.71589E-02   -0.58260E+00   464   0.128E+01    0.180E-01
DAV:   2    -0.187134205188E+02   -0.12296E-01   -0.11428E-01   660   0.539E+00    0.525E-01
DAV:   3    -0.187112372264E+02    0.21833E-02   -0.15792E-02   640   0.312E+00    0.307E-01
DAV:   4    -0.187104941338E+02    0.74309E-03   -0.11892E-03   476   0.149E+00    0.159E-01
DAV:   5    -0.187104149022E+02    0.79232E-04   -0.76036E-04   392   0.737E-01
   7 F= -.18710415E+02 E0= -.18719195E+02  d E =-.292207E-02  mag=     0.0031
       N       E                     dE             d eps       ncg     rms          rms(c)
DAV:   1    -0.186701579955E+02    0.40336E-01   -0.23635E+01   448   0.265E+01    0.670E-01
DAV:   2    -0.187936580183E+02   -0.12350E+00   -0.14250E+00   728   0.257E+01    0.196E+00
DAV:   3    -0.187205260933E+02    0.73132E-01   -0.60557E-01   744   0.175E+01    0.716E-01
DAV:   4    -0.187123616339E+02    0.81645E-02   -0.22777E-02   656   0.620E+00    0.363E-01
DAV:   5    -0.187111840589E+02    0.11776E-02   -0.99138E-03   612   0.144E+00    0.276E-01
DAV:   6    -0.187087653446E+02    0.24187E-02   -0.29673E-03   528   0.251E+00    0.290E-01
DAV:   7    -0.187088231115E+02   -0.57767E-04   -0.23151E-02   648   0.271E+00    0.437E-01
DAV:   8    -0.187108520923E+02   -0.20290E-02   -0.68440E-03   568   0.144E+00    0.782E-01
DAV:   9    -0.187090417689E+02    0.18103E-02   -0.32244E-03   440   0.765E-01    0.561E-01
DAV:  10    -0.187073319640E+02    0.17098E-02   -0.16092E-03   376   0.139E+00    0.110E-01
DAV:  11    -0.187075905728E+02   -0.25861E-03   -0.90579E-04   324   0.553E-01    0.523E-02
DAV:  12    -0.187076833292E+02   -0.92756E-04   -0.21602E-04   304   0.201E-01
   8 F= -.18707683E+02 E0= -.18716497E+02  d E =-.190496E-03  mag=     0.0021
       N       E                     dE             d eps       ncg     rms          rms(c)
DAV:   1    -0.186913847954E+02    0.16206E-01   -0.11796E+01   472   0.184E+01    0.229E-01
DAV:   2    -0.187205628070E+02   -0.29178E-01   -0.31403E-01   664   0.658E+00    0.113E+00
DAV:   3    -0.187110440116E+02    0.95188E-02   -0.10730E-01   632   0.492E+00    0.292E-01
DAV:   4    -0.187108847406E+02    0.15927E-03   -0.27223E-03   504   0.137E+00    0.213E-01
DAV:   5    -0.187108646852E+02    0.20055E-04   -0.11232E-03   376   0.998E-01
   9 F= -.18710865E+02 E0= -.18719900E+02  d E =-.337185E-02  mag=     0.0019
       N       E                     dE             d eps       ncg     rms          rms(c)
DAV:   1    -0.187101193581E+02    0.76538E-03   -0.42762E-01   472   0.358E+00    0.135E-01
DAV:   2    -0.187104485513E+02   -0.32919E-03   -0.67058E-03   696   0.167E+00    0.141E-01
DAV:   3    -0.187105774722E+02   -0.12892E-03   -0.16120E-03   440   0.170E+00
  10 F= -.18710577E+02 E0= -.18719060E+02  d E =-.308464E-02  mag=     0.0018
       N       E                     dE             d eps       ncg     rms          rms(c)
DAV:   1    -0.187102627979E+02    0.18575E-03   -0.41983E-01   504   0.364E+00    0.204E-01
DAV:   2    -0.187262344065E+02   -0.15972E-01   -0.19328E-01   632   0.975E+00    0.138E+00
DAV:   3    -0.187125996976E+02    0.13635E-01   -0.97412E-02   672   0.479E+00    0.195E-01
DAV:   4    -0.187113973799E+02    0.12023E-02   -0.50104E-03   560   0.307E+00    0.200E-01
DAV:   5    -0.187108747334E+02    0.52265E-03   -0.15796E-03   536   0.105E+00    0.118E-01
DAV:   6    -0.187106941176E+02    0.18062E-03   -0.42007E-04   320   0.723E-01
  11 F= -.18710694E+02 E0= -.18719584E+02  d E =-.116645E-03  mag=     0.0016
       N       E                     dE             d eps       ncg     rms          rms(c)
DAV:   1    -0.187059705309E+02    0.49042E-02   -0.37170E+00   456   0.101E+01    0.137E-01
DAV:   2    -0.187147280319E+02   -0.87575E-02   -0.82335E-02   648   0.469E+00    0.591E-01
DAV:   3    -0.187122081511E+02    0.25199E-02   -0.22569E-02   712   0.276E+00    0.215E-01
DAV:   4    -0.187119079811E+02    0.30017E-03   -0.92305E-04   392   0.130E+00    0.110E-01
DAV:   5    -0.187119012478E+02    0.67333E-05   -0.46975E-04   344   0.686E-01
  12 F= -.18711901E+02 E0= -.18720799E+02  d E =-.132378E-02  mag=     0.0014
       N       E                     dE             d eps       ncg     rms          rms(c)
DAV:   1    -0.187119075676E+02    0.41349E-06   -0.39975E-02   612   0.148E+00    0.110E-01
DAV:   2    -0.187138217163E+02   -0.19141E-02   -0.88058E-03   520   0.409E+00    0.339E-01
DAV:   3    -0.187125103082E+02    0.13114E-02   -0.52789E-03   456   0.238E+00    0.247E-01
DAV:   4    -0.187118200390E+02    0.69027E-03   -0.76674E-04   436   0.158E+00    0.737E-02
DAV:   5    -0.187117940213E+02    0.26018E-04   -0.20627E-04   288   0.358E-01
  13 F= -.18711794E+02 E0= -.18720703E+02  d E =0.107227E-03  mag=     0.0012
       N       E                     dE             d eps       ncg     rms          rms(c)
DAV:   1    -0.187115381795E+02    0.28186E-03   -0.34257E-01   456   0.287E+00    0.502E-02
DAV:   2    -0.187128684131E+02   -0.13302E-02   -0.76759E-03   708   0.212E+00    0.302E-01
DAV:   3    -0.187119919582E+02    0.87645E-03   -0.19172E-03   344   0.144E+00    0.822E-02
DAV:   4    -0.187120108594E+02   -0.18901E-04   -0.21002E-04   320   0.569E-01
  14 F= -.18712011E+02 E0= -.18720958E+02  d E =-.109612E-03  mag=     0.0011
