 vasp.6.3.2 27Jun22 (build Aug 17 2022 15:43:34) complex                        
  
 executed on           tv2STDVTST date 2025.01.24  15:20:15
 running   20 mpi-ranks, with    1 threads/rank
 distrk:  each k-point on   20 cores,    1 groups
 distr:  one band on NCORE=   5 cores,    4 groups


--------------------------------------------------------------------------------------------------------


 -----------------------------------------------------------------------------
|                                                                             |
|           W    W    AA    RRRRR   N    N  II  N    N   GGGG   !!!           |
|           W    W   A  A   R    R  NN   N  II  NN   N  G    G  !!!           |
|           W    W  A    A  R    R  N N  N  II  N N  N  G       !!!           |
|           W WW W  AAAAAA  RRRRR   N  N N  II  N  N N  G  GGG   !            |
|           WW  WW  A    A  R   R   N   NN  II  N   NN  G    G                |
|           W    W  A    A  R    R  N    N  II  N    N   GGGG   !!!           |
|                                                                             |
|     Found issues when parsing the INCAR file                                |
|     In line 60: Tagname --- R W I G S contains invalid characters.          |
|     Please check if the interpretation in the OUTCAR file is correct.       |
|                                                                             |
 -----------------------------------------------------------------------------

 INCAR:
    = \=\=\=\=\=\=\=\=\=\=\=\=\=\=\=\=\=\=\=\=\=\=\=\=\=\=\=\=\=\=\=\=\=\=\=\=\=\=\=\=\=\=\=\=\=\=\=\=\=\=\=\=\=\=\=\=\=\=\=\=\=\=\=\=\=\=\=\=\=\=\=\=
    = \=\=\=\=\=\=\=\=\=\=\=\=\=\=\=\=\=\=\=\=\=\=\=\=\=\=\=\=\=\=\=\=\=\=\=\=\=\=\=\=\=\=\=\=\=\=\=\=\=\=\=\=\=\=\=\=\=\=\=\=\=\=\=\=\=\=\=\=\=\=\=\=
   ISTART = 0
   ICHARG = 2
   IPIPOL = 3
    = \=\=\=\=\=\=\=\=\=\=\=\=\=\=\=\=\=\=\=\=\=\=\=\=\=\=\=\=\=\=\=\=\=\=\=\=\=\=\=\=\=\=\=\=\=\=\=\=\=\=\=\=\=\=\=\=\=\=\=\=\=\=\=\=\=\=\=\=\=\=\=\=
    = \=\=\=\=\=\=\=\=\=\=\=\=\=\=\=\=\=\=\=\=\=\=\=\=\=\=\=\=\=\=\=\=\=\=\=\=\=\=\=\=\=\=\=\=\=\=\=\=\=\=\=\=\=\=\=\=\=\=\=\=\=\=\=\=\=\=\=\=\=\=\=\=
   ISPIN = 2
    = \=\=\=\=\=\=\=\=\=\=\=\=\=\=\=\=\=\=\=\=\=\=\=\=\=\=\=\=\=\=\=\=\=\=\=\=\=\=\=\=\=\=\=\=\=\=\=\=\=\=\=\=\=\=\=\=\=\=\=\=\=\=\=\=\=\=\=\=\=\=\=\=
    = \=\=\=\=\=\=\=\=\=\=\=\=\=\=\=\=\=\=\=\=\=\=\=\=\=\=\=\=\=\=\=\=\=\=\=\=\=\=\=\=\=\=\=\=\=\=\=\=\=\=\=\=\=\=\=\=\=\=\=\=\=\=\=\=\=\=\=\=\=\=\=\=
   ENCUT = 400
   PREC = Normal
   EDIFF = 2E-04
   GGA = PE
   ISMEAR = 1
   SIGMA = 0.2
   LREAL = .FALSE.
    = \=\=\=\=\=\=\=\=\=\=\=\=\=\=\=\=\=\=\=\=\=\=\=\=\=\=\=\=\=\=\=\=\=\=\=\=\=\=\=\=\=\=\=\=\=\=\=\=\=\=\=\=\=\=\=\=\=\=\=\=\=\=\=\=\=\=\=\=\=\=\=\=
    = \=\=\=\=\=\=\=\=\=\=\=\=\=\=\=\=\=\=\=\=\=\=\=\=\=\=\=\=\=\=\=\=\=\=\=\=\=\=\=\=\=\=\=\=\=\=\=\=\=\=\=\=\=\=\=\=\=\=\=\=\=\=\=\=\=\=\=\=\=\=\=\=
   ISYM = 1
   NSW = 800
   IBRION = 2
   POTIM = 0.5
   ISIF = 2
   EDIFFG = -.03
    = \=\=\=\=\=\=\=\=\=\=\=\=\=\=\=\=\=\=\=\=\=\=\=\=\=\=\=\=\=\=\=\=\=\=\=\=\=\=\=\=\=\=\=\=\=\=\=\=\=\=\=\=\=\=\=\=\=\=\=\=\=\=\=\=\=\=\=\=\=\=\=\=
    = \=\=\=\=\=\=\=\=\=\=\=\=\=\=\=\=\=\=\=\=\=\=\=\=\=\=\=\=\=\=\=\=\=\=\=\=\=\=\=\=\=\=\=\=\=\=\=\=\=\=\=\=\=\=\=\=\=\=\=\=\=\=\=\=\=\=\=\=\=\=\=\=
   NPAR = 4
   LWAVE = .FALSE.
   LCHARG = .FALSE.

 POTCAR:    PAW_PBE Cu 22Jun2005                  
 -----------------------------------------------------------------------------
|                                                                             |
|           W    W    AA    RRRRR   N    N  II  N    N   GGGG   !!!           |
|           W    W   A  A   R    R  NN   N  II  NN   N  G    G  !!!           |
|           W    W  A    A  R    R  N N  N  II  N N  N  G       !!!           |
|           W WW W  AAAAAA  RRRRR   N  N N  II  N  N N  G  GGG   !            |
|           WW  WW  A    A  R   R   N   NN  II  N   NN  G    G                |
|           W    W  A    A  R    R  N    N  II  N    N   GGGG   !!!           |
|                                                                             |
|     You use a magnetic or noncollinear calculation, but did not specify     |
|     the initial magnetic moment with the MAGMOM tag. Note that a            |
|     default of 1 will be used for all atoms. This ferromagnetic setup       |
|     may break the symmetry of the crystal, in particular it may rule        |
|     out finding an antiferromagnetic solution. Thence, we recommend         |
|     setting the initial magnetic moment manually or verifying carefully     |
|     that this magnetic setup is desired.                                    |
|                                                                             |
 -----------------------------------------------------------------------------

 POTCAR:    PAW_PBE Cu 22Jun2005                  
   SHA256 =  0e71e558f37a4e8407882b4609ceaae59938afaad9ced71dfe8490308a0ab630 Cu/POTCAR             
   COPYR  = (c) Copyright 22Jun2005 Georg Kresse                                                    
   COPYR  = This file is part of the software VASP. Any use, copying, and all other rights are regul
   COPYR  = If you do not have a valid VASP license, you may not use, copy or distribute this file. 
   VRHFIN =Cu: d10 p1                                                                               
   LEXCH  = PE                                                                                      
   EATOM  =  1390.9808 eV,  102.2342 Ry                                                             
                                                                                                    
   TITEL  = PAW_PBE Cu 22Jun2005                                                                    
   LULTRA =        F    use ultrasoft PP ?                                                          
   IUNSCR =        1    unscreen: 0-lin 1-nonlin 2-no                                               
   RPACOR =    2.000    partial core radius                                                         
   POMASS =   63.546; ZVAL   =   11.000    mass and valenz                                          
   RCORE  =    2.300    outmost cutoff radius                                                       
   RWIGS  =    2.200; RWIGS  =    1.164    wigner-seitz radius (au A)                               
   ENMAX  =  295.446; ENMIN  =  221.585 eV                                                          
   ICORE  =        3    local potential                                                             
   LCOR   =        T    correct aug charges                                                         
   LPAW   =        T    paw PP                                                                      
   EAUG   =  586.980                                                                                
   DEXC   =    0.000                                                                                
   RMAX   =    2.344    core radius for proj-oper                                                   
   RAUG   =    1.300    factor for augmentation sphere                                              
   RDEP   =    2.302    radius for radial grids                                                     
   RDEPT  =    1.771    core radius for aug-charge                                                  
                                                                                                    
   Atomic configuration                                                                             
    9 entries                                                                                       
     n  l   j            E        occ.                                                              
     1  0  0.50     -8850.2468   2.0000                                                             
     2  0  0.50     -1062.3498   2.0000                                                             
     2  1  1.50      -916.8226   6.0000                                                             
     3  0  0.50      -114.6929   2.0000                                                             
     3  1  1.50       -72.1325   6.0000                                                             
     3  2  2.50        -5.0394  10.0000                                                             
     4  0  0.50        -4.6097   1.0000                                                             
     4  1  0.50        -4.0817   0.0000                                                             
     4  3  2.50        -1.3606   0.0000                                                             
   Description                                                                                      
     l       E           TYP  RCUT    TYP  RCUT                                                     
     2     -5.0393973     23  2.200                                                                 
     2     10.8846608     23  2.200                                                                 
     0     -4.6097109     23  2.200                                                                 
     0      8.2520465     23  2.200                                                                 
     1     -2.7211652     23  2.200                                                                 
     1     21.7055443     23  2.200                                                                 
     3      2.7211652     23  2.300                                                                 
  local pseudopotential read in
  partial core-charges read in
  partial kinetic energy density read in
  atomic valenz-charges read in
  non local Contribution for L=           2  read in
    real space projection operators read in
  non local Contribution for L=           2  read in
    real space projection operators read in
  non local Contribution for L=           0  read in
    real space projection operators read in
  non local Contribution for L=           0  read in
    real space projection operators read in
  non local Contribution for L=           1  read in
    real space projection operators read in
  non local Contribution for L=           1  read in
    real space projection operators read in
    PAW grid and wavefunctions read in
 
   number of l-projection  operators is LMAX  =           6
   number of lm-projection operators is LMMAX =          18
 
  PAW_PBE Cu 22Jun2005                  :
 energy of atom  1       EATOM=-1390.9808
 kinetic energy error for atom=    0.0232 (will be added to EATOM!!)
 
 
 POSCAR: FCC Cu
  positions in cartesian coordinates
  velocities in cartesian coordinates
  No initial velocities read in
 exchange correlation table for  LEXCH =        8
   RHO(1)=    0.500       N(1)  =     2000
   RHO(2)=  100.500       N(2)  =     4000

 VTST: version 4.2, (08/11/21)

 CHAIN: initializing optimizer
 
 OPT: Using VASP Conjugate-Gradient optimizer
 CHAIN: Read ICHAIN            0
 
 POSCAR: FCC Cu
  positions in cartesian coordinates
  velocities in cartesian coordinates
  No initial velocities read in
 


--------------------------------------------------------------------------------------------------------


 ion  position               nearest neighbor table
   1  0.000  0.000  0.000-   2 2.57   2 2.57   2 2.57
   2  0.333  0.333  0.090-   3 2.57   1 2.57   1 2.57   3 2.57   1 2.57   3 2.57
   3  0.667  0.667  0.179-   2 2.57   2 2.57   2 2.57   4 2.57   4 2.57   4 2.57
   4  0.000  0.000  0.269-   5 2.57   5 2.57   5 2.57   3 2.57   3 2.57   3 2.57
   5  0.333  0.333  0.359-   4 2.57   4 2.57   4 2.57
 
  LATTYP: Found a hexagonal cell.
 ALAT       =     2.5667977333
 C/A-ratio  =     9.1098437000
  
  Lattice vectors:
  
 A1 = (  -1.2833988667,  -2.2229120434,   0.0000000000)
 A2 = (   2.5667977333,   0.0000000000,   0.0000000000)
 A3 = (   0.0000000000,   0.0000000000,  23.3831261600)


Analysis of symmetry for initial positions (statically):
=====================================================================
 Subroutine PRICEL returns:
 Original cell was already a primitive cell.
 

 Routine SETGRP: Setting up the symmetry group for a 
 hexagonal supercell.


 Subroutine GETGRP returns: Found 12 space group operations
 (whereof  6 operations were pure point group operations)
 out of a pool of 24 trial point group operations.


The static configuration has the point symmetry C_3v.
 The point group associated with its full space group is D_3d.


Analysis of symmetry for dynamics (positions and initial velocities):
=====================================================================
 Subroutine PRICEL returns:
 Original cell was already a primitive cell.
 

 Routine SETGRP: Setting up the symmetry group for a 
 hexagonal supercell.


 Subroutine GETGRP returns: Found 12 space group operations
 (whereof  6 operations were pure point group operations)
 out of a pool of 24 trial point group operations.


The dynamic configuration has the point symmetry C_3v.
 The point group associated with its full space group is D_3d.


Analysis of constrained symmetry for selective dynamics:
=====================================================================
 Subroutine PRICEL returns:
 Original cell was already a primitive cell.
 

 Routine SETGRP: Setting up the symmetry group for a 
 hexagonal supercell.


 Subroutine GETGRP returns: Found  6 space group operations
 (whereof  6 operations were pure point group operations)
 out of a pool of 24 trial point group operations.


The constrained configuration has the point symmetry C_3v.


Analysis of structural, dynamic, and magnetic symmetry:
=====================================================================
 Subroutine PRICEL returns:
 Original cell was already a primitive cell.
 

 Routine SETGRP: Setting up the symmetry group for a 
 hexagonal supercell.


 Subroutine GETGRP returns: Found  6 space group operations
 (whereof  6 operations were pure point group operations)
 out of a pool of 24 trial point group operations.


The overall configuration has the point symmetry C_3v.


 Subroutine INISYM returns: Found  6 space group operations
 (whereof  6 operations are pure point group operations),
 and found     1 'primitive' translations


----------------------------------------------------------------------------------------

                                     Primitive cell                                     

  volume of cell :     133.4186

  direct lattice vectors                    reciprocal lattice vectors
     2.566797733  0.000000000  0.000000000     0.389590495 -0.224930177  0.000000000
     1.283398867  2.222912043  0.000000000     0.000000000  0.449860355  0.000000000
     0.000000000  0.000000000 23.383126160     0.000000000  0.000000000  0.042765881

  length of vectors
     2.566797733  2.566797733 23.383126160     0.449860355  0.449860355  0.042765881

  position of ions in fractional coordinates (direct lattice)
     0.000000000  0.000000000  0.000000000
     0.333333333  0.333333333  0.089627945
     0.666666667  0.666666667  0.179255889
     0.000000000  0.000000000  0.268883834
     0.333333333  0.333333333  0.358511779

  ion indices of the primitive-cell ions
   primitive index   ion index
                 1           1
                 2           2
                 3           3
                 4           4
                 5           5

----------------------------------------------------------------------------------------

 
 
 KPOINTS: Auto-mesh                               

Automatic generation of k-mesh.
 Grid dimensions read from file:
 generate k-points for:    3    3    1

 Generating k-lattice:

  Cartesian coordinates                     Fractional coordinates (reciprocal lattice)
     0.129863498 -0.074976726  0.000000000     0.333333333  0.000000000  0.000000000
     0.000000000  0.149953452  0.000000000     0.000000000  0.333333333  0.000000000
     0.000000000  0.000000000  0.042765881     0.000000000  0.000000000  1.000000000

  Length of vectors
     0.149953452  0.149953452  0.042765881

  Shift w.r.t. Gamma in fractional coordinates (k-lattice)
     0.000000000  0.000000000  0.000000000

 
 Subroutine IBZKPT returns following result:
 ===========================================
 
 Found      3 irreducible k-points:
 
 Following reciprocal coordinates:
            Coordinates               Weight
  0.000000  0.000000  0.000000      1.000000
  0.333333  0.000000  0.000000      6.000000
 -0.333333  0.333333  0.000000      2.000000
 
 Following cartesian coordinates:
            Coordinates               Weight
  0.000000  0.000000  0.000000      1.000000
  0.129863 -0.074977  0.000000      6.000000
 -0.129863  0.224930  0.000000      2.000000
 


--------------------------------------------------------------------------------------------------------




 Dimension of arrays:
   k-points           NKPTS =      3   k-points in BZ     NKDIM =      3   number of bands    NBANDS=     36
   number of dos      NEDOS =    301   number of ions     NIONS =      5
   non local maximal  LDIM  =      6   non local SUM 2l+1 LMDIM =     18
   total plane-waves  NPLWV =  23520
   max r-space proj   IRMAX =      1   max aug-charges    IRDMAX=   5305
   dimension x,y,z NGX =    14 NGY =   14 NGZ =  120
   dimension x,y,z NGXF=    28 NGYF=   28 NGZF=  240
   support grid    NGXF=    28 NGYF=   28 NGZF=  240
   ions per type =               5
   NGX,Y,Z   is equivalent  to a cutoff of   9.07,  9.07,  8.53 a.u.
   NGXF,Y,Z  is equivalent  to a cutoff of  18.13, 18.13, 17.06 a.u.

 SYSTEM =  unknown system                          
 POSCAR =  FCC Cu                                  

 Startparameter for this run:
   NWRITE =      2    write-flag & timer
   PREC   = normal    normal or accurate (medium, high low for compatibility)
   ISTART =      0    job   : 0-new  1-cont  2-samecut
   ICHARG =      2    charge: 1-file 2-atom 10-const
   ISPIN  =      2    spin polarized calculation?
   LNONCOLLINEAR =      F non collinear calculations
   LSORBIT =      F    spin-orbit coupling
   INIWAV =      1    electr: 0-lowe 1-rand  2-diag
   LASPH  =      F    aspherical Exc in radial PAW
 Electronic Relaxation 1
   ENCUT  =  400.0 eV  29.40 Ry    5.42 a.u.   4.19  4.19 38.13*2*pi/ulx,y,z
   ENINI  =  400.0     initial cutoff
   ENAUG  =  587.0 eV  augmentation charge cutoff
   NELM   =     60;   NELMIN=  2; NELMDL= -5     # of ELM steps 
   EDIFF  = 0.2E-03   stopping-criterion for ELM
   LREAL  =      F    real-space projection
   NLSPLINE    = F    spline interpolate recip. space projectors
   LCOMPAT=      F    compatible to vasp.4.4
   GGA_COMPAT  = T    GGA compatible to vasp.4.4-vasp.4.6
   LMAXPAW     = -100 max onsite density
   LMAXMIX     =    2 max onsite mixed and CHGCAR
   VOSKOWN=      0    Vosko Wilk Nusair interpolation
   ROPT   =    0.00000
 Ionic relaxation
   EDIFFG = -.3E-01   stopping-criterion for IOM
   NSW    =    800    number of steps for IOM
   NBLOCK =      1;   KBLOCK =    800    inner block; outer block 
   IBRION =      2    ionic relax: 0-MD 1-quasi-New 2-CG
   NFREE  =      1    steps in history (QN), initial steepest desc. (CG)
   ISIF   =      2    stress and relaxation
   IWAVPR =     11    prediction:  0-non 1-charg 2-wave 3-comb
   ISYM   =      1    0-nonsym 1-usesym 2-fastsym
   LCORR  =      T    Harris-Foulkes like correction to forces

   POTIM  = 0.5000    time-step for ionic-motion
   TEIN   =    0.0    initial temperature
   TEBEG  =    0.0;   TEEND  =   0.0 temperature during run
   SMASS  =  -3.00    Nose mass-parameter (am)
   estimated Nose-frequenzy (Omega)   =  0.10E-29 period in steps = 0.13E+47 mass=  -0.151E-27a.u.
   SCALEE = 1.0000    scale energy and forces
   NPACO  =    256;   APACO  = 10.0  distance and # of slots for P.C.
   PSTRESS=    0.0 pullay stress

  Mass of Ions in am
   POMASS =  63.55
  Ionic Valenz
   ZVAL   =  11.00
  Atomic Wigner-Seitz radii
   RWIGS  =  -1.00
  virtual crystal weights 
   VCA    =   1.00
   NELECT =      55.0000    total number of electrons
   NUPDOWN=      -1.0000    fix difference up-down

 DOS related values:
   EMIN   =  10.00;   EMAX   =-10.00  energy-range for DOS
   EFERMI =   0.00
   ISMEAR =     1;   SIGMA  =   0.20  broadening in eV -4-tet -1-fermi 0-gaus

 Electronic relaxation 2 (details)
   IALGO  =     38    algorithm
   LDIAG  =      T    sub-space diagonalisation (order eigenvalues)
   LSUBROT=      F    optimize rotation matrix (better conditioning)
   TURBO    =      0    0=normal 1=particle mesh
   IRESTART =      0    0=no restart 2=restart with 2 vectors
   NREBOOT  =      0    no. of reboots
   NMIN     =      0    reboot dimension
   EREF     =   0.00    reference energy to select bands
   IMIX   =      4    mixing-type and parameters
     AMIX     =   0.40;   BMIX     =  1.00
     AMIX_MAG =   1.60;   BMIX_MAG =  1.00
     AMIN     =   0.10
     WC   =   100.;   INIMIX=   1;  MIXPRE=   1;  MAXMIX= -45

 Intra band minimization:
   WEIMIN = 0.0010     energy-eigenvalue tresh-hold
   EBREAK =  0.14E-05  absolut break condition
   DEPER  =   0.30     relativ break condition  

   TIME   =   0.40     timestep for ELM

  volume/ion in A,a.u.               =      26.68       180.07
  Fermi-wavevector in a.u.,A,eV,Ry     =   1.218401  2.302444 20.197860  1.484501
  Thomas-Fermi vector in A             =   2.353689
 
 Write flags
   LWAVE        =      F    write WAVECAR
   LDOWNSAMPLE  =      F    k-point downsampling of WAVECAR
   LCHARG       =      F    write CHGCAR
   LVTOT        =      F    write LOCPOT, total local potential
   LVHAR        =      F    write LOCPOT, Hartree potential only
   LELF         =      F    write electronic localiz. function (ELF)
   LORBIT       =      0    0 simple, 1 ext, 2 COOP (PROOUT), +10 PAW based schemes


 Dipole corrections
   LMONO  =      F    monopole corrections only (constant potential shift)
   LDIPOL =      F    correct potential (dipole corrections)
   IDIPOL =      0    1-x, 2-y, 3-z, 4-all directions 
   EPSILON=  1.0000000 bulk dielectric constant

 Exchange correlation treatment:
   GGA     =    PE    GGA type
   LEXCH   =     8    internal setting for exchange type
   LIBXC   =     F    Libxc                    
   VOSKOWN =     0    Vosko Wilk Nusair interpolation
   LHFCALC =     F    Hartree Fock is set to
   LHFONE  =     F    Hartree Fock one center treatment
   AEXX    =    0.0000 exact exchange contribution

 Linear response parameters
   LEPSILON=     F    determine dielectric tensor
   LRPA    =     F    only Hartree local field effects (RPA)
   LNABLA  =     F    use nabla operator in PAW spheres
   LVEL    =     F    velocity operator in full k-point grid
   CSHIFT  =0.1000    complex shift for real part using Kramers Kronig
   OMEGAMAX=  -1.0    maximum frequency
   DEG_THRESHOLD= 0.2000000E-02 threshold for treating states as degnerate
   RTIME   =   -0.100 relaxation time in fs
  (WPLASMAI=    0.000 imaginary part of plasma frequency in eV, 0.658/RTIME)
   DFIELD  = 0.0000000 0.0000000 0.0000000 field for delta impulse in time
 
  Optional k-point grid parameters
   LKPOINTS_OPT  =     F    use optional k-point grid
   KPOINTS_OPT_MODE=     1    mode for optional k-point grid
 
 Orbital magnetization related:
   ORBITALMAG=     F  switch on orbital magnetization
   LCHIMAG   =     F  perturbation theory with respect to B field
   DQ        =  0.001000  dq finite difference perturbation B field
   LLRAUG    =     F  two centre corrections for induced B field



--------------------------------------------------------------------------------------------------------


 conjugate gradient relaxation of ions
   using selective dynamics as specified on POSCAR
   WARNING: If single coordinates had been selected the selection of coordinates
            is made according to the corresponding   d i r e c t   coordinates!
            Don't support selection of single cartesian coordinates -- sorry ...
  !
 charge density and potential will be updated during run
 spin polarized calculation
 Variant of blocked Davidson
 Davidson routine will perform the subspace rotation
 perform sub-space diagonalisation
    after iterative eigenvector-optimisation
 modified Broyden-mixing scheme, WC =      100.0
 initial mixing is a Kerker type mixing with AMIX =  0.4000 and BMIX =      1.0000
 Hartree-type preconditioning will be used
 using additional bands            8
 reciprocal scheme for non local part
 use partial core corrections
 calculate Harris-corrections to forces 
   (improved forces if not selfconsistent)
 use gradient corrections 
 use of overlap-Matrix (Vanderbilt PP)
 Methfessel and Paxton  Order N= 1 SIGMA  =   0.20


--------------------------------------------------------------------------------------------------------


  energy-cutoff  :      400.00
  volume of cell :      133.42
      direct lattice vectors                 reciprocal lattice vectors
     2.566797733  0.000000000  0.000000000     0.389590495 -0.224930177  0.000000000
     1.283398867  2.222912043  0.000000000     0.000000000  0.449860355  0.000000000
     0.000000000  0.000000000 23.383126160     0.000000000  0.000000000  0.042765881

  length of vectors
     2.566797733  2.566797733 23.383126160     0.449860355  0.449860355  0.042765881


 
 k-points in units of 2pi/SCALE and weight: Auto-mesh                               
   0.00000000  0.00000000  0.00000000       0.111
   0.12986350 -0.07497673  0.00000000       0.667
  -0.12986350  0.22493018  0.00000000       0.222
 
 k-points in reciprocal lattice and weights: Auto-mesh                               
   0.00000000  0.00000000  0.00000000       0.111
   0.33333333  0.00000000  0.00000000       0.667
  -0.33333333  0.33333333  0.00000000       0.222
 
 position of ions in fractional coordinates (direct lattice) 
   0.00000000  0.00000000  0.00000000
   0.33333333  0.33333333  0.08962794
   0.66666667  0.66666667  0.17925589
   0.00000000  0.00000000  0.26888383
   0.33333333  0.33333333  0.35851178
 
 position of ions in cartesian coordinates  (Angst):
   0.00000000  0.00000000  0.00000000
   1.28339887  0.74097068  2.09578154
   2.56679773  1.48194136  4.19156308
   0.00000000  0.00000000  6.28734461
   1.28339887  0.74097068  8.38312615
 


--------------------------------------------------------------------------------------------------------


 k-point   1 :   0.0000 0.0000 0.0000  plane waves:    2411
 k-point   2 :   0.3333 0.0000 0.0000  plane waves:    2419
 k-point   3 :  -0.3333 0.3333 0.0000  plane waves:    2454

 maximum and minimum number of plane-waves per node :       504      464

 maximum number of plane-waves:      2454
 maximum index in each direction: 
   IXMAX=    4   IYMAX=    4   IZMAX=   38
   IXMIN=   -4   IYMIN=   -4   IZMIN=  -38


 parallel 3D FFT for wavefunctions:
    minimum data exchange during FFTs selected (reduces bandwidth)
 parallel 3D FFT for charge:
    minimum data exchange during FFTs selected (reduces bandwidth)


 total amount of memory used by VASP MPI-rank0    32673. kBytes
=======================================================================

   base      :      30000. kBytes
   nonl-proj :        251. kBytes
   fftplans  :        571. kBytes
   grid      :       1378. kBytes
   one-center:         31. kBytes
   wavefun   :        442. kBytes
 
     INWAV:  cpu time      0.0000: real time      0.0005
 Broyden mixing: mesh for mixing (old mesh)
   NGX =  9   NGY =  9   NGZ = 77
  (NGX  = 28   NGY  = 28   NGZ  =240)
  gives a total of   6237 points

 initial charge density was supplied:
 charge density of overlapping atoms calculated
 number of electron      55.0000000 magnetization       5.0000000
 keeping initial charge density in first step


--------------------------------------------------------------------------------------------------------


 Maximum index for augmentation-charges          488 (set IRDMAX)


--------------------------------------------------------------------------------------------------------


 First call to EWALD:  gamma=   0.347
 Maximum number of real-space cells 6x 6x 1
 Maximum number of reciprocal cells 2x 2x11

    FEWALD:  cpu time      0.0019: real time      0.0019


--------------------------------------- Iteration      1(   1)  ---------------------------------------


    POTLOK:  cpu time      0.0184: real time      0.0371
    SETDIJ:  cpu time      0.0063: real time      0.0064
     EDDAV:  cpu time      0.1065: real time      0.1074
       DOS:  cpu time      0.0010: real time      0.0010
    --------------------------------------------
      LOOP:  cpu time      0.1321: real time      0.1519

 eigenvalue-minimisations  :   432
 total energy-change (2. order) : 0.4400471E+03  (-0.2142049E+04)
 number of electron      55.0000000 magnetization       5.0000000
 augmentation part       55.0000000 magnetization       5.0000000

 Free energy of the ion-electron system (eV)
  ---------------------------------------------------
  alpha Z        PSCENC =       137.03633445
  Ewald energy   TEWEN  =     23894.32100839
  -Hartree energ DENC   =    -30651.74225580
  -exchange      EXHF   =         0.00000000
  -V(xc)+E(xc)   XCENC  =       228.35422928
  PAW double counting   =      6140.48748024    -6669.60465762
  entropy T*S    EENTRO =         0.01717470
  eigenvalues    EBANDS =       406.38960162
  atomic energy  EATOM  =      6954.78820100
  Solvation  Ediel_sol  =         0.00000000
  ---------------------------------------------------
  free energy    TOTEN  =       440.04711625 eV

  energy without entropy =      440.02994156  energy(sigma->0) =      440.04139136


--------------------------------------------------------------------------------------------------------




--------------------------------------- Iteration      1(   2)  ---------------------------------------


     EDDAV:  cpu time      0.0983: real time      0.0998
       DOS:  cpu time      0.0006: real time      0.0007
    --------------------------------------------
      LOOP:  cpu time      0.0990: real time      0.1005

 eigenvalue-minimisations  :   432
 total energy-change (2. order) :-0.4211609E+03  (-0.4064658E+03)
 number of electron      55.0000000 magnetization       5.0000000
 augmentation part       55.0000000 magnetization       5.0000000

 Free energy of the ion-electron system (eV)
  ---------------------------------------------------
  alpha Z        PSCENC =       137.03633445
  Ewald energy   TEWEN  =     23894.32100839
  -Hartree energ DENC   =    -30651.74225580
  -exchange      EXHF   =         0.00000000
  -V(xc)+E(xc)   XCENC  =       228.35422928
  PAW double counting   =      6140.48748024    -6669.60465762
  entropy T*S    EENTRO =        -0.04133237
  eigenvalues    EBANDS =       -14.71279432
  atomic energy  EATOM  =      6954.78820100
  Solvation  Ediel_sol  =         0.00000000
  ---------------------------------------------------
  free energy    TOTEN  =        18.88621325 eV

  energy without entropy =       18.92754562  energy(sigma->0) =       18.89999070


--------------------------------------------------------------------------------------------------------




--------------------------------------- Iteration      1(   3)  ---------------------------------------


     EDDAV:  cpu time      0.0993: real time      0.1006
       DOS:  cpu time      0.0007: real time      0.0007
    --------------------------------------------
      LOOP:  cpu time      0.0999: real time      0.1013

 eigenvalue-minimisations  :   448
 total energy-change (2. order) :-0.3952297E+02  (-0.3813641E+02)
 number of electron      55.0000000 magnetization       5.0000000
 augmentation part       55.0000000 magnetization       5.0000000

 Free energy of the ion-electron system (eV)
  ---------------------------------------------------
  alpha Z        PSCENC =       137.03633445
  Ewald energy   TEWEN  =     23894.32100839
  -Hartree energ DENC   =    -30651.74225580
  -exchange      EXHF   =         0.00000000
  -V(xc)+E(xc)   XCENC  =       228.35422928
  PAW double counting   =      6140.48748024    -6669.60465762
  entropy T*S    EENTRO =         0.01055113
  eigenvalues    EBANDS =       -54.28764434
  atomic energy  EATOM  =      6954.78820100
  Solvation  Ediel_sol  =         0.00000000
  ---------------------------------------------------
  free energy    TOTEN  =       -20.63675327 eV

  energy without entropy =      -20.64730440  energy(sigma->0) =      -20.64027031


--------------------------------------------------------------------------------------------------------




--------------------------------------- Iteration      1(   4)  ---------------------------------------


     EDDAV:  cpu time      0.1046: real time      0.1056
       DOS:  cpu time      0.0007: real time      0.0007
    --------------------------------------------
      LOOP:  cpu time      0.1053: real time      0.1063

 eigenvalue-minimisations  :   472
 total energy-change (2. order) :-0.1250043E+01  (-0.1245675E+01)
 number of electron      55.0000000 magnetization       5.0000000
 augmentation part       55.0000000 magnetization       5.0000000

 Free energy of the ion-electron system (eV)
  ---------------------------------------------------
  alpha Z        PSCENC =       137.03633445
  Ewald energy   TEWEN  =     23894.32100839
  -Hartree energ DENC   =    -30651.74225580
  -exchange      EXHF   =         0.00000000
  -V(xc)+E(xc)   XCENC  =       228.35422928
  PAW double counting   =      6140.48748024    -6669.60465762
  entropy T*S    EENTRO =         0.01035653
  eigenvalues    EBANDS =       -55.53749277
  atomic energy  EATOM  =      6954.78820100
  Solvation  Ediel_sol  =         0.00000000
  ---------------------------------------------------
  free energy    TOTEN  =       -21.88679630 eV

  energy without entropy =      -21.89715283  energy(sigma->0) =      -21.89024848


--------------------------------------------------------------------------------------------------------




--------------------------------------- Iteration      1(   5)  ---------------------------------------


     EDDAV:  cpu time      0.1102: real time      0.1112
       DOS:  cpu time      0.0007: real time      0.0007
    CHARGE:  cpu time      0.0406: real time      0.0408
    MIXING:  cpu time      0.0006: real time      0.0006
    --------------------------------------------
      LOOP:  cpu time      0.1520: real time      0.1532

 eigenvalue-minimisations  :   516
 total energy-change (2. order) :-0.2793971E-01  (-0.2793579E-01)
 number of electron      54.9999896 magnetization       4.4942573
 augmentation part       32.5179585 magnetization       4.7318202

 Broyden mixing:
  rms(total) = 0.21518E+01    rms(broyden)= 0.21517E+01
  rms(prec ) = 0.22230E+01
  weight for this iteration     100.00

 Free energy of the ion-electron system (eV)
  ---------------------------------------------------
  alpha Z        PSCENC =       137.03633445
  Ewald energy   TEWEN  =     23894.32100839
  -Hartree energ DENC   =    -30651.74225580
  -exchange      EXHF   =         0.00000000
  -V(xc)+E(xc)   XCENC  =       228.35422928
  PAW double counting   =      6140.48748024    -6669.60465762
  entropy T*S    EENTRO =         0.01031187
  eigenvalues    EBANDS =       -55.56538782
  atomic energy  EATOM  =      6954.78820100
  Solvation  Ediel_sol  =         0.00000000
  ---------------------------------------------------
  free energy    TOTEN  =       -21.91473602 eV

  energy without entropy =      -21.92504788  energy(sigma->0) =      -21.91817331


--------------------------------------------------------------------------------------------------------




--------------------------------------- Iteration      1(   6)  ---------------------------------------


    POTLOK:  cpu time      0.0164: real time      0.0166
    SETDIJ:  cpu time      0.0060: real time      0.0061
     EDDAV:  cpu time      0.1020: real time      0.1028
       DOS:  cpu time      0.0006: real time      0.0006
    CHARGE:  cpu time      0.0376: real time      0.0377
    MIXING:  cpu time      0.0006: real time      0.0006
    --------------------------------------------
      LOOP:  cpu time      0.1632: real time      0.1645

 eigenvalue-minimisations  :   468
 total energy-change (2. order) : 0.4128075E+01  (-0.5569713E+01)
 number of electron      54.9999892 magnetization       4.1668764
 augmentation part       36.7508068 magnetization       3.5454200

 Broyden mixing:
  rms(total) = 0.11173E+01    rms(broyden)= 0.11172E+01
  rms(prec ) = 0.11725E+01
  weight for this iteration     100.00

 eigenvalues of (default mixing * dielectric matrix)
  average eigenvalue GAMMA=   0.7822
  0.7822

 Free energy of the ion-electron system (eV)
  ---------------------------------------------------
  alpha Z        PSCENC =       137.03633445
  Ewald energy   TEWEN  =     23894.32100839
  -Hartree energ DENC   =    -30499.47828009
  -exchange      EXHF   =         0.00000000
  -V(xc)+E(xc)   XCENC  =       223.01979555
  PAW double counting   =      6201.97341930    -6703.23396543
  entropy T*S    EENTRO =         0.00917601
  eigenvalues    EBANDS =      -226.22235030
  atomic energy  EATOM  =      6954.78820100
  Solvation  Ediel_sol  =         0.00000000
  ---------------------------------------------------
  free energy    TOTEN  =       -17.78666112 eV

  energy without entropy =      -17.79583713  energy(sigma->0) =      -17.78971979


--------------------------------------------------------------------------------------------------------




--------------------------------------- Iteration      1(   7)  ---------------------------------------


    POTLOK:  cpu time      0.0156: real time      0.0160
    SETDIJ:  cpu time      0.0056: real time      0.0056
     EDDAV:  cpu time      0.1037: real time      0.1045
       DOS:  cpu time      0.0007: real time      0.0007
    CHARGE:  cpu time      0.0372: real time      0.0373
    MIXING:  cpu time      0.0006: real time      0.0006
    --------------------------------------------
      LOOP:  cpu time      0.1633: real time      0.1647

 eigenvalue-minimisations  :   480
 total energy-change (2. order) : 0.2534852E+01  (-0.1324225E+01)
 number of electron      54.9999892 magnetization       3.7364525
 augmentation part       35.2291606 magnetization       2.7898114

 Broyden mixing:
  rms(total) = 0.53394E+00    rms(broyden)= 0.53391E+00
  rms(prec ) = 0.54099E+00
  weight for this iteration     100.00

 eigenvalues of (default mixing * dielectric matrix)
  average eigenvalue GAMMA=   0.8552
  1.0667  0.6436

 Free energy of the ion-electron system (eV)
  ---------------------------------------------------
  alpha Z        PSCENC =       137.03633445
  Ewald energy   TEWEN  =     23894.32100839
  -Hartree energ DENC   =    -30577.99390101
  -exchange      EXHF   =         0.00000000
  -V(xc)+E(xc)   XCENC  =       225.87532817
  PAW double counting   =      6337.09517226    -6863.85220424
  entropy T*S    EENTRO =        -0.00870458
  eigenvalues    EBANDS =      -122.51304375
  atomic energy  EATOM  =      6954.78820100
  Solvation  Ediel_sol  =         0.00000000
  ---------------------------------------------------
  free energy    TOTEN  =       -15.25180931 eV

  energy without entropy =      -15.24310473  energy(sigma->0) =      -15.24890778


--------------------------------------------------------------------------------------------------------




--------------------------------------- Iteration      1(   8)  ---------------------------------------


    POTLOK:  cpu time      0.0155: real time      0.0157
    SETDIJ:  cpu time      0.0053: real time      0.0054
     EDDAV:  cpu time      0.1086: real time      0.1094
       DOS:  cpu time      0.0006: real time      0.0006
    CHARGE:  cpu time      0.0359: real time      0.0361
    MIXING:  cpu time      0.0006: real time      0.0006
    --------------------------------------------
      LOOP:  cpu time      0.1665: real time      0.1678

 eigenvalue-minimisations  :   512
 total energy-change (2. order) : 0.1791141E+00  (-0.2771915E+00)
 number of electron      54.9999898 magnetization       3.3249805
 augmentation part       35.0223173 magnetization       2.3324078

 Broyden mixing:
  rms(total) = 0.50054E+00    rms(broyden)= 0.50052E+00
  rms(prec ) = 0.51463E+00
  weight for this iteration     100.00

 eigenvalues of (default mixing * dielectric matrix)
  average eigenvalue GAMMA=   0.7672
  1.1820  0.6280  0.4915

 Free energy of the ion-electron system (eV)
  ---------------------------------------------------
  alpha Z        PSCENC =       137.03633445
  Ewald energy   TEWEN  =     23894.32100839
  -Hartree energ DENC   =    -30585.81580693
  -exchange      EXHF   =         0.00000000
  -V(xc)+E(xc)   XCENC  =       225.98985000
  PAW double counting   =      6435.19169068    -6969.04256573
  entropy T*S    EENTRO =        -0.00191307
  eigenvalues    EBANDS =      -107.53949397
  atomic energy  EATOM  =      6954.78820100
  Solvation  Ediel_sol  =         0.00000000
  ---------------------------------------------------
  free energy    TOTEN  =       -15.07269518 eV

  energy without entropy =      -15.07078210  energy(sigma->0) =      -15.07205748


--------------------------------------------------------------------------------------------------------




--------------------------------------- Iteration      1(   9)  ---------------------------------------


    POTLOK:  cpu time      0.0154: real time      0.0157
    SETDIJ:  cpu time      0.0053: real time      0.0053
     EDDAV:  cpu time      0.1241: real time      0.1250
       DOS:  cpu time      0.0006: real time      0.0006
    CHARGE:  cpu time      0.0397: real time      0.0399
    MIXING:  cpu time      0.0031: real time      0.0031
    --------------------------------------------
      LOOP:  cpu time      0.1883: real time      0.1897

 eigenvalue-minimisations  :   600
 total energy-change (2. order) : 0.2626341E+00  (-0.8139808E-01)
 number of electron      54.9999894 magnetization       1.6751688
 augmentation part       35.0139707 magnetization       0.6907095

 Broyden mixing:
  rms(total) = 0.39913E+00    rms(broyden)= 0.39912E+00
  rms(prec ) = 0.40095E+00
  weight for this iteration     100.00

 eigenvalues of (default mixing * dielectric matrix)
  average eigenvalue GAMMA=   1.1730
  2.2591  1.2809  0.6950  0.4570

 Free energy of the ion-electron system (eV)
  ---------------------------------------------------
  alpha Z        PSCENC =       137.03633445
  Ewald energy   TEWEN  =     23894.32100839
  -Hartree energ DENC   =    -30596.04040767
  -exchange      EXHF   =         0.00000000
  -V(xc)+E(xc)   XCENC  =       225.84579343
  PAW double counting   =      6501.42501314    -7038.63603579
  entropy T*S    EENTRO =        -0.00623693
  eigenvalues    EBANDS =       -93.54373114
  atomic energy  EATOM  =      6954.78820100
  Solvation  Ediel_sol  =         0.00000000
  ---------------------------------------------------
  free energy    TOTEN  =       -14.81006112 eV

  energy without entropy =      -14.80382420  energy(sigma->0) =      -14.80798215


--------------------------------------------------------------------------------------------------------




--------------------------------------- Iteration      1(  10)  ---------------------------------------


    POTLOK:  cpu time      0.0165: real time      0.0168
    SETDIJ:  cpu time      0.0056: real time      0.0057
     EDDAV:  cpu time      0.1193: real time      0.1205
       DOS:  cpu time      0.0007: real time      0.0007
    CHARGE:  cpu time      0.0367: real time      0.0368
    MIXING:  cpu time      0.0008: real time      0.0008
    --------------------------------------------
      LOOP:  cpu time      0.1796: real time      0.1812

 eigenvalue-minimisations  :   568
 total energy-change (2. order) :-0.5310217E+00  (-0.1509567E+00)
 number of electron      54.9999893 magnetization       1.0054851
 augmentation part       35.4655870 magnetization       0.2153293

 Broyden mixing:
  rms(total) = 0.31597E+00    rms(broyden)= 0.31596E+00
  rms(prec ) = 0.32803E+00
  weight for this iteration     100.00

 eigenvalues of (default mixing * dielectric matrix)
  average eigenvalue GAMMA=   1.5627
  4.7564  1.1875  0.7018  0.7018  0.4660

 Free energy of the ion-electron system (eV)
  ---------------------------------------------------
  alpha Z        PSCENC =       137.03633445
  Ewald energy   TEWEN  =     23894.32100839
  -Hartree energ DENC   =    -30603.28500251
  -exchange      EXHF   =         0.00000000
  -V(xc)+E(xc)   XCENC  =       224.42012004
  PAW double counting   =      6632.45550629    -7172.47461814
  entropy T*S    EENTRO =        -0.00873319
  eigenvalues    EBANDS =       -82.59389919
  atomic energy  EATOM  =      6954.78820100
  Solvation  Ediel_sol  =         0.00000000
  ---------------------------------------------------
  free energy    TOTEN  =       -15.34108286 eV

  energy without entropy =      -15.33234967  energy(sigma->0) =      -15.33817179


--------------------------------------------------------------------------------------------------------




--------------------------------------- Iteration      1(  11)  ---------------------------------------


    POTLOK:  cpu time      0.0154: real time      0.0157
    SETDIJ:  cpu time      0.0055: real time      0.0055
     EDDAV:  cpu time      0.1124: real time      0.1132
       DOS:  cpu time      0.0007: real time      0.0007
    CHARGE:  cpu time      0.0357: real time      0.0358
    MIXING:  cpu time      0.0007: real time      0.0007
    --------------------------------------------
      LOOP:  cpu time      0.1703: real time      0.1716

 eigenvalue-minimisations  :   524
 total energy-change (2. order) :-0.4948969E+00  (-0.6268729E-01)
 number of electron      54.9999892 magnetization       0.7252251
 augmentation part       35.2367274 magnetization       0.0490047

 Broyden mixing:
  rms(total) = 0.16715E+00    rms(broyden)= 0.16715E+00
  rms(prec ) = 0.17722E+00
  weight for this iteration     100.00

 eigenvalues of (default mixing * dielectric matrix)
  average eigenvalue GAMMA=   1.7810
  6.4038  1.4327  1.0237  0.4731  0.7452  0.6072

 Free energy of the ion-electron system (eV)
  ---------------------------------------------------
  alpha Z        PSCENC =       137.03633445
  Ewald energy   TEWEN  =     23894.32100839
  -Hartree energ DENC   =    -30618.98404804
  -exchange      EXHF   =         0.00000000
  -V(xc)+E(xc)   XCENC  =       224.49550777
  PAW double counting   =      6643.94690925    -7187.33824996
  entropy T*S    EENTRO =        -0.00880904
  eigenvalues    EBANDS =       -64.09283358
  atomic energy  EATOM  =      6954.78820100
  Solvation  Ediel_sol  =         0.00000000
  ---------------------------------------------------
  free energy    TOTEN  =       -15.83597975 eV

  energy without entropy =      -15.82717072  energy(sigma->0) =      -15.83304341


--------------------------------------------------------------------------------------------------------




--------------------------------------- Iteration      1(  12)  ---------------------------------------


    POTLOK:  cpu time      0.0157: real time      0.0159
    SETDIJ:  cpu time      0.0053: real time      0.0053
     EDDAV:  cpu time      0.1277: real time      0.1287
       DOS:  cpu time      0.0007: real time      0.0007
    CHARGE:  cpu time      0.0355: real time      0.0358
    MIXING:  cpu time      0.0009: real time      0.0009
    --------------------------------------------
      LOOP:  cpu time      0.1857: real time      0.1873

 eigenvalue-minimisations  :   620
 total energy-change (2. order) :-0.9175905E+00  (-0.7667274E-01)
 number of electron      54.9999896 magnetization       0.5383514
 augmentation part       35.0231864 magnetization      -0.0480352

 Broyden mixing:
  rms(total) = 0.11223E+00    rms(broyden)= 0.11222E+00
  rms(prec ) = 0.11858E+00
  weight for this iteration     100.00

 eigenvalues of (default mixing * dielectric matrix)
  average eigenvalue GAMMA=   1.8524
  7.5381  2.0319  1.0493  0.6626  0.6626  0.4632  0.5591

 Free energy of the ion-electron system (eV)
  ---------------------------------------------------
  alpha Z        PSCENC =       137.03633445
  Ewald energy   TEWEN  =     23894.32100839
  -Hartree energ DENC   =    -30621.43608209
  -exchange      EXHF   =         0.00000000
  -V(xc)+E(xc)   XCENC  =       224.32463739
  PAW double counting   =      6584.06923783    -7126.38647381
  entropy T*S    EENTRO =         0.00343346
  eigenvalues    EBANDS =       -63.47386687
  atomic energy  EATOM  =      6954.78820100
  Solvation  Ediel_sol  =         0.00000000
  ---------------------------------------------------
  free energy    TOTEN  =       -16.75357024 eV

  energy without entropy =      -16.75700371  energy(sigma->0) =      -16.75471473


--------------------------------------------------------------------------------------------------------




--------------------------------------- Iteration      1(  13)  ---------------------------------------


    POTLOK:  cpu time      0.0153: real time      0.0156
    SETDIJ:  cpu time      0.0053: real time      0.0053
     EDDAV:  cpu time      0.1157: real time      0.1166
       DOS:  cpu time      0.0007: real time      0.0007
    CHARGE:  cpu time      0.0361: real time      0.0362
    MIXING:  cpu time      0.0009: real time      0.0009
    --------------------------------------------
      LOOP:  cpu time      0.1739: real time      0.1753

 eigenvalue-minimisations  :   556
 total energy-change (2. order) :-0.9464640E+00  (-0.7731287E-01)
 number of electron      54.9999894 magnetization       0.3734126
 augmentation part       35.0707219 magnetization       0.0427821

 Broyden mixing:
  rms(total) = 0.73141E-01    rms(broyden)= 0.73075E-01
  rms(prec ) = 0.75805E-01
  weight for this iteration     100.00

 eigenvalues of (default mixing * dielectric matrix)
  average eigenvalue GAMMA=   1.8237
  8.0591  2.4297  1.1127  0.6963  0.6963  0.6670  0.4642  0.4642

 Free energy of the ion-electron system (eV)
  ---------------------------------------------------
  alpha Z        PSCENC =       137.03633445
  Ewald energy   TEWEN  =     23894.32100839
  -Hartree energ DENC   =    -30614.98851790
  -exchange      EXHF   =         0.00000000
  -V(xc)+E(xc)   XCENC  =       223.71533570
  PAW double counting   =      6533.57641605    -7072.76008399
  entropy T*S    EENTRO =         0.01767253
  eigenvalues    EBANDS =       -73.40640044
  atomic energy  EATOM  =      6954.78820100
  Solvation  Ediel_sol  =         0.00000000
  ---------------------------------------------------
  free energy    TOTEN  =       -17.70003421 eV

  energy without entropy =      -17.71770674  energy(sigma->0) =      -17.70592505


--------------------------------------------------------------------------------------------------------




--------------------------------------- Iteration      1(  14)  ---------------------------------------


    POTLOK:  cpu time      0.0153: real time      0.0156
    SETDIJ:  cpu time      0.0053: real time      0.0053
     EDDAV:  cpu time      0.1129: real time      0.1138
       DOS:  cpu time      0.0007: real time      0.0007
    CHARGE:  cpu time      0.0371: real time      0.0373
    MIXING:  cpu time      0.0009: real time      0.0009
    --------------------------------------------
      LOOP:  cpu time      0.1724: real time      0.1737

 eigenvalue-minimisations  :   536
 total energy-change (2. order) :-0.4301529E+00  (-0.3086042E-01)
 number of electron      54.9999894 magnetization       0.3314794
 augmentation part       35.0849498 magnetization       0.1110364

 Broyden mixing:
  rms(total) = 0.63882E-01    rms(broyden)= 0.63813E-01
  rms(prec ) = 0.73836E-01
  weight for this iteration     100.00

 eigenvalues of (default mixing * dielectric matrix)
  average eigenvalue GAMMA=   1.7631
  8.3617  2.6477  1.1327  0.7967  0.7967  0.6603  0.5579  0.4897  0.4242

 Free energy of the ion-electron system (eV)
  ---------------------------------------------------
  alpha Z        PSCENC =       137.03633445
  Ewald energy   TEWEN  =     23894.32100839
  -Hartree energ DENC   =    -30611.92905777
  -exchange      EXHF   =         0.00000000
  -V(xc)+E(xc)   XCENC  =       223.42261833
  PAW double counting   =      6521.60770147    -7059.51964516
  entropy T*S    EENTRO =         0.02457921
  eigenvalues    EBANDS =       -77.88192700
  atomic energy  EATOM  =      6954.78820100
  Solvation  Ediel_sol  =         0.00000000
  ---------------------------------------------------
  free energy    TOTEN  =       -18.13018707 eV

  energy without entropy =      -18.15476628  energy(sigma->0) =      -18.13838014


--------------------------------------------------------------------------------------------------------




--------------------------------------- Iteration      1(  15)  ---------------------------------------


    POTLOK:  cpu time      0.0154: real time      0.0156
    SETDIJ:  cpu time      0.0053: real time      0.0053
     EDDAV:  cpu time      0.1196: real time      0.1209
       DOS:  cpu time      0.0007: real time      0.0007
    CHARGE:  cpu time      0.0365: real time      0.0366
    MIXING:  cpu time      0.0010: real time      0.0010
    --------------------------------------------
      LOOP:  cpu time      0.1785: real time      0.1803

 eigenvalue-minimisations  :   572
 total energy-change (2. order) :-0.1221892E+00  (-0.6799990E-02)
 number of electron      54.9999894 magnetization       0.3444855
 augmentation part       35.1153406 magnetization       0.0918190

 Broyden mixing:
  rms(total) = 0.48816E-01    rms(broyden)= 0.48777E-01
  rms(prec ) = 0.53496E-01
  weight for this iteration     100.00

 eigenvalues of (default mixing * dielectric matrix)
  average eigenvalue GAMMA=   1.7006
  8.4104  2.9934  1.1549  1.1549  0.7077  0.7077  0.6487  0.4889  0.4889  0.2500

 Free energy of the ion-electron system (eV)
  ---------------------------------------------------
  alpha Z        PSCENC =       137.03633445
  Ewald energy   TEWEN  =     23894.32100839
  -Hartree energ DENC   =    -30610.77860787
  -exchange      EXHF   =         0.00000000
  -V(xc)+E(xc)   XCENC  =       223.33391401
  PAW double counting   =      6518.97574959    -7056.56225661
  entropy T*S    EENTRO =         0.03711556
  eigenvalues    EBANDS =       -79.40383477
  atomic energy  EATOM  =      6954.78820100
  Solvation  Ediel_sol  =         0.00000000
  ---------------------------------------------------
  free energy    TOTEN  =       -18.25237625 eV

  energy without entropy =      -18.28949181  energy(sigma->0) =      -18.26474810


--------------------------------------------------------------------------------------------------------




--------------------------------------- Iteration      1(  16)  ---------------------------------------


    POTLOK:  cpu time      0.0153: real time      0.0155
    SETDIJ:  cpu time      0.0055: real time      0.0055
     EDDAV:  cpu time      0.1194: real time      0.1204
       DOS:  cpu time      0.0007: real time      0.0007
    CHARGE:  cpu time      0.0364: real time      0.0366
    MIXING:  cpu time      0.0011: real time      0.0011
    --------------------------------------------
      LOOP:  cpu time      0.1784: real time      0.1797

 eigenvalue-minimisations  :   576
 total energy-change (2. order) :-0.1509818E+00  (-0.1080022E-01)
 number of electron      54.9999894 magnetization       0.3056050
 augmentation part       35.1545089 magnetization       0.1158553

 Broyden mixing:
  rms(total) = 0.43315E-01    rms(broyden)= 0.43283E-01
  rms(prec ) = 0.52532E-01
  weight for this iteration     100.00

 eigenvalues of (default mixing * dielectric matrix)
  average eigenvalue GAMMA=   1.7171
  8.7783  3.7010  1.4315  1.2048  0.7671  0.7671  0.6387  0.4799  0.3686  0.3755
  0.3755

 Free energy of the ion-electron system (eV)
  ---------------------------------------------------
  alpha Z        PSCENC =       137.03633445
  Ewald energy   TEWEN  =     23894.32100839
  -Hartree energ DENC   =    -30604.36436052
  -exchange      EXHF   =         0.00000000
  -V(xc)+E(xc)   XCENC  =       223.15736774
  PAW double counting   =      6513.85781616    -7050.30319120
  entropy T*S    EENTRO =         0.03362699
  eigenvalues    EBANDS =       -86.93016108
  atomic energy  EATOM  =      6954.78820100
  Solvation  Ediel_sol  =         0.00000000
  ---------------------------------------------------
  free energy    TOTEN  =       -18.40335807 eV

  energy without entropy =      -18.43698506  energy(sigma->0) =      -18.41456706


--------------------------------------------------------------------------------------------------------




--------------------------------------- Iteration      1(  17)  ---------------------------------------


    POTLOK:  cpu time      0.0152: real time      0.0155
    SETDIJ:  cpu time      0.0053: real time      0.0053
     EDDAV:  cpu time      0.1214: real time      0.1224
       DOS:  cpu time      0.0007: real time      0.0007
    CHARGE:  cpu time      0.0368: real time      0.0370
    MIXING:  cpu time      0.0011: real time      0.0011
    --------------------------------------------
      LOOP:  cpu time      0.1806: real time      0.1820

 eigenvalue-minimisations  :   592
 total energy-change (2. order) :-0.1998389E-01  (-0.6599961E-02)
 number of electron      54.9999893 magnetization       0.3208978
 augmentation part       35.1572164 magnetization       0.1594730

 Broyden mixing:
  rms(total) = 0.43951E-01    rms(broyden)= 0.43895E-01
  rms(prec ) = 0.54369E-01
  weight for this iteration     100.00

 eigenvalues of (default mixing * dielectric matrix)
  average eigenvalue GAMMA=   1.6314
  8.8411  3.6681  1.7434  1.0750  0.7757  0.7757  0.6184  0.6184  0.4776  0.4776
  0.2531  0.2531

 Free energy of the ion-electron system (eV)
  ---------------------------------------------------
  alpha Z        PSCENC =       137.03633445
  Ewald energy   TEWEN  =     23894.32100839
  -Hartree energ DENC   =    -30603.01515031
  -exchange      EXHF   =         0.00000000
  -V(xc)+E(xc)   XCENC  =       223.16340530
  PAW double counting   =      6515.91221958    -7052.41374867
  entropy T*S    EENTRO =         0.03348618
  eigenvalues    EBANDS =       -88.24909788
  atomic energy  EATOM  =      6954.78820100
  Solvation  Ediel_sol  =         0.00000000
  ---------------------------------------------------
  free energy    TOTEN  =       -18.42334196 eV

  energy without entropy =      -18.45682814  energy(sigma->0) =      -18.43450402


--------------------------------------------------------------------------------------------------------




--------------------------------------- Iteration      1(  18)  ---------------------------------------


    POTLOK:  cpu time      0.0152: real time      0.0154
    SETDIJ:  cpu time      0.0053: real time      0.0053
     EDDAV:  cpu time      0.1140: real time      0.1149
       DOS:  cpu time      0.0007: real time      0.0007
    CHARGE:  cpu time      0.0378: real time      0.0380
    MIXING:  cpu time      0.0014: real time      0.0014
    --------------------------------------------
      LOOP:  cpu time      0.1743: real time      0.1757

 eigenvalue-minimisations  :   536
 total energy-change (2. order) :-0.6341747E-01  (-0.2126863E-02)
 number of electron      54.9999894 magnetization       0.2928061
 augmentation part       35.1374036 magnetization       0.1243952

 Broyden mixing:
  rms(total) = 0.21651E-01    rms(broyden)= 0.21617E-01
  rms(prec ) = 0.25394E-01
  weight for this iteration     100.00

 eigenvalues of (default mixing * dielectric matrix)
  average eigenvalue GAMMA=   1.6418
  8.9603  3.7145  2.1977  1.1547  1.1547  0.7360  0.7360  0.6799  0.5371  0.4854
  0.4854  0.2510  0.2510

 Free energy of the ion-electron system (eV)
  ---------------------------------------------------
  alpha Z        PSCENC =       137.03633445
  Ewald energy   TEWEN  =     23894.32100839
  -Hartree energ DENC   =    -30602.94213559
  -exchange      EXHF   =         0.00000000
  -V(xc)+E(xc)   XCENC  =       223.11434554
  PAW double counting   =      6524.26223094    -7061.38128968
  entropy T*S    EENTRO =         0.03290548
  eigenvalues    EBANDS =       -87.71835996
  atomic energy  EATOM  =      6954.78820100
  Solvation  Ediel_sol  =         0.00000000
  ---------------------------------------------------
  free energy    TOTEN  =       -18.48675943 eV

  energy without entropy =      -18.51966491  energy(sigma->0) =      -18.49772792


--------------------------------------------------------------------------------------------------------




--------------------------------------- Iteration      1(  19)  ---------------------------------------


    POTLOK:  cpu time      0.0159: real time      0.0162
    SETDIJ:  cpu time      0.0053: real time      0.0053
     EDDAV:  cpu time      0.1055: real time      0.1063
       DOS:  cpu time      0.0007: real time      0.0007
    CHARGE:  cpu time      0.0359: real time      0.0361
    MIXING:  cpu time      0.0013: real time      0.0013
    --------------------------------------------
      LOOP:  cpu time      0.1646: real time      0.1659

 eigenvalue-minimisations  :   492
 total energy-change (2. order) :-0.4274239E-01  (-0.8978212E-03)
 number of electron      54.9999894 magnetization       0.2856223
 augmentation part       35.1107633 magnetization       0.1415097

 Broyden mixing:
  rms(total) = 0.27280E-01    rms(broyden)= 0.27273E-01
  rms(prec ) = 0.29296E-01
  weight for this iteration     100.00

 eigenvalues of (default mixing * dielectric matrix)
  average eigenvalue GAMMA=   1.5800
  8.9713  3.8574  2.2565  1.4194  1.1121  0.7403  0.7403  0.6791  0.5227  0.4954
  0.4954  0.3325  0.2487  0.2487

 Free energy of the ion-electron system (eV)
  ---------------------------------------------------
  alpha Z        PSCENC =       137.03633445
  Ewald energy   TEWEN  =     23894.32100839
  -Hartree energ DENC   =    -30601.23194121
  -exchange      EXHF   =         0.00000000
  -V(xc)+E(xc)   XCENC  =       223.09071545
  PAW double counting   =      6527.34045028    -7064.88089805
  entropy T*S    EENTRO =         0.02948993
  eigenvalues    EBANDS =       -89.02286206
  atomic energy  EATOM  =      6954.78820100
  Solvation  Ediel_sol  =         0.00000000
  ---------------------------------------------------
  free energy    TOTEN  =       -18.52950182 eV

  energy without entropy =      -18.55899175  energy(sigma->0) =      -18.53933180


--------------------------------------------------------------------------------------------------------




--------------------------------------- Iteration      1(  20)  ---------------------------------------


    POTLOK:  cpu time      0.0153: real time      0.0155
    SETDIJ:  cpu time      0.0053: real time      0.0053
     EDDAV:  cpu time      0.1117: real time      0.1126
       DOS:  cpu time      0.0007: real time      0.0007
    CHARGE:  cpu time      0.0365: real time      0.0366
    MIXING:  cpu time      0.0013: real time      0.0013
    --------------------------------------------
      LOOP:  cpu time      0.1707: real time      0.1720

 eigenvalue-minimisations  :   532
 total energy-change (2. order) :-0.1433708E-01  (-0.1849190E-03)
 number of electron      54.9999894 magnetization       0.2370520
 augmentation part       35.1128928 magnetization       0.1023987

 Broyden mixing:
  rms(total) = 0.22994E-01    rms(broyden)= 0.22993E-01
  rms(prec ) = 0.24922E-01
  weight for this iteration     100.00

 eigenvalues of (default mixing * dielectric matrix)
  average eigenvalue GAMMA=   1.5981
  9.1175  3.7474  2.9466  1.6596  1.0520  0.8060  0.8060  0.6855  0.6855  0.6448
  0.4797  0.4181  0.4181  0.2520  0.2520

 Free energy of the ion-electron system (eV)
  ---------------------------------------------------
  alpha Z        PSCENC =       137.03633445
  Ewald energy   TEWEN  =     23894.32100839
  -Hartree energ DENC   =    -30600.17723850
  -exchange      EXHF   =         0.00000000
  -V(xc)+E(xc)   XCENC  =       223.07340420
  PAW double counting   =      6526.67437311    -7064.23173417
  entropy T*S    EENTRO =         0.02914243
  eigenvalues    EBANDS =       -90.05732979
  atomic energy  EATOM  =      6954.78820100
  Solvation  Ediel_sol  =         0.00000000
  ---------------------------------------------------
  free energy    TOTEN  =       -18.54383890 eV

  energy without entropy =      -18.57298132  energy(sigma->0) =      -18.55355304


--------------------------------------------------------------------------------------------------------




--------------------------------------- Iteration      1(  21)  ---------------------------------------


    POTLOK:  cpu time      0.0152: real time      0.0154
    SETDIJ:  cpu time      0.0053: real time      0.0053
     EDDAV:  cpu time      0.1118: real time      0.1130
       DOS:  cpu time      0.0007: real time      0.0007
    CHARGE:  cpu time      0.0365: real time      0.0367
    MIXING:  cpu time      0.0015: real time      0.0015
    --------------------------------------------
      LOOP:  cpu time      0.1710: real time      0.1727

 eigenvalue-minimisations  :   532
 total energy-change (2. order) :-0.6537642E-01  (-0.3894942E-03)
 number of electron      54.9999894 magnetization       0.2226882
 augmentation part       35.1396224 magnetization       0.1136477

 Broyden mixing:
  rms(total) = 0.15015E-01    rms(broyden)= 0.15006E-01
  rms(prec ) = 0.17204E-01
  weight for this iteration     100.00

 eigenvalues of (default mixing * dielectric matrix)
  average eigenvalue GAMMA=   1.5487
  9.2203  3.8896  2.9952  1.4734  1.0819  0.8561  0.8561  0.7285  0.7285  0.6085
  0.4630  0.4630  0.4560  0.4560  0.2512  0.2512

 Free energy of the ion-electron system (eV)
  ---------------------------------------------------
  alpha Z        PSCENC =       137.03633445
  Ewald energy   TEWEN  =     23894.32100839
  -Hartree energ DENC   =    -30597.08911361
  -exchange      EXHF   =         0.00000000
  -V(xc)+E(xc)   XCENC  =       222.95726778
  PAW double counting   =      6529.84436946    -7067.60288334
  entropy T*S    EENTRO =         0.02904324
  eigenvalues    EBANDS =       -92.89344268
  atomic energy  EATOM  =      6954.78820100
  Solvation  Ediel_sol  =         0.00000000
  ---------------------------------------------------
  free energy    TOTEN  =       -18.60921532 eV

  energy without entropy =      -18.63825856  energy(sigma->0) =      -18.61889640


--------------------------------------------------------------------------------------------------------




--------------------------------------- Iteration      1(  22)  ---------------------------------------


    POTLOK:  cpu time      0.0152: real time      0.0154
    SETDIJ:  cpu time      0.0053: real time      0.0053
     EDDAV:  cpu time      0.0923: real time      0.0930
       DOS:  cpu time      0.0007: real time      0.0007
    CHARGE:  cpu time      0.0366: real time      0.0368
    MIXING:  cpu time      0.0015: real time      0.0015
    --------------------------------------------
      LOOP:  cpu time      0.1516: real time      0.1527

 eigenvalue-minimisations  :   400
 total energy-change (2. order) :-0.2931629E-02  (-0.4603652E-04)
 number of electron      54.9999894 magnetization       0.1746561
 augmentation part       35.1417456 magnetization       0.0750827

 Broyden mixing:
  rms(total) = 0.13707E-01    rms(broyden)= 0.13705E-01
  rms(prec ) = 0.15516E-01
  weight for this iteration     100.00

 eigenvalues of (default mixing * dielectric matrix)
  average eigenvalue GAMMA=   1.5691
  9.5250  3.5649  3.5649  1.2247  1.2247  1.1760  1.1760  0.7354  0.7354  0.6621
  0.6621  0.6160  0.4741  0.4146  0.4146  0.2518  0.2518

 Free energy of the ion-electron system (eV)
  ---------------------------------------------------
  alpha Z        PSCENC =       137.03633445
  Ewald energy   TEWEN  =     23894.32100839
  -Hartree energ DENC   =    -30596.56999317
  -exchange      EXHF   =         0.00000000
  -V(xc)+E(xc)   XCENC  =       222.95426594
  PAW double counting   =      6529.83509011    -7067.56201463
  entropy T*S    EENTRO =         0.02867211
  eigenvalues    EBANDS =       -93.44371115
  atomic energy  EATOM  =      6954.78820100
  Solvation  Ediel_sol  =         0.00000000
  ---------------------------------------------------
  free energy    TOTEN  =       -18.61214694 eV

  energy without entropy =      -18.64081906  energy(sigma->0) =      -18.62170432


--------------------------------------------------------------------------------------------------------




--------------------------------------- Iteration      1(  23)  ---------------------------------------


    POTLOK:  cpu time      0.0152: real time      0.0154
    SETDIJ:  cpu time      0.0053: real time      0.0053
     EDDAV:  cpu time      0.0995: real time      0.1003
       DOS:  cpu time      0.0007: real time      0.0007
    CHARGE:  cpu time      0.0381: real time      0.0382
    MIXING:  cpu time      0.0018: real time      0.0018
    --------------------------------------------
      LOOP:  cpu time      0.1606: real time      0.1617

 eigenvalue-minimisations  :   400
 total energy-change (2. order) :-0.2666504E-01  (-0.8270482E-04)
 number of electron      54.9999894 magnetization       0.1245467
 augmentation part       35.1311922 magnetization       0.0411775

 Broyden mixing:
  rms(total) = 0.73639E-02    rms(broyden)= 0.73488E-02
  rms(prec ) = 0.80650E-02
  weight for this iteration     100.00

 eigenvalues of (default mixing * dielectric matrix)
  average eigenvalue GAMMA=   1.5978
  9.8822  4.3663  3.4102  1.3143  1.3143  1.1949  1.1949  0.8498  0.8498  0.6838
  0.6838  0.5995  0.5995  0.4779  0.4179  0.4179  0.2518  0.2518

 Free energy of the ion-electron system (eV)
  ---------------------------------------------------
  alpha Z        PSCENC =       137.03633445
  Ewald energy   TEWEN  =     23894.32100839
  -Hartree energ DENC   =    -30596.38443416
  -exchange      EXHF   =         0.00000000
  -V(xc)+E(xc)   XCENC  =       222.93906615
  PAW double counting   =      6531.14547903    -7068.97690454
  entropy T*S    EENTRO =         0.02697432
  eigenvalues    EBANDS =       -93.53453662
  atomic energy  EATOM  =      6954.78820100
  Solvation  Ediel_sol  =         0.00000000
  ---------------------------------------------------
  free energy    TOTEN  =       -18.63881199 eV

  energy without entropy =      -18.66578631  energy(sigma->0) =      -18.64780343


--------------------------------------------------------------------------------------------------------




--------------------------------------- Iteration      1(  24)  ---------------------------------------


    POTLOK:  cpu time      0.0162: real time      0.0165
    SETDIJ:  cpu time      0.0056: real time      0.0056
     EDDAV:  cpu time      0.0993: real time      0.1003
       DOS:  cpu time      0.0007: real time      0.0007
    CHARGE:  cpu time      0.0380: real time      0.0382
    MIXING:  cpu time      0.0017: real time      0.0017
    --------------------------------------------
      LOOP:  cpu time      0.1615: real time      0.1630

 eigenvalue-minimisations  :   448
 total energy-change (2. order) :-0.2205239E-01  (-0.2411869E-03)
 number of electron      54.9999894 magnetization       0.0893078
 augmentation part       35.1424760 magnetization       0.0412222

 Broyden mixing:
  rms(total) = 0.88316E-02    rms(broyden)= 0.88122E-02
  rms(prec ) = 0.10118E-01
  weight for this iteration     100.00

 eigenvalues of (default mixing * dielectric matrix)
  average eigenvalue GAMMA=   1.7125
 10.7496  4.6950  4.1053  1.8828  1.8828  1.2261  1.2261  0.8551  0.8551  0.7044
  0.7044  0.6575  0.6575  0.5262  0.4773  0.4149  0.4149  0.2518  0.2518

 Free energy of the ion-electron system (eV)
  ---------------------------------------------------
  alpha Z        PSCENC =       137.03633445
  Ewald energy   TEWEN  =     23894.32100839
  -Hartree energ DENC   =    -30594.14949454
  -exchange      EXHF   =         0.00000000
  -V(xc)+E(xc)   XCENC  =       222.90830468
  PAW double counting   =      6528.98164737    -7066.64188081
  entropy T*S    EENTRO =         0.02698096
  eigenvalues    EBANDS =       -95.93196587
  atomic energy  EATOM  =      6954.78820100
  Solvation  Ediel_sol  =         0.00000000
  ---------------------------------------------------
  free energy    TOTEN  =       -18.66086437 eV

  energy without entropy =      -18.68784534  energy(sigma->0) =      -18.66985803


--------------------------------------------------------------------------------------------------------




--------------------------------------- Iteration      1(  25)  ---------------------------------------


    POTLOK:  cpu time      0.0151: real time      0.0153
    SETDIJ:  cpu time      0.0054: real time      0.0054
     EDDAV:  cpu time      0.0937: real time      0.0944
       DOS:  cpu time      0.0007: real time      0.0007
    CHARGE:  cpu time      0.0380: real time      0.0382
    MIXING:  cpu time      0.0017: real time      0.0017
    --------------------------------------------
      LOOP:  cpu time      0.1546: real time      0.1557

 eigenvalue-minimisations  :   412
 total energy-change (2. order) :-0.1747703E-01  (-0.6555016E-04)
 number of electron      54.9999894 magnetization       0.0523242
 augmentation part       35.1331624 magnetization       0.0130853

 Broyden mixing:
  rms(total) = 0.61858E-02    rms(broyden)= 0.61726E-02
  rms(prec ) = 0.71491E-02
  weight for this iteration     100.00

 eigenvalues of (default mixing * dielectric matrix)
  average eigenvalue GAMMA=   1.8485
 12.5003  6.2275  4.1077  2.3171  1.6404  1.6404  1.1463  0.8845  0.8845  0.7416
  0.7416  0.6281  0.6281  0.6190  0.2518  0.2518  0.4684  0.4684  0.4114  0.4114

 Free energy of the ion-electron system (eV)
  ---------------------------------------------------
  alpha Z        PSCENC =       137.03633445
  Ewald energy   TEWEN  =     23894.32100839
  -Hartree energ DENC   =    -30594.60324341
  -exchange      EXHF   =         0.00000000
  -V(xc)+E(xc)   XCENC  =       222.89453210
  PAW double counting   =      6529.75570048    -7067.42528172
  entropy T*S    EENTRO =         0.02502681
  eigenvalues    EBANDS =       -95.47061950
  atomic energy  EATOM  =      6954.78820100
  Solvation  Ediel_sol  =         0.00000000
  ---------------------------------------------------
  free energy    TOTEN  =       -18.67834140 eV

  energy without entropy =      -18.70336821  energy(sigma->0) =      -18.68668367


--------------------------------------------------------------------------------------------------------




--------------------------------------- Iteration      1(  26)  ---------------------------------------


    POTLOK:  cpu time      0.0152: real time      0.0154
    SETDIJ:  cpu time      0.0053: real time      0.0053
     EDDAV:  cpu time      0.0848: real time      0.0854
       DOS:  cpu time      0.0007: real time      0.0007
    CHARGE:  cpu time      0.0380: real time      0.0382
    MIXING:  cpu time      0.0019: real time      0.0019
    --------------------------------------------
      LOOP:  cpu time      0.1459: real time      0.1470

 eigenvalue-minimisations  :   352
 total energy-change (2. order) :-0.7091877E-02  (-0.5528867E-04)
 number of electron      54.9999894 magnetization       0.0442183
 augmentation part       35.1341240 magnetization       0.0199582

 Broyden mixing:
  rms(total) = 0.45806E-02    rms(broyden)= 0.45605E-02
  rms(prec ) = 0.51775E-02
  weight for this iteration     100.00

 eigenvalues of (default mixing * dielectric matrix)
  average eigenvalue GAMMA=   1.9109
 13.8900  7.0397  3.9413  2.5026  1.6478  1.6478  1.1045  0.8984  0.8984  0.8499
  0.7509  0.7509  0.6429  0.6429  0.6160  0.4892  0.4854  0.4138  0.4138  0.2518
  0.2518

 Free energy of the ion-electron system (eV)
  ---------------------------------------------------
  alpha Z        PSCENC =       137.03633445
  Ewald energy   TEWEN  =     23894.32100839
  -Hartree energ DENC   =    -30594.15965628
  -exchange      EXHF   =         0.00000000
  -V(xc)+E(xc)   XCENC  =       222.88961438
  PAW double counting   =      6528.00191029    -7065.55090972
  entropy T*S    EENTRO =         0.02480678
  eigenvalues    EBANDS =       -96.03674257
  atomic energy  EATOM  =      6954.78820100
  Solvation  Ediel_sol  =         0.00000000
  ---------------------------------------------------
  free energy    TOTEN  =       -18.68543328 eV

  energy without entropy =      -18.71024006  energy(sigma->0) =      -18.69370221


--------------------------------------------------------------------------------------------------------




--------------------------------------- Iteration      1(  27)  ---------------------------------------


    POTLOK:  cpu time      0.0151: real time      0.0154
    SETDIJ:  cpu time      0.0053: real time      0.0054
     EDDAV:  cpu time      0.0810: real time      0.0816
       DOS:  cpu time      0.0007: real time      0.0007
    CHARGE:  cpu time      0.0377: real time      0.0382
    MIXING:  cpu time      0.0020: real time      0.0020
    --------------------------------------------
      LOOP:  cpu time      0.1420: real time      0.1433

 eigenvalue-minimisations  :   324
 total energy-change (2. order) :-0.1890223E-02  (-0.4288505E-04)
 number of electron      54.9999894 magnetization       0.0323136
 augmentation part       35.1346560 magnetization       0.0132618

 Broyden mixing:
  rms(total) = 0.69043E-02    rms(broyden)= 0.68986E-02
  rms(prec ) = 0.87021E-02
  weight for this iteration     100.00

 eigenvalues of (default mixing * dielectric matrix)
  average eigenvalue GAMMA=   1.9540
 14.9215  7.3052  4.1376  2.6603  1.8644  1.8644  1.1259  1.0421  0.9285  0.9285
  0.7404  0.7404  0.6230  0.6230  0.6452  0.2518  0.2518  0.5585  0.4813  0.4666
  0.4142  0.4142

 Free energy of the ion-electron system (eV)
  ---------------------------------------------------
  alpha Z        PSCENC =       137.03633445
  Ewald energy   TEWEN  =     23894.32100839
  -Hartree energ DENC   =    -30593.92270282
  -exchange      EXHF   =         0.00000000
  -V(xc)+E(xc)   XCENC  =       222.88909118
  PAW double counting   =      6527.49005284    -7065.02344919
  entropy T*S    EENTRO =         0.02491935
  eigenvalues    EBANDS =       -96.29077871
  atomic energy  EATOM  =      6954.78820100
  Solvation  Ediel_sol  =         0.00000000
  ---------------------------------------------------
  free energy    TOTEN  =       -18.68732350 eV

  energy without entropy =      -18.71224285  energy(sigma->0) =      -18.69562995


--------------------------------------------------------------------------------------------------------




--------------------------------------- Iteration      1(  28)  ---------------------------------------


    POTLOK:  cpu time      0.0152: real time      0.0154
    SETDIJ:  cpu time      0.0053: real time      0.0053
     EDDAV:  cpu time      0.0769: real time      0.0775
       DOS:  cpu time      0.0007: real time      0.0007
    CHARGE:  cpu time      0.0379: real time      0.0381
    MIXING:  cpu time      0.0021: real time      0.0021
    --------------------------------------------
      LOOP:  cpu time      0.1381: real time      0.1391

 eigenvalue-minimisations  :   296
 total energy-change (2. order) :-0.1509897E-02  (-0.1378337E-04)
[...]
     29       1.4217     -0.00000
     30       3.4924     -0.00000
     31       5.4838     -0.00000
     32       7.4906      0.00000
     33       8.0284      0.00000
     34       8.6105      0.00000
     35       8.7584      0.00000
     36       9.3748      0.00000

 k-point     3 :      -0.3333    0.3333    0.0000
  band No.  band energies     occupation 
      1      -3.0539      1.00000
      2      -3.0049      1.00000
      3      -2.9939      1.00000
      4      -2.9006      1.00000
      5      -2.8720      1.00000
      6      -2.7511      1.00000
      7      -2.6377      1.00000
      8      -2.5517      1.00000
      9      -2.4704      1.00000
     10      -2.2410      1.00000
     11      -1.9696      1.00000
     12      -1.8646      1.00000
     13      -1.3491      1.00000
     14      -1.3245      1.00000
     15      -1.3162      1.00000
     16      -1.3013      1.00000
     17      -1.2741      1.00000
     18      -1.2609      1.00000
     19      -0.9745      1.00000
     20      -0.8078      1.00000
     21      -0.6893      1.00000
     22      -0.6017      1.00002
     23      -0.5946      1.00003
     24      -0.4661      1.00087
     25      -0.4491      1.00128
     26       4.2813     -0.00000
     27       4.3144     -0.00000
     28       4.5455     -0.00000
     29       4.9078     -0.00000
     30       5.5127      0.00000
     31       5.5767      0.00000
     32       6.3589      0.00000
     33       6.3909      0.00000
     34       7.1055      0.00000
     35       7.7754      0.00000
     36       8.7921      0.00000
 Fermi energy:         0.0463414084

 spin component 2

 k-point     1 :       0.0000    0.0000    0.0000
  band No.  band energies     occupation 
      1      -8.0595      1.00000
      2      -7.0413      1.00000
      3      -5.6605      1.00000
      4      -4.3839      1.00000
      5      -4.0268      1.00000
      6      -2.2107      1.00000
      7      -2.0371      1.00000
      8      -2.0371      1.00000
      9      -2.0149      1.00000
     10      -1.9899      1.00000
     11      -1.9899      1.00000
     12      -1.8491      1.00000
     13      -1.8491      1.00000
     14      -1.6533      1.00000
     15      -1.4017      1.00000
     16      -1.4017      1.00000
     17      -1.3624      1.00000
     18      -1.3089      1.00000
     19      -1.3089      1.00000
     20      -1.1047      1.00000
     21      -1.1047      1.00000
     22      -0.9093      1.00000
     23      -0.9093      1.00000
     24      -0.8142      1.00000
     25      -0.8142      1.00000
     26      -0.3582      1.00742
     27      -0.3582      1.00742
     28      -0.3214      1.01298
     29      -0.3214      1.01298
     30       0.0607      0.43929
     31       0.7643     -0.00000
     32       4.8018     -0.00000
     33       5.2126     -0.00000
     34       5.8602      0.00000
     35       7.3173      0.00000
     36       7.5684      0.00000

 k-point     2 :       0.3333    0.0000    0.0000
  band No.  band energies     occupation 
      1      -5.0178      1.00000
      2      -4.3576      1.00000
      3      -3.6959      1.00000
      4      -3.1930      1.00000
      5      -3.1489      1.00000
      6      -2.8539      1.00000
      7      -2.5309      1.00000
      8      -2.3225      1.00000
      9      -2.1249      1.00000
     10      -2.0312      1.00000
     11      -1.9135      1.00000
     12      -1.8054      1.00000
     13      -1.6279      1.00000
     14      -1.5080      1.00000
     15      -1.3488      1.00000
     16      -1.1670      1.00000
     17      -1.1034      1.00000
     18      -1.0147      1.00000
     19      -0.9805      1.00000
     20      -0.9330      1.00000
     21      -0.8096      1.00000
     22      -0.7095      1.00000
     23      -0.6454      1.00001
     24      -0.4309      1.00190
     25      -0.3872      1.00448
     26      -0.1653      1.03017
     27      -0.1376      1.01468
     28      -0.0886      0.95078
     29       1.4220     -0.00000
     30       3.4928     -0.00000
     31       5.4846     -0.00000
     32       7.4953      0.00000
     33       8.0358      0.00000
     34       8.6273      0.00000
     35       8.7824      0.00000
     36       9.3822      0.00000

 k-point     3 :      -0.3333    0.3333    0.0000
  band No.  band energies     occupation 
      1      -3.0538      1.00000
      2      -3.0049      1.00000
      3      -2.9938      1.00000
      4      -2.9005      1.00000
      5      -2.8719      1.00000
      6      -2.7510      1.00000
      7      -2.6376      1.00000
      8      -2.5516      1.00000
      9      -2.4703      1.00000
     10      -2.2409      1.00000
     11      -1.9695      1.00000
     12      -1.8645      1.00000
     13      -1.3491      1.00000
     14      -1.3244      1.00000
     15      -1.3161      1.00000
     16      -1.3012      1.00000
     17      -1.2738      1.00000
     18      -1.2607      1.00000
     19      -0.9744      1.00000
     20      -0.8077      1.00000
     21      -0.6893      1.00000
     22      -0.6016      1.00002
     23      -0.5945      1.00003
     24      -0.4660      1.00087
     25      -0.4489      1.00129
     26       4.2814     -0.00000
     27       4.3146     -0.00000
     28       4.5457     -0.00000
     29       4.9079     -0.00000
     30       5.5129      0.00000
     31       5.5769      0.00000
     32       6.3591      0.00000
     33       6.3911      0.00000
     34       7.1058      0.00000
     35       7.7757      0.00000
     36       8.7926      0.00000


--------------------------------------------------------------------------------------------------------


 soft charge-density along one line, spin component           1
         0         1         2         3         4         5         6         7         8         9
 total charge-density along one line
 
 soft charge-density along one line, spin component           2
         0         1         2         3         4         5         6         7         8         9
 total charge-density along one line
 
 pseudopotential strength for first ion, spin component:           1
 -7.092  -0.000   0.000  -0.004   0.000  -1.558   0.000  -0.000
 -0.000  -7.160   0.000   0.000  -0.004   0.000  -1.510  -0.000
  0.000   0.000  -7.195   0.000   0.000  -0.000  -0.000  -1.485
 -0.004   0.000   0.000  -7.160  -0.000   0.003  -0.000  -0.000
  0.000  -0.004   0.000  -0.000  -7.092  -0.000   0.003  -0.000
 -1.558   0.000  -0.000   0.003  -0.000   8.082  -0.000   0.000
  0.000  -1.510  -0.000  -0.000   0.003  -0.000   8.050   0.000
 -0.000  -0.000  -1.485  -0.000  -0.000   0.000   0.000   8.032
  0.003  -0.000  -0.000  -1.510   0.000  -0.002  -0.000   0.000
 -0.000   0.003  -0.000   0.000  -1.558   0.000  -0.002   0.000
  0.000   0.000   0.006   0.000   0.000   0.000   0.000  -0.000
  0.000   0.000   0.009   0.000   0.000   0.000   0.000   0.000
  0.000  -0.015  -0.000  -0.000   0.000   0.000   0.012  -0.000
 -0.000   0.000  -0.014   0.000  -0.000  -0.000  -0.000   0.010
  0.000  -0.000  -0.000  -0.015   0.000   0.000  -0.000  -0.000
  0.000  -0.018  -0.000   0.000   0.000   0.000   0.014  -0.000
  0.000   0.000  -0.016   0.000   0.000  -0.000  -0.000   0.010
  0.000   0.000  -0.000  -0.018   0.000   0.000  -0.000  -0.000
 pseudopotential strength for first ion, spin component:           2
 -7.091  -0.000   0.000  -0.004   0.000  -1.558   0.000  -0.000
 -0.000  -7.160   0.000   0.000  -0.004   0.000  -1.510  -0.000
  0.000   0.000  -7.195   0.000   0.000  -0.000  -0.000  -1.485
 -0.004   0.000   0.000  -7.160  -0.000   0.003  -0.000  -0.000
  0.000  -0.004   0.000  -0.000  -7.091  -0.000   0.003  -0.000
 -1.558   0.000  -0.000   0.003  -0.000   8.082  -0.000   0.000
  0.000  -1.510  -0.000  -0.000   0.003  -0.000   8.050   0.000
 -0.000  -0.000  -1.485  -0.000  -0.000   0.000   0.000   8.032
  0.003  -0.000  -0.000  -1.510   0.000  -0.002  -0.000   0.000
 -0.000   0.003  -0.000   0.000  -1.558   0.000  -0.002   0.000
  0.000   0.000   0.006   0.000   0.000   0.000   0.000  -0.000
  0.000   0.000   0.009   0.000   0.000   0.000   0.000   0.000
  0.000  -0.015  -0.000  -0.000   0.000   0.000   0.012  -0.000
 -0.000   0.000  -0.014   0.000  -0.000  -0.000  -0.000   0.010
  0.000  -0.000  -0.000  -0.015   0.000   0.000  -0.000  -0.000
  0.000  -0.018  -0.000   0.000   0.000   0.000   0.014  -0.000
  0.000   0.000  -0.016   0.000   0.000  -0.000  -0.000   0.010
  0.000   0.000  -0.000  -0.018   0.000   0.000  -0.000  -0.000
 total augmentation occupancy for first ion, spin component:           1
  1.942   0.000  -0.000  -0.004  -0.000  -0.016  -0.000   0.000   0.004  -0.000   0.000  -0.000  -0.000  -0.000   0.005   0.000
  0.000   1.929   0.000   0.000  -0.004  -0.000  -0.025  -0.000  -0.000   0.004  -0.000   0.000   0.001   0.000   0.000  -0.015
 -0.000   0.000   1.905   0.000  -0.000   0.000  -0.000  -0.017  -0.000   0.000  -0.092   0.031  -0.000   0.080  -0.000   0.000
 -0.004   0.000   0.000   1.929  -0.000   0.004  -0.000  -0.000  -0.025   0.000   0.000  -0.000   0.000   0.000   0.001  -0.000
 -0.000  -0.004  -0.000  -0.000   1.942  -0.000   0.004   0.000   0.000  -0.016   0.000  -0.000   0.005  -0.000   0.000  -0.001
 -0.016  -0.000   0.000   0.004  -0.000   0.013  -0.000  -0.000   0.000  -0.000   0.000  -0.000  -0.000  -0.000   0.003   0.000
 -0.000  -0.025  -0.000  -0.000   0.004  -0.000   0.009  -0.000   0.000   0.000   0.000   0.000   0.015   0.000   0.000  -0.001
  0.000  -0.000  -0.017  -0.000   0.000  -0.000  -0.000   0.010  -0.000  -0.000  -0.024   0.001  -0.000   0.017  -0.000   0.000
  0.004  -0.000  -0.000  -0.025   0.000   0.000   0.000  -0.000   0.009   0.000   0.000   0.000   0.000   0.000   0.015  -0.000
 -0.000   0.004   0.000   0.000  -0.016   0.000   0.000  -0.000   0.000   0.013   0.000  -0.000   0.003  -0.000   0.000  -0.000
  0.000   0.000  -0.092  -0.000   0.000   0.000   0.000  -0.024   0.000   0.000   1.693  -0.143   0.000   0.153   0.000  -0.000
 -0.000   0.000   0.031  -0.000  -0.000  -0.000  -0.000   0.001  -0.000  -0.000  -0.143   0.017  -0.000  -0.021  -0.000   0.000
 -0.000   0.001  -0.000   0.000   0.005  -0.000   0.015  -0.000   0.000   0.003  -0.000   0.000   0.224   0.000   0.000  -0.014
 -0.000   0.000   0.080  -0.000  -0.000  -0.000   0.000   0.017  -0.000  -0.000   0.153  -0.021   0.000   0.099   0.000   0.000
  0.005   0.000  -0.000   0.001   0.000   0.003   0.000  -0.000   0.015   0.000   0.000   0.000   0.000   0.000   0.224  -0.000
  0.000  -0.015   0.000  -0.000  -0.001   0.000  -0.001   0.000  -0.000  -0.000  -0.000   0.000  -0.014   0.000  -0.000   0.001
  0.000   0.000  -0.022  -0.000   0.000   0.000  -0.000  -0.001   0.000   0.000  -0.021   0.002  -0.000  -0.008   0.000   0.000
 -0.001  -0.000   0.000  -0.015  -0.000  -0.000  -0.000   0.000  -0.001  -0.000  -0.000   0.000  -0.000   0.000  -0.014   0.000
 total augmentation occupancy for first ion, spin component:           2
  0.000  -0.000  -0.000   0.000  -0.000  -0.000   0.000   0.000  -0.000  -0.000  -0.000  -0.000   0.000   0.000  -0.000  -0.000
 -0.000  -0.000  -0.000  -0.000   0.000   0.000   0.000   0.000   0.000  -0.000   0.000   0.000  -0.000   0.000  -0.000  -0.000
 -0.000  -0.000   0.000  -0.000  -0.000   0.000   0.000  -0.000   0.000   0.000   0.000   0.000   0.000  -0.000   0.000  -0.000
  0.000  -0.000  -0.000  -0.000   0.000  -0.000   0.000   0.000   0.000  -0.000  -0.000   0.000  -0.000   0.000  -0.000  -0.000
  0.000   0.000  -0.000   0.000   0.000   0.000  -0.000   0.000  -0.000  -0.000  -0.000  -0.000  -0.000   0.000  -0.000   0.000
 -0.000   0.000   0.000  -0.000  -0.000   0.000  -0.000  -0.000   0.000   0.000   0.000   0.000  -0.000  -0.000   0.000   0.000
  0.000   0.000   0.000   0.000  -0.000  -0.000  -0.000  -0.000  -0.000   0.000   0.000   0.000  -0.000   0.000  -0.000   0.000
  0.000   0.000  -0.000   0.000   0.000  -0.000  -0.000   0.000  -0.000  -0.000  -0.000  -0.000  -0.000   0.000  -0.000   0.000
 -0.000   0.000   0.000   0.000  -0.000   0.000  -0.000  -0.000  -0.000   0.000  -0.000   0.000  -0.000   0.000  -0.000   0.000
  0.000  -0.000   0.000  -0.000  -0.000   0.000   0.000  -0.000   0.000   0.000   0.000   0.000   0.000  -0.000   0.000  -0.000
 -0.000   0.000   0.000   0.000  -0.000   0.000   0.000  -0.000  -0.000   0.000   0.000  -0.000   0.000  -0.000  -0.000   0.000
 -0.000   0.000   0.000   0.000  -0.000   0.000   0.000  -0.000   0.000   0.000  -0.000   0.000  -0.000  -0.000  -0.000   0.000
  0.000  -0.000   0.000  -0.000  -0.000  -0.000  -0.000  -0.000  -0.000   0.000   0.000  -0.000   0.000   0.000   0.000  -0.000
  0.000   0.000  -0.000  -0.000   0.000  -0.000  -0.000   0.000   0.000  -0.000  -0.000  -0.000   0.000   0.000   0.000  -0.000
 -0.000  -0.000   0.000  -0.000  -0.000   0.000  -0.000  -0.000  -0.000   0.000  -0.000   0.000   0.000   0.000   0.000  -0.000
 -0.000  -0.000  -0.000  -0.000   0.000   0.000   0.000   0.000   0.000  -0.000   0.000   0.000  -0.000   0.000  -0.000   0.000
  0.000  -0.000  -0.000  -0.000   0.000   0.000  -0.000  -0.000  -0.000   0.000   0.000  -0.000   0.000  -0.000   0.000   0.000
  0.000  -0.000  -0.000  -0.000   0.000  -0.000   0.000   0.000   0.000  -0.000   0.000   0.000  -0.000   0.000  -0.000   0.000


------------------------ aborting loop because EDIFF is reached ----------------------------------------


    CHARGE:  cpu time      0.0379: real time      0.0381
    FORLOC:  cpu time      0.0005: real time      0.0005
    FORNL :  cpu time      0.0345: real time      0.0347
    STRESS:  cpu time      0.0426: real time      0.0428
    FORCOR:  cpu time      0.0149: real time      0.0149
    FORHAR:  cpu time      0.0020: real time      0.0020
    MIXING:  cpu time      0.0005: real time      0.0005
    OFIELD:  cpu time      0.0000: real time      0.0000

  FORCE on cell =-STRESS in cart. coord.  units (eV):
  Direction    XX          YY          ZZ          XY          YZ          ZX
  --------------------------------------------------------------------------------------
  Alpha Z   137.03633   137.03633   137.03633
  Ewald   28176.79827 28176.79827-31832.21063    -0.00000     0.00000    -0.00000
  Hartree 30074.29770 30074.29770-28928.90822     0.00000    -0.00000    -0.00000
  E(xc)    -321.49130  -321.49122  -321.96778    -0.00007     0.00000     0.00000
  Local  -58883.81674-58883.81965 60140.65711     0.00252    -0.00000    -0.00000
  n-local  -111.06654  -106.02852  -114.14625     4.36330    -0.60632     1.05676
  augment   474.41685   474.41955   469.78088    -0.00235    -0.00000    -0.00000
  Kinetic   457.79374   443.37097   448.70304   -12.49046    -1.15760     2.00513
  Fock        0.00000     0.00000     0.00000     0.00000     0.00000     0.00000
  -------------------------------------------------------------------------------------
  Total      -0.72412    -0.72412    -1.05552    -0.00000    -0.00000    -0.00000
  in kB      -8.69565    -8.69565   -12.67539    -0.00000    -0.00000    -0.00000
  external pressure =      -10.02 kB  Pullay stress =        0.00 kB


 VOLUME and BASIS-vectors are now :
 -----------------------------------------------------------------------------
  energy-cutoff  :      400.00
  volume of cell :      133.42
      direct lattice vectors                 reciprocal lattice vectors
     2.566797733  0.000000000  0.000000000     0.389590495 -0.224930177  0.000000000
     1.283398867  2.222912043  0.000000000     0.000000000  0.449860355  0.000000000
     0.000000000  0.000000000 23.383126160     0.000000000  0.000000000  0.042765881

  length of vectors
     2.566797733  2.566797733 23.383126160     0.449860355  0.449860355  0.042765881


 FORCES acting on ions
    electron-ion (+dipol)            ewald-force                    non-local-force                 convergence-correction
 -----------------------------------------------------------------------------------------------
   -.363E-05 -.209E-05 0.426E+04   0.797E-08 -.251E-08 -.425E+04   0.000E+00 0.000E+00 -.374E+01   -.110E-07 -.638E-08 0.494E-01
   0.398E-05 0.353E-05 0.215E+04   -.218E-07 -.165E-09 -.215E+04   0.000E+00 0.000E+00 0.597E+00   -.766E-08 -.446E-08 0.703E-01
   -.944E-05 -.517E-05 0.118E+02   0.221E-07 0.876E-08 -.119E+02   0.217E-18 -.434E-18 0.485E-01   0.102E-05 0.588E-06 0.937E-01
   0.239E-05 0.138E-05 -.212E+04   0.204E-08 -.930E-08 0.212E+04   -.139E-16 0.139E-16 -.102E+01   -.804E-06 -.464E-06 -.235E+00
   0.618E-05 0.481E-05 -.429E+04   -.103E-07 0.322E-08 0.429E+04   0.694E-17 -.694E-17 0.420E+01   -.182E-05 -.105E-05 -.431E+00
 -----------------------------------------------------------------------------------------------
   -.515E-06 0.245E-05 0.372E+00   0.138E-12 -.751E-13 -.909E-12   -.672E-17 0.651E-17 0.904E-01   -.163E-05 -.938E-06 -.452E+00
 
 
 POSITION                                       TOTAL-FORCE (eV/Angst)
 -----------------------------------------------------------------------------------
      0.00000      0.00000      0.00000         0.000000      0.000000      0.403972
      1.28340      0.74097      2.09578        -0.000000     -0.000000     -0.401866
      2.56680      1.48194      4.16754        -0.000000     -0.000000      0.015853
     -0.00000     -0.00000      6.25107         0.000000      0.000000     -0.009219
      1.28340      0.74097      8.25381         0.000000     -0.000000     -0.008739
 -----------------------------------------------------------------------------------
    total drift:                               -0.000002      0.000002      0.009774


--------------------------------------------------------------------------------------------------------



  FREE ENERGIE OF THE ION-ELECTRON SYSTEM (eV)
  ---------------------------------------------------
  free  energy   TOTEN  =       -18.71201086 eV

  energy  without entropy=      -18.73885244  energy(sigma->0) =      -18.72095805
 
 d Force = 0.2162807E-03[ 0.113E-03, 0.320E-03]  d Energy = 0.2168382E-03-0.557E-06
 d Force =-0.3333984E+02[-0.334E+02,-0.333E+02]  d Ewald  =-0.3333985E+02 0.326E-05


--------------------------------------------------------------------------------------------------------


    POTLOK:  cpu time      0.0209: real time      0.0210


--------------------------------------------------------------------------------------------------------


 stress matrix after NEB project (eV)
     -0.72412     -0.00000     -0.00000
     -0.00000     -0.72412     -0.00000
     -0.00000     -0.00000     -1.05552
  FORCES: max atom, RMS     0.015853    0.009085
  FORCE total and by dimension    0.020315    0.015853
  Stress total and by dimension    1.470651    1.055522


--------------------------------------------------------------------------------------------------------


  
 reached required accuracy - stopping structural energy minimisation
     LOOP+:  cpu time      0.7654: real time      0.8257
    4ORBIT:  cpu time      0.0000: real time      0.0000

 total amount of memory used by VASP MPI-rank0    32673. kBytes
=======================================================================

   base      :      30000. kBytes
   nonl-proj :        251. kBytes
   fftplans  :        571. kBytes
   grid      :       1378. kBytes
   one-center:         31. kBytes
   wavefun   :        442. kBytes
 
  
  
 General timing and accounting informations for this job:
 ========================================================
  
                  Total CPU time used (sec):       19.597
                            User time (sec):       19.363
                          System time (sec):        0.234
                         Elapsed time (sec):       21.372
  
                   Maximum memory used (kb):      203148.
                   Average memory used (kb):          N/A
  
                          Minor page faults:        39392
                          Major page faults:         6337
                 Voluntary context switches:         1883
