unknown system                          
           1
     2.566798    0.000000    0.000000
     1.283399    2.222912    0.000000
     0.000000    0.000000   23.383126
   Cu
     5
Direct configuration=     1
   0.00000000  0.00000000  0.00000000
   0.33333333  0.33333333  0.08962794
   0.66666667  0.66666667  0.17925589
   0.00000000  0.00000000  0.26888383
   0.33333333  0.33333333  0.35851178
Direct configuration=     2
   0.00000000  0.00000000  0.00000000
   0.33333333  0.33333333  0.08962794
   0.66666667  0.66666667  0.17925567
  -0.00000000 -0.00000000  0.26951661
   0.33333333  0.33333333  0.35766006
Direct configuration=     3
   0.00000000  0.00000000  0.00000000
   0.33333333  0.33333333  0.08962794
   0.66666667  0.66666667  0.17925538
  -0.00000000 -0.00000000  0.27034022
   0.33333333  0.33333333  0.35655146
Direct configuration=     4
   0.00000000  0.00000000  0.00000000
   0.33333333  0.33333333  0.08962794
   0.66666667  0.66666667  0.17949821
  -0.00000000 -0.00000000  0.27011828
   0.33333333  0.33333333  0.35618490
Direct configuration=     5
   0.00000000  0.00000000  0.00000000
   0.33333333  0.33333333  0.08962794
   0.66666667  0.66666667  0.18002228
  -0.00000000 -0.00000000  0.26963930
   0.33333333  0.33333333  0.35539383
Direct configuration=     6
   0.00000000  0.00000000  0.00000000
   0.33333333  0.33333333  0.08962794
   0.66666667  0.66666667  0.17982531
  -0.00000000 -0.00000000  0.26927766
   0.33333333  0.33333333  0.35519030
Direct configuration=     7
   0.00000000  0.00000000  0.00000000
   0.33333333  0.33333333  0.08962794
   0.66666667  0.66666667  0.17923440
  -0.00000000 -0.00000000  0.26819272
   0.33333333  0.33333333  0.35457970
Direct configuration=     8
   0.00000000  0.00000000  0.00000000
   0.33333333  0.33333333  0.08962794
   0.66666667  0.66666667  0.17805258
   0.00000000 -0.00000000  0.26602284
   0.33333333  0.33333333  0.35335851
Direct configuration=     9
   0.00000000  0.00000000  0.00000000
   0.33333333  0.33333333  0.08962794
   0.66666667  0.66666667  0.17889111
   0.00000000 -0.00000000  0.26756243
   0.33333333  0.33333333  0.35422498
Direct configuration=    10
   0.00000000  0.00000000  0.00000000
   0.33333333  0.33333333  0.08962794
   0.66666667  0.66666667  0.17905127
   0.00000000 -0.00000000  0.26785648
   0.33333333  0.33333333  0.35439047
Direct configuration=    11
   0.00000000  0.00000000  0.00000000
   0.33333333  0.33333333  0.08962794
   0.66666667  0.66666667  0.17880976
  -0.00000000 -0.00000000  0.26774007
   0.33333333  0.33333333  0.35414170
Direct configuration=    12
   0.00000000  0.00000000  0.00000000
   0.33333333  0.33333333  0.08962794
   0.66666667  0.66666667  0.17808523
  -0.00000000 -0.00000000  0.26739086
   0.33333333  0.33333333  0.35339538
Direct configuration=    13
   0.00000000  0.00000000  0.00000000
   0.33333333  0.33333333  0.08962794
   0.66666667  0.66666667  0.17812107
  -0.00000000 -0.00000000  0.26737625
   0.33333333  0.33333333  0.35329187
Direct configuration=    14
   0.00000000  0.00000000  0.00000000
   0.33333333  0.33333333  0.08962794
   0.66666667  0.66666667  0.17822859
  -0.00000000 -0.00000000  0.26733240
   0.33333333  0.33333333  0.35298134
