   90   90  800    2
  0.2933178E+02  0.1089000E-08  0.1089000E-08  0.2226000E-08  0.5000000E-15
  1.000000000000000E-004
  CAR 
 unknown system                          
    990      3    640
 
  0.0000000E+00  0.0000000E+00  0.0000000E+00  0.1111111E+00
      1         -8.587644       -8.587644   1.000000   1.000000
      2         -7.368252       -7.368252   1.000000   1.000000
      3         -7.309552       -7.309553   1.000000   1.000000
      4         -7.309552       -7.309553   1.000000   1.000000
      5         -7.309552       -7.309553   1.000000   1.000000
      6         -7.309552       -7.309553   1.000000   1.000000
      7         -6.186470       -6.186470   1.000000   1.000000
      8         -6.186470       -6.186470   1.000000   1.000000
      9         -6.186470       -6.186470   1.000000   1.000000
     10         -6.186470       -6.186470   1.000000   1.000000
     11         -6.173932       -6.173932   1.000000   1.000000
     12         -6.173932       -6.173932   1.000000   1.000000
     13         -6.173932       -6.173932   1.000000   1.000000
     14         -6.173932       -6.173932   1.000000   1.000000
     15         -5.681662       -5.681662   1.000000   1.000000
     16         -5.322199       -5.322200   1.000000   1.000000
     17         -5.322199       -5.322200   1.000000   1.000000
     18         -5.322199       -5.322200   1.000000   1.000000
     19         -5.322199       -5.322200   1.000000   1.000000
     20         -4.692884       -4.692884   1.000000   1.000000
     21         -4.692884       -4.692884   1.000000   1.000000
     22         -4.692884       -4.692884   1.000000   1.000000
     23         -4.692884       -4.692884   1.000000   1.000000
     24         -4.664248       -4.664249   1.000000   1.000000
     25         -4.664248       -4.664249   1.000000   1.000000
     26         -4.664248       -4.664249   1.000000   1.000000
     27         -4.664248       -4.664249   1.000000   1.000000
     28         -4.444528       -4.444527   1.000000   1.000000
     29         -4.444528       -4.444527   1.000000   1.000000
     30         -4.444528       -4.444527   1.000000   1.000000
     31         -4.444528       -4.444527   1.000000   1.000000
     32         -4.436806       -4.436807   1.000000   1.000000
     33         -4.359185       -4.359185   1.000000   1.000000
     34         -4.350990       -4.350990   1.000000   1.000000
     35         -4.283051       -4.283051   1.000000   1.000000
     36         -4.275982       -4.275982   1.000000   1.000000
     37         -4.275982       -4.275982   1.000000   1.000000
     38         -4.275982       -4.275982   1.000000   1.000000
     39         -4.275982       -4.275982   1.000000   1.000000
     40         -4.233826       -4.233826   1.000000   1.000000
     41         -4.233826       -4.233826   1.000000   1.000000
     42         -4.233826       -4.233826   1.000000   1.000000
     43         -4.233826       -4.233826   1.000000   1.000000
     44         -4.092994       -4.092994   1.000000   1.000000
     45         -4.092994       -4.092994   1.000000   1.000000
     46         -4.092994       -4.092994   1.000000   1.000000
     47         -4.092994       -4.092994   1.000000   1.000000
     48         -3.953003       -3.953003   1.000000   1.000000
     49         -3.953003       -3.953003   1.000000   1.000000
     50         -3.953003       -3.953003   1.000000   1.000000
     51         -3.953003       -3.953003   1.000000   1.000000
     52         -3.949968       -3.949968   1.000000   1.000000
     53         -3.940492       -3.940492   1.000000   1.000000
     54         -3.906392       -3.906392   1.000000   1.000000
     55         -3.906392       -3.906392   1.000000   1.000000
     56         -3.828499       -3.828499   1.000000   1.000000
     57         -3.828499       -3.828499   1.000000   1.000000
     58         -3.828499       -3.828499   1.000000   1.000000
     59         -3.828499       -3.828499   1.000000   1.000000
     60         -3.811472       -3.811472   1.000000   1.000000
     61         -3.811472       -3.811472   1.000000   1.000000
     62         -3.811472       -3.811472   1.000000   1.000000
     63         -3.811472       -3.811472   1.000000   1.000000
     64         -3.810998       -3.810997   1.000000   1.000000
     65         -3.810998       -3.810997   1.000000   1.000000
     66         -3.810998       -3.810997   1.000000   1.000000
     67         -3.810998       -3.810997   1.000000   1.000000
     68         -3.787349       -3.787348   1.000000   1.000000
     69         -3.787349       -3.787348   1.000000   1.000000
     70         -3.787349       -3.787348   1.000000   1.000000
     71         -3.787349       -3.787348   1.000000   1.000000
     72         -3.668111       -3.668111   1.000000   1.000000
     73         -3.668111       -3.668111   1.000000   1.000000
     74         -3.668111       -3.668111   1.000000   1.000000
     75         -3.668111       -3.668111   1.000000   1.000000
     76         -3.661329       -3.661329   1.000000   1.000000
     77         -3.661329       -3.661329   1.000000   1.000000
     78         -3.661329       -3.661329   1.000000   1.000000
     79         -3.661329       -3.661329   1.000000   1.000000
     80         -3.640067       -3.640066   1.000000   1.000000
     81         -3.640067       -3.640066   1.000000   1.000000
     82         -3.640067       -3.640066   1.000000   1.000000
     83         -3.640067       -3.640066   1.000000   1.000000
     84         -3.610810       -3.610810   1.000000   1.000000
     85         -3.610810       -3.610810   1.000000   1.000000
     86         -3.610810       -3.610810   1.000000   1.000000
     87         -3.610810       -3.610810   1.000000   1.000000
     88         -3.590088       -3.590087   1.000000   1.000000
     89         -3.590088       -3.590087   1.000000   1.000000
     90         -3.590088       -3.590087   1.000000   1.000000
     91         -3.590088       -3.590087   1.000000   1.000000
     92         -3.574397       -3.574397   1.000000   1.000000
     93         -3.574397       -3.574397   1.000000   1.000000
     94         -3.574397       -3.574397   1.000000   1.000000
     95         -3.574397       -3.574397   1.000000   1.000000
     96         -3.566162       -3.566162   1.000000   1.000000
     97         -3.551147       -3.551147   1.000000   1.000000
     98         -3.551147       -3.551147   1.000000   1.000000
     99         -3.551147       -3.551147   1.000000   1.000000
    100         -3.551147       -3.551147   1.000000   1.000000
    101         -3.500260       -3.500260   1.000000   1.000000
    102         -3.460431       -3.460430   1.000000   1.000000
    103         -3.460431       -3.460430   1.000000   1.000000
    104         -3.343892       -3.343891   1.000000   1.000000
    105         -3.343892       -3.343891   1.000000   1.000000
    106         -3.343892       -3.343891   1.000000   1.000000
    107         -3.343892       -3.343891   1.000000   1.000000
    108         -3.327014       -3.327014   1.000000   1.000000
    109         -3.327014       -3.327014   1.000000   1.000000
    110         -3.327014       -3.327014   1.000000   1.000000
    111         -3.327014       -3.327014   1.000000   1.000000
    112         -3.304619       -3.304618   1.000000   1.000000
    113         -3.304619       -3.304618   1.000000   1.000000
    114         -3.304619       -3.304618   1.000000   1.000000
    115         -3.304619       -3.304618   1.000000   1.000000
    116         -3.288991       -3.288991   1.000000   1.000000
    117         -3.279358       -3.279357   1.000000   1.000000
    118         -3.279358       -3.279357   1.000000   1.000000
    119         -3.279358       -3.279357   1.000000   1.000000
    120         -3.279358       -3.279357   1.000000   1.000000
    121         -3.143447       -3.143447   1.000000   1.000000
    122         -3.143447       -3.143447   1.000000   1.000000
    123         -3.143447       -3.143447   1.000000   1.000000
    124         -3.143447       -3.143447   1.000000   1.000000
    125         -3.073653       -3.073653   1.000000   1.000000
    126         -3.052906       -3.052906   1.000000   1.000000
    127         -3.052906       -3.052906   1.000000   1.000000
    128         -3.052906       -3.052906   1.000000   1.000000
    129         -3.052906       -3.052906   1.000000   1.000000
    130         -3.046392       -3.046392   1.000000   1.000000
    131         -3.046392       -3.046392   1.000000   1.000000
    132         -3.046392       -3.046392   1.000000   1.000000
    133         -3.046392       -3.046392   1.000000   1.000000
    134         -3.038494       -3.038494   1.000000   1.000000
    135         -3.038494       -3.038494   1.000000   1.000000
    136         -3.038494       -3.038494   1.000000   1.000000
    137         -3.038494       -3.038494   1.000000   1.000000
    138         -2.954592       -2.954592   1.000000   1.000000
    139         -2.954592       -2.954592   1.000000   1.000000
    140         -2.954592       -2.954592   1.000000   1.000000
    141         -2.954592       -2.954592   1.000000   1.000000
    142         -2.932405       -2.932405   1.000000   1.000000
    143         -2.932405       -2.932405   1.000000   1.000000
    144         -2.932405       -2.932405   1.000000   1.000000
    145         -2.932405       -2.932405   1.000000   1.000000
    146         -2.874712       -2.874712   1.000000   1.000000
    147         -2.874712       -2.874712   1.000000   1.000000
    148         -2.874712       -2.874712   1.000000   1.000000
    149         -2.874712       -2.874712   1.000000   1.000000
    150         -2.843726       -2.843726   1.000000   1.000000
    151         -2.843726       -2.843726   1.000000   1.000000
    152         -2.843726       -2.843726   1.000000   1.000000
    153         -2.843726       -2.843726   1.000000   1.000000
    154         -2.835851       -2.835851   1.000000   1.000000
    155         -2.835851       -2.835851   1.000000   1.000000
    156         -2.835851       -2.835851   1.000000   1.000000
    157         -2.835851       -2.835851   1.000000   1.000000
    158         -2.791443       -2.791443   1.000000   1.000000
    159         -2.791443       -2.791443   1.000000   1.000000
    160         -2.791443       -2.791443   1.000000   1.000000
    161         -2.791443       -2.791443   1.000000   1.000000
    162         -2.769020       -2.769019   1.000000   1.000000
    163         -2.769020       -2.769019   1.000000   1.000000
    164         -2.769020       -2.769019   1.000000   1.000000
    165         -2.769020       -2.769019   1.000000   1.000000
    166         -2.763914       -2.763913   1.000000   1.000000
    167         -2.763914       -2.763913   1.000000   1.000000
    168         -2.763914       -2.763913   1.000000   1.000000
    169         -2.763914       -2.763913   1.000000   1.000000
    170         -2.755624       -2.755624   1.000000   1.000000
    171         -2.755624       -2.755624   1.000000   1.000000
    172         -2.722852       -2.722852   1.000000   1.000000
    173         -2.722852       -2.722852   1.000000   1.000000
    174         -2.722852       -2.722852   1.000000   1.000000
    175         -2.722852       -2.722852   1.000000   1.000000
    176         -2.689006       -2.689006   1.000000   1.000000
    177         -2.689006       -2.689006   1.000000   1.000000
    178         -2.689006       -2.689006   1.000000   1.000000
    179         -2.689006       -2.689006   1.000000   1.000000
    180         -2.682513       -2.682513   1.000000   1.000000
    181         -2.571519       -2.571519   1.000000   1.000000
    182         -2.571519       -2.571519   1.000000   1.000000
    183         -2.571519       -2.571519   1.000000   1.000000
    184         -2.571519       -2.571519   1.000000   1.000000
    185         -2.569888       -2.569888   1.000000   1.000000
    186         -2.569888       -2.569888   1.000000   1.000000
    187         -2.569888       -2.569888   1.000000   1.000000
    188         -2.569888       -2.569888   1.000000   1.000000
    189         -2.560381       -2.560381   1.000000   1.000000
    190         -2.560381       -2.560381   1.000000   1.000000
    191         -2.560381       -2.560381   1.000000   1.000000
    192         -2.560381       -2.560381   1.000000   1.000000
    193         -2.552245       -2.552245   1.000000   1.000000
    194         -2.552245       -2.552245   1.000000   1.000000
    195         -2.548793       -2.548793   1.000000   1.000000
    196         -2.548793       -2.548793   1.000000   1.000000
    197         -2.548793       -2.548793   1.000000   1.000000
    198         -2.548793       -2.548793   1.000000   1.000000
    199         -2.545754       -2.545754   1.000000   1.000000
    200         -2.520533       -2.520533   1.000000   1.000000
    201         -2.520533       -2.520533   1.000000   1.000000
    202         -2.520533       -2.520533   1.000000   1.000000
    203         -2.520533       -2.520533   1.000000   1.000000
    204         -2.506958       -2.506957   1.000000   1.000000
    205         -2.506958       -2.506957   1.000000   1.000000
    206         -2.506958       -2.506957   1.000000   1.000000
    207         -2.506958       -2.506957   1.000000   1.000000
    208         -2.493842       -2.493841   1.000000   1.000000
    209         -2.493842       -2.493841   1.000000   1.000000
    210         -2.493842       -2.493841   1.000000   1.000000
    211         -2.493842       -2.493841   1.000000   1.000000
    212         -2.486984       -2.486984   1.000000   1.000000
    213         -2.486984       -2.486984   1.000000   1.000000
    214         -2.486984       -2.486984   1.000000   1.000000
    215         -2.486984       -2.486984   1.000000   1.000000
    216         -2.463946       -2.463946   1.000000   1.000000
    217         -2.463946       -2.463946   1.000000   1.000000
    218         -2.463946       -2.463946   1.000000   1.000000
    219         -2.463946       -2.463945   1.000000   1.000000
    220         -2.402344       -2.402344   1.000000   1.000000
    221         -2.402344       -2.402344   1.000000   1.000000
    222         -2.402344       -2.402344   1.000000   1.000000
    223         -2.402344       -2.402344   1.000000   1.000000
    224         -2.396461       -2.396461   1.000000   1.000000
    225         -2.396461       -2.396461   1.000000   1.000000
    226         -2.396461       -2.396461   1.000000   1.000000
    227         -2.396461       -2.396461   1.000000   1.000000
    228         -2.293060       -2.293060   1.000000   1.000000
    229         -2.293060       -2.293060   1.000000   1.000000
    230         -2.293060       -2.293060   1.000000   1.000000
    231         -2.293060       -2.293060   1.000000   1.000000
    232         -2.278237       -2.278238   1.000000   1.000000
    233         -2.278237       -2.278238   1.000000   1.000000
    234         -2.278237       -2.278238   1.000000   1.000000
    235         -2.278237       -2.278238   1.000000   1.000000
    236         -2.259119       -2.259119   1.000000   1.000000
    237         -2.259119       -2.259119   1.000000   1.000000
    238         -2.259119       -2.259119   1.000000   1.000000
    239         -2.259119       -2.259119   1.000000   1.000000
    240         -2.255892       -2.255892   1.000000   1.000000
    241         -2.255892       -2.255892   1.000000   1.000000
    242         -2.255892       -2.255892   1.000000   1.000000
    243         -2.255892       -2.255892   1.000000   1.000000
    244         -2.218025       -2.218024   1.000000   1.000000
    245         -2.218025       -2.218024   1.000000   1.000000
    246         -2.218025       -2.218024   1.000000   1.000000
    247         -2.218025       -2.218024   1.000000   1.000000
    248         -2.189576       -2.189575   1.000000   1.000000
    249         -2.189576       -2.189575   1.000000   1.000000
    250         -2.182692       -2.182692   1.000000   1.000000
    251         -2.182692       -2.182692   1.000000   1.000000
    252         -2.182692       -2.182692   1.000000   1.000000
    253         -2.182692       -2.182692   1.000000   1.000000
    254         -2.164124       -2.164123   1.000000   1.000000
    255         -2.164124       -2.164123   1.000000   1.000000
    256         -2.164124       -2.164123   1.000000   1.000000
    257         -2.164124       -2.164123   1.000000   1.000000
    258         -2.147239       -2.147238   1.000000   1.000000
    259         -2.147239       -2.147238   1.000000   1.000000
    260         -2.147239       -2.147238   1.000000   1.000000
    261         -2.147239       -2.147238   1.000000   1.000000
    262         -2.131762       -2.131762   1.000000   1.000000
    263         -2.131762       -2.131762   1.000000   1.000000
    264         -2.131762       -2.131762   1.000000   1.000000
    265         -2.131762       -2.131762   1.000000   1.000000
    266         -2.128620       -2.128620   1.000000   1.000000
    267         -2.128620       -2.128620   1.000000   1.000000
    268         -2.128620       -2.128620   1.000000   1.000000
    269         -2.128620       -2.128620   1.000000   1.000000
    270         -2.100329       -2.100330   1.000000   1.000000
    271         -2.100329       -2.100330   1.000000   1.000000
    272         -2.100329       -2.100330   1.000000   1.000000
    273         -2.100329       -2.100330   1.000000   1.000000
    274         -2.029995       -2.029995   1.000000   1.000000
    275         -2.010078       -2.010078   1.000000   1.000000
    276         -2.010078       -2.010078   1.000000   1.000000
    277         -2.010078       -2.010078   1.000000   1.000000
    278         -2.010078       -2.010078   1.000000   1.000000
    279         -1.976443       -1.976443   1.000000   1.000000
    280         -1.976443       -1.976443   1.000000   1.000000
    281         -1.976443       -1.976443   1.000000   1.000000
    282         -1.976443       -1.976443   1.000000   1.000000
    283         -1.961041       -1.961042   1.000000   1.000000
    284         -1.961041       -1.961042   1.000000   1.000000
    285         -1.961041       -1.961042   1.000000   1.000000
    286         -1.961041       -1.961042   1.000000   1.000000
    287         -1.949701       -1.949700   1.000000   1.000000
    288         -1.949701       -1.949700   1.000000   1.000000
    289         -1.949701       -1.949700   1.000000   1.000000
    290         -1.949701       -1.949700   1.000000   1.000000
    291         -1.923693       -1.923693   1.000000   1.000000
    292         -1.923693       -1.923693   1.000000   1.000000
    293         -1.895169       -1.895169   1.000000   1.000000
    294         -1.895169       -1.895169   1.000000   1.000000
    295         -1.895169       -1.895169   1.000000   1.000000
    296         -1.895169       -1.895169   1.000000   1.000000
    297         -1.873864       -1.873864   1.000000   1.000000
    298         -1.873864       -1.873864   1.000000   1.000000
    299         -1.873864       -1.873864   1.000000   1.000000
    300         -1.873864       -1.873864   1.000000   1.000000
    301         -1.868755       -1.868755   1.000000   1.000000
    302         -1.866662       -1.866662   1.000000   1.000000
    303         -1.866662       -1.866662   1.000000   1.000000
    304         -1.866662       -1.866662   1.000000   1.000000
    305         -1.866662       -1.866662   1.000000   1.000000
    306         -1.801923       -1.801922   1.000000   1.000000
    307         -1.801923       -1.801922   1.000000   1.000000
    308         -1.801923       -1.801922   1.000000   1.000000
    309         -1.801923       -1.801922   1.000000   1.000000
    310         -1.797521       -1.797521   1.000000   1.000000
    311         -1.757296       -1.757296   1.000000   1.000000
    312         -1.757296       -1.757296   1.000000   1.000000
    313         -1.757296       -1.757296   1.000000   1.000000
    314         -1.757296       -1.757296   1.000000   1.000000
    315         -1.740296       -1.740296   1.000000   1.000000
    316         -1.740296       -1.740296   1.000000   1.000000
    317         -1.740296       -1.740296   1.000000   1.000000
    318         -1.740296       -1.740296   1.000000   1.000000
    319         -1.732788       -1.732788   1.000000   1.000000
    320         -1.732788       -1.732788   1.000000   1.000000
    321         -1.732788       -1.732788   1.000000   1.000000
    322         -1.732788       -1.732788   1.000000   1.000000
    323         -1.724463       -1.724463   1.000000   1.000000
    324         -1.724463       -1.724463   1.000000   1.000000
    325         -1.724463       -1.724463   1.000000   1.000000
    326         -1.724463       -1.724463   1.000000   1.000000
    327         -1.719275       -1.719275   1.000000   1.000000
    328         -1.679660       -1.679660   1.000000   1.000000
    329         -1.679660       -1.679660   1.000000   1.000000
    330         -1.677601       -1.677601   1.000000   1.000000
    331         -1.677601       -1.677601   1.000000   1.000000
    332         -1.677601       -1.677601   1.000000   1.000000
    333         -1.677601       -1.677601   1.000000   1.000000
    334         -1.673737       -1.673737   1.000000   1.000000
    335         -1.673737       -1.673737   1.000000   1.000000
    336         -1.673737       -1.673737   1.000000   1.000000
    337         -1.673737       -1.673737   1.000000   1.000000
    338         -1.667537       -1.667537   1.000000   1.000000
    339         -1.667537       -1.667537   1.000000   1.000000
    340         -1.667537       -1.667537   1.000000   1.000000
    341         -1.667537       -1.667537   1.000000   1.000000
    342         -1.627126       -1.627125   1.000000   1.000000
    343         -1.620691       -1.620691   1.000000   1.000000
    344         -1.620691       -1.620691   1.000000   1.000000
    345         -1.620691       -1.620691   1.000000   1.000000
    346         -1.620691       -1.620691   1.000000   1.000000
    347         -1.613361       -1.613360   1.000000   1.000000
    348         -1.593516       -1.593516   1.000000   1.000000
    349         -1.593516       -1.593516   1.000000   1.000000
    350         -1.593516       -1.593516   1.000000   1.000000
    351         -1.593516       -1.593516   1.000000   1.000000
    352         -1.584173       -1.584173   1.000000   1.000000
    353         -1.584173       -1.584173   1.000000   1.000000
    354         -1.584173       -1.584173   1.000000   1.000000
    355         -1.584173       -1.584173   1.000000   1.000000
    356         -1.567547       -1.567547   1.000000   1.000000
    357         -1.545560       -1.545559   1.000000   1.000000
    358         -1.545560       -1.545559   1.000000   1.000000
    359         -1.545560       -1.545559   1.000000   1.000000
    360         -1.545560       -1.545559   1.000000   1.000000
    361         -1.541607       -1.541607   1.000000   1.000000
    362         -1.541607       -1.541607   1.000000   1.000000
    363         -1.541607       -1.541607   1.000000   1.000000
    364         -1.541607       -1.541607   1.000000   1.000000
    365         -1.487329       -1.487329   1.000000   1.000000
    366         -1.487329       -1.487329   1.000000   1.000000
    367         -1.487329       -1.487329   1.000000   1.000000
    368         -1.487329       -1.487329   1.000000   1.000000
    369         -1.454567       -1.454567   1.000000   1.000000
    370         -1.454567       -1.454567   1.000000   1.000000
    371         -1.454567       -1.454567   1.000000   1.000000
    372         -1.454567       -1.454567   1.000000   1.000000
    373         -1.441979       -1.441979   1.000000   1.000000
    374         -1.441979       -1.441979   1.000000   1.000000
    375         -1.441979       -1.441979   1.000000   1.000000
    376         -1.441979       -1.441979   1.000000   1.000000
    377         -1.440506       -1.440506   1.000000   1.000000
    378         -1.440506       -1.440506   1.000000   1.000000
    379         -1.440506       -1.440506   1.000000   1.000000
    380         -1.440506       -1.440506   1.000000   1.000000
    381         -1.435573       -1.435573   1.000000   1.000000
    382         -1.435573       -1.435573   1.000000   1.000000
    383         -1.435573       -1.435573   1.000000   1.000000
    384         -1.435573       -1.435573   1.000000   1.000000
    385         -1.412615       -1.412616   1.000000   1.000000
    386         -1.412615       -1.412616   1.000000   1.000000
    387         -1.412615       -1.412616   1.000000   1.000000
    388         -1.412615       -1.412616   1.000000   1.000000
    389         -1.388873       -1.388873   1.000000   1.000000
    390         -1.388873       -1.388872   1.000000   1.000000
    391         -1.388873       -1.388872   1.000000   1.000000
    392         -1.388873       -1.388872   1.000000   1.000000
    393         -1.383003       -1.383003   1.000000   1.000000
    394         -1.374996       -1.374996   1.000000   1.000000
    395         -1.346323       -1.346323   1.000000   1.000000
    396         -1.346323       -1.346323   1.000000   1.000000
    397         -1.346323       -1.346323   1.000000   1.000000
    398         -1.346323       -1.346323   1.000000   1.000000
    399         -1.342630       -1.342630   1.000000   1.000000
    400         -1.342630       -1.342630   1.000000   1.000000
    401         -1.342630       -1.342630   1.000000   1.000000
    402         -1.342630       -1.342630   1.000000   1.000000
    403         -1.311830       -1.311830   1.000000   1.000000
    404         -1.311830       -1.311830   1.000000   1.000000
    405         -1.311830       -1.311830   1.000000   1.000000
    406         -1.311830       -1.311830   1.000000   1.000000
    407         -1.307763       -1.307763   1.000000   1.000000
    408         -1.299807       -1.299807   1.000000   1.000000
    409         -1.299807       -1.299807   1.000000   1.000000
    410         -1.299807       -1.299807   1.000000   1.000000
    411         -1.299807       -1.299807   1.000000   1.000000
    412         -1.281386       -1.281387   1.000000   1.000000
    413         -1.281386       -1.281387   1.000000   1.000000
    414         -1.281386       -1.281387   1.000000   1.000000
    415         -1.281386       -1.281387   1.000000   1.000000
    416         -1.275759       -1.275759   1.000000   1.000000
    417         -1.275759       -1.275759   1.000000   1.000000
    418         -1.275759       -1.275759   1.000000   1.000000
    419         -1.275759       -1.275759   1.000000   1.000000
    420         -1.258291       -1.258291   1.000000   1.000000
    421         -1.240884       -1.240884   1.000000   1.000000
    422         -1.240884       -1.240884   1.000000   1.000000
    423         -1.233847       -1.233847   1.000000   1.000000
    424         -1.233847       -1.233847   1.000000   1.000000
    425         -1.233847       -1.233847   1.000000   1.000000
    426         -1.233847       -1.233847   1.000000   1.000000
    427         -1.223469       -1.223469   1.000000   1.000000
    428         -1.223469       -1.223469   1.000000   1.000000
    429         -1.216282       -1.216282   1.000000   1.000000
    430         -1.216282       -1.216282   1.000000   1.000000
    431         -1.216282       -1.216282   1.000000   1.000000
    432         -1.216282       -1.216282   1.000000   1.000000
    433         -1.199743       -1.199743   1.000000   1.000000
    434         -1.199743       -1.199743   1.000000   1.000000
    435         -1.199743       -1.199743   1.000000   1.000000
    436         -1.199743       -1.199743   1.000000   1.000000
    437         -1.160474       -1.160474   1.000000   1.000000
    438         -1.158725       -1.158722   1.000000   1.000000
    439         -1.157936       -1.157936   1.000000   1.000000
    440         -1.157936       -1.157936   1.000000   1.000000
    441         -1.157936       -1.157936   1.000000   1.000000
    442         -1.157936       -1.157936   1.000000   1.000000
    443         -1.146824       -1.146824   1.000000   1.000000
    444         -1.146824       -1.146824   1.000000   1.000000
    445         -1.146824       -1.146824   1.000000   1.000000
    446         -1.146824       -1.146824   1.000000   1.000000
    447         -1.126442       -1.126441   1.000000   1.000000
    448         -1.126442       -1.126441   1.000000   1.000000
    449         -1.126442       -1.126441   1.000000   1.000000
    450         -1.126442       -1.126441   1.000000   1.000000
    451         -1.118527       -1.118527   1.000000   1.000000
    452         -1.112850       -1.112850   1.000000   1.000000
    453         -1.085643       -1.085643   1.000000   1.000000
    454         -1.085643       -1.085643   1.000000   1.000000
    455         -1.085643       -1.085643   1.000000   1.000000
    456         -1.085643       -1.085643   1.000000   1.000000
    457         -1.078107       -1.078107   1.000000   1.000000
    458         -1.071706       -1.071706   1.000000   1.000000
    459         -1.071706       -1.071706   1.000000   1.000000
    460         -1.071706       -1.071706   1.000000   1.000000
    461         -1.071706       -1.071706   1.000000   1.000000
    462         -1.052396       -1.052396   1.000000   1.000000
    463         -1.052396       -1.052396   1.000000   1.000000
    464         -1.051687       -1.051687   1.000000   1.000000