unknown system                          
           1
    10.890000    0.000000    0.000000
     0.000000   10.890000    0.000000
     0.000000    0.000000   22.260000
   Cu
    90
Direct configuration=     1
   0.00000000  0.00000000  0.00000000
   0.00000000  0.33333333  0.00000000
   0.00000000  0.66666667  0.00000000
   0.33333333  0.00000000  0.00000000
   0.33333333  0.33333333  0.00000000
   0.33333333  0.66666667  0.00000000
   0.66666667  0.00000000  0.00000000
   0.66666667  0.33333333  0.00000000
   0.66666667  0.66666667  0.00000000
   0.16666667  0.16666667  0.00000000
   0.16666667  0.50000000  0.00000000
   0.16666667  0.83333333  0.00000000
   0.50000000  0.16666667  0.00000000
   0.50000000  0.50000000  0.00000000
   0.50000000  0.83333333  0.00000000
   0.83333333  0.16666667  0.00000000
   0.83333333  0.50000000  0.00000000
   0.83333333  0.83333333  0.00000000
   0.00000000  0.16666667  0.08153639
   0.00000000  0.50000000  0.08153639
   0.00000000  0.83333333  0.08153639
   0.33333333  0.16666667  0.08153639
   0.33333333  0.50000000  0.08153639
   0.33333333  0.83333333  0.08153639
   0.66666667  0.16666667  0.08153639
   0.66666667  0.50000000  0.08153639
   0.66666667  0.83333333  0.08153639
   0.16666667  0.00000000  0.08153639
   0.16666667  0.33333333  0.08153639
   0.16666667  0.66666667  0.08153639
   0.50000000  0.00000000  0.08153639
   0.50000000  0.33333333  0.08153639
   0.50000000  0.66666667  0.08153639
   0.83333333  0.00000000  0.08153639
   0.83333333  0.33333333  0.08153639
   0.83333333  0.66666667  0.08153639
   0.00000000  0.00000000  0.16307278
   0.00000000  0.33333333  0.16307278
   0.00000000  0.66666667  0.16307278
   0.33333333  0.00000000  0.16307278
   0.33333333  0.33333333  0.16307278
   0.33333333  0.66666667  0.16307278
   0.66666667  0.00000000  0.16307278
   0.66666667  0.33333333  0.16307278
   0.66666667  0.66666667  0.16307278
   0.16666667  0.16666667  0.16307278
   0.16666667  0.50000000  0.16307278
   0.16666667  0.83333333  0.16307278
   0.50000000  0.16666667  0.16307278
   0.50000000  0.50000000  0.16307278
   0.50000000  0.83333333  0.16307278
   0.83333333  0.16666667  0.16307278
   0.83333333  0.50000000  0.16307278
   0.83333333  0.83333333  0.16307278
   0.00000000  0.16666667  0.24460917
   0.00000000  0.50000000  0.24460917
   0.00000000  0.83333333  0.24460917
   0.33333333  0.16666667  0.24460917
   0.33333333  0.50000000  0.24460917
   0.33333333  0.83333333  0.24460917
   0.66666667  0.16666667  0.24460917
   0.66666667  0.50000000  0.24460917
   0.66666667  0.83333333  0.24460917
   0.16666667  0.00000000  0.24460917
   0.16666667  0.33333333  0.24460917
   0.16666667  0.66666667  0.24460917
   0.50000000  0.00000000  0.24460917
   0.50000000  0.33333333  0.24460917
   0.50000000  0.66666667  0.24460917
   0.83333333  0.00000000  0.24460917
   0.83333333  0.33333333  0.24460917
   0.83333333  0.66666667  0.24460917
   0.00000000  0.00000000  0.32614556
   0.00000000  0.33333333  0.32614556
   0.00000000  0.66666667  0.32614556
   0.33333333  0.00000000  0.32614556
   0.33333333  0.33333333  0.32614556
   0.33333333  0.66666667  0.32614556
   0.66666667  0.00000000  0.32614556
   0.66666667  0.33333333  0.32614556
   0.66666667  0.66666667  0.32614556
   0.16666667  0.16666667  0.32614556
   0.16666667  0.50000000  0.32614556
   0.16666667  0.83333333  0.32614556
   0.50000000  0.16666667  0.32614556
   0.50000000  0.50000000  0.32614556
   0.50000000  0.83333333  0.32614556
   0.83333333  0.16666667  0.32614556
   0.83333333  0.50000000  0.32614556
   0.83333333  0.83333333  0.32614556
Direct configuration=     2
   0.00000000  0.00000000  0.00000000
   0.00000000  0.33333333  0.00000000
   0.00000000  0.66666667  0.00000000
   0.33333333  0.00000000  0.00000000
   0.33333333  0.33333333  0.00000000
   0.33333333  0.66666667  0.00000000
   0.66666667  0.00000000  0.00000000
   0.66666667  0.33333333  0.00000000
   0.66666667  0.66666667  0.00000000
   0.16666667  0.16666667  0.00000000
   0.16666667  0.50000000  0.00000000
   0.16666667  0.83333333  0.00000000
   0.50000000  0.16666667  0.00000000
   0.50000000  0.50000000  0.00000000
   0.50000000  0.83333333  0.00000000
   0.83333333  0.16666667  0.00000000
   0.83333333  0.50000000  0.00000000
   0.83333333  0.83333333  0.00000000
   0.00000000  0.16666667  0.08153639
   0.00000000  0.50000000  0.08153639
   0.00000000  0.83333333  0.08153639
   0.33333333  0.16666667  0.08153639
   0.33333333  0.50000000  0.08153639
   0.33333333  0.83333333  0.08153639
   0.66666667  0.16666667  0.08153639
   0.66666667  0.50000000  0.08153639
   0.66666667  0.83333333  0.08153639
   0.16666667  0.00000000  0.08153639
   0.16666667  0.33333333  0.08153639
   0.16666667  0.66666667  0.08153639
   0.50000000  0.00000000  0.08153639
   0.50000000  0.33333333  0.08153639
   0.50000000  0.66666667  0.08153639
   0.83333333  0.00000000  0.08153639
   0.83333333  0.33333333  0.08153639
   0.83333333  0.66666667  0.08153639
   0.00000000  0.00000000  0.16307824
   0.00000000  0.33333333  0.16307824
  -0.00000000  0.66666667  0.16307824
   0.33333333 -0.00000000  0.16307824
   0.33333333  0.33333333  0.16307824
   0.33333333  0.66666667  0.16307824
   0.66666667  0.00000000  0.16307824
   0.66666667  0.33333333  0.16307824
   0.66666667  0.66666667  0.16307824
   0.16666667  0.16666667  0.16307824
   0.16666667  0.50000000  0.16307824
   0.16666667  0.83333333  0.16307824
   0.50000000  0.16666667  0.16307824
   0.50000000  0.50000000  0.16307824
   0.50000000  0.83333333  0.16307824
   0.83333333  0.16666667  0.16307824
   0.83333333  0.50000000  0.16307824
   0.83333333  0.83333333  0.16307824
   0.00000000  0.16666667  0.24491155
  -0.00000000  0.50000000  0.24491155
  -0.00000000  0.83333333  0.24491155
   0.33333333  0.16666667  0.24491155
   0.33333333  0.50000000  0.24491155
   0.33333333  0.83333333  0.24491155
   0.66666667  0.16666667  0.24491155
   0.66666667  0.50000000  0.24491155
   0.66666667  0.83333333  0.24491155
   0.16666667 -0.00000000  0.24491155
   0.16666667  0.33333333  0.24491155
   0.16666667  0.66666667  0.24491155
   0.50000000 -0.00000000  0.24491155
   0.50000000  0.33333333  0.24491155
   0.50000000  0.66666667  0.24491155
   0.83333333 -0.00000000  0.24491155
   0.83333333  0.33333333  0.24491155
   0.83333333  0.66666667  0.24491155
  -0.00000000 -0.00000000  0.32546156
  -0.00000000  0.33333333  0.32546156
  -0.00000000  0.66666667  0.32546156
   0.33333333 -0.00000000  0.32546156
   0.33333333  0.33333333  0.32546156
   0.33333333  0.66666667  0.32546156
   0.66666667  0.00000000  0.32546156
   0.66666667  0.33333333  0.32546156
   0.66666667  0.66666667  0.32546156
   0.16666667  0.16666667  0.32546156
   0.16666667  0.50000000  0.32546156
   0.16666667  0.83333333  0.32546156
   0.50000000  0.16666667  0.32546156
   0.50000000  0.50000000  0.32546156
   0.50000000  0.83333333  0.32546156
   0.83333333  0.16666667  0.32546156
   0.83333333  0.50000000  0.32546156
   0.83333333  0.83333333  0.32546156
Direct configuration=     3
   0.00000000  0.00000000  0.00000000
   0.00000000  0.33333333  0.00000000
   0.00000000  0.66666667  0.00000000
   0.33333333  0.00000000  0.00000000
   0.33333333  0.33333333  0.00000000
   0.33333333  0.66666667  0.00000000
   0.66666667  0.00000000  0.00000000
   0.66666667  0.33333333  0.00000000
   0.66666667  0.66666667  0.00000000
   0.16666667  0.16666667  0.00000000
   0.16666667  0.50000000  0.00000000
   0.16666667  0.83333333  0.00000000
   0.50000000  0.16666667  0.00000000
   0.50000000  0.50000000  0.00000000
   0.50000000  0.83333333  0.00000000
   0.83333333  0.16666667  0.00000000
   0.83333333  0.50000000  0.00000000
   0.83333333  0.83333333  0.00000000
   0.00000000  0.16666667  0.08153639
   0.00000000  0.50000000  0.08153639
   0.00000000  0.83333333  0.08153639
   0.33333333  0.16666667  0.08153639
   0.33333333  0.50000000  0.08153639
   0.33333333  0.83333333  0.08153639
   0.66666667  0.16666667  0.08153639
   0.66666667  0.50000000  0.08153639
   0.66666667  0.83333333  0.08153639
   0.16666667  0.00000000  0.08153639
   0.16666667  0.33333333  0.08153639
   0.16666667  0.66666667  0.08153639
   0.50000000  0.00000000  0.08153639
   0.50000000  0.33333333  0.08153639
   0.50000000  0.66666667  0.08153639
   0.83333333  0.00000000  0.08153639
   0.83333333  0.33333333  0.08153639
   0.83333333  0.66666667  0.08153639
   0.00000000  0.00000000  0.16308926
   0.00000000  0.33333333  0.16308926
  -0.00000000  0.66666667  0.16308926
   0.33333333 -0.00000000  0.16308926
   0.33333333  0.33333333  0.16308926
   0.33333333  0.66666667  0.16308926
   0.66666667  0.00000000  0.16308926
   0.66666667  0.33333333  0.16308926
   0.66666667  0.66666667  0.16308926
   0.16666667  0.16666667  0.16308926
   0.16666667  0.50000000  0.16308926
   0.16666667  0.83333333  0.16308926
   0.50000000  0.16666667  0.16308926
   0.50000000  0.50000000  0.16308926
   0.50000000  0.83333333  0.16308926
   0.83333333  0.16666667  0.16308926
   0.83333333  0.50000000  0.16308926
   0.83333333  0.83333333  0.16308926
   0.00000000  0.16666667  0.24552109
  -0.00000000  0.50000000  0.24552109
  -0.00000000  0.83333333  0.24552109
   0.33333333  0.16666667  0.24552109
   0.33333333  0.50000000  0.24552109
   0.33333333  0.83333333  0.24552109
   0.66666667  0.16666667  0.24552109
   0.66666667  0.50000000  0.24552109
   0.66666667  0.83333333  0.24552109
   0.16666667 -0.00000000  0.24552109
   0.16666667  0.33333333  0.24552109
   0.16666667  0.66666667  0.24552109
   0.50000000 -0.00000000  0.24552109
   0.50000000  0.33333333  0.24552109
   0.50000000  0.66666667  0.24552109
   0.83333333 -0.00000000  0.24552109
   0.83333333  0.33333333  0.24552109
   0.83333333  0.66666667  0.24552109
  -0.00000000 -0.00000000  0.32408276
  -0.00000000  0.33333333  0.32408276
  -0.00000000  0.66666667  0.32408276
   0.33333333 -0.00000000  0.32408276
   0.33333333  0.33333333  0.32408276
   0.33333333  0.66666667  0.32408276
   0.66666667  0.00000000  0.32408276
   0.66666667  0.33333333  0.32408276
   0.66666667  0.66666667  0.32408276
   0.16666667  0.16666667  0.32408276
   0.16666667  0.50000000  0.32408276
   0.16666667  0.83333333  0.32408276
   0.50000000  0.16666667  0.32408276
   0.50000000  0.50000000  0.32408276
   0.50000000  0.83333333  0.32408276
   0.83333333  0.16666667  0.32408276
   0.83333333  0.50000000  0.32408276
   0.83333333  0.83333333  0.32408276
Direct configuration=     4
   0.00000000  0.00000000  0.00000000
   0.00000000  0.33333333  0.00000000
   0.00000000  0.66666667  0.00000000
   0.33333333  0.00000000  0.00000000
   0.33333333  0.33333333  0.00000000
   0.33333333  0.66666667  0.00000000
   0.66666667  0.00000000  0.00000000
   0.66666667  0.33333333  0.00000000
   0.66666667  0.66666667  0.00000000
   0.16666667  0.16666667  0.00000000
   0.16666667  0.50000000  0.00000000
   0.16666667  0.83333333  0.00000000
   0.50000000  0.16666667  0.00000000
   0.50000000  0.50000000  0.00000000
   0.50000000  0.83333333  0.00000000
   0.83333333  0.16666667  0.00000000
   0.83333333  0.50000000  0.00000000
   0.83333333  0.83333333  0.00000000
   0.00000000  0.16666667  0.08153639
   0.00000000  0.50000000  0.08153639
   0.00000000  0.83333333  0.08153639
   0.33333333  0.16666667  0.08153639
   0.33333333  0.50000000  0.08153639
   0.33333333  0.83333333  0.08153639
   0.66666667  0.16666667  0.08153639
   0.66666667  0.50000000  0.08153639
   0.66666667  0.83333333  0.08153639
   0.16666667  0.00000000  0.08153639
   0.16666667  0.33333333  0.08153639
   0.16666667  0.66666667  0.08153639
   0.50000000  0.00000000  0.08153639
   0.50000000  0.33333333  0.08153639
   0.50000000  0.66666667  0.08153639
   0.83333333  0.00000000  0.08153639
   0.83333333  0.33333333  0.08153639
   0.83333333  0.66666667  0.08153639
   0.00000000  0.00000000  0.16324406
   0.00000000  0.33333333  0.16324406
   0.00000000  0.66666667  0.16324406
   0.33333333 -0.00000000  0.16324406
   0.33333333  0.33333333  0.16324406
   0.33333333  0.66666667  0.16324406
   0.66666667  0.00000000  0.16324406
   0.66666667  0.33333333  0.16324406
   0.66666667  0.66666667  0.16324406
   0.16666667  0.16666667  0.16324406
   0.16666667  0.50000000  0.16324406
   0.16666667  0.83333333  0.16324406
   0.50000000  0.16666667  0.16324406
   0.50000000  0.50000000  0.16324406
   0.50000000  0.83333333  0.16324406
   0.83333333  0.16666667  0.16324406
   0.83333333  0.50000000  0.16324406
   0.83333333  0.83333333  0.16324406
   0.00000000  0.16666667  0.24514413
  -0.00000000  0.50000000  0.24514413
   0.00000000  0.83333333  0.24514413
   0.33333333  0.16666667  0.24514413
   0.33333333  0.50000000  0.24514413
   0.33333333  0.83333333  0.24514413
   0.66666667  0.16666667  0.24514413
   0.66666667  0.50000000  0.24514413
   0.66666667  0.83333333  0.24514413
   0.16666667 -0.00000000  0.24514413
   0.16666667  0.33333333  0.24514413
   0.16666667  0.66666667  0.24514413
   0.50000000 -0.00000000  0.24514413
   0.50000000  0.33333333  0.24514413
   0.50000000  0.66666667  0.24514413
   0.83333333 -0.00000000  0.24514413
   0.83333333  0.33333333  0.24514413
   0.83333333  0.66666667  0.24514413
  -0.00000000 -0.00000000  0.32358019
  -0.00000000  0.33333333  0.32358019
  -0.00000000  0.66666667  0.32358019
   0.33333333 -0.00000000  0.32358019
   0.33333333  0.33333333  0.32358019
   0.33333333  0.66666667  0.32358019
   0.66666667  0.00000000  0.32358019
   0.66666667  0.33333333  0.32358019
   0.66666667  0.66666667  0.32358019
   0.16666667  0.16666667  0.32358019
   0.16666667  0.50000000  0.32358019
   0.16666667  0.83333333  0.32358019
   0.50000000  0.16666667  0.32358019
   0.50000000  0.50000000  0.32358019
   0.50000000  0.83333333  0.32358019
   0.83333333  0.16666667  0.32358019
   0.83333333  0.50000000  0.32358019
   0.83333333  0.83333333  0.32358019
Direct configuration=     5
   0.00000000  0.00000000  0.00000000
   0.00000000  0.33333333  0.00000000
   0.00000000  0.66666667  0.00000000
   0.33333333  0.00000000  0.00000000
   0.33333333  0.33333333  0.00000000
   0.33333333  0.66666667  0.00000000
   0.66666667  0.00000000  0.00000000
   0.66666667  0.33333333  0.00000000
   0.66666667  0.66666667  0.00000000
   0.16666667  0.16666667  0.00000000
   0.16666667  0.50000000  0.00000000
   0.16666667  0.83333333  0.00000000
   0.50000000  0.16666667  0.00000000
   0.50000000  0.50000000  0.00000000
   0.50000000  0.83333333  0.00000000
   0.83333333  0.16666667  0.00000000
   0.83333333  0.50000000  0.00000000
   0.83333333  0.83333333  0.00000000
   0.00000000  0.16666667  0.08153639
   0.00000000  0.50000000  0.08153639
   0.00000000  0.83333333  0.08153639
   0.33333333  0.16666667  0.08153639
   0.33333333  0.50000000  0.08153639
   0.33333333  0.83333333  0.08153639
   0.66666667  0.16666667  0.08153639
   0.66666667  0.50000000  0.08153639
   0.66666667  0.83333333  0.08153639
   0.16666667  0.00000000  0.08153639
   0.16666667  0.33333333  0.08153639
   0.16666667  0.66666667  0.08153639
   0.50000000  0.00000000  0.08153639
   0.50000000  0.33333333  0.08153639
   0.50000000  0.66666667  0.08153639
   0.83333333  0.00000000  0.08153639
   0.83333333  0.33333333  0.08153639
   0.83333333  0.66666667  0.08153639
   0.00000000 -0.00000000  0.16369237
   0.00000000  0.33333333  0.16369237
   0.00000000  0.66666667  0.16369237
   0.33333333 -0.00000000  0.16369237
   0.33333333  0.33333333  0.16369237
   0.33333333  0.66666667  0.16369237
   0.66666667  0.00000000  0.16369237
   0.66666667  0.33333333  0.16369237
   0.66666667  0.66666667  0.16369237
   0.16666667  0.16666667  0.16369237
   0.16666667  0.50000000  0.16369237
   0.16666667  0.83333333  0.16369237
   0.50000000  0.16666667  0.16369237
   0.50000000  0.50000000  0.16369237
   0.50000000  0.83333333  0.16369237
   0.83333333  0.16666667  0.16369237
   0.83333333  0.50000000  0.16369237
   0.83333333  0.83333333  0.16369237
  -0.00000000  0.16666667  0.24405242
  -0.00000000  0.50000000  0.24405242
   0.00000000  0.83333333  0.24405242
   0.33333333  0.16666667  0.24405242
   0.33333333  0.50000000  0.24405242
   0.33333333  0.83333333  0.24405242
   0.66666667  0.16666667  0.24405242
   0.66666667  0.50000000  0.24405242
   0.66666667  0.83333333  0.24405242
   0.16666667 -0.00000000  0.24405242
   0.16666667  0.33333333  0.24405242
   0.16666667  0.66666667  0.24405242
   0.50000000 -0.00000000  0.24405242
   0.50000000  0.33333333  0.24405242
   0.50000000  0.66666667  0.24405242
   0.83333333 -0.00000000  0.24405242
   0.83333333  0.33333333  0.24405242
   0.83333333  0.66666667  0.24405242
  -0.00000000  0.00000000  0.32212472
  -0.00000000  0.33333333  0.32212472
  -0.00000000  0.66666667  0.32212472
   0.33333333 -0.00000000  0.32212472
   0.33333333  0.33333333  0.32212472
   0.33333333  0.66666667  0.32212472
   0.66666667  0.00000000  0.32212472
   0.66666667  0.33333333  0.32212472
   0.66666667  0.66666667  0.32212472
   0.16666667  0.16666667  0.32212472
   0.16666667  0.50000000  0.32212472
   0.16666667  0.83333333  0.32212472
   0.50000000  0.16666667  0.32212472
   0.50000000  0.50000000  0.32212472
   0.50000000  0.83333333  0.32212472
   0.83333333  0.16666667  0.32212472
   0.83333333  0.50000000  0.32212472
   0.83333333  0.83333333  0.32212472
Direct configuration=     6
   0.00000000  0.00000000  0.00000000
   0.00000000  0.33333333  0.00000000
   0.00000000  0.66666667  0.00000000
   0.33333333  0.00000000  0.00000000
   0.33333333  0.33333333  0.00000000
   0.33333333  0.66666667  0.00000000
   0.66666667  0.00000000  0.00000000
   0.66666667  0.33333333  0.00000000
   0.66666667  0.66666667  0.00000000
   0.16666667  0.16666667  0.00000000
   0.16666667  0.50000000  0.00000000
   0.16666667  0.83333333  0.00000000
   0.50000000  0.16666667  0.00000000
   0.50000000  0.50000000  0.00000000
   0.50000000  0.83333333  0.00000000
   0.83333333  0.16666667  0.00000000
   0.83333333  0.50000000  0.00000000
   0.83333333  0.83333333  0.00000000
   0.00000000  0.16666667  0.08153639
   0.00000000  0.50000000  0.08153639
   0.00000000  0.83333333  0.08153639
   0.33333333  0.16666667  0.08153639
   0.33333333  0.50000000  0.08153639
   0.33333333  0.83333333  0.08153639
   0.66666667  0.16666667  0.08153639
   0.66666667  0.50000000  0.08153639
   0.66666667  0.83333333  0.08153639
   0.16666667  0.00000000  0.08153639
   0.16666667  0.33333333  0.08153639
   0.16666667  0.66666667  0.08153639
   0.50000000  0.00000000  0.08153639
   0.50000000  0.33333333  0.08153639
   0.50000000  0.66666667  0.08153639
   0.83333333  0.00000000  0.08153639
   0.83333333  0.33333333  0.08153639
   0.83333333  0.66666667  0.08153639
   0.00000000 -0.00000000  0.16326202
   0.00000000  0.33333333  0.16326202
   0.00000000  0.66666667  0.16326202
   0.33333333 -0.00000000  0.16326202
   0.33333333  0.33333333  0.16326202
   0.33333333  0.66666667  0.16326202
   0.66666667  0.00000000  0.16326202
   0.66666667  0.33333333  0.16326202
   0.66666667  0.66666667  0.16326202
   0.16666667  0.16666667  0.16326202
   0.16666667  0.50000000  0.16326202
   0.16666667  0.83333333  0.16326202
   0.50000000  0.16666667  0.16326202
   0.50000000  0.50000000  0.16326202
   0.50000000  0.83333333  0.16326202
   0.83333333  0.16666667  0.16326202
   0.83333333  0.50000000  0.16326202
   0.83333333  0.83333333  0.16326202
  -0.00000000  0.16666667  0.24355996
  -0.00000000  0.50000000  0.24355996
   0.00000000  0.83333333  0.24355996
   0.33333333  0.16666667  0.24355996
   0.33333333  0.50000000  0.24355996
   0.33333333  0.83333333  0.24355996
   0.66666667  0.16666667  0.24355996
   0.66666667  0.50000000  0.24355996
   0.66666667  0.83333333  0.24355996
   0.16666667  0.00000000  0.24355996
   0.16666667  0.33333333  0.24355996
   0.16666667  0.66666667  0.24355996
   0.50000000 -0.00000000  0.24355996
   0.50000000  0.33333333  0.24355996
   0.50000000  0.66666667  0.24355996
   0.83333333 -0.00000000  0.24355996
   0.83333333  0.33333333  0.24355996
   0.83333333  0.66666667  0.24355996
  -0.00000000  0.00000000  0.32153689
  -0.00000000  0.33333333  0.32153689
  -0.00000000  0.66666667  0.32153689
   0.33333333 -0.00000000  0.32153689
   0.33333333  0.33333333  0.32153689
   0.33333333  0.66666667  0.32153689
   0.66666667  0.00000000  0.32153689
   0.66666667  0.33333333  0.32153689
   0.66666667  0.66666667  0.32153689
   0.16666667  0.16666667  0.32153689
   0.16666667  0.50000000  0.32153689
   0.16666667  0.83333333  0.32153689
   0.50000000  0.16666667  0.32153689
   0.50000000  0.50000000  0.32153689
   0.50000000  0.83333333  0.32153689
   0.83333333  0.16666667  0.32153689
   0.83333333  0.50000000  0.32153689
   0.83333333  0.83333333  0.32153689
Direct configuration=     7
   0.00000000  0.00000000  0.00000000
   0.00000000  0.33333333  0.00000000
   0.00000000  0.66666667  0.00000000
   0.33333333  0.00000000  0.00000000
   0.33333333  0.33333333  0.00000000
   0.33333333  0.66666667  0.00000000
   0.66666667  0.00000000  0.00000000
   0.66666667  0.33333333  0.00000000
   0.66666667  0.66666667  0.00000000
   0.16666667  0.16666667  0.00000000
   0.16666667  0.50000000  0.00000000
   0.16666667  0.83333333  0.00000000
   0.50000000  0.16666667  0.00000000
   0.50000000  0.50000000  0.00000000
   0.50000000  0.83333333  0.00000000
   0.83333333  0.16666667  0.00000000
   0.83333333  0.50000000  0.00000000
   0.83333333  0.83333333  0.00000000
   0.00000000  0.16666667  0.08153639
   0.00000000  0.50000000  0.08153639
   0.00000000  0.83333333  0.08153639
   0.33333333  0.16666667  0.08153639
   0.33333333  0.50000000  0.08153639
   0.33333333  0.83333333  0.08153639
   0.66666667  0.16666667  0.08153639
   0.66666667  0.50000000  0.08153639
   0.66666667  0.83333333  0.08153639
   0.16666667  0.00000000  0.08153639
   0.16666667  0.33333333  0.08153639
   0.16666667  0.66666667  0.08153639
   0.50000000  0.00000000  0.08153639
   0.50000000  0.33333333  0.08153639
   0.50000000  0.66666667  0.08153639
   0.83333333  0.00000000  0.08153639
   0.83333333  0.33333333  0.08153639
   0.83333333  0.66666667  0.08153639
   0.00000000 -0.00000000  0.16197100
   0.00000000  0.33333333  0.16197100
   0.00000000  0.66666667  0.16197100
   0.33333333 -0.00000000  0.16197100
   0.33333333  0.33333333  0.16197100
   0.33333333  0.66666667  0.16197100
   0.66666667  0.00000000  0.16197100
   0.66666667  0.33333333  0.16197100
   0.66666667  0.66666667  0.16197100
   0.16666667  0.16666667  0.16197100
   0.16666667  0.50000000  0.16197100
   0.16666667  0.83333333  0.16197100
   0.50000000  0.16666667  0.16197100
   0.50000000  0.50000000  0.16197100
   0.50000000  0.83333333  0.16197100
   0.83333333  0.16666667  0.16197100
   0.83333333  0.50000000  0.16197100
   0.83333333  0.83333333  0.16197100
  -0.00000000  0.16666667  0.24208256
  -0.00000000  0.50000000  0.24208256
   0.00000000  0.83333333  0.24208256
   0.33333333  0.16666667  0.24208256
   0.33333333  0.50000000  0.24208256
   0.33333333  0.83333333  0.24208256
   0.66666667  0.16666667  0.24208256
   0.66666667  0.50000000  0.24208256
   0.66666667  0.83333333  0.24208256
   0.16666667  0.00000000  0.24208256
   0.16666667  0.33333333  0.24208256
   0.16666667  0.66666667  0.24208256
   0.50000000  0.00000000  0.24208256
   0.50000000  0.33333333  0.24208256
   0.50000000  0.66666667  0.24208256
   0.83333333 -0.00000000  0.24208256
   0.83333333  0.33333333  0.24208256
   0.83333333  0.66666667  0.24208256
  -0.00000000  0.00000000  0.31977339
  -0.00000000  0.33333333  0.31977339
  -0.00000000  0.66666667  0.31977339
   0.33333333 -0.00000000  0.31977339
   0.33333333  0.33333333  0.31977339
   0.33333333  0.66666667  0.31977339
   0.66666667  0.00000000  0.31977339
   0.66666667  0.33333333  0.31977339
   0.66666667  0.66666667  0.31977339
   0.16666667  0.16666667  0.31977339
   0.16666667  0.50000000  0.31977339
   0.16666667  0.83333333  0.31977339
   0.50000000  0.16666667  0.31977339
   0.50000000  0.50000000  0.31977339
   0.50000000  0.83333333  0.31977339
   0.83333333  0.16666667  0.31977339
   0.83333333  0.50000000  0.31977339
   0.83333333  0.83333333  0.31977339
Direct configuration=     8
   0.00000000  0.00000000  0.00000000
   0.00000000  0.33333333  0.00000000
   0.00000000  0.66666667  0.00000000
   0.33333333  0.00000000  0.00000000
   0.33333333  0.33333333  0.00000000
   0.33333333  0.66666667  0.00000000
   0.66666667  0.00000000  0.00000000
   0.66666667  0.33333333  0.00000000
   0.66666667  0.66666667  0.00000000
   0.16666667  0.16666667  0.00000000
   0.16666667  0.50000000  0.00000000
   0.16666667  0.83333333  0.00000000
   0.50000000  0.16666667  0.00000000
   0.50000000  0.50000000  0.00000000
   0.50000000  0.83333333  0.00000000
   0.83333333  0.16666667  0.00000000
   0.83333333  0.50000000  0.00000000
   0.83333333  0.83333333  0.00000000
   0.00000000  0.16666667  0.08153639
   0.00000000  0.50000000  0.08153639
   0.00000000  0.83333333  0.08153639
   0.33333333  0.16666667  0.08153639
   0.33333333  0.50000000  0.08153639
   0.33333333  0.83333333  0.08153639
   0.66666667  0.16666667  0.08153639
   0.66666667  0.50000000  0.08153639
   0.66666667  0.83333333  0.08153639
   0.16666667  0.00000000  0.08153639
   0.16666667  0.33333333  0.08153639
   0.16666667  0.66666667  0.08153639
   0.50000000  0.00000000  0.08153639
   0.50000000  0.33333333  0.08153639
   0.50000000  0.66666667  0.08153639
   0.83333333  0.00000000  0.08153639
   0.83333333  0.33333333  0.08153639
   0.83333333  0.66666667  0.08153639
   0.00000000 -0.00000000  0.15938895
   0.00000000  0.33333333  0.15938895
   0.00000000  0.66666667  0.15938895
   0.33333333 -0.00000000  0.15938895
   0.33333333  0.33333333  0.15938895
   0.33333333  0.66666667  0.15938895
   0.66666667  0.00000000  0.15938895
   0.66666667  0.33333333  0.15938895
   0.66666667  0.66666667  0.15938895
   0.16666667  0.16666667  0.15938895
   0.16666667  0.50000000  0.15938895
   0.16666667  0.83333333  0.15938895
   0.50000000  0.16666667  0.15938895
   0.50000000  0.50000000  0.15938895
   0.50000000  0.83333333  0.15938895
   0.83333333  0.16666667  0.15938895
   0.83333333  0.50000000  0.15938895
   0.83333333  0.83333333  0.15938895
  -0.00000000  0.16666667  0.23912777
  -0.00000000  0.50000000  0.23912777
   0.00000000  0.83333333  0.23912777
   0.33333333  0.16666667  0.23912777
   0.33333333  0.50000000  0.23912777
   0.33333333  0.83333333  0.23912777
   0.66666667  0.16666667  0.23912777
   0.66666667  0.50000000  0.23912777
   0.66666667  0.83333333  0.23912777
   0.16666667  0.00000000  0.23912777
   0.16666667  0.33333333  0.23912777
   0.16666667  0.66666667  0.23912777
   0.50000000  0.00000000  0.23912777
   0.50000000  0.33333333  0.23912777
   0.50000000  0.66666667  0.23912777
   0.83333333 -0.00000000  0.23912777
   0.83333333  0.33333333  0.23912777
   0.83333333  0.66666667  0.23912777
  -0.00000000  0.00000000  0.31624640
  -0.00000000  0.33333333  0.31624640
  -0.00000000  0.66666667  0.31624640
   0.33333333 -0.00000000  0.31624640
   0.33333333  0.33333333  0.31624640
   0.33333333  0.66666667  0.31624640
   0.66666667  0.00000000  0.31624640
   0.66666667  0.33333333  0.31624640
   0.66666667  0.66666667  0.31624640
   0.16666667  0.16666667  0.31624640
   0.16666667  0.50000000  0.31624640
   0.16666667  0.83333333  0.31624640
   0.50000000  0.16666667  0.31624640
   0.50000000  0.50000000  0.31624640
   0.50000000  0.83333333  0.31624640
   0.83333333  0.16666667  0.31624640
   0.83333333  0.50000000  0.31624640
   0.83333333  0.83333333  0.31624640
Direct configuration=     9
   0.00000000  0.00000000  0.00000000
   0.00000000  0.33333333  0.00000000
   0.00000000  0.66666667  0.00000000
   0.33333333  0.00000000  0.00000000
   0.33333333  0.33333333  0.00000000
   0.33333333  0.66666667  0.00000000
   0.66666667  0.00000000  0.00000000
   0.66666667  0.33333333  0.00000000
   0.66666667  0.66666667  0.00000000
   0.16666667  0.16666667  0.00000000
   0.16666667  0.50000000  0.00000000
   0.16666667  0.83333333  0.00000000
   0.50000000  0.16666667  0.00000000
   0.50000000  0.50000000  0.00000000
   0.50000000  0.83333333  0.00000000
   0.83333333  0.16666667  0.00000000
   0.83333333  0.50000000  0.00000000
   0.83333333  0.83333333  0.00000000
   0.00000000  0.16666667  0.08153639
   0.00000000  0.50000000  0.08153639
   0.00000000  0.83333333  0.08153639
   0.33333333  0.16666667  0.08153639
   0.33333333  0.50000000  0.08153639
   0.33333333  0.83333333  0.08153639
   0.66666667  0.16666667  0.08153639
   0.66666667  0.50000000  0.08153639
   0.66666667  0.83333333  0.08153639
   0.16666667  0.00000000  0.08153639
   0.16666667  0.33333333  0.08153639
   0.16666667  0.66666667  0.08153639
   0.50000000  0.00000000  0.08153639
   0.50000000  0.33333333  0.08153639
   0.50000000  0.66666667  0.08153639
   0.83333333  0.00000000  0.08153639
   0.83333333  0.33333333  0.08153639
   0.83333333  0.66666667  0.08153639
   0.00000000 -0.00000000  0.16103432
   0.00000000  0.33333333  0.16103432
   0.00000000  0.66666667  0.16103432
   0.33333333 -0.00000000  0.16103432
   0.33333333  0.33333333  0.16103432
   0.33333333  0.66666667  0.16103432
   0.66666667  0.00000000  0.16103432
   0.66666667  0.33333333  0.16103432
   0.66666667  0.66666667  0.16103432
   0.16666667  0.16666667  0.16103432
   0.16666667  0.50000000  0.16103432
   0.16666667  0.83333333  0.16103432
   0.50000000  0.16666667  0.16103432
   0.50000000  0.50000000  0.16103432
   0.50000000  0.83333333  0.16103432
   0.83333333  0.16666667  0.16103432
   0.83333333  0.50000000  0.16103432
   0.83333333  0.83333333  0.16103432
  -0.00000000  0.16666667  0.24101067
  -0.00000000  0.50000000  0.24101067
   0.00000000  0.83333333  0.24101067
   0.33333333  0.16666667  0.24101067