  72  72   0   0
  0.2116159E+02  0.7700393E-09  0.7700393E-09  0.2967047E-08  0.5000000E-15
  1.000000000000000E-004
  CAR 
 unknown system                          
     13.77194491     -9.16114758  301      2.24474762      1.00000000
     -9.161  0.0000E+00  0.0000E+00  0.0000E+00  0.0000E+00
     -9.085  0.0000E+00  0.0000E+00  0.0000E+00  0.0000E+00
     -9.008  0.0000E+00  0.0000E+00  0.0000E+00  0.0000E+00
     -8.932  0.0000E+00  0.0000E+00  0.0000E+00  0.0000E+00
     -8.855  0.0000E+00  0.0000E+00  0.0000E+00  0.0000E+00
     -8.779 -0.1590E-30 -0.1590E-30 -0.1216E-31 -0.1216E-31
     -8.702 -0.6330E-28 -0.6330E-28 -0.4851E-29 -0.4851E-29
     -8.626 -0.1880E-25 -0.1880E-25 -0.1442E-26 -0.1442E-26
     -8.550 -0.4154E-23 -0.4154E-23 -0.3190E-24 -0.3190E-24
     -8.473 -0.6832E-21 -0.6832E-21 -0.5254E-22 -0.5254E-22
     -8.397 -0.8355E-19 -0.8355E-19 -0.6440E-20 -0.6440E-20
     -8.320 -0.7393E-17 -0.7393E-17 -0.5716E-18 -0.5716E-18
     -8.244 -0.4955E-15 -0.4955E-15 -0.3845E-16 -0.3845E-16
     -8.167 -0.2468E-13 -0.2468E-13 -0.1925E-14 -0.1925E-14
     -8.091 -0.9095E-12 -0.9095E-12 -0.7145E-13 -0.7145E-13
     -8.014 -0.2475E-10 -0.2475E-10 -0.1963E-11 -0.1963E-11
     -7.938 -0.4955E-09 -0.4955E-09 -0.3984E-10 -0.3984E-10
     -7.862 -0.7268E-08 -0.7268E-08 -0.5954E-09 -0.5954E-09
     -7.785 -0.7757E-07 -0.7757E-07 -0.6525E-08 -0.6525E-08
     -7.709 -0.5959E-06 -0.5959E-06 -0.5208E-07 -0.5208E-07
     -7.632 -0.3232E-05 -0.3232E-05 -0.2991E-06 -0.2991E-06
     -7.556 -0.1190E-04 -0.1190E-04 -0.1209E-05 -0.1209E-05
     -7.479 -0.2687E-04 -0.2687E-04 -0.3263E-05 -0.3263E-05
     -7.403 -0.2207E-04 -0.2207E-04 -0.4950E-05 -0.4950E-05
     -7.327  0.6757E-04  0.6757E-04  0.2149E-06  0.2149E-06
     -7.250  0.2707E-03  0.2707E-03  0.2091E-04  0.2091E-04
     -7.174  0.4510E-03  0.4510E-03  0.5539E-04  0.5539E-04
     -7.097  0.3926E-03  0.3926E-03  0.8540E-04  0.8540E-04
     -7.021  0.1882E-03  0.1882E-03  0.9978E-04  0.9978E-04
     -6.944  0.4387E-03  0.4387E-03  0.1333E-03  0.1333E-03
     -6.868  0.1666E-02  0.1666E-02  0.2607E-03  0.2607E-03
     -6.791  0.3305E-02  0.3305E-02  0.5133E-03  0.5133E-03
     -6.715  0.3868E-02  0.3868E-02  0.8090E-03  0.8090E-03
     -6.639  0.2740E-02  0.2740E-02  0.1019E-02  0.1019E-02
     -6.562  0.1182E-02  0.1182E-02  0.1109E-02  0.1109E-02
     -6.486  0.8745E-03  0.8745E-03  0.1176E-02  0.1176E-02
     -6.409  0.1981E-02  0.1981E-02  0.1327E-02  0.1327E-02
     -6.333  0.3056E-02  0.3056E-02  0.1561E-02  0.1561E-02
     -6.256  0.2910E-02  0.2910E-02  0.1783E-02  0.1783E-02
     -6.180  0.2214E-02  0.2214E-02  0.1952E-02  0.1952E-02
     -6.103  0.2387E-02  0.2387E-02  0.2135E-02  0.2135E-02
     -6.027  0.3223E-02  0.3223E-02  0.2381E-02  0.2381E-02
     -5.951  0.3221E-02  0.3221E-02  0.2628E-02  0.2628E-02
     -5.874  0.2394E-02  0.2394E-02  0.2811E-02  0.2811E-02
     -5.798  0.2915E-02  0.2915E-02  0.3033E-02  0.3033E-02
     -5.721  0.5955E-02  0.5955E-02  0.3489E-02  0.3489E-02
     -5.645  0.9142E-02  0.9142E-02  0.4187E-02  0.4187E-02
     -5.568  0.9030E-02  0.9030E-02  0.4878E-02  0.4878E-02
     -5.492  0.5632E-02  0.5632E-02  0.5308E-02  0.5308E-02
     -5.415  0.2404E-02  0.2404E-02  0.5492E-02  0.5492E-02
     -5.339  0.1829E-02  0.1829E-02  0.5632E-02  0.5632E-02
     -5.263  0.2926E-02  0.2926E-02  0.5855E-02  0.5855E-02
     -5.186  0.3451E-02  0.3451E-02  0.6119E-02  0.6119E-02
     -5.110  0.3149E-02  0.3149E-02  0.6360E-02  0.6360E-02
     -5.033  0.3506E-02  0.3506E-02  0.6628E-02  0.6628E-02
     -4.957  0.4804E-02  0.4804E-02  0.6995E-02  0.6995E-02
     -4.880  0.5657E-02  0.5657E-02  0.7428E-02  0.7428E-02
     -4.804  0.5876E-02  0.5876E-02  0.7877E-02  0.7877E-02
     -4.727  0.7116E-02  0.7116E-02  0.8421E-02  0.8421E-02
     -4.651  0.9287E-02  0.9287E-02  0.9131E-02  0.9131E-02
     -4.575  0.9439E-02  0.9439E-02  0.9852E-02  0.9852E-02
     -4.498  0.6546E-02  0.6546E-02  0.1035E-01  0.1035E-01
     -4.422  0.4117E-02  0.4117E-02  0.1067E-01  0.1067E-01
     -4.345  0.5400E-02  0.5400E-02  0.1108E-01  0.1108E-01
     -4.269  0.8797E-02  0.8797E-02  0.1175E-01  0.1175E-01
     -4.192  0.1054E-01  0.1054E-01  0.1256E-01  0.1256E-01
     -4.116  0.9880E-02  0.9880E-02  0.1331E-01  0.1331E-01
     -4.039  0.8982E-02  0.8982E-02  0.1400E-01  0.1400E-01
     -3.963  0.9312E-02  0.9312E-02  0.1471E-01  0.1471E-01
     -3.887  0.1066E-01  0.1066E-01  0.1553E-01  0.1553E-01
     -3.810  0.1198E-01  0.1198E-01  0.1644E-01  0.1644E-01
     -3.734  0.1139E-01  0.1139E-01  0.1731E-01  0.1731E-01
     -3.657  0.7877E-02  0.7877E-02  0.1792E-01  0.1792E-01
     -3.581  0.3585E-02  0.3585E-02  0.1819E-01  0.1819E-01
     -3.504  0.1944E-02  0.1944E-02  0.1834E-01  0.1834E-01
     -3.428  0.4101E-02  0.4101E-02  0.1865E-01  0.1865E-01
     -3.351  0.9253E-02  0.9253E-02  0.1936E-01  0.1936E-01
     -3.275  0.1657E-01  0.1657E-01  0.2063E-01  0.2063E-01
     -3.199  0.2407E-01  0.2407E-01  0.2247E-01  0.2247E-01
     -3.122  0.2802E-01  0.2802E-01  0.2461E-01  0.2461E-01
     -3.046  0.2673E-01  0.2673E-01  0.2665E-01  0.2665E-01
     -2.969  0.2298E-01  0.2298E-01  0.2841E-01  0.2841E-01
     -2.893  0.2177E-01  0.2177E-01  0.3007E-01  0.3007E-01
     -2.816  0.2687E-01  0.2687E-01  0.3213E-01  0.3213E-01
     -2.740  0.3691E-01  0.3691E-01  0.3495E-01  0.3495E-01
     -2.663  0.4530E-01  0.4530E-01  0.3841E-01  0.3841E-01
     -2.587  0.4656E-01  0.4656E-01  0.4197E-01  0.4197E-01
     -2.511  0.4232E-01  0.4232E-01  0.4520E-01  0.4520E-01
     -2.434  0.4049E-01  0.4049E-01  0.4830E-01  0.4830E-01
     -2.358  0.4787E-01  0.4787E-01  0.5196E-01  0.5196E-01
     -2.281  0.6258E-01  0.6258E-01  0.5674E-01  0.5674E-01
     -2.205  0.7540E-01  0.7540E-01  0.6251E-01  0.6251E-01
     -2.128  0.8088E-01  0.8088E-01  0.6869E-01  0.6869E-01
     -2.052  0.8371E-01  0.8371E-01  0.7509E-01  0.7509E-01
     -1.975  0.8994E-01  0.8994E-01  0.8196E-01  0.8196E-01
     -1.899  0.9699E-01  0.9699E-01  0.8938E-01  0.8938E-01
     -1.823  0.9732E-01  0.9732E-01  0.9682E-01  0.9682E-01
     -1.746  0.8921E-01  0.8921E-01  0.1036E+00  0.1036E+00
     -1.670  0.7992E-01  0.7992E-01  0.1097E+00  0.1097E+00
     -1.593  0.7820E-01  0.7820E-01  0.1157E+00  0.1157E+00
     -1.517  0.8621E-01  0.8621E-01  0.1223E+00  0.1223E+00
     -1.440  0.9837E-01  0.9837E-01  0.1298E+00  0.1298E+00
     -1.364  0.1068E+00  0.1068E+00  0.1380E+00  0.1380E+00
     -1.287  0.1096E+00  0.1096E+00  0.1464E+00  0.1464E+00
     -1.211  0.1123E+00  0.1123E+00  0.1550E+00  0.1550E+00
     -1.135  0.1200E+00  0.1200E+00  0.1641E+00  0.1641E+00
     -1.058  0.1318E+00  0.1318E+00  0.1742E+00  0.1742E+00
     -0.982  0.1434E+00  0.1434E+00  0.1852E+00  0.1852E+00
     -0.905  0.1531E+00  0.1531E+00  0.1969E+00  0.1969E+00
     -0.829  0.1630E+00  0.1630E+00  0.2093E+00  0.2093E+00
     -0.752  0.1725E+00  0.1725E+00  0.2225E+00  0.2225E+00
     -0.676  0.1738E+00  0.1738E+00  0.2358E+00  0.2358E+00
     -0.599  0.1646E+00  0.1646E+00  0.2484E+00  0.2484E+00
     -0.523  0.1540E+00  0.1540E+00  0.2602E+00  0.2602E+00
     -0.447  0.1499E+00  0.1499E+00  0.2716E+00  0.2716E+00
     -0.370  0.1503E+00  0.1503E+00  0.2831E+00  0.2831E+00
     -0.294  0.1532E+00  0.1532E+00  0.2948E+00  0.2948E+00
     -0.217  0.1569E+00  0.1569E+00  0.3068E+00  0.3068E+00
     -0.141  0.1573E+00  0.1573E+00  0.3188E+00  0.3188E+00
     -0.064  0.1531E+00  0.1531E+00  0.3305E+00  0.3305E+00
      0.012  0.1495E+00  0.1495E+00  0.3420E+00  0.3420E+00
      0.089  0.1521E+00  0.1521E+00  0.3536E+00  0.3536E+00
      0.165  0.1617E+00  0.1617E+00  0.3660E+00  0.3660E+00
      0.241  0.1735E+00  0.1735E+00  0.3792E+00  0.3792E+00
      0.318  0.1836E+00  0.1836E+00  0.3933E+00  0.3933E+00
      0.394  0.1949E+00  0.1949E+00  0.4082E+00  0.4082E+00
      0.471  0.2093E+00  0.2093E+00  0.4242E+00  0.4242E+00
      0.547  0.2154E+00  0.2154E+00  0.4406E+00  0.4406E+00
      0.624  0.1941E+00  0.1941E+00  0.4555E+00  0.4555E+00
      0.700  0.1411E+00  0.1411E+00  0.4663E+00  0.4663E+00
      0.777  0.7708E-01  0.7708E-01  0.4722E+00  0.4722E+00
      0.853  0.2924E-01  0.2924E-01  0.4744E+00  0.4744E+00
      0.929  0.8127E-02  0.8127E-02  0.4750E+00  0.4750E+00
      1.006  0.5964E-02  0.5965E-02  0.4755E+00  0.4755E+00
      1.082  0.1129E-01  0.1129E-01  0.4763E+00  0.4763E+00
      1.159  0.1833E-01  0.1833E-01  0.4777E+00  0.4777E+00
      1.235  0.2508E-01  0.2508E-01  0.4797E+00  0.4797E+00
      1.312  0.2958E-01  0.2958E-01  0.4819E+00  0.4819E+00
      1.388  0.3036E-01  0.3036E-01  0.4842E+00  0.4842E+00
      1.465  0.2684E-01  0.2684E-01  0.4863E+00  0.4863E+00
      1.541  0.1902E-01  0.1902E-01  0.4877E+00  0.4877E+00
      1.617  0.9886E-02  0.9886E-02  0.4885E+00  0.4885E+00
      1.694  0.5284E-02  0.5284E-02  0.4889E+00  0.4889E+00
      1.770  0.7492E-02  0.7492E-02  0.4895E+00  0.4895E+00
      1.847  0.1168E-01  0.1168E-01  0.4904E+00  0.4904E+00
      1.923  0.1190E-01  0.1190E-01  0.4913E+00  0.4913E+00
      2.000  0.8967E-02  0.8967E-02  0.4920E+00  0.4920E+00
      2.076  0.8607E-02  0.8607E-02  0.4926E+00  0.4926E+00
      2.153  0.1238E-01  0.1238E-01  0.4936E+00  0.4936E+00
      2.229  0.1556E-01  0.1556E-01  0.4948E+00  0.4948E+00
      2.305  0.1455E-01  0.1455E-01  0.4959E+00  0.4959E+00
      2.382  0.1161E-01  0.1161E-01  0.4968E+00  0.4968E+00
      2.458  0.1112E-01  0.1112E-01  0.4976E+00  0.4976E+00
      2.535  0.1443E-01  0.1443E-01  0.4987E+00  0.4987E+00
      2.611  0.1912E-01  0.1912E-01  0.5002E+00  0.5002E+00
      2.688  0.2173E-01  0.2173E-01  0.5018E+00  0.5018E+00
      2.764  0.2079E-01  0.2079E-01  0.5034E+00  0.5034E+00
      2.841  0.1741E-01  0.1741E-01  0.5047E+00  0.5047E+00
      2.917  0.1385E-01  0.1385E-01  0.5058E+00  0.5058E+00
      2.993  0.1100E-01  0.1100E-01  0.5066E+00  0.5066E+00
      3.070  0.7954E-02  0.7954E-02  0.5073E+00  0.5073E+00
      3.146  0.4965E-02  0.4965E-02  0.5076E+00  0.5076E+00
      3.223  0.5326E-02  0.5326E-02  0.5080E+00  0.5080E+00
      3.299  0.1106E-01  0.1106E-01  0.5089E+00  0.5089E+00
      3.376  0.1772E-01  0.1772E-01  0.5102E+00  0.5102E+00
      3.452  0.1866E-01  0.1866E-01  0.5117E+00  0.5117E+00
      3.528  0.1491E-01  0.1491E-01  0.5128E+00  0.5128E+00
      3.605  0.1382E-01  0.1382E-01  0.5139E+00  0.5139E+00
      3.681  0.1716E-01  0.1716E-01  0.5152E+00  0.5152E+00
      3.758  0.1960E-01  0.1960E-01  0.5167E+00  0.5167E+00
      3.834  0.1863E-01  0.1863E-01  0.5181E+00  0.5181E+00
      3.911  0.1692E-01  0.1692E-01  0.5194E+00  0.5194E+00
      3.987  0.1533E-01  0.1533E-01  0.5206E+00  0.5206E+00
      4.064  0.1216E-01  0.1216E-01  0.5215E+00  0.5215E+00
      4.140  0.8056E-02  0.8056E-02  0.5221E+00  0.5221E+00
      4.216  0.5666E-02  0.5666E-02  0.5225E+00  0.5225E+00
      4.293  0.5795E-02  0.5795E-02  0.5230E+00  0.5230E+00
      4.369  0.6860E-02  0.6860E-02  0.5235E+00  0.5235E+00
      4.446  0.7242E-02  0.7242E-02  0.5241E+00  0.5241E+00
      4.522  0.7075E-02  0.7075E-02  0.5246E+00  0.5246E+00
      4.599  0.7877E-02  0.7877E-02  0.5252E+00  0.5252E+00
      4.675  0.1039E-01  0.1039E-01  0.5260E+00  0.5260E+00
      4.752  0.1345E-01  0.1345E-01  0.5270E+00  0.5270E+00
      4.828  0.1552E-01  0.1552E-01  0.5282E+00  0.5282E+00
      4.904  0.1617E-01  0.1617E-01  0.5295E+00  0.5295E+00
      4.981  0.1509E-01  0.1509E-01  0.5306E+00  0.5306E+00
      5.057  0.1149E-01  0.1149E-01  0.5315E+00  0.5315E+00
      5.134  0.6224E-02  0.6224E-02  0.5320E+00  0.5320E+00
      5.210  0.2599E-02  0.2599E-02  0.5322E+00  0.5322E+00
      5.287  0.3391E-02  0.3391E-02  0.5324E+00  0.5324E+00
      5.363  0.7958E-02  0.7958E-02  0.5330E+00  0.5330E+00
      5.440  0.1257E-01  0.1257E-01  0.5340E+00  0.5340E+00
      5.516  0.1319E-01  0.1319E-01  0.5350E+00  0.5350E+00
      5.592  0.9059E-02  0.9059E-02  0.5357E+00  0.5357E+00
      5.669  0.3622E-02  0.3622E-02  0.5360E+00  0.5360E+00
      5.745  0.1194E-02  0.1194E-02  0.5361E+00  0.5361E+00
      5.822  0.3645E-02  0.3645E-02  0.5363E+00  0.5363E+00
      5.898  0.9476E-02  0.9476E-02  0.5371E+00  0.5371E+00
      5.975  0.1446E-01  0.1446E-01  0.5382E+00  0.5382E+00
      6.051  0.1535E-01  0.1535E-01  0.5393E+00  0.5393E+00
      6.128  0.1405E-01  0.1405E-01  0.5404E+00  0.5404E+00
      6.204  0.1463E-01  0.1463E-01  0.5415E+00  0.5415E+00
      6.280  0.1655E-01  0.1655E-01  0.5428E+00  0.5428E+00
      6.357  0.1583E-01  0.1583E-01  0.5440E+00  0.5440E+00
      6.433  0.1211E-01  0.1211E-01  0.5449E+00  0.5449E+00
      6.510  0.9670E-02  0.9671E-02  0.5457E+00  0.5457E+00
      6.586  0.1192E-01  0.1192E-01  0.5466E+00  0.5466E+00
      6.663  0.1770E-01  0.1770E-01  0.5479E+00  0.5479E+00
      6.739  0.2192E-01  0.2192E-01  0.5496E+00  0.5496E+00
      6.816  0.1978E-01  0.1978E-01  0.5511E+00  0.5511E+00
      6.892  0.1186E-01  0.1186E-01  0.5520E+00  0.5520E+00
      6.968  0.4025E-02  0.4025E-02  0.5523E+00  0.5523E+00
      7.045  0.1750E-02  0.1751E-02  0.5525E+00  0.5525E+00
      7.121  0.6002E-02  0.6003E-02  0.5529E+00  0.5529E+00
      7.198  0.1332E-01  0.1332E-01  0.5539E+00  0.5539E+00
      7.274  0.1910E-01  0.1910E-01  0.5554E+00  0.5554E+00
      7.351  0.2135E-01  0.2135E-01  0.5570E+00  0.5570E+00
      7.427  0.2116E-01  0.2116E-01  0.5587E+00  0.5587E+00
      7.504  0.1982E-01  0.1982E-01  0.5602E+00  0.5602E+00
      7.580  0.1715E-01  0.1715E-01  0.5615E+00  0.5615E+00
      7.656  0.1323E-01  0.1323E-01  0.5625E+00  0.5625E+00
      7.733  0.1038E-01  0.1038E-01  0.5633E+00  0.5633E+00
      7.809  0.1161E-01  0.1161E-01  0.5642E+00  0.5642E+00
      7.886  0.1703E-01  0.1702E-01  0.5655E+00  0.5655E+00
      7.962  0.2260E-01  0.2260E-01  0.5672E+00  0.5672E+00
      8.039  0.2367E-01  0.2367E-01  0.5690E+00  0.5690E+00
      8.115  0.1955E-01  0.1956E-01  0.5705E+00  0.5705E+00
      8.192  0.1406E-01  0.1406E-01  0.5716E+00  0.5716E+00
      8.268  0.1121E-01  0.1121E-01  0.5724E+00  0.5724E+00
      8.344  0.1118E-01  0.1118E-01  0.5733E+00  0.5733E+00
      8.421  0.1209E-01  0.1209E-01  0.5742E+00  0.5742E+00
      8.497  0.1451E-01  0.1451E-01  0.5753E+00  0.5753E+00
      8.574  0.1973E-01  0.1973E-01  0.5768E+00  0.5768E+00
      8.650  0.2441E-01  0.2441E-01  0.5787E+00  0.5787E+00
      8.727  0.2362E-01  0.2363E-01  0.5805E+00  0.5805E+00
      8.803  0.1912E-01  0.1912E-01  0.5820E+00  0.5820E+00
      8.880  0.1728E-01  0.1728E-01  0.5833E+00  0.5833E+00
      8.956  0.1893E-01  0.1893E-01  0.5847E+00  0.5847E+00
      9.032  0.1893E-01  0.1893E-01  0.5862E+00  0.5862E+00
      9.109  0.1567E-01  0.1567E-01  0.5874E+00  0.5874E+00
      9.185  0.1300E-01  0.1301E-01  0.5884E+00  0.5884E+00
      9.262  0.1341E-01  0.1341E-01  0.5894E+00  0.5894E+00
      9.338  0.1560E-01  0.1560E-01  0.5906E+00  0.5906E+00
      9.415  0.1816E-01  0.1816E-01  0.5920E+00  0.5920E+00
      9.491  0.2094E-01  0.2094E-01  0.5936E+00  0.5936E+00
      9.568  0.2300E-01  0.2300E-01  0.5953E+00  0.5953E+00
      9.644  0.2275E-01  0.2275E-01  0.5971E+00  0.5971E+00
      9.720  0.2051E-01  0.2051E-01  0.5986E+00  0.5986E+00
      9.797  0.1811E-01  0.1811E-01  0.6000E+00  0.6000E+00
      9.873  0.1725E-01  0.1725E-01  0.6014E+00  0.6014E+00
      9.950  0.1882E-01  0.1882E-01  0.6028E+00  0.6028E+00
     10.026  0.2164E-01  0.2164E-01  0.6044E+00  0.6044E+00
     10.103  0.2360E-01  0.2360E-01  0.6062E+00  0.6062E+00
     10.179  0.2425E-01  0.2425E-01  0.6081E+00  0.6081E+00
     10.256  0.2379E-01  0.2379E-01  0.6099E+00  0.6099E+00
     10.332  0.2178E-01  0.2178E-01  0.6116E+00  0.6116E+00
     10.408  0.1927E-01  0.1927E-01  0.6131E+00  0.6131E+00
     10.485  0.1872E-01  0.1872E-01  0.6145E+00  0.6145E+00
     10.561  0.2048E-01  0.2048E-01  0.6161E+00  0.6161E+00
     10.638  0.2214E-01  0.2214E-01  0.6177E+00  0.6177E+00
     10.714  0.2183E-01  0.2183E-01  0.6194E+00  0.6194E+00
     10.791  0.1982E-01  0.1982E-01  0.6209E+00  0.6209E+00
     10.867  0.1731E-01  0.1731E-01  0.6223E+00  0.6223E+00
     10.944  0.1598E-01  0.1598E-01  0.6235E+00  0.6235E+00
     11.020  0.1728E-01  0.1728E-01  0.6248E+00  0.6248E+00
     11.096  0.2037E-01  0.2037E-01  0.6264E+00  0.6264E+00
     11.173  0.2230E-01  0.2229E-01  0.6281E+00  0.6281E+00
     11.249  0.2125E-01  0.2124E-01  0.6297E+00  0.6297E+00
     11.326  0.1840E-01  0.1837E-01  0.6311E+00  0.6311E+00
     11.402  0.1604E-01  0.1601E-01  0.6323E+00  0.6323E+00
     11.479  0.1522E-01  0.1529E-01  0.6335E+00  0.6335E+00
     11.555  0.1599E-01  0.1633E-01  0.6347E+00  0.6347E+00
     11.632  0.1808E-01  0.1867E-01  0.6361E+00  0.6362E+00
     11.708  0.1968E-01  0.2009E-01  0.6376E+00  0.6377E+00
     11.784  0.1761E-01  0.1744E-01  0.6389E+00  0.6390E+00
     11.861  0.1126E-01  0.1070E-01  0.6398E+00  0.6398E+00
     11.937  0.4221E-02  0.3742E-02  0.6401E+00  0.6401E+00
     12.014  0.1108E-03 -0.6458E-04  0.6401E+00  0.6401E+00
     12.090 -0.8793E-03 -0.8738E-03  0.6401E+00  0.6401E+00
     12.167 -0.5633E-03 -0.5279E-03  0.6400E+00  0.6400E+00
     12.243 -0.1995E-03 -0.1820E-03  0.6400E+00  0.6400E+00
     12.320 -0.4689E-04 -0.4208E-04  0.6400E+00  0.6400E+00
     12.396 -0.7739E-05 -0.6875E-05  0.6400E+00  0.6400E+00
     12.472 -0.9191E-06 -0.8119E-06  0.6400E+00  0.6400E+00
     12.549 -0.7956E-07 -0.7013E-07  0.6400E+00  0.6400E+00
     12.625 -0.5060E-08 -0.4462E-08  0.6400E+00  0.6400E+00
     12.702 -0.2375E-09 -0.2099E-09  0.6400E+00  0.6400E+00
     12.778 -0.8253E-11 -0.7325E-11  0.6400E+00  0.6400E+00
     12.855 -0.2128E-12 -0.1899E-12  0.6400E+00  0.6400E+00
     12.931 -0.4079E-14 -0.3659E-14  0.6400E+00  0.6400E+00
     13.008 -0.5890E-16 -0.5406E-16  0.6400E+00  0.6400E+00
     13.084  0.0000E+00  0.0000E+00  0.6400E+00  0.6400E+00
     13.160  0.0000E+00  0.0000E+00  0.6400E+00  0.6400E+00
     13.237  0.0000E+00  0.0000E+00  0.6400E+00  0.6400E+00
     13.313  0.0000E+00  0.0000E+00  0.6400E+00  0.6400E+00
     13.390  0.0000E+00  0.0000E+00  0.6400E+00  0.6400E+00
     13.466  0.0000E+00  0.0000E+00  0.6400E+00  0.6400E+00
     13.543  0.0000E+00  0.0000E+00  0.6400E+00  0.6400E+00
     13.619  0.0000E+00  0.0000E+00  0.6400E+00  0.6400E+00
     13.696  0.0000E+00  0.0000E+00  0.6400E+00  0.6400E+00
     13.772  0.0000E+00  0.0000E+00  0.6400E+00  0.6400E+00
