 vasp.6.3.2 27Jun22 (build Aug 17 2022 15:43:34) complex                        
  
 executed on           tv2STDVTST date 2025.01.21  19:55:10
 running   20 mpi-ranks, with    1 threads/rank
 distrk:  each k-point on   20 cores,    1 groups
 distr:  one band on NCORE=   5 cores,    4 groups


--------------------------------------------------------------------------------------------------------


 -----------------------------------------------------------------------------
|                                                                             |
|           W    W    AA    RRRRR   N    N  II  N    N   GGGG   !!!           |
|           W    W   A  A   R    R  NN   N  II  NN   N  G    G  !!!           |
|           W    W  A    A  R    R  N N  N  II  N N  N  G       !!!           |
|           W WW W  AAAAAA  RRRRR   N  N N  II  N  N N  G  GGG   !            |
|           WW  WW  A    A  R   R   N   NN  II  N   NN  G    G                |
|           W    W  A    A  R    R  N    N  II  N    N   GGGG   !!!           |
|                                                                             |
|     Found issues when parsing the INCAR file                                |
|     In line 64: Tagname --- R W I G S contains invalid characters.          |
|     Please check if the interpretation in the OUTCAR file is correct.       |
|                                                                             |
 -----------------------------------------------------------------------------

 INCAR:
    = \=\=\=\=\=\=\=\=\=\=\=\=\=\=\=\=\=\=\=\=\=\=\=\=\=\=\=\=\=\=\=\=\=\=\=\=\=\=\=\=\=\=\=\=\=\=\=\=\=\=\=\=\=\=\=\=\=\=\=\=\=\=\=\=\=\=\=\=\=\=\=\=
    = \=\=\=\=\=\=\=\=\=\=\=\=\=\=\=\=\=\=\=\=\=\=\=\=\=\=\=\=\=\=\=\=\=\=\=\=\=\=\=\=\=\=\=\=\=\=\=\=\=\=\=\=\=\=\=\=\=\=\=\=\=\=\=\=\=\=\=\=\=\=\=\=
   ISTART = 0
   ICHARG = 2
   IPIPOL = 3
   IVDW = 11
   IDIPOL = 3
   IVDW = 11
    = \=\=\=\=\=\=\=\=\=\=\=\=\=\=\=\=\=\=\=\=\=\=\=\=\=\=\=\=\=\=\=\=\=\=\=\=\=\=\=\=\=\=\=\=\=\=\=\=\=\=\=\=\=\=\=\=\=\=\=\=\=\=\=\=\=\=\=\=\=\=\=\=
    = \=\=\=\=\=\=\=\=\=\=\=\=\=\=\=\=\=\=\=\=\=\=\=\=\=\=\=\=\=\=\=\=\=\=\=\=\=\=\=\=\=\=\=\=\=\=\=\=\=\=\=\=\=\=\=\=\=\=\=\=\=\=\=\=\=\=\=\=\=\=\=\=
   ISPIN = 2
    = \=\=\=\=\=\=\=\=\=\=\=\=\=\=\=\=\=\=\=\=\=\=\=\=\=\=\=\=\=\=\=\=\=\=\=\=\=\=\=\=\=\=\=\=\=\=\=\=\=\=\=\=\=\=\=\=\=\=\=\=\=\=\=\=\=\=\=\=\=\=\=\=
    = \=\=\=\=\=\=\=\=\=\=\=\=\=\=\=\=\=\=\=\=\=\=\=\=\=\=\=\=\=\=\=\=\=\=\=\=\=\=\=\=\=\=\=\=\=\=\=\=\=\=\=\=\=\=\=\=\=\=\=\=\=\=\=\=\=\=\=\=\=\=\=\=
   ENCUT = 400
   PREC = Normal
   EDIFF = 2E-04
   GGA = PE
   ISMEAR = 1
   SIGMA = 0.2
   LREAL = .FALSE.
    = \=\=\=\=\=\=\=\=\=\=\=\=\=\=\=\=\=\=\=\=\=\=\=\=\=\=\=\=\=\=\=\=\=\=\=\=\=\=\=\=\=\=\=\=\=\=\=\=\=\=\=\=\=\=\=\=\=\=\=\=\=\=\=\=\=\=\=\=\=\=\=\=
    = \=\=\=\=\=\=\=\=\=\=\=\=\=\=\=\=\=\=\=\=\=\=\=\=\=\=\=\=\=\=\=\=\=\=\=\=\=\=\=\=\=\=\=\=\=\=\=\=\=\=\=\=\=\=\=\=\=\=\=\=\=\=\=\=\=\=\=\=\=\=\=\=
   ISYM = 1
   NSW = 800
   IBRION = 2
   POTIM = 0.5
   ISIF = 2
   EDIFFG = -.03
    = \=\=\=\=\=\=\=\=\=\=\=\=\=\=\=\=\=\=\=\=\=\=\=\=\=\=\=\=\=\=\=\=\=\=\=\=\=\=\=\=\=\=\=\=\=\=\=\=\=\=\=\=\=\=\=\=\=\=\=\=\=\=\=\=\=\=\=\=\=\=\=\=
    = \=\=\=\=\=\=\=\=\=\=\=\=\=\=\=\=\=\=\=\=\=\=\=\=\=\=\=\=\=\=\=\=\=\=\=\=\=\=\=\=\=\=\=\=\=\=\=\=\=\=\=\=\=\=\=\=\=\=\=\=\=\=\=\=\=\=\=\=\=\=\=\=
   NPAR = 4
   LWAVE = .FALSE.
   LCHARG = .FALSE.

 POTCAR:    PAW_PBE Cu 22Jun2005                  
 -----------------------------------------------------------------------------
|                                                                             |
|           W    W    AA    RRRRR   N    N  II  N    N   GGGG   !!!           |
|           W    W   A  A   R    R  NN   N  II  NN   N  G    G  !!!           |
|           W    W  A    A  R    R  N N  N  II  N N  N  G       !!!           |
|           W WW W  AAAAAA  RRRRR   N  N N  II  N  N N  G  GGG   !            |
|           WW  WW  A    A  R   R   N   NN  II  N   NN  G    G                |
|           W    W  A    A  R    R  N    N  II  N    N   GGGG   !!!           |
|                                                                             |
|     You use a magnetic or noncollinear calculation, but did not specify     |
|     the initial magnetic moment with the MAGMOM tag. Note that a            |
|     default of 1 will be used for all atoms. This ferromagnetic setup       |
|     may break the symmetry of the crystal, in particular it may rule        |
|     out finding an antiferromagnetic solution. Thence, we recommend         |
|     setting the initial magnetic moment manually or verifying carefully     |
|     that this magnetic setup is desired.                                    |
|                                                                             |
 -----------------------------------------------------------------------------

 POTCAR:    PAW_PBE Cu 22Jun2005                  
   SHA256 =  0e71e558f37a4e8407882b4609ceaae59938afaad9ced71dfe8490308a0ab630 Cu/POTCAR             
   COPYR  = (c) Copyright 22Jun2005 Georg Kresse                                                    
   COPYR  = This file is part of the software VASP. Any use, copying, and all other rights are regul
   COPYR  = If you do not have a valid VASP license, you may not use, copy or distribute this file. 
   VRHFIN =Cu: d10 p1                                                                               
   LEXCH  = PE                                                                                      
   EATOM  =  1390.9808 eV,  102.2342 Ry                                                             
                                                                                                    
   TITEL  = PAW_PBE Cu 22Jun2005                                                                    
   LULTRA =        F    use ultrasoft PP ?                                                          
   IUNSCR =        1    unscreen: 0-lin 1-nonlin 2-no                                               
   RPACOR =    2.000    partial core radius                                                         
   POMASS =   63.546; ZVAL   =   11.000    mass and valenz                                          
   RCORE  =    2.300    outmost cutoff radius                                                       
   RWIGS  =    2.200; RWIGS  =    1.164    wigner-seitz radius (au A)                               
   ENMAX  =  295.446; ENMIN  =  221.585 eV                                                          
   ICORE  =        3    local potential                                                             
   LCOR   =        T    correct aug charges                                                         
   LPAW   =        T    paw PP                                                                      
   EAUG   =  586.980                                                                                
   DEXC   =    0.000                                                                                
   RMAX   =    2.344    core radius for proj-oper                                                   
   RAUG   =    1.300    factor for augmentation sphere                                              
   RDEP   =    2.302    radius for radial grids                                                     
   RDEPT  =    1.771    core radius for aug-charge                                                  
                                                                                                    
   Atomic configuration                                                                             
    9 entries                                                                                       
     n  l   j            E        occ.                                                              
     1  0  0.50     -8850.2468   2.0000                                                             
     2  0  0.50     -1062.3498   2.0000                                                             
     2  1  1.50      -916.8226   6.0000                                                             
     3  0  0.50      -114.6929   2.0000                                                             
     3  1  1.50       -72.1325   6.0000                                                             
     3  2  2.50        -5.0394  10.0000                                                             
     4  0  0.50        -4.6097   1.0000                                                             
     4  1  0.50        -4.0817   0.0000                                                             
     4  3  2.50        -1.3606   0.0000                                                             
   Description                                                                                      
     l       E           TYP  RCUT    TYP  RCUT                                                     
     2     -5.0393973     23  2.200                                                                 
     2     10.8846608     23  2.200                                                                 
     0     -4.6097109     23  2.200                                                                 
     0      8.2520465     23  2.200                                                                 
     1     -2.7211652     23  2.200                                                                 
     1     21.7055443     23  2.200                                                                 
     3      2.7211652     23  2.300                                                                 
  local pseudopotential read in
  partial core-charges read in
  partial kinetic energy density read in
  atomic valenz-charges read in
  non local Contribution for L=           2  read in
    real space projection operators read in
  non local Contribution for L=           2  read in
    real space projection operators read in
  non local Contribution for L=           0  read in
    real space projection operators read in
  non local Contribution for L=           0  read in
    real space projection operators read in
  non local Contribution for L=           1  read in
    real space projection operators read in
  non local Contribution for L=           1  read in
    real space projection operators read in
    PAW grid and wavefunctions read in
 
   number of l-projection  operators is LMAX  =           6
   number of lm-projection operators is LMMAX =          18
 
 -----------------------------------------------------------------------------
|                                                                             |
|               ----> ADVICE to this user running VASP <----                  |
|                                                                             |
|     You have a (more or less) 'large supercell' and for larger cells it     |
|     might be more efficient to use real-space projection operators.         |
|     Therefore, try LREAL= Auto in the INCAR file.                           |
|     Mind: For very accurate calculation, you might also keep the            |
|     reciprocal projection scheme (i.e. LREAL=.FALSE.).                      |
|                                                                             |
 -----------------------------------------------------------------------------

  PAW_PBE Cu 22Jun2005                  :
 energy of atom  1       EATOM=-1390.9808
 kinetic energy error for atom=    0.0232 (will be added to EATOM!!)
 
 
 POSCAR: FCC Cu
  positions in cartesian coordinates
  No initial velocities read in
 exchange correlation table for  LEXCH =        8
   RHO(1)=    0.500       N(1)  =     2000
   RHO(2)=  100.500       N(2)  =     4000

 VTST: version 4.2, (08/11/21)

 CHAIN: initializing optimizer
 
 OPT: Using VASP Conjugate-Gradient optimizer
 CHAIN: Read ICHAIN            0
 
 POSCAR: FCC Cu
  positions in cartesian coordinates
  No initial velocities read in
 


--------------------------------------------------------------------------------------------------------


 ion  position               nearest neighbor table
   1  0.000  0.000  0.000-  16 2.57  12 2.57  10 2.57   7 2.57   4 2.57   8 2.57   2 2.57   6 2.57
                             3 2.57
   2  0.000  0.333  0.000-  10 2.57  17 2.57  11 2.57   4 2.57   5 2.57   1 2.57   3 2.57   8 2.57
                             9 2.57
   3  1.000  0.667  0.000-  18 2.57  12 2.57  11 2.57   7 2.57   9 2.57   1 2.57   2 2.57   5 2.57
                             6 2.57
   4  0.333  0.000  0.000-  10 2.57  15 2.57  13 2.57   2 2.57   6 2.57   1 2.57   5 2.57   9 2.57
                             7 2.57
   5  0.333  0.333  0.000-  11 2.57  13 2.57  14 2.57   2 2.57   8 2.57   4 2.57   7 2.57   3 2.57
                             6 2.57
   6  0.333  0.667  0.000-  12 2.57  15 2.57  14 2.57   4 2.57   9 2.57   1 2.57   8 2.57   5 2.57
                             3 2.57
   7  0.667  0.000  0.000-  18 2.57  13 2.57  16 2.57   8 2.57   3 2.57   1 2.57   5 2.57   9 2.57
                             4 2.57
   8  0.667  0.333  0.000-  14 2.57  16 2.57  17 2.57   7 2.57   5 2.57   1 2.57   6 2.57   2 2.57
                             9 2.57
   9  0.667  0.667  0.000-  15 2.57  18 2.57  17 2.57   3 2.57   6 2.57   4 2.57   7 2.57   2 2.57
                             8 2.57
  10  0.111  0.111  0.071-  19 2.57   4 2.57   2 2.57  21 2.57  25 2.57   1 2.57  16 2.57  13 2.57
                            17 2.57  11 2.57  15 2.57  12 2.57
  11  0.111  0.444  0.071-   5 2.57  20 2.57  19 2.57   2 2.57   3 2.57  26 2.57  13 2.57  14 2.57
                            10 2.57  12 2.57  17 2.57  18 2.57
  12  0.111  0.778  0.071-  21 2.57   1 2.57   6 2.57   3 2.57  20 2.57  27 2.57  16 2.57  18 2.57
                            10 2.57  11 2.57  14 2.57  15 2.57
  13  0.444  0.111  0.071-  22 2.57   5 2.57  24 2.57   7 2.57   4 2.57  19 2.57  11 2.57  15 2.57
                            10 2.57  14 2.57  18 2.57  16 2.57
  14  0.444  0.444  0.071-   8 2.57  23 2.57  22 2.57  20 2.57   5 2.57   6 2.57  11 2.57  17 2.57
                            13 2.57  16 2.57  12 2.57  15 2.57
  15  0.444  0.778  0.071-   9 2.57  24 2.57   4 2.57   6 2.57  23 2.57  21 2.57  13 2.57  18 2.57
                            10 2.57  17 2.57  14 2.57  12 2.57
  16  0.778  0.111  0.071-   1 2.57  25 2.57   8 2.57  27 2.57   7 2.57  22 2.57  17 2.57  12 2.57
                            10 2.57  14 2.57  18 2.57  13 2.57
  17  0.778  0.444  0.071-  26 2.57  25 2.57   2 2.57  23 2.57   8 2.57   9 2.57  16 2.57  14 2.57
                            10 2.57  15 2.57  11 2.57  18 2.57
  18  0.778  0.778  0.071-  27 2.57   3 2.57   7 2.57  24 2.57   9 2.57  26 2.57  12 2.57  15 2.57
                            13 2.57  16 2.57  11 2.57  17 2.57
  19  0.222  0.222  0.141-  10 2.57  29 2.57  11 2.57  31 2.57  13 2.57  32 2.57  25 2.57  22 2.57
                            26 2.57  20 2.57  21 2.57  24 2.57
  20  0.222  0.556  0.141-  11 2.57  32 2.57  14 2.57  12 2.57  30 2.57  33 2.57  22 2.57  23 2.57
                            19 2.57  21 2.57  26 2.57  27 2.57
  21  0.222  0.889  0.141-  12 2.57  28 2.57  33 2.57  10 2.57  31 2.57  15 2.57  25 2.57  19 2.57
                            20 2.57  23 2.57  24 2.57  27 2.57
  22  0.556  0.222  0.141-  13 2.57  32 2.57  14 2.57  34 2.57  35 2.57  16 2.57  27 2.57  20 2.57
                            24 2.57  19 2.57  23 2.57  25 2.57
  23  0.556  0.556  0.141-  14 2.57  35 2.57  33 2.57  17 2.57  15 2.57  36 2.57  26 2.57  20 2.57
                            25 2.57  22 2.57  21 2.57  24 2.57
  24  0.556  0.889  0.141-  15 2.57  36 2.57  13 2.57  18 2.57  34 2.57  31 2.57  27 2.57  22 2.57
                            19 2.57  26 2.57  23 2.57  21 2.57
  25  0.889  0.222  0.141-  16 2.57  17 2.57  28 2.57  10 2.57  29 2.57  35 2.57  26 2.57  21 2.57
                            19 2.57  23 2.57  22 2.57  27 2.57
  26  0.889  0.556  0.141-  17 2.57  29 2.57  36 2.57  30 2.57  18 2.57  11 2.57  27 2.57  25 2.57
                            23 2.57  19 2.57  24 2.57  20 2.57
  27  0.889  0.889  0.141-  18 2.57  34 2.57  30 2.57  16 2.57  24 2.57  12 2.57  28 2.57  22 2.57
                            26 2.57  25 2.57  20 2.57  21 2.57
  28  0.000  0.000  0.212-  43 2.57  21 2.57  25 2.57  39 2.57  37 2.57  27 2.57  34 2.57  31 2.57
                            35 2.57  29 2.57  33 2.57  30 2.57
  29  0.000  0.333  0.212-  19 2.57  37 2.57  26 2.57  44 2.57  25 2.57  38 2.57  31 2.57  32 2.57
                            28 2.57  30 2.57  35 2.57  36 2.57
  30  1.000  0.667  0.212-  45 2.57  27 2.57  39 2.57  26 2.57  38 2.57  20 2.57  34 2.57  36 2.57
                            28 2.57  29 2.57  32 2.57  33 2.57
  31  0.333  0.000  0.212-  37 2.57  19 2.57  42 2.57  40 2.57  24 2.57  21 2.57  29 2.57  33 2.57
                            28 2.57  32 2.57  36 2.57  34 2.57
  32  0.333  0.333  0.212-  38 2.57  22 2.57  40 2.57  20 2.57  41 2.57  19 2.57  29 2.57  35 2.57
                            31 2.57  34 2.57  30 2.57  33 2.57
  33  0.333  0.667  0.212-  21 2.57  23 2.57  39 2.57  42 2.57  41 2.57  20 2.57  31 2.57  36 2.57
                            28 2.57  35 2.57  32 2.57  30 2.57
  34  0.667  0.000  0.212-  27 2.57  22 2.57  45 2.57  40 2.57  43 2.57  24 2.57  35 2.57  30 2.57
                            28 2.57  32 2.57  36 2.57  31 2.57
  35  0.667  0.333  0.212-  41 2.57  43 2.57  23 2.57  44 2.57  25 2.57  22 2.57  34 2.57  32 2.57
                            28 2.57  33 2.57  29 2.57  36 2.57
  36  0.667  0.667  0.212-  42 2.57  24 2.57  26 2.57  45 2.57  44 2.57  23 2.57  30 2.57  33 2.57
                            31 2.57  34 2.57  29 2.57  35 2.57
  37  0.111  0.111  0.283-  46 2.57  31 2.57  29 2.57  48 2.57  52 2.57  28 2.57  43 2.57  40 2.57
                            44 2.57  38 2.57  42 2.57  39 2.57
  38  0.111  0.444  0.283-  32 2.57  47 2.57  46 2.57  29 2.57  30 2.57  53 2.57  40 2.57  41 2.57
                            37 2.57  39 2.57  44 2.57  45 2.57
  39  0.111  0.778  0.283-  48 2.57  28 2.57  33 2.57  30 2.57  47 2.57  54 2.57  43 2.57  45 2.57
                            37 2.57  38 2.57  41 2.57  42 2.57
  40  0.444  0.111  0.283-  49 2.57  32 2.57  51 2.57  34 2.57  31 2.57  46 2.57  38 2.57  42 2.57
                            37 2.57  41 2.57  45 2.57  43 2.57
  41  0.444  0.444  0.283-  35 2.57  50 2.57  49 2.57  47 2.57  32 2.57  33 2.57  38 2.57  44 2.57
                            40 2.57  43 2.57  39 2.57  42 2.57
  42  0.444  0.778  0.283-  36 2.57  51 2.57  31 2.57  33 2.57  50 2.57  48 2.57  40 2.57  45 2.57
                            37 2.57  44 2.57  41 2.57  39 2.57
  43  0.778  0.111  0.283-  28 2.57  52 2.57  35 2.57  54 2.57  34 2.57  49 2.57  44 2.57  39 2.57
                            37 2.57  41 2.57  45 2.57  40 2.57
  44  0.778  0.444  0.283-  53 2.57  52 2.57  29 2.57  50 2.57  35 2.57  36 2.57  43 2.57  41 2.57
                            37 2.57  42 2.57  38 2.57  45 2.57
  45  0.778  0.778  0.283-  54 2.57  30 2.57  34 2.57  51 2.57  36 2.57  53 2.57  39 2.57  42 2.57
                            40 2.57  43 2.57  38 2.57  44 2.57
  46  0.222  0.222  0.353-  37 2.57  38 2.57  40 2.57  56 2.57  58 2.57  59 2.57  52 2.57  49 2.57
                            53 2.57  47 2.57  48 2.57  51 2.57
  47  0.222  0.556  0.353-  38 2.57  41 2.57  39 2.57  59 2.57  57 2.57  60 2.57  49 2.57  50 2.57
                            46 2.57  48 2.57  53 2.57  54 2.57
  48  0.222  0.889  0.353-  39 2.57  37 2.57  42 2.57  55 2.57  60 2.57  58 2.57  52 2.57  46 2.57
                            47 2.57  50 2.57  51 2.57  54 2.57
  49  0.556  0.222  0.353-  40 2.57  41 2.57  43 2.57  59 2.57  61 2.57  62 2.57  54 2.57  47 2.57
                            51 2.57  46 2.57  50 2.57  52 2.57
  50  0.556  0.556  0.353-  41 2.57  44 2.57  42 2.57  62 2.57  60 2.57  63 2.57  53 2.57  47 2.57
                            52 2.57  49 2.57  48 2.57  51 2.57
  51  0.556  0.889  0.353-  42 2.57  40 2.57  45 2.57  54 2.57  63 2.57  61 2.57  58 2.57  49 2.57
                            46 2.57  53 2.57  50 2.57  48 2.57
  52  0.889  0.222  0.353-  43 2.57  44 2.57  37 2.57  55 2.57  56 2.57  62 2.57  53 2.57  48 2.57
                            46 2.57  50 2.57  49 2.57  54 2.57
  53  0.889  0.556  0.353-  44 2.57  45 2.57  38 2.57  56 2.57  63 2.57  57 2.57  54 2.57  52 2.57
                            50 2.57  46 2.57  51 2.57  47 2.57
  54  0.889  0.889  0.353-  45 2.57  61 2.57  43 2.57  51 2.57  57 2.57  39 2.57  49 2.57  55 2.57
                            53 2.57  52 2.57  47 2.57  48 2.57
  55  0.000  0.000  0.424-  70 2.57  48 2.57  52 2.57  66 2.57  64 2.57  54 2.57  61 2.57  58 2.57
                            62 2.57  56 2.57  60 2.57  57 2.57
  56  0.000  0.333  0.424-  46 2.57  53 2.57  64 2.57  71 2.57  52 2.57  65 2.57  58 2.57  59 2.57
                            55 2.57  57 2.57  62 2.57  63 2.57
  57  1.000  0.667  0.424-  72 2.57  54 2.57  66 2.57  53 2.57  65 2.57  47 2.57  61 2.57  63 2.57
                            55 2.57  56 2.57  59 2.57  60 2.57
  58  0.333  0.000  0.424-  64 2.57  46 2.57  69 2.57  67 2.57  51 2.57  48 2.57  56 2.57  60 2.57
                            55 2.57  59 2.57  63 2.57  61 2.57
  59  0.333  0.333  0.424-  65 2.57  49 2.57  47 2.57  67 2.57  68 2.57  46 2.57  56 2.57  62 2.57
                            58 2.57  61 2.57  57 2.57  60 2.57
  60  0.333  0.667  0.424-  48 2.57  50 2.57  66 2.57  69 2.57  68 2.57  47 2.57  58 2.57  63 2.57
                            55 2.57  62 2.57  59 2.57  57 2.57
  61  0.667  0.000  0.424-  54 2.57  49 2.57  72 2.57  67 2.57  70 2.57  51 2.57  62 2.57  57 2.57
                            55 2.57  59 2.57  63 2.57  58 2.57
  62  0.667  0.333  0.424-  68 2.57  50 2.57  70 2.57  52 2.57  71 2.57  49 2.57  61 2.57  59 2.57
                            55 2.57  60 2.57  56 2.57  63 2.57
  63  0.667  0.667  0.424-  69 2.57  51 2.57  53 2.57  72 2.57  71 2.57  50 2.57  57 2.57  60 2.57
                            58 2.57  61 2.57  56 2.57  62 2.57
  64  0.111  0.111  0.494-  58 2.57  56 2.57  55 2.57  70 2.57  67 2.57  71 2.57  65 2.57  69 2.57
                            66 2.57
  65  0.111  0.444  0.494-  59 2.57  56 2.57  57 2.57  67 2.57  68 2.57  64 2.57  66 2.57  71 2.57
                            72 2.57
  66  0.111  0.778  0.494-  55 2.57  60 2.57  57 2.57  70 2.57  72 2.57  64 2.57  65 2.57  68 2.57
                            69 2.57
  67  0.444  0.111  0.494-  59 2.57  61 2.57  58 2.57  65 2.57  69 2.57  64 2.57  68 2.57  72 2.57
                            70 2.57
  68  0.444  0.444  0.494-  62 2.57  59 2.57  60 2.57  65 2.57  71 2.57  67 2.57  70 2.57  66 2.57
                            69 2.57
  69  0.444  0.778  0.494-  63 2.57  58 2.57  60 2.57  67 2.57  72 2.57  64 2.57  71 2.57  68 2.57
                            66 2.57
  70  0.778  0.111  0.494-  55 2.57  62 2.57  61 2.57  71 2.57  66 2.57  64 2.57  68 2.57  72 2.57
                            67 2.57
  71  0.778  0.444  0.494-  56 2.57  62 2.57  63 2.57  70 2.57  68 2.57  64 2.57  69 2.57  65 2.57
                            72 2.57
  72  0.778  0.778  0.494-  57 2.57  61 2.57  63 2.57  66 2.57  69 2.57  67 2.57  70 2.57  65 2.57
                            71 2.57
 
  LATTYP: Found a hexagonal cell.
 ALAT       =     7.7003932000
 C/A-ratio  =     3.8531111881
  
  Lattice vectors:
  
 A1 = (  -3.8501966000,  -6.6687361303,   0.0000000000)
 A2 = (   7.7003931999,   0.0000000000,   0.0000000000)
 A3 = (   0.0000000000,   0.0000000000,  29.6704711914)


Analysis of symmetry for initial positions (statically):
=====================================================================
 Subroutine PRICEL returns following result:
 
  LATTYP: Found a hexagonal cell.
 ALAT       =     2.5667977331
 C/A-ratio  =    11.5593335652
  
  Lattice vectors:
  
 A1 = (  -1.2833988670,  -2.2229120430,   0.0000000000)
 A2 = (   2.5667977330,   0.0000000000,   0.0000000000)
 A3 = (   0.0000000000,   0.0000000000,  29.6704711914)
 
   9 primitive cells build up your supercell.
 

 Routine SETGRP: Setting up the symmetry group for a 
 hexagonal supercell.


 Subroutine GETGRP returns: Found 12 space group operations
 (whereof  6 operations were pure point group operations)
 out of a pool of 24 trial point group operations.


The static configuration has the point symmetry C_3v.
 The point group associated with its full space group is D_3d.


Analysis of symmetry for dynamics (positions and initial velocities):
=====================================================================
 Subroutine PRICEL returns following result:
 
  LATTYP: Found a hexagonal cell.
 ALAT       =     2.5667977331
 C/A-ratio  =    11.5593335652
  
  Lattice vectors:
  
 A1 = (  -1.2833988670,  -2.2229120430,   0.0000000000)
 A2 = (   2.5667977330,   0.0000000000,   0.0000000000)
 A3 = (   0.0000000000,   0.0000000000,  29.6704711914)
 
   9 primitive cells build up your supercell.
 

 Routine SETGRP: Setting up the symmetry group for a 
 hexagonal supercell.


 Subroutine GETGRP returns: Found 12 space group operations
 (whereof  6 operations were pure point group operations)
 out of a pool of 24 trial point group operations.


The dynamic configuration has the point symmetry C_3v.
 The point group associated with its full space group is D_3d.


Analysis of constrained symmetry for selective dynamics:
=====================================================================
 Subroutine PRICEL returns following result:
 
  LATTYP: Found a hexagonal cell.
 ALAT       =     2.5667977331
 C/A-ratio  =    11.5593335652
  
  Lattice vectors:
  
 A1 = (  -1.2833988670,  -2.2229120430,   0.0000000000)
 A2 = (   2.5667977330,   0.0000000000,   0.0000000000)
 A3 = (   0.0000000000,   0.0000000000,  29.6704711914)
 
   9 primitive cells build up your supercell.
 

 Routine SETGRP: Setting up the symmetry group for a 
 hexagonal supercell.


 Subroutine GETGRP returns: Found  6 space group operations
 (whereof  6 operations were pure point group operations)
 out of a pool of 24 trial point group operations.


The constrained configuration has the point symmetry C_3v.


Analysis of structural, dynamic, and magnetic symmetry:
=====================================================================
 Subroutine PRICEL returns following result:
 
  LATTYP: Found a hexagonal cell.
 ALAT       =     2.5667977331
 C/A-ratio  =    11.5593335652
  
  Lattice vectors:
  
 A1 = (  -1.2833988670,  -2.2229120430,   0.0000000000)
 A2 = (   2.5667977330,   0.0000000000,   0.0000000000)
 A3 = (   0.0000000000,   0.0000000000,  29.6704711914)
 
   9 primitive cells build up your supercell.
 

 Routine SETGRP: Setting up the symmetry group for a 
 hexagonal supercell.


 Subroutine GETGRP returns: Found  6 space group operations
 (whereof  6 operations were pure point group operations)
 out of a pool of 24 trial point group operations.


The overall configuration has the point symmetry C_3v.


 Subroutine INISYM returns: Found  6 space group operations
 (whereof  6 operations are pure point group operations),
 and found     9 'primitive' translations


----------------------------------------------------------------------------------------

                                     Primitive cell                                     

  volume of cell :     169.2928

  direct lattice vectors                    reciprocal lattice vectors
    -1.283398867 -2.222912043  0.000000000     0.000000000 -0.449860355  0.000000000
     2.566797733  0.000000000  0.000000000     0.389590495 -0.224930177  0.000000000
     0.000000000  0.000000000 29.670471191     0.000000000  0.000000000  0.033703543

  length of vectors
     2.566797733  2.566797733 29.670471191     0.449860355  0.449860355  0.033703543

  position of ions in fractional coordinates (direct lattice)
     0.000000000  0.000000000  0.000000000
     0.666666667  0.333333333  0.070635264
     0.333333333  0.666666665  0.141270528
     0.000000000  0.000000000  0.211905792
     0.666666667  0.333333333  0.282541056
     0.333333333  0.666666665  0.353176320
     0.000000000  0.000000000  0.423811585
     0.666666667  0.333333333  0.494446849

  ion indices of the primitive-cell ions
   primitive index   ion index
                 1           1
                 2          10
                 3          27
                 4          28
                 5          37
                 6          54
                 7          55
                 8          64

----------------------------------------------------------------------------------------

 
 
 KPOINTS: Auto-mesh                               

Automatic generation of k-mesh.
 Grid dimensions read from file:
 generate k-points for:    3    3    1

 Generating k-lattice:

  Cartesian coordinates                     Fractional coordinates (reciprocal lattice)
     0.043287833 -0.024992242  0.000000000     0.333333333  0.000000000  0.000000000
     0.000000000  0.049984484  0.000000000     0.000000000  0.333333333  0.000000000
     0.000000000  0.000000000  0.033703543     0.000000000  0.000000000  1.000000000

  Length of vectors
     0.049984484  0.049984484  0.033703543

  Shift w.r.t. Gamma in fractional coordinates (k-lattice)
     0.000000000  0.000000000  0.000000000

 
 Subroutine IBZKPT returns following result:
 ===========================================
 
 Found      3 irreducible k-points:
 
 Following reciprocal coordinates:
            Coordinates               Weight
  0.000000  0.000000  0.000000      1.000000
  0.333333 -0.000000  0.000000      6.000000
 -0.333333  0.333333  0.000000      2.000000
 
 Following cartesian coordinates:
            Coordinates               Weight
  0.000000  0.000000  0.000000      1.000000
  0.043288 -0.024992  0.000000      6.000000
 -0.043288  0.074977  0.000000      2.000000
 


--------------------------------------------------------------------------------------------------------




 Dimension of arrays:
   k-points           NKPTS =      3   k-points in BZ     NKDIM =      3   number of bands    NBANDS=    512
   number of dos      NEDOS =    301   number of ions     NIONS =     72
   non local maximal  LDIM  =      6   non local SUM 2l+1 LMDIM =     18
   total plane-waves  NPLWV = 240000
   max r-space proj   IRMAX =      1   max aug-charges    IRDMAX=   4762
   dimension x,y,z NGX =    40 NGY =   40 NGZ =  150
   dimension x,y,z NGXF=    80 NGYF=   80 NGZF=  300
   support grid    NGXF=    80 NGYF=   80 NGZF=  300
   ions per type =              72
   NGX,Y,Z   is equivalent  to a cutoff of   8.64,  8.64,  8.40 a.u.
   NGXF,Y,Z  is equivalent  to a cutoff of  17.27, 17.27, 16.81 a.u.

 SYSTEM =  unknown system                          
 POSCAR =  FCC Cu                                  

 Startparameter for this run:
   NWRITE =      2    write-flag & timer
   PREC   = normal    normal or accurate (medium, high low for compatibility)
   ISTART =      0    job   : 0-new  1-cont  2-samecut
   ICHARG =      2    charge: 1-file 2-atom 10-const
   ISPIN  =      2    spin polarized calculation?
   LNONCOLLINEAR =      F non collinear calculations
   LSORBIT =      F    spin-orbit coupling
   INIWAV =      1    electr: 0-lowe 1-rand  2-diag
   LASPH  =      F    aspherical Exc in radial PAW
 Electronic Relaxation 1
   ENCUT  =  400.0 eV  29.40 Ry    5.42 a.u.  12.56 12.56 48.39*2*pi/ulx,y,z
   ENINI  =  400.0     initial cutoff
   ENAUG  =  587.0 eV  augmentation charge cutoff
   NELM   =     60;   NELMIN=  2; NELMDL= -5     # of ELM steps 
   EDIFF  = 0.2E-03   stopping-criterion for ELM
   LREAL  =      F    real-space projection
   NLSPLINE    = F    spline interpolate recip. space projectors
   LCOMPAT=      F    compatible to vasp.4.4
   GGA_COMPAT  = T    GGA compatible to vasp.4.4-vasp.4.6
   LMAXPAW     = -100 max onsite density
   LMAXMIX     =    2 max onsite mixed and CHGCAR
   VOSKOWN=      0    Vosko Wilk Nusair interpolation
   ROPT   =    0.00000
 Ionic relaxation
   EDIFFG = -.3E-01   stopping-criterion for IOM
   NSW    =    800    number of steps for IOM
   NBLOCK =      1;   KBLOCK =    800    inner block; outer block 
   IBRION =      2    ionic relax: 0-MD 1-quasi-New 2-CG
   NFREE  =      1    steps in history (QN), initial steepest desc. (CG)
   ISIF   =      2    stress and relaxation
   IWAVPR =     11    prediction:  0-non 1-charg 2-wave 3-comb
   ISYM   =      1    0-nonsym 1-usesym 2-fastsym
   LCORR  =      T    Harris-Foulkes like correction to forces

   POTIM  = 0.5000    time-step for ionic-motion
   TEIN   =    0.0    initial temperature
   TEBEG  =    0.0;   TEEND  =   0.0 temperature during run
   SMASS  =  -3.00    Nose mass-parameter (am)
   estimated Nose-frequenzy (Omega)   =  0.10E-29 period in steps = 0.13E+47 mass=  -0.136E-26a.u.
   SCALEE = 1.0000    scale energy and forces
   NPACO  =    256;   APACO  = 10.0  distance and # of slots for P.C.
   PSTRESS=    0.0 pullay stress

  Mass of Ions in am
   POMASS =  63.55
  Ionic Valenz
   ZVAL   =  11.00
  Atomic Wigner-Seitz radii
   RWIGS  =  -1.00
  virtual crystal weights 
   VCA    =   1.00
   NELECT =     792.0000    total number of electrons
   NUPDOWN=      -1.0000    fix difference up-down

 DOS related values:
   EMIN   =  10.00;   EMAX   =-10.00  energy-range for DOS
   EFERMI =   0.00
   ISMEAR =     1;   SIGMA  =   0.20  broadening in eV -4-tet -1-fermi 0-gaus

 Electronic relaxation 2 (details)
   IALGO  =     38    algorithm
   LDIAG  =      T    sub-space diagonalisation (order eigenvalues)
   LSUBROT=      F    optimize rotation matrix (better conditioning)
   TURBO    =      0    0=normal 1=particle mesh
   IRESTART =      0    0=no restart 2=restart with 2 vectors
   NREBOOT  =      0    no. of reboots
   NMIN     =      0    reboot dimension
   EREF     =   0.00    reference energy to select bands
   IMIX   =      4    mixing-type and parameters
     AMIX     =   0.40;   BMIX     =  1.00
     AMIX_MAG =   1.60;   BMIX_MAG =  1.00
     AMIN     =   0.10
     WC   =   100.;   INIMIX=   1;  MIXPRE=   1;  MAXMIX= -45

 Intra band minimization:
   WEIMIN = 0.0010     energy-eigenvalue tresh-hold
   EBREAK =  0.98E-07  absolut break condition
   DEPER  =   0.30     relativ break condition  

   TIME   =   0.40     timestep for ELM

  volume/ion in A,a.u.               =      21.16       142.81
  Fermi-wavevector in a.u.,A,eV,Ry     =   1.316304  2.487454 23.574226  1.732657
  Thomas-Fermi vector in A             =   2.446426
 
 Write flags
   LWAVE        =      F    write WAVECAR
   LDOWNSAMPLE  =      F    k-point downsampling of WAVECAR
   LCHARG       =      F    write CHGCAR
   LVTOT        =      F    write LOCPOT, total local potential
   LVHAR        =      F    write LOCPOT, Hartree potential only
   LELF         =      F    write electronic localiz. function (ELF)
   LORBIT       =      0    0 simple, 1 ext, 2 COOP (PROOUT), +10 PAW based schemes


 Dipole corrections
   LMONO  =      F    monopole corrections only (constant potential shift)
   LDIPOL =      F    correct potential (dipole corrections)
   IDIPOL =      3    1-x, 2-y, 3-z, 4-all directions 
   EPSILON=  1.0000000 bulk dielectric constant

 Exchange correlation treatment:
   GGA     =    PE    GGA type
   LEXCH   =     8    internal setting for exchange type
   LIBXC   =     F    Libxc                    
   VOSKOWN =     0    Vosko Wilk Nusair interpolation
   LHFCALC =     F    Hartree Fock is set to
   LHFONE  =     F    Hartree Fock one center treatment
   AEXX    =    0.0000 exact exchange contribution

 Linear response parameters
   LEPSILON=     F    determine dielectric tensor
   LRPA    =     F    only Hartree local field effects (RPA)
   LNABLA  =     F    use nabla operator in PAW spheres
   LVEL    =     F    velocity operator in full k-point grid
   CSHIFT  =0.1000    complex shift for real part using Kramers Kronig
   OMEGAMAX=  -1.0    maximum frequency
   DEG_THRESHOLD= 0.2000000E-02 threshold for treating states as degnerate
   RTIME   =   -0.100 relaxation time in fs
  (WPLASMAI=    0.000 imaginary part of plasma frequency in eV, 0.658/RTIME)
   DFIELD  = 0.0000000 0.0000000 0.0000000 field for delta impulse in time
 
  Optional k-point grid parameters
   LKPOINTS_OPT  =     F    use optional k-point grid
   KPOINTS_OPT_MODE=     1    mode for optional k-point grid
 
 Orbital magnetization related:
   ORBITALMAG=     F  switch on orbital magnetization
   LCHIMAG   =     F  perturbation theory with respect to B field
   DQ        =  0.001000  dq finite difference perturbation B field
   LLRAUG    =     F  two centre corrections for induced B field



--------------------------------------------------------------------------------------------------------


 conjugate gradient relaxation of ions
   using selective dynamics as specified on POSCAR
   WARNING: If single coordinates had been selected the selection of coordinates
            is made according to the corresponding   d i r e c t   coordinates!
            Don't support selection of single cartesian coordinates -- sorry ...
  !
 charge density and potential will be updated during run
 spin polarized calculation
 Variant of blocked Davidson
 Davidson routine will perform the subspace rotation
 perform sub-space diagonalisation
    after iterative eigenvector-optimisation
 modified Broyden-mixing scheme, WC =      100.0
 initial mixing is a Kerker type mixing with AMIX =  0.4000 and BMIX =      1.0000
 Hartree-type preconditioning will be used
 using additional bands          116
 reciprocal scheme for non local part
 use partial core corrections
 calculate Harris-corrections to forces 
   (improved forces if not selfconsistent)
 use gradient corrections 
 use of overlap-Matrix (Vanderbilt PP)
 Methfessel and Paxton  Order N= 1 SIGMA  =   0.20


--------------------------------------------------------------------------------------------------------


  energy-cutoff  :      400.00
  volume of cell :     1523.63
      direct lattice vectors                 reciprocal lattice vectors
     7.700393200  0.000000000  0.000000000     0.129863498 -0.074976726  0.000000000
     3.850196600  6.668736130  0.000000000     0.000000000  0.149953452  0.000000000
     0.000000000  0.000000000 29.670471191     0.000000000  0.000000000  0.033703543

  length of vectors
     7.700393200  7.700393200 29.670471191     0.149953452  0.149953452  0.033703543


 
 k-points in units of 2pi/SCALE and weight: Auto-mesh                               
   0.00000000  0.00000000  0.00000000       0.111
   0.04328783 -0.02499224  0.00000000       0.667
  -0.04328783  0.07497673  0.00000000       0.222
 
 k-points in reciprocal lattice and weights: Auto-mesh                               
   0.00000000  0.00000000  0.00000000       0.111
   0.33333333 -0.00000000  0.00000000       0.667
  -0.33333333  0.33333333  0.00000000       0.222
 
 position of ions in fractional coordinates (direct lattice) 
   0.00000000  0.00000000  0.00000000
   0.00000000  0.33333333  0.00000000
   1.00000000  0.66666667  0.00000000
   0.33333333  0.00000000  0.00000000
   0.33333333  0.33333333  0.00000000
   0.33333333  0.66666667  0.00000000
   0.66666667  0.00000000  0.00000000
   0.66666667  0.33333333  0.00000000
   0.66666667  0.66666667  0.00000000
   0.11111111  0.11111111  0.07063526
   0.11111111  0.44444444  0.07063526
   0.11111111  0.77777778  0.07063526
   0.44444444  0.11111111  0.07063526
   0.44444444  0.44444444  0.07063526
   0.44444444  0.77777778  0.07063526
   0.77777778  0.11111111  0.07063526
   0.77777778  0.44444444  0.07063526
   0.77777778  0.77777778  0.07063526
   0.22222222  0.22222222  0.14127053
   0.22222222  0.55555556  0.14127053
   0.22222222  0.88888889  0.14127053
   0.55555556  0.22222222  0.14127053
   0.55555556  0.55555556  0.14127053
   0.55555556  0.88888889  0.14127053
   0.88888889  0.22222222  0.14127053
   0.88888889  0.55555556  0.14127053
   0.88888889  0.88888889  0.14127053
   0.00000000  0.00000000  0.21190579
   0.00000000  0.33333333  0.21190579
   1.00000000  0.66666667  0.21190579
   0.33333333  0.00000000  0.21190579
   0.33333333  0.33333333  0.21190579
   0.33333333  0.66666667  0.21190579
   0.66666667  0.00000000  0.21190579
   0.66666667  0.33333333  0.21190579
   0.66666667  0.66666667  0.21190579
   0.11111111  0.11111111  0.28254106
   0.11111111  0.44444444  0.28254106
   0.11111111  0.77777778  0.28254106
   0.44444444  0.11111111  0.28254106
   0.44444444  0.44444444  0.28254106
   0.44444444  0.77777778  0.28254106
   0.77777778  0.11111111  0.28254106
   0.77777778  0.44444444  0.28254106
   0.77777778  0.77777778  0.28254106
   0.22222222  0.22222222  0.35317632
   0.22222222  0.55555556  0.35317632
   0.22222222  0.88888889  0.35317632
   0.55555556  0.22222222  0.35317632
   0.55555556  0.55555556  0.35317632
   0.55555556  0.88888889  0.35317632
   0.88888889  0.22222222  0.35317632
   0.88888889  0.55555556  0.35317632
   0.88888889  0.88888889  0.35317632
   0.00000000  0.00000000  0.42381158
   0.00000000  0.33333333  0.42381158
   1.00000000  0.66666667  0.42381158
   0.33333333  0.00000000  0.42381158
   0.33333333  0.33333333  0.42381158
   0.33333333  0.66666667  0.42381158
   0.66666667  0.00000000  0.42381158
   0.66666667  0.33333333  0.42381158
   0.66666667  0.66666667  0.42381158
   0.11111111  0.11111111  0.49444685
   0.11111111  0.44444444  0.49444685
   0.11111111  0.77777778  0.49444685
   0.44444444  0.11111111  0.49444685
   0.44444444  0.44444444  0.49444685
   0.44444444  0.77777778  0.49444685
   0.77777778  0.11111111  0.49444685
   0.77777778  0.44444444  0.49444685
   0.77777778  0.77777778  0.49444685
 
 position of ions in cartesian coordinates  (Angst):
   0.00000000  0.00000000  0.00000000
   1.28339887  2.22291204  0.00000000
  10.26719093  4.44582409  0.00000000
   2.56679773  0.00000000  0.00000000
   3.85019660  2.22291204  0.00000000
   5.13359547  4.44582409  0.00000000
   5.13359547  0.00000000  0.00000000
   6.41699433  2.22291204  0.00000000
   7.70039320  4.44582409  0.00000000
   1.28339887  0.74097068  2.09578157
   2.56679773  2.96388272  2.09578157
   3.85019660  5.18679477  2.09578157
   3.85019660  0.74097068  2.09578157
   5.13359547  2.96388272  2.09578157
   6.41699433  5.18679477  2.09578157
   6.41699433  0.74097068  2.09578157
   7.70039320  2.96388272  2.09578157
   8.98379207  5.18679477  2.09578157
   2.56679773  1.48194136  4.19156314
   3.85019660  3.70485341  4.19156314
   5.13359547  5.92776545  4.19156314
   5.13359547  1.48194136  4.19156314
   6.41699433  3.70485341  4.19156314
   7.70039320  5.92776545  4.19156314
   7.70039320  1.48194136  4.19156314
   8.98379207  3.70485341  4.19156314
  10.26719093  5.92776545  4.19156314
   0.00000000  0.00000000  6.28734470
   1.28339887  2.22291204  6.28734470
  10.26719093  4.44582409  6.28734470
   2.56679773  0.00000000  6.28734470
   3.85019660  2.22291204  6.28734470
   5.13359547  4.44582409  6.28734470
   5.13359547  0.00000000  6.28734470
   6.41699433  2.22291204  6.28734470
   7.70039320  4.44582409  6.28734470
   1.28339887  0.74097068  8.38312627
   2.56679773  2.96388272  8.38312627
   3.85019660  5.18679477  8.38312627
   3.85019660  0.74097068  8.38312627
   5.13359547  2.96388272  8.38312627
   6.41699433  5.18679477  8.38312627
   6.41699433  0.74097068  8.38312627
   7.70039320  2.96388272  8.38312627
   8.98379207  5.18679477  8.38312627
   2.56679773  1.48194136 10.47890784
   3.85019660  3.70485341 10.47890784
   5.13359547  5.92776545 10.47890784
   5.13359547  1.48194136 10.47890784
   6.41699433  3.70485341 10.47890784
   7.70039320  5.92776545 10.47890784
   7.70039320  1.48194136 10.47890784
   8.98379207  3.70485341 10.47890784
  10.26719093  5.92776545 10.47890784
   0.00000000  0.00000000 12.57468941
   1.28339887  2.22291204 12.57468941
  10.26719093  4.44582409 12.57468941
   2.56679773  0.00000000 12.57468941
   3.85019660  2.22291204 12.57468941
   5.13359547  4.44582409 12.57468941
   5.13359547  0.00000000 12.57468941
   6.41699433  2.22291204 12.57468941
   7.70039320  4.44582409 12.57468941
   1.28339887  0.74097068 14.67047098
   2.56679773  2.96388272 14.67047098
   3.85019660  5.18679477 14.67047098
   3.85019660  0.74097068 14.67047098
   5.13359547  2.96388272 14.67047098
   6.41699433  5.18679477 14.67047098
   6.41699433  0.74097068 14.67047098
   7.70039320  2.96388272 14.67047098
   8.98379207  5.18679477 14.67047098
 


--------------------------------------------------------------------------------------------------------


 k-point   1 :   0.0000 0.0000 0.0000  plane waves:   27769
 k-point   2 :   0.3333-0.0000 0.0000  plane waves:   27676
 k-point   3 :  -0.3333 0.3333 0.0000  plane waves:   27678

 maximum and minimum number of plane-waves per node :      5577     5513

 maximum number of plane-waves:     27769
 maximum index in each direction: 
   IXMAX=   12   IYMAX=   12   IZMAX=   48
   IXMIN=  -12   IYMIN=  -12   IZMIN=  -48


 parallel 3D FFT for wavefunctions:
    minimum data exchange during FFTs selected (reduces bandwidth)
 parallel 3D FFT for charge:
    minimum data exchange during FFTs selected (reduces bandwidth)


 total amount of memory used by VASP MPI-rank0   126391. kBytes
=======================================================================

   base      :      30000. kBytes
   nonl-proj :       8800. kBytes
   fftplans  :       4713. kBytes
   grid      :      10798. kBytes
   one-center:        466. kBytes
   wavefun   :      71614. kBytes
 
     INWAV:  cpu time      0.0000: real time      0.0005
 Broyden mixing: mesh for mixing (old mesh)
   NGX = 25   NGY = 25   NGZ = 97
  (NGX  = 80   NGY  = 80   NGZ  =300)
  gives a total of  60625 points

 initial charge density was supplied:
 charge density of overlapping atoms calculated
 number of electron     792.0000000 magnetization      72.0000000
 keeping initial charge density in first step


--------------------------------------------------------------------------------------------------------


 Maximum index for augmentation-charges          296 (set IRDMAX)


--------------------------------------------------------------------------------------------------------


 First call to EWALD:  gamma=   0.154
 Maximum number of real-space cells 4x 4x 1
 Maximum number of reciprocal cells 2x 2x 6

    FEWALD:  cpu time      0.0038: real time      0.0038


--------------------------------------- Iteration      1(   1)  ---------------------------------------


    POTLOK:  cpu time      0.1300: real time      0.1333
    SETDIJ:  cpu time      0.0253: real time      0.0254
     EDDAV:  cpu time     42.4680: real time     42.7794
       DOS:  cpu time      0.0037: real time      0.0037
    --------------------------------------------
      LOOP:  cpu time     42.6270: real time     42.9418

 eigenvalue-minimisations  :  6144
 total energy-change (2. order) : 0.7794284E+04  (-0.2789674E+05)
 number of electron     792.0000000 magnetization      72.0000000
 augmentation part      792.0000000 magnetization      72.0000000

 Free energy of the ion-electron system (eV)
  ---------------------------------------------------
  alpha Z        PSCENC =      2488.26331973
  Ewald energy   TEWEN  =    448194.12847948
  -Hartree energ DENC   =   -547206.29718098
  -exchange      EXHF   =         0.00000000
  -V(xc)+E(xc)   XCENC  =      3293.50267625
  PAW double counting   =     88423.01971552   -96042.30706980
  entropy T*S    EENTRO =        -0.00141887
  eigenvalues    EBANDS =      8495.02582957
  atomic energy  EATOM  =    100148.95009438
  Solvation  Ediel_sol  =         0.00000000
  ---------------------------------------------------
  free energy    TOTEN  =      7794.28444528 eV

  energy without entropy =     7794.28586415  energy(sigma->0) =     7794.28491824


--------------------------------------------------------------------------------------------------------




--------------------------------------- Iteration      1(   2)  ---------------------------------------


     EDDAV:  cpu time     42.4256: real time     42.7410
       DOS:  cpu time      0.0046: real time      0.0046
    --------------------------------------------
      LOOP:  cpu time     42.4302: real time     42.7456

 eigenvalue-minimisations  :  6144
 total energy-change (2. order) :-0.6658131E+04  (-0.6374696E+04)
 number of electron     792.0000000 magnetization      72.0000000
 augmentation part      792.0000000 magnetization      72.0000000

 Free energy of the ion-electron system (eV)
  ---------------------------------------------------
  alpha Z        PSCENC =      2488.26331973
  Ewald energy   TEWEN  =    448194.12847948
  -Hartree energ DENC   =   -547206.29718098
  -exchange      EXHF   =         0.00000000
  -V(xc)+E(xc)   XCENC  =      3293.50267625
  PAW double counting   =     88423.01971552   -96042.30706980
  entropy T*S    EENTRO =         0.00445097
  eigenvalues    EBANDS =      1836.88924329
  atomic energy  EATOM  =    100148.95009438
  Solvation  Ediel_sol  =         0.00000000
  ---------------------------------------------------
  free energy    TOTEN  =      1136.15372884 eV

  energy without entropy =     1136.14927788  energy(sigma->0) =     1136.15224519


--------------------------------------------------------------------------------------------------------




--------------------------------------- Iteration      1(   3)  ---------------------------------------


     EDDAV:  cpu time     42.2756: real time     42.5847
       DOS:  cpu time      0.0051: real time      0.0051
    --------------------------------------------
      LOOP:  cpu time     42.2807: real time     42.5898

 eigenvalue-minimisations  :  6144
 total energy-change (2. order) :-0.1332452E+04  (-0.1205724E+04)
 number of electron     792.0000000 magnetization      72.0000000
 augmentation part      792.0000000 magnetization      72.0000000

 Free energy of the ion-electron system (eV)
  ---------------------------------------------------
  alpha Z        PSCENC =      2488.26331973
  Ewald energy   TEWEN  =    448194.12847948
  -Hartree energ DENC   =   -547206.29718098
  -exchange      EXHF   =         0.00000000
  -V(xc)+E(xc)   XCENC  =      3293.50267625
  PAW double counting   =     88423.01971552   -96042.30706980
  entropy T*S    EENTRO =         0.04074728
  eigenvalues    EBANDS =       504.40099021
  atomic energy  EATOM  =    100148.95009438
  Solvation  Ediel_sol  =         0.00000000
  ---------------------------------------------------
  free energy    TOTEN  =      -196.29822793 eV

  energy without entropy =     -196.33897521  energy(sigma->0) =     -196.31181036


--------------------------------------------------------------------------------------------------------




--------------------------------------- Iteration      1(   4)  ---------------------------------------


     EDDAV:  cpu time     45.2632: real time     46.0126
       DOS:  cpu time      0.0052: real time      0.0053
    --------------------------------------------
      LOOP:  cpu time     45.2685: real time     46.0179

 eigenvalue-minimisations  :  6656
 total energy-change (2. order) :-0.1110556E+03  (-0.1052823E+03)
 number of electron     792.0000000 magnetization      72.0000000
 augmentation part      792.0000000 magnetization      72.0000000

 Free energy of the ion-electron system (eV)
  ---------------------------------------------------
  alpha Z        PSCENC =      2488.26331973
  Ewald energy   TEWEN  =    448194.12847948
  -Hartree energ DENC   =   -547206.29718098
  -exchange      EXHF   =         0.00000000
  -V(xc)+E(xc)   XCENC  =      3293.50267625
  PAW double counting   =     88423.01971552   -96042.30706980
  entropy T*S    EENTRO =         0.06420301
  eigenvalues    EBANDS =       393.32195020
  atomic energy  EATOM  =    100148.95009438
  Solvation  Ediel_sol  =         0.00000000
  ---------------------------------------------------
  free energy    TOTEN  =      -307.35381221 eV

  energy without entropy =     -307.41801521  energy(sigma->0) =     -307.37521321


--------------------------------------------------------------------------------------------------------




--------------------------------------- Iteration      1(   5)  ---------------------------------------


     EDDAV:  cpu time     45.7275: real time     46.1366
       DOS:  cpu time      0.0051: real time      0.0051
    CHARGE:  cpu time      1.4950: real time      1.5051
    MIXING:  cpu time      0.0043: real time      0.0043
    --------------------------------------------
      LOOP:  cpu time     47.2319: real time     47.6512

 eigenvalue-minimisations  :  6808
 total energy-change (2. order) :-0.2876100E+01  (-0.2862534E+01)
 number of electron     791.9999904 magnetization      67.9482862
 augmentation part      467.1038056 magnetization      66.5486008

 Broyden mixing:
  rms(total) = 0.79649E+01    rms(broyden)= 0.79647E+01
  rms(prec ) = 0.81421E+01
  weight for this iteration     100.00

 Free energy of the ion-electron system (eV)
  ---------------------------------------------------
  alpha Z        PSCENC =      2488.26331973
  Ewald energy   TEWEN  =    448194.12847948
  -Hartree energ DENC   =   -547206.29718098
  -exchange      EXHF   =         0.00000000
  -V(xc)+E(xc)   XCENC  =      3293.50267625
  PAW double counting   =     88423.01971552   -96042.30706980
  entropy T*S    EENTRO =         0.06574953
  eigenvalues    EBANDS =       390.44430414
  atomic energy  EATOM  =    100148.95009438
  Solvation  Ediel_sol  =         0.00000000
  ---------------------------------------------------
  free energy    TOTEN  =      -310.22991174 eV

  energy without entropy =     -310.29566128  energy(sigma->0) =     -310.25182825


--------------------------------------------------------------------------------------------------------




--------------------------------------- Iteration      1(   6)  ---------------------------------------


    POTLOK:  cpu time      0.1338: real time      0.1376
    SETDIJ:  cpu time      0.0247: real time      0.0248
     EDDAV:  cpu time     45.8853: real time     46.4764
       DOS:  cpu time      0.0049: real time      0.0049
    CHARGE:  cpu time      1.4602: real time      1.4678
    MIXING:  cpu time      0.0040: real time      0.0040
    --------------------------------------------
      LOOP:  cpu time     47.5128: real time     48.1155

 eigenvalue-minimisations  :  6848
 total energy-change (2. order) : 0.5040586E+02  (-0.6955108E+02)
 number of electron     791.9999888 magnetization      65.1981625
 augmentation part      529.0419415 magnetization      49.8283450

 Broyden mixing:
  rms(total) = 0.41676E+01    rms(broyden)= 0.41674E+01
  rms(prec ) = 0.42651E+01
  weight for this iteration     100.00

 eigenvalues of (default mixing * dielectric matrix)
  average eigenvalue GAMMA=   0.7855
  0.7855

 Free energy of the ion-electron system (eV)
  ---------------------------------------------------
  alpha Z        PSCENC =      2488.26331973
  Ewald energy   TEWEN  =    448194.12847948
  -Hartree energ DENC   =   -545181.46074743
  -exchange      EXHF   =         0.00000000
  -V(xc)+E(xc)   XCENC  =      3202.29396306
  PAW double counting   =     89504.10696565   -96720.84448404
  entropy T*S    EENTRO =        -0.02848666
  eigenvalues    EBANDS =     -1895.23316064
  atomic energy  EATOM  =    100148.95009438
  Solvation  Ediel_sol  =         0.00000000
  ---------------------------------------------------
  free energy    TOTEN  =      -259.82405647 eV

  energy without entropy =     -259.79556981  energy(sigma->0) =     -259.81456091


--------------------------------------------------------------------------------------------------------




--------------------------------------- Iteration      1(   7)  ---------------------------------------


    POTLOK:  cpu time      0.1228: real time      0.1250
    SETDIJ:  cpu time      0.0244: real time      0.0245
     EDDAV:  cpu time     48.8079: real time     49.4746
       DOS:  cpu time      0.0053: real time      0.0053
    CHARGE:  cpu time      1.4499: real time      1.4564
    MIXING:  cpu time      0.0078: real time      0.0079
    --------------------------------------------
      LOOP:  cpu time     50.4181: real time     51.0936

 eigenvalue-minimisations  :  6696
 total energy-change (2. order) : 0.3458370E+02  (-0.1836931E+02)
 number of electron     791.9999893 magnetization      60.9505884
 augmentation part      505.9362129 magnetization      44.4223971

 Broyden mixing:
  rms(total) = 0.18796E+01    rms(broyden)= 0.18795E+01
  rms(prec ) = 0.18927E+01
  weight for this iteration     100.00

 eigenvalues of (default mixing * dielectric matrix)
  average eigenvalue GAMMA=   0.8908
  1.1245  0.6572

 Free energy of the ion-electron system (eV)
  ---------------------------------------------------
  alpha Z        PSCENC =      2488.26331973
  Ewald energy   TEWEN  =    448194.12847948
  -Hartree energ DENC   =   -546119.16146110
  -exchange      EXHF   =         0.00000000
  -V(xc)+E(xc)   XCENC  =      3243.50980912
  PAW double counting   =     91380.08066644   -98969.45839406
  entropy T*S    EENTRO =        -0.02841439
  eigenvalues    EBANDS =      -591.52445842
  atomic energy  EATOM  =    100148.95009438
  Solvation  Ediel_sol  =         0.00000000
  ---------------------------------------------------
  free energy    TOTEN  =      -225.24035882 eV

  energy without entropy =     -225.21194443  energy(sigma->0) =     -225.23088736


--------------------------------------------------------------------------------------------------------




--------------------------------------- Iteration      1(   8)  ---------------------------------------


    POTLOK:  cpu time      0.1226: real time      0.1266
    SETDIJ:  cpu time      0.0247: real time      0.0248
     EDDAV:  cpu time     51.7472: real time     52.0726
       DOS:  cpu time      0.0049: real time      0.0049
    CHARGE:  cpu time      1.4551: real time      1.4620
    MIXING:  cpu time      0.0118: real time      0.0119
    --------------------------------------------
      LOOP:  cpu time     53.3664: real time     53.7028

 eigenvalue-minimisations  :  7960
 total energy-change (2. order) : 0.7503653E+01  (-0.1612483E+01)
 number of electron     791.9999900 magnetization      58.6969742
 augmentation part      504.9815877 magnetization      41.7520813

 Broyden mixing:
  rms(total) = 0.17959E+01    rms(broyden)= 0.17959E+01
  rms(prec ) = 0.18568E+01
  weight for this iteration     100.00

 eigenvalues of (default mixing * dielectric matrix)
  average eigenvalue GAMMA=   0.7494
  1.1117  0.6010  0.5354

 Free energy of the ion-electron system (eV)
  ---------------------------------------------------
  alpha Z        PSCENC =      2488.26331973
  Ewald energy   TEWEN  =    448194.12847948
  -Hartree energ DENC   =   -546037.65311517
  -exchange      EXHF   =         0.00000000
  -V(xc)+E(xc)   XCENC  =      3247.25075027
  PAW double counting   =     92848.62944388  -100534.55675783
  entropy T*S    EENTRO =        -0.03062878
  eigenvalues    EBANDS =      -572.71829208
  atomic energy  EATOM  =    100148.95009438
  Solvation  Ediel_sol  =         0.00000000
  ---------------------------------------------------
  free energy    TOTEN  =      -217.73670613 eV

  energy without entropy =     -217.70607735  energy(sigma->0) =     -217.72649654


--------------------------------------------------------------------------------------------------------




--------------------------------------- Iteration      1(   9)  ---------------------------------------


    POTLOK:  cpu time      0.1239: real time      0.1258
    SETDIJ:  cpu time      0.0245: real time      0.0246
     EDDAV:  cpu time     47.3447: real time     47.6683
       DOS:  cpu time      0.0051: real time      0.0051
    CHARGE:  cpu time      1.4731: real time      1.4805
    MIXING:  cpu time      0.0082: real time      0.0082
    --------------------------------------------
      LOOP:  cpu time     48.9794: real time     49.3125

 eigenvalue-minimisations  :  7144
 total energy-change (2. order) :-0.1067093E+01  (-0.7953563E+00)
 number of electron     791.9999892 magnetization      52.9027135
 augmentation part      504.4209188 magnetization      35.9172545

 Broyden mixing:
  rms(total) = 0.16719E+01    rms(broyden)= 0.16719E+01
  rms(prec ) = 0.17283E+01
  weight for this iteration     100.00

 eigenvalues of (default mixing * dielectric matrix)
  average eigenvalue GAMMA=   0.7535
  1.0656  0.8138  0.8138  0.3207

 Free energy of the ion-electron system (eV)
  ---------------------------------------------------
  alpha Z        PSCENC =      2488.26331973
  Ewald energy   TEWEN  =    448194.12847948
  -Hartree energ DENC   =   -546235.71038054
  -exchange      EXHF   =         0.00000000
  -V(xc)+E(xc)   XCENC  =      3244.88181933
  PAW double counting   =     93313.91274374  -101026.53733862
  entropy T*S    EENTRO =        -0.03041469
  eigenvalues    EBANDS =      -346.66212225
  atomic energy  EATOM  =    100148.95009438
  Solvation  Ediel_sol  =         0.00000000
  ---------------------------------------------------
  free energy    TOTEN  =      -218.80379943 eV

  energy without entropy =     -218.77338474  energy(sigma->0) =     -218.79366120


--------------------------------------------------------------------------------------------------------




--------------------------------------- Iteration      1(  10)  ---------------------------------------


    POTLOK:  cpu time      0.1313: real time      0.1351
    SETDIJ:  cpu time      0.0334: real time      0.0335
     EDDAV:  cpu time     54.1651: real time     54.5284
       DOS:  cpu time      0.0052: real time      0.0052
    CHARGE:  cpu time      1.4878: real time      1.4946
    MIXING:  cpu time      0.0108: real time      0.0108
    --------------------------------------------
      LOOP:  cpu time     55.8337: real time     56.2077

 eigenvalue-minimisations  :  8288
 total energy-change (2. order) :-0.9887464E+00  (-0.4236087E+00)
 number of electron     791.9999894 magnetization      40.2278223
 augmentation part      505.2737067 magnetization      24.6252411

 Broyden mixing:
  rms(total) = 0.15157E+01    rms(broyden)= 0.15157E+01
  rms(prec ) = 0.16285E+01
  weight for this iteration     100.00

 eigenvalues of (default mixing * dielectric matrix)
  average eigenvalue GAMMA=   1.1902
  3.3499  1.1579  0.6817  0.4498  0.3117

 Free energy of the ion-electron system (eV)
  ---------------------------------------------------
  alpha Z        PSCENC =      2488.26331973
  Ewald energy   TEWEN  =    448194.12847948
  -Hartree energ DENC   =   -546090.16515626
  -exchange      EXHF   =         0.00000000
  -V(xc)+E(xc)   XCENC  =      3239.51727004
  PAW double counting   =     94260.28052904  -102019.29922962
  entropy T*S    EENTRO =        -0.08158221
  eigenvalues    EBANDS =      -441.38627046
  atomic energy  EATOM  =    100148.95009438
  Solvation  Ediel_sol  =         0.00000000
  ---------------------------------------------------
  free energy    TOTEN  =      -219.79254587 eV

  energy without entropy =     -219.71096366  energy(sigma->0) =     -219.76535180


--------------------------------------------------------------------------------------------------------




--------------------------------------- Iteration      1(  11)  ---------------------------------------


    POTLOK:  cpu time      0.1227: real time      0.1245
    SETDIJ:  cpu time      0.0243: real time      0.0244
     EDDAV:  cpu time     63.7256: real time     64.1613
       DOS:  cpu time      0.0043: real time      0.0043
    CHARGE:  cpu time      1.5069: real time      1.5142
    MIXING:  cpu time      0.0062: real time      0.0062
    --------------------------------------------
      LOOP:  cpu time     65.3900: real time     65.8350

 eigenvalue-minimisations  : 10240
 total energy-change (2. order) :-0.8645824E+01  (-0.2191228E+01)
 number of electron     791.9999897 magnetization      33.5208711
 augmentation part      505.2817884 magnetization      18.8822217

 Broyden mixing:
  rms(total) = 0.15446E+01    rms(broyden)= 0.15445E+01
  rms(prec ) = 0.28576E+01
  weight for this iteration     100.00

 eigenvalues of (default mixing * dielectric matrix)
  average eigenvalue GAMMA=   1.1784
  4.2302  1.1539  0.6745  0.4687  0.3585  0.1847

 Free energy of the ion-electron system (eV)
  ---------------------------------------------------
  alpha Z        PSCENC =      2488.26331973
  Ewald energy   TEWEN  =    448194.12847948
  -Hartree energ DENC   =   -546401.58155384
  -exchange      EXHF   =         0.00000000
  -V(xc)+E(xc)   XCENC  =      3231.11874962
  PAW double counting   =     95857.60410373  -103691.81022248
  entropy T*S    EENTRO =         0.04002049
  eigenvalues    EBANDS =       -55.15136130
  atomic energy  EATOM  =    100148.95009438
  Solvation  Ediel_sol  =         0.00000000
  ---------------------------------------------------
  free energy    TOTEN  =      -228.43837018 eV

  energy without entropy =     -228.47839067  energy(sigma->0) =     -228.45171034


--------------------------------------------------------------------------------------------------------




--------------------------------------- Iteration      1(  12)  ---------------------------------------


    POTLOK:  cpu time      0.1236: real time      0.1282
    SETDIJ:  cpu time      0.0244: real time      0.0245
     EDDAV:  cpu time     65.3782: real time     65.8214
       DOS:  cpu time      0.0053: real time      0.0053
    CHARGE:  cpu time      1.4898: real time      1.4969
    MIXING:  cpu time      0.0058: real time      0.0058
    --------------------------------------------
      LOOP:  cpu time     67.0270: real time     67.4821

 eigenvalue-minimisations  : 10240
 total energy-change (2. order) : 0.5219550E+01  (-0.2464932E+01)
 number of electron     791.9999896 magnetization      25.9447936
 augmentation part      507.0647817 magnetization      13.6070711

 Broyden mixing:
  rms(total) = 0.11004E+01    rms(broyden)= 0.11003E+01
  rms(prec ) = 0.15366E+01
  weight for this iteration     100.00

 eigenvalues of (default mixing * dielectric matrix)
  average eigenvalue GAMMA=   1.2123
  5.0934  1.1136  0.7135  0.7135  0.4418  0.2691  0.1414

 Free energy of the ion-electron system (eV)
  ---------------------------------------------------
  alpha Z        PSCENC =      2488.26331973
  Ewald energy   TEWEN  =    448194.12847948
  -Hartree energ DENC   =   -546511.61814282
  -exchange      EXHF   =         0.00000000
  -V(xc)+E(xc)   XCENC  =      3229.03064871
  PAW double counting   =     96473.71747512  -104335.78400288
  entropy T*S    EENTRO =        -0.05628014
  eigenvalues    EBANDS =        90.14958837
  atomic energy  EATOM  =    100148.95009438
  Solvation  Ediel_sol  =         0.00000000
  ---------------------------------------------------
  free energy    TOTEN  =      -223.21882005 eV

  energy without entropy =     -223.16253991  energy(sigma->0) =     -223.20006000


--------------------------------------------------------------------------------------------------------




--------------------------------------- Iteration      1(  13)  ---------------------------------------


    POTLOK:  cpu time      0.1244: real time      0.1285
    SETDIJ:  cpu time      0.0244: real time      0.0245
     EDDAV:  cpu time     62.9694: real time     63.3759
       DOS:  cpu time      0.0045: real time      0.0046
    CHARGE:  cpu time      1.5041: real time      1.5111
    MIXING:  cpu time      0.0076: real time      0.0076
    --------------------------------------------
      LOOP:  cpu time     64.6344: real time     65.0521

 eigenvalue-minimisations  :  9912
 total energy-change (2. order) : 0.1232517E+01  (-0.6026364E+00)
 number of electron     791.9999893 magnetization      18.9075031
 augmentation part      507.9953251 magnetization       8.7832183

 Broyden mixing:
  rms(total) = 0.88665E+00    rms(broyden)= 0.88663E+00
  rms(prec ) = 0.92371E+00
  weight for this iteration     100.00

 eigenvalues of (default mixing * dielectric matrix)
  average eigenvalue GAMMA=   1.4533
  7.1752  1.2213  0.9219  0.9219  0.5575  0.4293  0.2589  0.1402

 Free energy of the ion-electron system (eV)
  ---------------------------------------------------
  alpha Z        PSCENC =      2488.26331973
  Ewald energy   TEWEN  =    448194.12847948
  -Hartree energ DENC   =   -546353.73510821
  -exchange      EXHF   =         0.00000000
  -V(xc)+E(xc)   XCENC  =      3228.03672932
  PAW double counting   =     96666.19631490  -104536.69037180
  entropy T*S    EENTRO =        -0.03275271
  eigenvalues    EBANDS =       -57.10300799
  atomic energy  EATOM  =    100148.95009438
  Solvation  Ediel_sol  =         0.00000000
  ---------------------------------------------------
  free energy    TOTEN  =      -221.98630289 eV

  energy without entropy =     -221.95355018  energy(sigma->0) =     -221.97538532


--------------------------------------------------------------------------------------------------------




--------------------------------------- Iteration      1(  14)  ---------------------------------------


    POTLOK:  cpu time      0.1236: real time      0.1283
    SETDIJ:  cpu time      0.0245: real time      0.0246
     EDDAV:  cpu time     58.4929: real time     58.8917
       DOS:  cpu time      0.0063: real time      0.0063
    CHARGE:  cpu time      1.5138: real time      1.5212
    MIXING:  cpu time      0.0076: real time      0.0077
    --------------------------------------------
      LOOP:  cpu time     60.1687: real time     60.5798

 eigenvalue-minimisations  :  9224
 total energy-change (2. order) :-0.1021067E+02  (-0.5516932E+00)
 number of electron     791.9999900 magnetization      11.7585515
 augmentation part      506.3426411 magnetization       3.4172636

 Broyden mixing:
  rms(total) = 0.60125E+00    rms(broyden)= 0.60124E+00
  rms(prec ) = 0.62927E+00
  weight for this iteration     100.00

 eigenvalues of (default mixing * dielectric matrix)
  average eigenvalue GAMMA=   1.8459
 10.8683  1.9831  0.9141  0.9141  0.6383  0.4461  0.4461  0.2630  0.1398

 Free energy of the ion-electron system (eV)
  ---------------------------------------------------
  alpha Z        PSCENC =      2488.26331973
  Ewald energy   TEWEN  =    448194.12847948
  -Hartree energ DENC   =   -546378.81287219
  -exchange      EXHF   =         0.00000000
  -V(xc)+E(xc)   XCENC  =      3226.12987614
  PAW double counting   =     96002.03506026  -103845.21508519
  entropy T*S    EENTRO =         0.04512482
  eigenvalues    EBANDS =       -67.72097272
  atomic energy  EATOM  =    100148.95009438
  Solvation  Ediel_sol  =         0.00000000
  ---------------------------------------------------
  free energy    TOTEN  =      -232.19697527 eV

  energy without entropy =     -232.24210009  energy(sigma->0) =     -232.21201688


--------------------------------------------------------------------------------------------------------




--------------------------------------- Iteration      1(  15)  ---------------------------------------


    POTLOK:  cpu time      0.1329: real time      0.1372
    SETDIJ:  cpu time      0.0338: real time      0.0339
     EDDAV:  cpu time     54.9535: real time     55.3304
       DOS:  cpu time      0.0052: real time      0.0052
    CHARGE:  cpu time      1.4943: real time      1.5014
    MIXING:  cpu time      0.0113: real time      0.0114
    --------------------------------------------
      LOOP:  cpu time     56.6310: real time     57.0195

 eigenvalue-minimisations  :  8408
 total energy-change (2. order) :-0.1164821E+02  (-0.1189767E+01)
 number of electron     791.9999895 magnetization      10.6751386
 augmentation part      504.0786097 magnetization       5.4194223

 Broyden mixing:
  rms(total) = 0.40403E+00    rms(broyden)= 0.40396E+00
  rms(prec ) = 0.42534E+00
  weight for this iteration     100.00

 eigenvalues of (default mixing * dielectric matrix)
  average eigenvalue GAMMA=   1.8485
 11.9829  2.2705  0.9412  0.7431  0.7431  0.5338  0.4619  0.4063  0.2626  0.1399

 Free energy of the ion-electron system (eV)
  ---------------------------------------------------
  alpha Z        PSCENC =      2488.26331973
  Ewald energy   TEWEN  =    448194.12847948
  -Hartree energ DENC   =   -546415.02109777
  -exchange      EXHF   =         0.00000000
  -V(xc)+E(xc)   XCENC  =      3225.03827187
  PAW double counting   =     94739.93771003  -102523.06539999
  entropy T*S    EENTRO =         0.00068103
  eigenvalues    EBANDS =      -102.07724872
  atomic energy  EATOM  =    100148.95009438
  Solvation  Ediel_sol  =         0.00000000
  ---------------------------------------------------
  free energy    TOTEN  =      -243.84518995 eV

  energy without entropy =     -243.84587098  energy(sigma->0) =     -243.84541696


--------------------------------------------------------------------------------------------------------




--------------------------------------- Iteration      1(  16)  ---------------------------------------


    POTLOK:  cpu time      0.1222: real time      0.1232
    SETDIJ:  cpu time      0.0245: real time      0.0246
     EDDAV:  cpu time     46.6756: real time     46.9720
       DOS:  cpu time      0.0094: real time      0.0095
    CHARGE:  cpu time      1.4857: real time      1.4929
    MIXING:  cpu time      0.0075: real time      0.0075
    --------------------------------------------
      LOOP:  cpu time     48.3249: real time     48.6297

 eigenvalue-minimisations  :  7000
 total energy-change (2. order) :-0.2373049E+01  (-0.3508930E+00)
 number of electron     791.9999897 magnetization       9.6308911
 augmentation part      504.6282515 magnetization       5.3982603

 Broyden mixing:
  rms(total) = 0.30474E+00    rms(broyden)= 0.30470E+00
  rms(prec ) = 0.31123E+00
  weight for this iteration     100.00

 eigenvalues of (default mixing * dielectric matrix)
  average eigenvalue GAMMA=   1.8599
 12.6624  2.5936  1.0194  0.8473  0.8473  0.6576  0.5739  0.4667  0.3875  0.2628
  0.1399

 Free energy of the ion-electron system (eV)
  ---------------------------------------------------
  alpha Z        PSCENC =      2488.26331973
  Ewald energy   TEWEN  =    448194.12847948
  -Hartree energ DENC   =   -546374.99178470
  -exchange      EXHF   =         0.00000000
  -V(xc)+E(xc)   XCENC  =      3222.84875935
  PAW double counting   =     94347.07417792  -102102.88989823
  entropy T*S    EENTRO =        -0.00389450
  eigenvalues    EBANDS =      -169.59749256
  atomic energy  EATOM  =    100148.95009438
  Solvation  Ediel_sol  =         0.00000000
  ---------------------------------------------------
  free energy    TOTEN  =      -246.21823912 eV

  energy without entropy =     -246.21434462  energy(sigma->0) =     -246.21694095


--------------------------------------------------------------------------------------------------------




--------------------------------------- Iteration      1(  17)  ---------------------------------------


    POTLOK:  cpu time      0.1311: real time      0.1355
    SETDIJ:  cpu time      0.0256: real time      0.0257
     EDDAV:  cpu time     45.2725: real time     45.5597
       DOS:  cpu time      0.0050: real time      0.0050
    CHARGE:  cpu time      1.4813: real time      1.4884
    MIXING:  cpu time      0.0092: real time      0.0093
    --------------------------------------------
      LOOP:  cpu time     46.9248: real time     47.2237

 eigenvalue-minimisations  :  6736
 total energy-change (2. order) :-0.2295774E+01  (-0.1451137E+00)
 number of electron     791.9999896 magnetization       7.9993758
 augmentation part      505.1627374 magnetization       4.5604107

 Broyden mixing:
  rms(total) = 0.25138E+00    rms(broyden)= 0.25136E+00
  rms(prec ) = 0.25885E+00
  weight for this iteration     100.00

 eigenvalues of (default mixing * dielectric matrix)
  average eigenvalue GAMMA=   1.8657
 13.1117  2.9119  1.0415  1.0415  1.0362  0.8061  0.6548  0.5264  0.4656  0.3904
  0.2627  0.1399

 Free energy of the ion-electron system (eV)
  ---------------------------------------------------
  alpha Z        PSCENC =      2488.26331973
  Ewald energy   TEWEN  =    448194.12847948
  -Hartree energ DENC   =   -546331.69735314
  -exchange      EXHF   =         0.00000000
  -V(xc)+E(xc)   XCENC  =      3220.68142739
  PAW double counting   =     94129.50641784  -101871.86709154
  entropy T*S    EENTRO =         0.00135762
  eigenvalues    EBANDS =      -226.48066486
  atomic energy  EATOM  =    100148.95009438
  Solvation  Ediel_sol  =         0.00000000
  ---------------------------------------------------
  free energy    TOTEN  =      -248.51401309 eV

  energy without entropy =     -248.51537071  energy(sigma->0) =     -248.51446563


--------------------------------------------------------------------------------------------------------




--------------------------------------- Iteration      1(  18)  ---------------------------------------


    POTLOK:  cpu time      0.1218: real time      0.1227
    SETDIJ:  cpu time      0.0242: real time      0.0243
     EDDAV:  cpu time     52.9810: real time     53.3659
       DOS:  cpu time      0.0054: real time      0.0054
    CHARGE:  cpu time      1.4987: real time      1.5056
    MIXING:  cpu time      0.0085: real time      0.0085
    --------------------------------------------
      LOOP:  cpu time     54.6396: real time     55.0324

 eigenvalue-minimisations  :  7744
 total energy-change (2. order) :-0.3101934E+01  (-0.1811920E+00)
 number of electron     791.9999896 magnetization       6.9373241
 augmentation part      505.5601965 magnetization       4.5131942

 Broyden mixing:
  rms(total) = 0.24479E+00    rms(broyden)= 0.24475E+00
  rms(prec ) = 0.24984E+00
  weight for this iteration     100.00

 eigenvalues of (default mixing * dielectric matrix)
  average eigenvalue GAMMA=   1.8429
 13.5771  3.1166  1.3750  1.0500  1.0500  0.8744  0.6659  0.1399  0.2628  0.5313
  0.4798  0.4449  0.3903

 Free energy of the ion-electron system (eV)
  ---------------------------------------------------
  alpha Z        PSCENC =      2488.26331973
  Ewald energy   TEWEN  =    448194.12847948
  -Hartree energ DENC   =   -546239.94881591
  -exchange      EXHF   =         0.00000000
  -V(xc)+E(xc)   XCENC  =      3217.58980662
  PAW double counting   =     93946.11068961  -101682.76770590
  entropy T*S    EENTRO =        -0.00034553
  eigenvalues    EBANDS =      -323.94146919
  atomic energy  EATOM  =    100148.95009438
  Solvation  Ediel_sol  =         0.00000000
  ---------------------------------------------------
  free energy    TOTEN  =      -251.61594670 eV

  energy without entropy =     -251.61560118  energy(sigma->0) =     -251.61583153


--------------------------------------------------------------------------------------------------------




--------------------------------------- Iteration      1(  19)  ---------------------------------------


    POTLOK:  cpu time      0.1256: real time      0.1297
    SETDIJ:  cpu time      0.0243: real time      0.0244
     EDDAV:  cpu time     51.9233: real time     52.2468
       DOS:  cpu time      0.0050: real time      0.0050
    CHARGE:  cpu time      1.4627: real time      1.4694
    MIXING:  cpu time      0.0104: real time      0.0104
    --------------------------------------------
      LOOP:  cpu time     53.5513: real time     53.8857

 eigenvalue-minimisations  :  7992
 total energy-change (2. order) :-0.1156133E+01  (-0.5714703E-01)
[...]
  n-local -1538.97423 -1527.40526 -1535.81792    10.02378    -0.59142     1.00849
  augment  6818.06170  6818.08973  6828.82335    -0.02427     0.00039     0.00065
  Kinetic  6462.45498  6460.47640  6487.49726    -1.71237     1.22665    -2.12485
  Fock        0.00000     0.00000     0.00000     0.00000     0.00000     0.00000
  vdW       -37.32508   -37.32508   -31.42463     0.00000    -0.00000    -0.00000
  -------------------------------------------------------------------------------------
  Total     -38.60659   -38.60659    -6.13248    -0.00000    -0.00000    -0.00000
  in kB     -40.59674   -40.59674    -6.44861    -0.00000    -0.00000    -0.00000
  external pressure =      -29.21 kB  Pullay stress =        0.00 kB


 VOLUME and BASIS-vectors are now :
 -----------------------------------------------------------------------------
  energy-cutoff  :      400.00
  volume of cell :     1523.63
      direct lattice vectors                 reciprocal lattice vectors
     7.700393200  0.000000000  0.000000000     0.129863498 -0.074976726  0.000000000
     3.850196600  6.668736130  0.000000000     0.000000000  0.149953452  0.000000000
     0.000000000  0.000000000 29.670471191     0.000000000  0.000000000  0.033703543

  length of vectors
     7.700393200  7.700393200 29.670471191     0.149953452  0.149953452  0.033703543


 FORCES acting on ions
    electron-ion (+dipol)            ewald-force                    non-local-force                 convergence-correction
 -----------------------------------------------------------------------------------------------
   -.399E-06 -.230E-06 0.597E+04   0.805E-07 -.216E-06 -.597E+04   -.173E-17 -.607E-17 -.213E+01   -.856E-08 -.495E-08 -.157E+00
   0.154E-04 0.356E-04 0.597E+04   -.200E-06 0.441E-06 -.597E+04   -.434E-18 -.867E-18 -.213E+01   -.743E-08 -.292E-08 -.157E+00
   -.185E-04 -.329E-04 0.597E+04   0.279E-06 -.310E-06 -.597E+04   0.781E-17 -.173E-17 -.213E+01   -.990E-08 -.692E-08 -.157E+00
   0.389E-04 -.250E-05 0.597E+04   0.189E-06 -.194E-06 -.597E+04   0.434E-17 -.954E-17 -.213E+01   -.627E-08 -.512E-08 -.157E+00
   0.116E-05 0.239E-05 0.597E+04   0.338E-07 0.442E-06 -.597E+04   0.260E-17 0.173E-17 -.213E+01   -.856E-08 -.506E-08 -.157E+00
   0.191E-04 -.337E-04 0.597E+04   -.239E-06 -.235E-06 -.597E+04   -.520E-17 -.954E-17 -.213E+01   -.723E-08 -.680E-08 -.157E+00
   -.395E-04 -.864E-06 0.597E+04   -.248E-06 -.117E-06 -.597E+04   0.130E-17 0.520E-17 -.213E+01   -.108E-07 -.503E-08 -.157E+00
   -.175E-04 0.360E-04 0.597E+04   0.189E-06 0.444E-06 -.597E+04   -.121E-16 -.520E-17 -.213E+01   -.967E-08 -.304E-08 -.157E+00
   -.178E-05 -.139E-05 0.597E+04   -.168E-07 -.286E-06 -.597E+04   -.173E-17 0.347E-17 -.213E+01   -.859E-08 -.492E-08 -.157E+00
   0.337E-04 0.207E-04 0.431E+04   -.922E-07 -.263E-06 -.431E+04   -.347E-17 0.347E-17 -.787E+00   0.298E-07 0.170E-07 0.102E+00
   0.574E-05 -.162E-05 0.431E+04   -.155E-06 0.549E-06 -.431E+04   0.249E-17 0.130E-17 -.787E+00   0.296E-07 0.194E-07 0.102E+00
   0.143E-05 -.411E-04 0.431E+04   0.252E-06 -.298E-06 -.431E+04   0.640E-17 0.867E-18 -.787E+00   0.313E-07 0.203E-07 0.102E+00
   0.688E-06 0.964E-05 0.431E+04   0.809E-07 -.109E-06 -.431E+04   0.651E-18 0.542E-17 -.787E+00   0.313E-07 0.158E-07 0.102E+00
   -.722E-05 -.116E-05 0.431E+04   -.433E-07 0.604E-06 -.431E+04   0.445E-17 0.173E-17 -.787E+00   0.338E-07 0.194E-07 0.102E+00
   0.248E-04 -.176E-04 0.431E+04   -.405E-06 -.322E-06 -.431E+04   0.358E-17 0.108E-17 -.787E+00   0.325E-07 0.177E-07 0.102E+00
   -.377E-04 0.224E-04 0.431E+04   -.737E-08 -.787E-07 -.431E+04   0.130E-17 0.347E-17 -.787E+00   0.338E-07 0.172E-07 0.102E+00
   -.181E-05 0.348E-04 0.431E+04   0.132E-06 0.411E-06 -.431E+04   -.542E-18 0.867E-18 -.787E+00   0.314E-07 0.191E-07 0.102E+00
   -.298E-04 -.163E-04 0.431E+04   -.411E-07 -.497E-06 -.431E+04   -.867E-18 0.304E-17 -.787E+00   0.306E-07 0.172E-07 0.102E+00
   0.302E-04 0.178E-04 0.259E+04   -.712E-07 -.202E-07 -.259E+04   0.569E-18 -.488E-18 -.487E+00   0.166E-05 0.958E-06 0.574E+00
   0.174E-05 -.303E-04 0.259E+04   -.139E-06 0.882E-06 -.259E+04   -.108E-18 -.705E-18 -.487E+00   0.166E-05 0.958E-06 0.574E+00
   0.386E-04 -.213E-04 0.259E+04   -.435E-06 -.473E-06 -.259E+04   0.894E-18 -.488E-18 -.487E+00   0.167E-05 0.955E-06 0.574E+00
   -.253E-04 0.192E-04 0.259E+04   0.241E-06 0.375E-06 -.259E+04   0.325E-18 -.217E-18 -.487E+00   0.166E-05 0.958E-06 0.574E+00
   0.764E-05 0.653E-05 0.259E+04   -.122E-06 0.437E-06 -.259E+04   0.488E-18 0.000E+00 -.487E+00   0.167E-05 0.962E-06 0.574E+00
   -.738E-06 -.832E-05 0.259E+04   -.917E-06 -.340E-06 -.259E+04   0.732E-18 0.596E-18 -.487E+00   0.166E-05 0.949E-06 0.574E+00
   -.119E-05 0.434E-04 0.259E+04   -.209E-06 -.353E-06 -.259E+04   0.488E-18 -.190E-18 -.487E+00   0.166E-05 0.965E-06 0.574E+00
   -.580E-05 0.672E-05 0.259E+04   0.222E-06 -.281E-07 -.259E+04   0.111E-17 -.271E-18 -.487E+00   0.165E-05 0.963E-06 0.574E+00
   -.229E-04 -.197E-04 0.259E+04   0.179E-05 -.385E-06 -.259E+04   0.623E-18 -.163E-18 -.487E+00   0.165E-05 0.955E-06 0.574E+00
   -.288E-07 -.166E-07 0.864E+03   0.645E-07 -.440E-06 -.865E+03   -.759E-18 0.542E-18 -.311E-01   0.340E-05 0.196E-05 0.100E+01
   0.146E-04 0.303E-04 0.864E+03   -.210E-06 0.408E-06 -.865E+03   -.163E-17 0.542E-18 -.311E-01   0.341E-05 0.196E-05 0.100E+01
   -.139E-04 -.296E-04 0.864E+03   0.550E-06 -.296E-06 -.865E+03   0.125E-17 -.867E-18 -.311E-01   0.341E-05 0.196E-05 0.100E+01
   0.339E-04 -.542E-06 0.864E+03   0.295E-07 -.330E-06 -.865E+03   -.922E-18 0.152E-17 -.311E-01   0.340E-05 0.198E-05 0.100E+01
   0.212E-05 0.293E-05 0.864E+03   -.141E-07 0.563E-06 -.865E+03   -.705E-18 0.976E-18 -.311E-01   0.340E-05 0.196E-05 0.100E+01
   0.155E-04 -.309E-04 0.864E+03   -.330E-06 -.816E-07 -.865E+03   0.119E-17 0.136E-17 -.311E-01   0.339E-05 0.196E-05 0.100E+01
   -.343E-04 0.142E-05 0.864E+03   -.220E-06 -.425E-07 -.865E+03   0.217E-18 -.542E-18 -.311E-01   0.340E-05 0.198E-05 0.100E+01
   -.169E-04 0.314E-04 0.864E+03   0.228E-06 0.438E-06 -.865E+03   0.596E-18 -.108E-18 -.311E-01   0.339E-05 0.196E-05 0.100E+01
   -.264E-05 -.188E-05 0.864E+03   -.167E-06 -.312E-06 -.865E+03   -.103E-17 -.379E-18 -.311E-01   0.340E-05 0.196E-05 0.100E+01
   0.332E-04 0.204E-04 -.850E+03   -.109E-06 -.288E-06 0.850E+03   0.379E-17 0.108E-18 -.449E+00   0.175E-05 0.101E-05 0.807E+00
   0.573E-05 -.177E-05 -.850E+03   -.147E-06 0.569E-06 0.850E+03   0.276E-17 0.217E-18 -.449E+00   0.172E-05 0.103E-05 0.807E+00
   0.114E-05 -.408E-04 -.850E+03   0.267E-06 -.297E-06 0.850E+03   0.206E-17 0.184E-17 -.449E+00   0.175E-05 0.102E-05 0.807E+00
   0.551E-06 0.969E-05 -.850E+03   0.640E-07 -.111E-06 0.850E+03   0.705E-18 0.152E-17 -.449E+00   0.175E-05 0.978E-06 0.807E+00
   -.765E-05 -.142E-05 -.850E+03   -.482E-07 0.639E-06 0.850E+03   0.542E-18 0.141E-17 -.449E+00   0.178E-05 0.103E-05 0.807E+00
   0.241E-04 -.175E-04 -.850E+03   -.438E-06 -.325E-06 0.850E+03   0.651E-18 0.141E-17 -.449E+00   0.175E-05 0.101E-05 0.807E+00
   -.376E-04 0.220E-04 -.850E+03   0.239E-07 -.866E-07 0.850E+03   0.813E-18 0.976E-18 -.449E+00   0.176E-05 0.101E-05 0.807E+00
   -.209E-05 0.341E-04 -.850E+03   0.125E-06 0.410E-06 0.850E+03   0.157E-17 -.108E-18 -.449E+00   0.175E-05 0.101E-05 0.807E+00
   -.295E-04 -.161E-04 -.850E+03   -.296E-07 -.512E-06 0.850E+03   0.146E-17 -.173E-17 -.449E+00   0.176E-05 0.101E-05 0.807E+00
   0.298E-04 0.176E-04 -.258E+04   -.715E-07 -.200E-07 0.258E+04   -.596E-18 0.103E-17 0.696E-01   0.306E-05 0.177E-05 0.886E+00
   0.182E-05 -.298E-04 -.258E+04   -.138E-06 0.883E-06 0.258E+04   0.111E-17 0.434E-18 0.696E-01   0.306E-05 0.177E-05 0.886E+00
   0.378E-04 -.209E-04 -.258E+04   -.435E-06 -.474E-06 0.258E+04   0.542E-19 0.103E-17 0.696E-01   0.305E-05 0.177E-05 0.886E+00
   -.249E-04 0.190E-04 -.258E+04   0.241E-06 0.374E-06 0.258E+04   0.542E-19 0.542E-19 0.696E-01   0.306E-05 0.177E-05 0.886E+00
   0.718E-05 0.627E-05 -.258E+04   -.123E-06 0.438E-06 0.258E+04   0.786E-18 0.542E-19 0.696E-01   0.308E-05 0.178E-05 0.886E+00
   -.750E-06 -.806E-05 -.258E+04   -.917E-06 -.341E-06 0.258E+04   0.192E-17 0.108E-18 0.696E-01   0.306E-05 0.175E-05 0.886E+00
   -.128E-05 0.425E-04 -.258E+04   -.208E-06 -.353E-06 0.258E+04   0.163E-18 0.759E-18 0.696E-01   0.306E-05 0.175E-05 0.886E+00
   -.558E-05 0.658E-05 -.258E+04   0.223E-06 -.274E-07 0.258E+04   0.298E-18 0.271E-18 0.696E-01   0.305E-05 0.178E-05 0.886E+00
   -.222E-04 -.193E-04 -.258E+04   0.179E-05 -.386E-06 0.258E+04   0.976E-18 0.542E-18 0.696E-01   0.307E-05 0.178E-05 0.886E+00
   -.168E-06 -.967E-07 -.430E+04   0.517E-07 -.418E-06 0.430E+04   -.173E-17 0.239E-17 0.519E+00   0.662E-06 0.382E-06 0.367E+00
   0.142E-04 0.299E-04 -.430E+04   -.207E-06 0.419E-06 0.430E+04   -.119E-17 0.173E-17 0.519E+00   0.660E-06 0.372E-06 0.367E+00
   -.139E-04 -.294E-04 -.430E+04   0.518E-06 -.303E-06 0.430E+04   -.542E-18 0.651E-18 0.519E+00   0.668E-06 0.387E-06 0.367E+00
   0.333E-04 -.744E-06 -.430E+04   0.611E-07 -.315E-06 0.430E+04   0.651E-18 0.173E-17 0.519E+00   0.652E-06 0.386E-06 0.367E+00
   0.210E-05 0.292E-05 -.430E+04   -.943E-08 0.540E-06 0.430E+04   0.195E-17 0.217E-18 0.519E+00   0.661E-06 0.382E-06 0.367E+00
   0.155E-04 -.307E-04 -.430E+04   -.317E-06 -.102E-06 0.430E+04   -.455E-17 0.195E-17 0.519E+00   0.653E-06 0.387E-06 0.367E+00
   -.341E-04 0.131E-05 -.430E+04   -.235E-06 -.399E-07 0.430E+04   -.651E-18 -.239E-17 0.519E+00   0.670E-06 0.385E-06 0.367E+00
   -.167E-04 0.313E-04 -.430E+04   0.221E-06 0.433E-06 0.430E+04   -.791E-17 -.173E-17 0.519E+00   0.662E-06 0.373E-06 0.367E+00
   -.265E-05 -.189E-05 -.430E+04   -.148E-06 -.308E-06 0.430E+04   -.423E-17 0.217E-18 0.519E+00   0.662E-06 0.382E-06 0.367E+00
   0.338E-04 0.208E-04 -.601E+04   -.175E-07 -.124E-06 0.601E+04   0.173E-17 0.104E-16 0.213E+01   0.102E-05 0.591E-06 0.219E+00
   0.613E-05 -.249E-05 -.601E+04   -.174E-06 0.447E-06 0.601E+04   -.117E-16 0.104E-16 0.213E+01   0.102E-05 0.589E-06 0.219E+00
   0.763E-06 -.422E-04 -.601E+04   0.280E-06 -.372E-06 0.601E+04   0.347E-17 0.347E-17 0.213E+01   0.102E-05 0.586E-06 0.219E+00
   0.121E-06 0.104E-04 -.601E+04   0.210E-06 -.129E-06 0.601E+04   0.156E-16 -.347E-17 0.213E+01   0.102E-05 0.588E-06 0.219E+00
   -.884E-05 -.207E-05 -.601E+04   -.429E-07 0.482E-06 0.601E+04   0.117E-16 -.434E-17 0.213E+01   0.102E-05 0.589E-06 0.219E+00
   0.238E-04 -.176E-04 -.601E+04   -.252E-06 -.308E-06 0.601E+04   0.737E-17 -.434E-17 0.213E+01   0.101E-05 0.593E-06 0.219E+00
   -.390E-04 0.224E-04 -.601E+04   -.218E-06 -.724E-07 0.601E+04   0.126E-16 0.954E-17 0.213E+01   0.102E-05 0.590E-06 0.219E+00
   -.229E-05 0.340E-04 -.601E+04   0.191E-06 0.414E-06 0.601E+04   0.134E-16 0.260E-17 0.213E+01   0.102E-05 0.581E-06 0.219E+00
   -.299E-04 -.163E-04 -.601E+04   -.542E-07 -.302E-06 0.601E+04   0.520E-17 0.173E-17 0.213E+01   0.103E-05 0.593E-06 0.219E+00
 -----------------------------------------------------------------------------------------------
   -.686E-06 0.615E-04 -.241E+02   -.765E-13 0.180E-12 0.118E-10   0.725E-16 0.405E-16 -.105E+02   0.104E-03 0.602E-04 0.342E+02
 
 
 POSITION                                       TOTAL-FORCE (eV/Angst)
 -----------------------------------------------------------------------------------
      0.00000      0.00000      0.00000         0.000000      0.000000      0.216127
      1.28340      2.22291      0.00000        -0.000000      0.000000      0.216127
     10.26719      4.44582      0.00000        -0.000000      0.000000      0.216127
      2.56680      0.00000      0.00000        -0.000000      0.000000      0.216127
      3.85020      2.22291      0.00000        -0.000000      0.000000      0.216127
      5.13360      4.44582      0.00000        -0.000000     -0.000000      0.216127
      5.13360      0.00000      0.00000        -0.000000      0.000000      0.216127
      6.41699      2.22291      0.00000        -0.000000      0.000000      0.216127
      7.70039      4.44582      0.00000        -0.000000      0.000000      0.216127
      1.28340      0.74097      2.09578         0.000000      0.000000     -0.210789
      2.56680      2.96388      2.09578         0.000000     -0.000000     -0.210789
      3.85020      5.18679      2.09578         0.000000     -0.000000     -0.210789
      3.85020      0.74097      2.09578         0.000000     -0.000000     -0.210789
      5.13360      2.96388      2.09578         0.000000     -0.000000     -0.210789
      6.41699      5.18679      2.09578         0.000000     -0.000000     -0.210789
      6.41699      0.74097      2.09578        -0.000000      0.000000     -0.210789
      7.70039      2.96388      2.09578         0.000000      0.000000     -0.210789
      8.98379      5.18679      2.09578         0.000000      0.000000     -0.210789
      2.56680      1.48194      4.13913        -0.000000     -0.000000      0.015910
      3.85020      3.70485      4.13913        -0.000000     -0.000000      0.015910
      5.13360      5.92777      4.13913        -0.000000     -0.000000      0.015910
      5.13360      1.48194      4.13913        -0.000000     -0.000000      0.015910
      6.41699      3.70485      4.13913        -0.000000     -0.000000      0.015910
      7.70039      5.92777      4.13913        -0.000000     -0.000000      0.015910
      7.70039      1.48194      4.13913        -0.000000     -0.000000      0.015910
      8.98379      3.70485      4.13913        -0.000000     -0.000000      0.015910
     10.26719      5.92777      4.13913        -0.000000     -0.000000      0.015910
      0.00000     -0.00000      6.17770         0.000000      0.000000     -0.009005
      1.28340      2.22291      6.17770        -0.000000      0.000000     -0.009005
     10.26719      4.44582      6.17770         0.000000      0.000000     -0.009005
      2.56680     -0.00000      6.17770         0.000000      0.000000     -0.009005
      3.85020      2.22291      6.17770        -0.000000     -0.000000     -0.009005
      5.13360      4.44582      6.17770        -0.000000      0.000000     -0.009005
      5.13360     -0.00000      6.17770        -0.000000      0.000000     -0.009005
      6.41699      2.22291      6.17770        -0.000000      0.000000     -0.009005
      7.70039      4.44582      6.17770         0.000000      0.000000     -0.009005
      1.28340      0.74097      8.23055        -0.000000     -0.000000     -0.008934
      2.56680      2.96388      8.23055        -0.000000      0.000000     -0.008934
      3.85020      5.18679      8.23055         0.000000     -0.000000     -0.008934
      3.85020      0.74097      8.23055         0.000000      0.000000     -0.008934
      5.13360      2.96388      8.23055        -0.000000      0.000000     -0.008934
      6.41699      5.18679      8.23055         0.000000     -0.000000     -0.008934
      6.41699      0.74097      8.23055         0.000000     -0.000000     -0.008934
      7.70039      2.96388      8.23055         0.000000     -0.000000     -0.008934
      8.98379      5.18679      8.23055         0.000000     -0.000000     -0.008934
      2.56680      1.48194     10.26674        -0.000000      0.000000     -0.017552
      3.85020      3.70485     10.26674         0.000000      0.000000     -0.017552
      5.13360      5.92777     10.26674         0.000000     -0.000000     -0.017552
      5.13360      1.48194     10.26674        -0.000000      0.000000     -0.017552
      6.41699      3.70485     10.26674         0.000000      0.000000     -0.017552
      7.70039      5.92777     10.26674        -0.000000      0.000000     -0.017552
      7.70039      1.48194     10.26674         0.000000     -0.000000     -0.017552
      8.98379      3.70485     10.26674         0.000000      0.000000     -0.017552
     10.26719      5.92777     10.26674         0.000000      0.000000     -0.017552
      0.00000      0.00000     12.31011         0.000000     -0.000000      0.019369
      1.28340      2.22291     12.31011         0.000000     -0.000000      0.019369
     10.26719      4.44582     12.31011         0.000000      0.000000      0.019369
      2.56680     -0.00000     12.31011         0.000000      0.000000      0.019369
      3.85020      2.22291     12.31011        -0.000000      0.000000      0.019369
      5.13360      4.44582     12.31011        -0.000000      0.000000      0.019369
      5.13360     -0.00000     12.31011        -0.000000     -0.000000      0.019369
      6.41699      2.22291     12.31011         0.000000     -0.000000      0.019369
      7.70039      4.44582     12.31011         0.000000      0.000000      0.019369
      1.28340      0.74097     14.35173        -0.000000     -0.000000     -0.005125
      2.56680      2.96388     14.35173        -0.000000     -0.000000     -0.005125
      3.85020      5.18679     14.35173        -0.000000     -0.000000     -0.005125
      3.85020      0.74097     14.35173        -0.000000     -0.000000     -0.005125
      5.13360      2.96388     14.35173        -0.000000     -0.000000     -0.005125
      6.41699      5.18679     14.35173         0.000000      0.000000     -0.005125
      6.41699      0.74097     14.35173         0.000000      0.000000     -0.005125
      7.70039      2.96388     14.35173         0.000000     -0.000000     -0.005125
      8.98379      5.18679     14.35173         0.000000     -0.000000     -0.005125
 -----------------------------------------------------------------------------------
    total drift:                                0.000104      0.000122     -0.423236


--------------------------------------------------------------------------------------------------------



  FREE ENERGIE OF THE ION-ELECTRON SYSTEM (eV)
  ---------------------------------------------------
  free  energy   TOTEN  =      -290.99102937 eV

  energy  without entropy=     -290.93436039  energy(sigma->0) =     -290.97213971
 
 d Force = 0.9347369E-03[-0.131E-02, 0.318E-02]  d Energy = 0.1730828E-02-0.796E-03
 d Force = 0.2995833E+03[ 0.299E+03, 0.300E+03]  d Ewald  = 0.2995833E+03 0.389E-05


--------------------------------------------------------------------------------------------------------


    POTLOK:  cpu time      0.1499: real time      0.1512


--------------------------------------------------------------------------------------------------------


 stress matrix after NEB project (eV)
    -38.60659     -0.00000     -0.00000
     -0.00000    -38.60659      0.00000
     -0.00000     -0.00000     -6.13248
  FORCES: max atom, RMS     0.019369    0.011851
  FORCE total and by dimension    0.100557    0.019369
  Stress total and by dimension   54.941283   38.606588


--------------------------------------------------------------------------------------------------------


  
 reached required accuracy - stopping structural energy minimisation
     LOOP+:  cpu time    278.3271: real time    280.8785
    4ORBIT:  cpu time      0.0000: real time      0.0000

 total amount of memory used by VASP MPI-rank0   126391. kBytes
=======================================================================

   base      :      30000. kBytes
   nonl-proj :       8800. kBytes
   fftplans  :       4713. kBytes
   grid      :      10798. kBytes
   one-center:        466. kBytes
   wavefun   :      71614. kBytes
 
  
  
 General timing and accounting informations for this job:
 ========================================================
  
                  Total CPU time used (sec):    14391.021
                            User time (sec):    14187.172
                          System time (sec):      203.850
                         Elapsed time (sec):    14504.438
  
                   Maximum memory used (kb):      450092.
                   Average memory used (kb):          N/A
  
                          Minor page faults:      9351043
                          Major page faults:         6844
                 Voluntary context switches:       147003
