       N       E                     dE             d eps       ncg     rms          rms(c)
DAV:   1     0.799800708722E+03    0.79980E+03   -0.33539E+04   960   0.189E+03
DAV:   2     0.742341253843E+02   -0.72557E+03   -0.69403E+03   960   0.403E+02
DAV:   3    -0.332928466674E+02   -0.10753E+03   -0.10109E+03   996   0.198E+02
DAV:   4    -0.378824711769E+02   -0.45896E+01   -0.45505E+01  1076   0.569E+01
DAV:   5    -0.379872015822E+02   -0.10473E+00   -0.10465E+00  1128   0.729E+00    0.281E+01
DAV:   6    -0.380636268631E+02   -0.76425E-01   -0.12994E+02  1340   0.249E+02    0.304E+01
DAV:   7    -0.816692231765E+02   -0.43606E+02   -0.46545E+02  1472   0.229E+02    0.572E+01
DAV:   8    -0.422204843678E+02    0.39449E+02   -0.37974E+02  1608   0.124E+02    0.219E+01
DAV:   9    -0.349498539066E+02    0.72706E+01   -0.47796E+01  1468   0.990E+01    0.156E+01
DAV:  10    -0.326136569683E+02    0.23362E+01   -0.62491E+00  1496   0.543E+01    0.125E+01
DAV:  11    -0.318804541467E+02    0.73320E+00   -0.15827E+00  1276   0.205E+01    0.111E+01
DAV:  12    -0.305607708915E+02    0.13197E+01   -0.17662E+00  1380   0.364E+01    0.820E+00
DAV:  13    -0.306731940252E+02   -0.11242E+00   -0.24042E+00  1540   0.526E+01    0.563E+00
DAV:  14    -0.328034746466E+02   -0.21303E+01   -0.67821E+00  1600   0.620E+01    0.106E+01
DAV:  15    -0.315055746410E+02    0.12979E+01   -0.35908E+00  1464   0.254E+01    0.480E+00
DAV:  16    -0.336487937937E+02   -0.21432E+01   -0.65746E-01  1420   0.166E+01    0.392E+00
DAV:  17    -0.343256454888E+02   -0.67685E+00   -0.10512E+00  1420   0.210E+01    0.278E+00
DAV:  18    -0.351168101891E+02   -0.79116E+00   -0.81475E-01  1296   0.163E+01    0.152E+00
DAV:  19    -0.356255127122E+02   -0.50870E+00   -0.44958E-01  1260   0.134E+01    0.116E+00
DAV:  20    -0.358713290172E+02   -0.24582E+00   -0.15476E-01  1348   0.756E+00    0.943E-01
DAV:  21    -0.360188788430E+02   -0.14755E+00   -0.11875E-01  1160   0.727E+00    0.771E-01
DAV:  22    -0.360676123679E+02   -0.48734E-01   -0.51763E-02  1320   0.283E+00    0.622E-01
DAV:  23    -0.360937749306E+02   -0.26163E-01   -0.61262E-02  1188   0.583E+00    0.490E-01
DAV:  24    -0.361623651661E+02   -0.68590E-01   -0.26178E-02  1252   0.317E+00    0.363E-01
DAV:  25    -0.364851485805E+02   -0.32278E+00   -0.23419E-02  1152   0.141E+00    0.332E-01
DAV:  26    -0.366570734538E+02   -0.17192E+00   -0.17590E-02  1208   0.232E+00    0.220E-01
DAV:  27    -0.366885859784E+02   -0.31513E-01   -0.80164E-03  1184   0.138E+00    0.182E-01
DAV:  28    -0.367044048621E+02   -0.15819E-01   -0.39511E-03  1172   0.112E+00    0.120E-01
DAV:  29    -0.367097084647E+02   -0.53036E-02   -0.17498E-03   972   0.728E-01    0.927E-02
DAV:  30    -0.367108427584E+02   -0.11343E-02   -0.75165E-04   868   0.333E-01    0.762E-02
DAV:  31    -0.367126727386E+02   -0.18300E-02   -0.41989E-04   744   0.467E-01    0.612E-02
DAV:  32    -0.367149091362E+02   -0.22364E-02   -0.37992E-04   768   0.318E-01    0.496E-02
DAV:  33    -0.367175101379E+02   -0.26010E-02   -0.59652E-04   820   0.278E-01    0.490E-02
DAV:  34    -0.367186214318E+02   -0.11113E-02   -0.26238E-04   740   0.292E-01    0.500E-02
DAV:  35    -0.367191176524E+02   -0.49622E-03   -0.91299E-05   632   0.136E-01    0.405E-02
DAV:  36    -0.367191821504E+02   -0.64498E-04   -0.25734E-05   608   0.109E-01
   1 F= -.40432345E+02 E0= -.40424311E+02  d E =-.404323E+02  mag=     0.0010
       N       E                     dE             d eps       ncg     rms          rms(c)
DAV:   1    -0.367323232047E+02   -0.13206E-01   -0.46054E+01  1056   0.252E+01    0.112E+00
DAV:   2    -0.368139902360E+02   -0.81667E-01   -0.10282E+00  1400   0.839E+00    0.804E-01
DAV:   3    -0.368179592015E+02   -0.39690E-02   -0.14037E-01  1272   0.117E+01    0.634E-01
DAV:   4    -0.368215749313E+02   -0.36157E-02   -0.29815E-01  1404   0.132E+01    0.583E-01
DAV:   5    -0.368082247227E+02    0.13350E-01   -0.25594E-01  1520   0.138E+01    0.267E-01
DAV:   6    -0.368038702816E+02    0.43544E-02   -0.53330E-02  1760   0.573E+00    0.130E-01
DAV:   7    -0.368035948253E+02    0.27546E-03   -0.49899E-03  1576   0.178E+00    0.381E-02
DAV:   8    -0.368037102236E+02   -0.11540E-03   -0.10796E-03   920   0.542E-01
   2 F= -.40526055E+02 E0= -.40518175E+02  d E =-.937097E-01  mag=     0.0010
       N       E                     dE             d eps       ncg     rms          rms(c)
DAV:   1    -0.368342813679E+02   -0.30687E-01   -0.62220E+00  1024   0.925E+00    0.393E-01
DAV:   2    -0.368448586394E+02   -0.10577E-01   -0.12854E-01  1400   0.243E+00    0.299E-01
DAV:   3    -0.368462884306E+02   -0.14298E-02   -0.26962E-02  1136   0.416E+00    0.261E-01
DAV:   4    -0.368452641598E+02    0.10243E-02   -0.49257E-02  1280   0.571E+00    0.197E-01
DAV:   5    -0.368434268977E+02    0.18373E-02   -0.12951E-02   968   0.307E+00    0.551E-02
DAV:   6    -0.368434903374E+02   -0.63440E-04   -0.15980E-03  1008   0.125E+00
   3 F= -.40558225E+02 E0= -.40550090E+02  d E =-.125880E+00  mag=     0.0009
       N       E                     dE             d eps       ncg     rms          rms(c)
DAV:   1    -0.368980075429E+02   -0.54581E-01   -0.21172E+01  1024   0.180E+01    0.517E-01
DAV:   2    -0.369566352191E+02   -0.58628E-01   -0.61934E-01  1664   0.127E+01    0.626E-01
DAV:   3    -0.369403460499E+02    0.16289E-01   -0.30526E-01  1680   0.147E+01    0.447E-01
DAV:   4    -0.369369068711E+02    0.34392E-02   -0.26374E-02  1488   0.347E+00    0.285E-01
DAV:   5    -0.369362956210E+02    0.61125E-03   -0.95546E-03  1304   0.248E+00    0.144E-01
DAV:   6    -0.369361375842E+02    0.15804E-03   -0.69952E-03  1520   0.270E+00    0.736E-02
DAV:   7    -0.369360071467E+02    0.13044E-03   -0.25821E-03  1040   0.156E+00    0.375E-02
DAV:   8    -0.369359954891E+02    0.11658E-04   -0.55679E-04   704   0.608E-01
   4 F= -.40655156E+02 E0= -.40647190E+02  d E =-.969314E-01  mag=     0.0008
       N       E                     dE             d eps       ncg     rms          rms(c)
DAV:   1    -0.369297345970E+02    0.62725E-02   -0.24120E+01  1032   0.195E+01    0.528E-01
DAV:   2    -0.369948802851E+02   -0.65146E-01   -0.69227E-01  1616   0.134E+01    0.645E-01
DAV:   3    -0.369776714408E+02    0.17209E-01   -0.31852E-01  1624   0.150E+01    0.458E-01
DAV:   4    -0.369745345279E+02    0.31369E-02   -0.27252E-02  1440   0.329E+00    0.297E-01
DAV:   5    -0.369739406423E+02    0.59389E-03   -0.11095E-02  1312   0.270E+00    0.160E-01
DAV:   6    -0.369736486570E+02    0.29199E-03   -0.86135E-03  1480   0.299E+00    0.782E-02
DAV:   7    -0.369734996462E+02    0.14901E-03   -0.30638E-03  1080   0.161E+00    0.387E-02
DAV:   8    -0.369734942578E+02    0.53884E-05   -0.62832E-04   736   0.633E-01
   5 F= -.40697772E+02 E0= -.40689896E+02  d E =-.139547E+00  mag=     0.0006
       N       E                     dE             d eps       ncg     rms          rms(c)
DAV:   1    -0.369711665726E+02    0.23331E-02   -0.18950E+00   992   0.540E+00    0.146E-01
DAV:   2    -0.369761284864E+02   -0.49619E-02   -0.53373E-02  1600   0.397E+00    0.189E-01
DAV:   3    -0.369745945093E+02    0.15340E-02   -0.25601E-02  1528   0.407E+00    0.119E-01
DAV:   4    -0.369744187319E+02    0.17578E-03   -0.21780E-03  1100   0.106E+00    0.802E-02
DAV:   5    -0.369744380799E+02   -0.19348E-04   -0.11799E-03   936   0.993E-01
   6 F= -.40700197E+02 E0= -.40692403E+02  d E =-.141972E+00  mag=     0.0005
       N       E                     dE             d eps       ncg     rms          rms(c)
DAV:   1    -0.369768815371E+02   -0.24628E-02   -0.20453E+01  1024   0.183E+01    0.539E-01
DAV:   2    -0.370105083785E+02   -0.33627E-01   -0.38711E-01  1384   0.552E+00    0.409E-01
DAV:   3    -0.370160772602E+02   -0.55689E-02   -0.12335E-01  1312   0.950E+00    0.439E-01
DAV:   4    -0.370089147442E+02    0.71625E-02   -0.69386E-02  1312   0.657E+00    0.248E-01
DAV:   5    -0.370087953608E+02    0.11938E-03   -0.12123E-02  1552   0.325E+00    0.154E-01
DAV:   6    -0.370083164399E+02    0.47892E-03   -0.10749E-02  1504   0.335E+00    0.647E-02
DAV:   7    -0.370081645124E+02    0.15193E-03   -0.16582E-03   868   0.120E+00
   7 F= -.40740231E+02 E0= -.40732560E+02  d E =-.400347E-01  mag=     0.0004
       N       E                     dE             d eps       ncg     rms          rms(c)
DAV:   1    -0.370072651124E+02    0.10513E-02   -0.21199E-01  1008   0.186E+00    0.554E-02
DAV:   2    -0.370077000768E+02   -0.43496E-03   -0.46741E-03  1440   0.861E-01    0.472E-02
DAV:   3    -0.370076963763E+02    0.37005E-05   -0.20469E-03   736   0.119E+00    0.474E-02
DAV:   4    -0.370076297917E+02    0.66585E-04   -0.50756E-04   620   0.590E-01
   8 F= -.40740718E+02 E0= -.40733064E+02  d E =-.405213E-01  mag=     0.0004
       N       E                     dE             d eps       ncg     rms          rms(c)
DAV:   1    -0.370125489673E+02   -0.48526E-02   -0.13675E+01  1008   0.152E+01    0.357E-01
DAV:   2    -0.370382161004E+02   -0.25667E-01   -0.28800E-01  1520   0.555E+00    0.338E-01
DAV:   3    -0.370391100434E+02   -0.89394E-03   -0.54350E-02  1376   0.631E+00    0.311E-01
DAV:   4    -0.370377729950E+02    0.13370E-02   -0.19179E-02  1256   0.357E+00    0.222E-01
DAV:   5    -0.370377066563E+02    0.66339E-04   -0.87301E-03  1480   0.251E+00    0.160E-01
DAV:   6    -0.370370535565E+02    0.65310E-03   -0.88374E-03  1456   0.269E+00    0.602E-02
DAV:   7    -0.370369064602E+02    0.14710E-03   -0.12949E-03   820   0.110E+00
   9 F= -.40772824E+02 E0= -.40765266E+02  d E =-.321056E-01  mag=     0.0003
       N       E                     dE             d eps       ncg     rms          rms(c)
DAV:   1    -0.370150603830E+02    0.21993E-01   -0.17961E+01   992   0.175E+01    0.413E-01
DAV:   2    -0.370493434820E+02   -0.34283E-01   -0.38767E-01  1568   0.696E+00    0.385E-01
DAV:   3    -0.370508904674E+02   -0.15470E-02   -0.90563E-02  1552   0.838E+00    0.365E-01
DAV:   4    -0.370483970877E+02    0.24934E-02   -0.28930E-02  1344   0.435E+00    0.251E-01
DAV:   5    -0.370483313398E+02    0.65748E-04   -0.99636E-03  1600   0.276E+00    0.179E-01
DAV:   6    -0.370475630612E+02    0.76828E-03   -0.10849E-02  1464   0.310E+00    0.697E-02
DAV:   7    -0.370473978776E+02    0.16518E-03   -0.18363E-03   984   0.122E+00
  10 F= -.40787146E+02 E0= -.40779749E+02  d E =-.464282E-01  mag=     0.0003
       N       E                     dE             d eps       ncg     rms          rms(c)
DAV:   1    -0.370573123231E+02   -0.97493E-02   -0.51146E+00  1000   0.917E+00    0.214E-01
DAV:   2    -0.370669488657E+02   -0.96365E-02   -0.10521E-01  1448   0.333E+00    0.209E-01
DAV:   3    -0.370670917981E+02   -0.14293E-03   -0.13266E-02  1240   0.322E+00    0.173E-01
DAV:   4    -0.370668772018E+02    0.21460E-03   -0.69882E-03  1096   0.224E+00    0.133E-01
DAV:   5    -0.370667697970E+02    0.10740E-03   -0.44698E-03   800   0.180E+00    0.101E-01
DAV:   6    -0.370665164480E+02    0.25335E-03   -0.33153E-03   856   0.172E+00    0.431E-02
DAV:   7    -0.370664696611E+02    0.46787E-04   -0.79173E-04   780   0.798E-01
  11 F= -.40805703E+02 E0= -.40798221E+02  d E =-.185570E-01  mag=     0.0002
       N       E                     dE             d eps       ncg     rms          rms(c)
DAV:   1    -0.370645127097E+02    0.20037E-02   -0.63316E+00   992   0.102E+01    0.236E-01
DAV:   2    -0.370765558243E+02   -0.12043E-01   -0.13092E-01  1368   0.324E+00    0.228E-01
DAV:   3    -0.370765081526E+02    0.47672E-04   -0.88971E-03  1200   0.249E+00    0.173E-01
DAV:   4    -0.370764393724E+02    0.68780E-04   -0.45397E-03  1056   0.206E+00    0.133E-01
DAV:   5    -0.370770155444E+02   -0.57617E-03   -0.13543E-02   784   0.323E+00    0.137E-01
DAV:   6    -0.370760583526E+02    0.95719E-03   -0.96318E-03   792   0.256E+00    0.454E-02
DAV:   7    -0.370759778970E+02    0.80456E-04   -0.10341E-03   784   0.886E-01
  12 F= -.40814805E+02 E0= -.40807299E+02  d E =-.276590E-01  mag=     0.0002
       N       E                     dE             d eps       ncg     rms          rms(c)
DAV:   1    -0.370803368012E+02   -0.42784E-02   -0.35290E+00   992   0.759E+00    0.236E-01
DAV:   2    -0.370863409519E+02   -0.60042E-02   -0.67748E-02  1360   0.209E+00    0.183E-01
DAV:   3    -0.370862497931E+02    0.91159E-04   -0.46228E-03  1120   0.200E+00    0.137E-01
DAV:   4    -0.370864000578E+02   -0.15026E-03   -0.71829E-03  1064   0.266E+00    0.107E-01
DAV:   5    -0.370865193871E+02   -0.11933E-03   -0.12803E-02   752   0.318E+00    0.908E-02
DAV:   6    -0.370859704425E+02    0.54894E-03   -0.50910E-03   728   0.188E+00    0.303E-02
DAV:   7    -0.370859278133E+02    0.42629E-04   -0.47046E-04   640   0.661E-01
  13 F= -.40825435E+02 E0= -.40817845E+02  d E =-.106294E-01  mag=     0.0001
       N       E                     dE             d eps       ncg     rms          rms(c)
DAV:   1    -0.370860157432E+02   -0.45301E-04   -0.29213E-02   992   0.716E-01    0.235E-02
DAV:   2    -0.370860463100E+02   -0.30567E-04   -0.36432E-04   736   0.264E-01
  14 F= -.40825670E+02 E0= -.40818098E+02  d E =-.108646E-01  mag=     0.0001
       N       E                     dE             d eps       ncg     rms          rms(c)
DAV:   1    -0.370902143693E+02   -0.41986E-02   -0.11466E+00   984   0.435E+00    0.109E-01
DAV:   2    -0.370923278600E+02   -0.21135E-02   -0.24220E-02  1472   0.189E+00    0.109E-01
DAV:   3    -0.370923477251E+02   -0.19865E-04   -0.47814E-03  1344   0.201E+00    0.862E-02
DAV:   4    -0.370922922584E+02    0.55467E-04   -0.22156E-03   752   0.131E+00    0.679E-02
DAV:   5    -0.370922475929E+02    0.44665E-04   -0.13028E-03   680   0.994E-01
  15 F= -.40831466E+02 E0= -.40824113E+02  d E =-.579608E-02  mag=     0.0001
       N       E                     dE             d eps       ncg     rms          rms(c)
DAV:   1    -0.370821375936E+02    0.10155E-01   -0.10331E+01   984   0.130E+01    0.327E-01
DAV:   2    -0.371032533533E+02   -0.21116E-01   -0.24991E-01  1616   0.774E+00    0.352E-01
DAV:   3    -0.371027985443E+02    0.45481E-03   -0.89721E-02  1560   0.812E+00    0.291E-01
DAV:   4    -0.371011415913E+02    0.16570E-02   -0.20403E-02  1568   0.365E+00    0.197E-01
DAV:   5    -0.371010201630E+02    0.12143E-03   -0.58505E-03  1328   0.217E+00    0.141E-01
DAV:   6    -0.371007395231E+02    0.28064E-03   -0.54883E-03  1460   0.210E+00    0.639E-02
DAV:   7    -0.371006500977E+02    0.89425E-04   -0.95638E-04   872   0.886E-01
  16 F= -.40838892E+02 E0= -.40831258E+02  d E =-.132222E-01  mag=     0.0001
       N       E                     dE             d eps       ncg     rms          rms(c)
DAV:   1    -0.371054162343E+02   -0.46767E-02   -0.15377E+00   984   0.506E+00    0.154E-01
DAV:   2    -0.371083594781E+02   -0.29432E-02   -0.36081E-02  1600   0.286E+00    0.141E-01
DAV:   3    -0.371084792000E+02   -0.11972E-03   -0.14362E-02  1704   0.346E+00    0.129E-01
DAV:   4    -0.371081350929E+02    0.34411E-03   -0.47394E-03   848   0.185E+00    0.860E-02
DAV:   5    -0.371080807208E+02    0.54372E-04   -0.18953E-03   720   0.130E+00
  17 F= -.40845198E+02 E0= -.40837904E+02  d E =-.630552E-02  mag=     0.0001
       N       E                     dE             d eps       ncg     rms          rms(c)
DAV:   1    -0.370943797908E+02    0.13755E-01   -0.13826E+01   984   0.153E+01    0.466E-01
DAV:   2    -0.371211848911E+02   -0.26805E-01   -0.31933E-01  1560   0.713E+00    0.432E-01
DAV:   3    -0.371205167790E+02    0.66811E-03   -0.64895E-02  1568   0.725E+00    0.343E-01
DAV:   4    -0.371202962368E+02    0.22054E-03   -0.38643E-02  1328   0.557E+00    0.261E-01
DAV:   5    -0.371203156036E+02   -0.19367E-04   -0.43652E-02  1608   0.563E+00    0.195E-01
DAV:   6    -0.371183048076E+02    0.20108E-02   -0.17030E-02  1656   0.351E+00    0.536E-02
DAV:   7    -0.371183655288E+02   -0.60721E-04   -0.15472E-03  1104   0.783E-01
  18 F= -.40852866E+02 E0= -.40845326E+02  d E =-.139736E-01  mag=     0.0001
       N       E                     dE             d eps       ncg     rms          rms(c)
DAV:   1    -0.371204902453E+02   -0.21854E-02   -0.15902E-01   976   0.165E+00    0.549E-02
DAV:   2    -0.371208022212E+02   -0.31198E-03   -0.34163E-03  1392   0.567E-01    0.431E-02
DAV:   3    -0.371208238368E+02   -0.21616E-04   -0.69784E-04   688   0.827E-01
  19 F= -.40855155E+02 E0= -.40847689E+02  d E =-.228977E-02  mag=     0.0001
       N       E                     dE             d eps       ncg     rms          rms(c)
DAV:   1    -0.371248422994E+02   -0.40401E-02   -0.14270E+00   976   0.498E+00    0.169E-01
DAV:   2    -0.371275069652E+02   -0.26647E-02   -0.30731E-02  1456   0.213E+00    0.153E-01
DAV:   3    -0.371275082986E+02   -0.13335E-05   -0.87323E-03  1280   0.254E+00    0.129E-01
DAV:   4    -0.371273351371E+02    0.17316E-03   -0.80846E-03   960   0.259E+00    0.100E-01
DAV:   5    -0.371271258549E+02    0.20928E-03   -0.49553E-03   864   0.219E+00    0.498E-02
DAV:   6    -0.371270466678E+02    0.79187E-04   -0.10581E-03   696   0.107E+00
  20 F= -.40860937E+02 E0= -.40853353E+02  d E =-.807113E-02  mag=     0.0000
       N       E                     dE             d eps       ncg     rms          rms(c)
DAV:   1    -0.371254011727E+02    0.17247E-02   -0.56870E+00   976   0.981E+00    0.305E-01
DAV:   2    -0.371356860608E+02   -0.10285E-01   -0.12232E-01  1528   0.398E+00    0.273E-01
DAV:   3    -0.371353964473E+02    0.28961E-03   -0.23913E-02  1504   0.449E+00    0.215E-01
DAV:   4    -0.371352741203E+02    0.12233E-03   -0.16618E-02  1200   0.378E+00    0.158E-01
DAV:   5    -0.371356417126E+02   -0.36759E-03   -0.23320E-02  1152   0.407E+00    0.137E-01
DAV:   6    -0.371345055628E+02    0.11361E-02   -0.94819E-03  1064   0.264E+00    0.299E-02
DAV:   7    -0.371345836052E+02   -0.78042E-04   -0.10864E-03  1024   0.520E-01
  21 F= -.40867938E+02 E0= -.40860296E+02  d E =-.150725E-01  mag=     0.0000
       N       E                     dE             d eps       ncg     rms          rms(c)
DAV:   1    -0.371333864596E+02    0.11191E-02   -0.11642E+00   976   0.442E+00    0.135E-01
DAV:   2    -0.371354743811E+02   -0.20879E-02   -0.24385E-02  1488   0.166E+00    0.118E-01
DAV:   3    -0.371354676097E+02    0.67713E-05   -0.48548E-03  1248   0.205E+00    0.983E-02
DAV:   4    -0.371354296033E+02    0.38006E-04   -0.37490E-03   720   0.176E+00    0.723E-02
DAV:   5    -0.371354786184E+02   -0.49015E-04   -0.42038E-03   728   0.177E+00    0.613E-02
DAV:   6    -0.371352821837E+02    0.19643E-03   -0.16344E-03   744   0.111E+00
  22 F= -.40868595E+02 E0= -.40860876E+02  d E =-.157291E-01  mag=     0.0000
       N       E                     dE             d eps       ncg     rms          rms(c)
DAV:   1    -0.371352742589E+02    0.20436E-03   -0.36304E-02   984   0.810E-01    0.250E-02
DAV:   2    -0.371353086935E+02   -0.34435E-04   -0.49660E-04   692   0.333E-01
  23 F= -.40868617E+02 E0= -.40860931E+02  d E =-.157517E-01  mag=     0.0000
       N       E                     dE             d eps       ncg     rms          rms(c)
DAV:   1    -0.371353122783E+02   -0.38019E-04   -0.15656E-02  1352   0.757E-01    0.156E-02
DAV:   2    -0.371354110353E+02   -0.98757E-04   -0.12287E-03   768   0.957E-01
  24 F= -.40868722E+02 E0= -.40861220E+02  d E =-.158560E-01  mag=     0.0000
       N       E                     dE             d eps       ncg     rms          rms(c)
DAV:   1    -0.371352802755E+02    0.32003E-04   -0.41333E-03  1304   0.823E-01    0.681E-03
DAV:   2    -0.371353337568E+02   -0.53481E-04   -0.55276E-04   696   0.365E-01
  25 F= -.40868643E+02 E0= -.40861038E+02  d E =-.157774E-01  mag=     0.0000
       N       E                     dE             d eps       ncg     rms          rms(c)
DAV:   1    -0.371353200369E+02   -0.39761E-04   -0.18519E-03  1232   0.371E-01    0.906E-03
DAV:   2    -0.371353378081E+02   -0.17771E-04   -0.17831E-04   632   0.196E-01
  26 F= -.40868648E+02 E0= -.40860985E+02  d E =-.157823E-01  mag=     0.0000
       N       E                     dE             d eps       ncg     rms          rms(c)
DAV:   1    -0.371370059871E+02   -0.16860E-02   -0.11897E-01   976   0.145E+00    0.445E-02
DAV:   2    -0.371372258011E+02   -0.21981E-03   -0.25713E-03  1376   0.521E-01    0.396E-02
DAV:   3    -0.371372229781E+02    0.28230E-05   -0.45409E-04   644   0.616E-01
  27 F= -.40870053E+02 E0= -.40862233E+02  d E =-.140525E-02  mag=     0.0000
       N       E                     dE             d eps       ncg     rms          rms(c)
DAV:   1    -0.371405834791E+02   -0.33577E-02   -0.10699E+00   976   0.432E+00    0.145E-01
DAV:   2    -0.371428819369E+02   -0.22985E-02   -0.31187E-02  1624   0.308E+00    0.147E-01
DAV:   3    -0.371424751387E+02    0.40680E-03   -0.16468E-02  1672   0.336E+00    0.118E-01
DAV:   4    -0.371422794714E+02    0.19567E-03   -0.36895E-03   992   0.162E+00    0.808E-02
DAV:   5    -0.371422148578E+02    0.64614E-04   -0.18787E-03   808   0.138E+00
  28 F= -.40873634E+02 E0= -.40866089E+02  d E =-.498562E-02  mag=     0.0000
       N       E                     dE             d eps       ncg     rms          rms(c)
DAV:   1    -0.371419656709E+02    0.31380E-03   -0.42441E+00   976   0.864E+00    0.261E-01
DAV:   2    -0.371501582825E+02   -0.81926E-02   -0.97814E-02  1440   0.358E+00    0.242E-01
DAV:   3    -0.371499420872E+02    0.21620E-03   -0.24483E-02  1632   0.434E+00    0.199E-01
DAV:   4    -0.371496931565E+02    0.24893E-03   -0.15431E-02  1168   0.337E+00    0.144E-01
DAV:   5    -0.371497306844E+02   -0.37528E-04   -0.14349E-02  1016   0.328E+00    0.115E-01
DAV:   6    -0.371490806426E+02    0.65004E-03   -0.46973E-03   984   0.200E+00    0.299E-02
DAV:   7    -0.371491527959E+02   -0.72153E-04   -0.90687E-04   968   0.471E-01
  29 F= -.40877884E+02 E0= -.40869979E+02  d E =-.923591E-02  mag=     0.0000
       N       E                     dE             d eps       ncg     rms          rms(c)
DAV:   1    -0.371550323644E+02   -0.59517E-02   -0.57129E-01   976   0.308E+00    0.117E-01
DAV:   2    -0.371561467995E+02   -0.11144E-02   -0.13737E-02  1408   0.111E+00    0.940E-02
DAV:   3    -0.371561970820E+02   -0.50283E-04   -0.37606E-03   896   0.181E+00    0.865E-02
DAV:   4    -0.371561065680E+02    0.90514E-04   -0.40258E-03   736   0.176E+00    0.558E-02
DAV:   5    -0.371561018659E+02    0.47021E-05   -0.26883E-03   704   0.144E+00    0.449E-02
DAV:   6    -0.371559910024E+02    0.11086E-03   -0.85777E-04   744   0.851E-01
  30 F= -.40881845E+02 E0= -.40873944E+02  d E =-.396144E-02  mag=     0.0000
       N       E                     dE             d eps       ncg     rms          rms(c)
DAV:   1    -0.371575652835E+02   -0.14634E-02   -0.12975E-01   992   0.149E+00    0.555E-02
DAV:   2    -0.371578274544E+02   -0.26217E-03   -0.31517E-03  1360   0.484E-01    0.452E-02
DAV:   3    -0.371578277992E+02   -0.34477E-06   -0.40799E-04   656   0.643E-01
  31 F= -.40882443E+02 E0= -.40874432E+02  d E =-.455896E-02  mag=     0.0000
       N       E                     dE             d eps       ncg     rms          rms(c)
DAV:   1    -0.371609892360E+02   -0.31618E-02   -0.54129E-01   992   0.300E+00    0.738E-02
DAV:   2    -0.371619979358E+02   -0.10087E-02   -0.11702E-02  1544   0.145E+00    0.781E-02
DAV:   3    -0.371619230487E+02    0.74887E-04   -0.30508E-03   992   0.153E+00    0.645E-02
DAV:   4    -0.371618859671E+02    0.37082E-04   -0.10207E-03   656   0.847E-01
  32 F= -.40884852E+02 E0= -.40876757E+02  d E =-.240952E-02  mag=     0.0000
       N       E                     dE             d eps       ncg     rms          rms(c)
DAV:   1    -0.371635655728E+02   -0.16425E-02   -0.48560E+00   984   0.887E+00    0.218E-01
DAV:   2    -0.371725581136E+02   -0.89925E-02   -0.97663E-02  1344   0.245E+00    0.217E-01
DAV:   3    -0.371722195016E+02    0.33861E-03   -0.71482E-03  1224   0.205E+00    0.167E-01
DAV:   4    -0.371720500498E+02    0.16945E-03   -0.25908E-03  1040   0.172E+00    0.125E-01
DAV:   5    -0.371717744946E+02    0.27556E-03   -0.16295E-03   808   0.131E+00    0.630E-02
DAV:   6    -0.371719995278E+02   -0.22503E-03   -0.44053E-03   768   0.183E+00    0.607E-02
DAV:   7    -0.371717280955E+02    0.27143E-03   -0.36749E-03   768   0.160E+00    0.232E-02
DAV:   8    -0.371717376931E+02   -0.95976E-05   -0.34277E-04   616   0.363E-01
  33 F= -.40889801E+02 E0= -.40881575E+02  d E =-.735855E-02  mag=     0.0000
       N       E                     dE             d eps       ncg     rms          rms(c)
DAV:   1    -0.371451794363E+02    0.26549E-01   -0.19529E+01   984   0.180E+01    0.431E-01
DAV:   2    -0.371848178342E+02   -0.39638E-01   -0.42405E-01  1392   0.577E+00    0.448E-01
DAV:   3    -0.371821163461E+02    0.27015E-02   -0.57036E-02  1212   0.599E+00    0.346E-01
DAV:   4    -0.371814156378E+02    0.70071E-03   -0.16577E-02  1200   0.366E+00    0.253E-01
DAV:   5    -0.371833744011E+02   -0.19588E-02   -0.43217E-02  1408   0.523E+00    0.268E-01
DAV:   6    -0.371803258993E+02    0.30485E-02   -0.36092E-02  1404   0.499E+00    0.813E-02
DAV:   7    -0.371803555603E+02   -0.29661E-04   -0.46987E-03  1664   0.143E+00    0.409E-02
DAV:   8    -0.371803482139E+02    0.73464E-05   -0.88603E-04   872   0.690E-01
  34 F= -.40888858E+02 E0= -.40880196E+02  d E =-.641525E-02  mag=     0.0000
       N       E                     dE             d eps       ncg     rms          rms(c)
DAV:   1    -0.371629027145E+02    0.17453E-01   -0.81469E+00   984   0.114E+01    0.265E-01
DAV:   2    -0.371788811613E+02   -0.15978E-01   -0.17137E-01  1448   0.496E+00    0.304E-01
DAV:   3    -0.371777547396E+02    0.11264E-02   -0.29885E-02  1536   0.469E+00    0.226E-01
DAV:   4    -0.371772086055E+02    0.54613E-03   -0.11624E-02  1072   0.275E+00    0.181E-01
DAV:   5    -0.371771794606E+02    0.29145E-04   -0.10171E-02  1072   0.285E+00    0.152E-01
DAV:   6    -0.371765686479E+02    0.61081E-03   -0.53894E-03  1328   0.196E+00    0.443E-02
DAV:   7    -0.371766115103E+02   -0.42862E-04   -0.11976E-03  1056   0.751E-01
  35 F= -.40891264E+02 E0= -.40882897E+02  d E =-.882101E-02  mag=     0.0000
       N       E                     dE             d eps       ncg     rms          rms(c)
DAV:   1    -0.371799464821E+02   -0.33778E-02   -0.24513E+00   984   0.629E+00    0.138E-01
DAV:   2    -0.371846350494E+02   -0.46886E-02   -0.50032E-02  1432   0.226E+00    0.162E-01
DAV:   3    -0.371842548723E+02    0.38018E-03   -0.11121E-02  1232   0.264E+00    0.130E-01
DAV:   4    -0.371840815165E+02    0.17336E-03   -0.37148E-03   960   0.164E+00    0.960E-02
DAV:   5    -0.371840758330E+02    0.56835E-05   -0.24656E-03   816   0.138E+00    0.819E-02
DAV:   6    -0.371838999862E+02    0.17585E-03   -0.14173E-03   760   0.113E+00
  36 F= -.40894284E+02 E0= -.40885818E+02  d E =-.302022E-02  mag=     0.0000
       N       E                     dE             d eps       ncg     rms          rms(c)
DAV:   1    -0.371858148999E+02   -0.17391E-02   -0.11656E+00   984   0.433E+00    0.940E-02
DAV:   2    -0.371881111918E+02   -0.22963E-02   -0.24031E-02  1520   0.164E+00    0.107E-01
DAV:   3    -0.371879037758E+02    0.20742E-03   -0.57911E-03  1088   0.190E+00    0.868E-02
DAV:   4    -0.371878225716E+02    0.81204E-04   -0.19523E-03   800   0.117E+00
  37 F= -.40895283E+02 E0= -.40886730E+02  d E =-.401866E-02  mag=     0.0000
       N       E                     dE             d eps       ncg     rms          rms(c)
DAV:   1    -0.371888252381E+02   -0.92146E-03   -0.18949E-01  1056   0.197E+00    0.740E-02
DAV:   2    -0.371894760862E+02   -0.65085E-03   -0.91769E-03  1536   0.221E+00    0.909E-02
DAV:   3    -0.371890682889E+02    0.40780E-03   -0.64203E-03   800   0.202E+00    0.572E-02
DAV:   4    -0.371890619896E+02    0.62993E-05   -0.82072E-04   680   0.788E-01
  38 F= -.40895350E+02 E0= -.40886899E+02  d E =-.408657E-02  mag=     0.0000
       N       E                     dE             d eps       ncg     rms          rms(c)
DAV:   1    -0.371900884246E+02   -0.10201E-02   -0.18669E+00  1000   0.569E+00    0.138E-01
DAV:   2    -0.371937473522E+02   -0.36589E-02   -0.38512E-02  1416   0.239E+00    0.151E-01
DAV:   3    -0.371932852372E+02    0.46211E-03   -0.95630E-03  1344   0.248E+00    0.116E-01
DAV:   4    -0.371931996790E+02    0.85558E-04   -0.45246E-03   976   0.175E+00    0.886E-02
DAV:   5    -0.371931341015E+02    0.65578E-04   -0.31959E-03   800   0.150E+00    0.697E-02
DAV:   6    -0.371930179124E+02    0.11619E-03   -0.10936E-03   728   0.908E-01
  39 F= -.40896067E+02 E0= -.40887409E+02  d E =-.716100E-03  mag=     0.0000
       N       E                     dE             d eps       ncg     rms          rms(c)
DAV:   1    -0.371918151694E+02    0.13189E-02   -0.21397E-01   984   0.189E+00    0.464E-02
DAV:   2    -0.371921920328E+02   -0.37686E-03   -0.41220E-03  1440   0.779E-01    0.522E-02
DAV:   3    -0.371921515801E+02    0.40453E-04   -0.10211E-03   656   0.832E-01
  40 F= -.40896267E+02 E0= -.40887672E+02  d E =-.916581E-03  mag=     0.0000
       N       E                     dE             d eps       ncg     rms          rms(c)
DAV:   1    -0.371949115093E+02   -0.27195E-02   -0.17169E+00  1048   0.549E+00    0.928E-02
DAV:   2    -0.371979531481E+02   -0.30416E-02   -0.31135E-02  1360   0.132E+00    0.939E-02
DAV:   3    -0.371978984933E+02    0.54655E-04   -0.18287E-03   864   0.105E+00
  41 F= -.40898061E+02 E0= -.40889246E+02  d E =-.179433E-02  mag=     0.0000
       N       E                     dE             d eps       ncg     rms          rms(c)
DAV:   1    -0.371987750027E+02   -0.82185E-03   -0.55227E-02  1456   0.143E+00    0.788E-02
DAV:   2    -0.371994414033E+02   -0.66640E-03   -0.97858E-03   672   0.239E+00    0.111E-01
DAV:   3    -0.371986421140E+02    0.79929E-03   -0.90890E-03   672   0.249E+00    0.472E-02
DAV:   4    -0.371986175763E+02    0.24538E-04   -0.50234E-04   664   0.367E-01
  42 F= -.40898102E+02 E0= -.40889435E+02  d E =-.183490E-02  mag=     0.0000
       N       E                     dE             d eps       ncg     rms          rms(c)
DAV:   1    -0.372000538226E+02   -0.14117E-02   -0.20466E-01  1032   0.190E+00    0.353E-02
DAV:   2    -0.372003996106E+02   -0.34579E-03   -0.35750E-03  1392   0.488E-01    0.331E-02
DAV:   3    -0.372004122388E+02   -0.12628E-04   -0.52808E-04   600   0.600E-01
  43 F= -.40898542E+02 E0= -.40889955E+02  d E =-.227506E-02  mag=     0.0000
       N       E                     dE             d eps       ncg     rms          rms(c)
DAV:   1    -0.372023847640E+02   -0.19852E-02   -0.82122E-01  1048   0.380E+00    0.795E-02
DAV:   2    -0.372037670404E+02   -0.13823E-02   -0.14893E-02  1376   0.992E-01    0.848E-02
DAV:   3    -0.372036947240E+02    0.72316E-04   -0.61951E-04   736   0.691E-01
  44 F= -.40899125E+02 E0= -.40890447E+02  d E =-.285814E-02  mag=     0.0000
       N       E                     dE             d eps       ncg     rms          rms(c)
DAV:   1    -0.372056376459E+02   -0.18706E-02   -0.50333E-01  1040   0.302E+00    0.822E-02
DAV:   2    -0.372064366068E+02   -0.79896E-03   -0.93144E-03  1600   0.112E+00    0.757E-02
DAV:   3    -0.372063985631E+02    0.38044E-04   -0.13223E-03   940   0.107E+00
  45 F= -.40900007E+02 E0= -.40891459E+02  d E =-.881393E-03  mag=     0.0000
       N       E                     dE             d eps       ncg     rms          rms(c)
DAV:   1    -0.372034965792E+02    0.29400E-02   -0.45131E+00  1032   0.895E+00    0.177E-01
DAV:   2    -0.372117997578E+02   -0.83032E-02   -0.88178E-02  1376   0.241E+00    0.189E-01
DAV:   3    -0.372115365126E+02    0.26325E-03   -0.33524E-03  1116   0.150E+00    0.144E-01
DAV:   4    -0.372114346292E+02    0.10188E-03   -0.20038E-03   800   0.142E+00    0.121E-01
DAV:   5    -0.372117923210E+02   -0.35769E-03   -0.96984E-03   768   0.257E+00    0.114E-01
DAV:   6    -0.372111540663E+02    0.63825E-03   -0.99164E-03   672   0.242E+00    0.554E-02
DAV:   7    -0.372110315914E+02    0.12247E-03   -0.10150E-03   664   0.896E-01
  46 F= -.40899246E+02 E0= -.40890523E+02  d E =-.120400E-03  mag=     0.0000
       N       E                     dE             d eps       ncg     rms          rms(c)
DAV:   1    -0.372053901937E+02    0.57639E-02   -0.19474E+00  1032   0.581E+00    0.108E-01
DAV:   2    -0.372088210910E+02   -0.34309E-02   -0.36972E-02  1424   0.187E+00    0.123E-01
DAV:   3    -0.372088224210E+02   -0.13301E-05   -0.63417E-03  1168   0.196E+00    0.105E-01
DAV:   4    -0.372086626284E+02    0.15979E-03   -0.15341E-03   656   0.102E+00
  47 F= -.40900415E+02 E0= -.40891757E+02  d E =-.129011E-02  mag=     0.0000
       N       E                     dE             d eps       ncg     rms          rms(c)
DAV:   1    -0.372093053691E+02   -0.48295E-03   -0.19551E-01  1128   0.209E+00    0.538E-02
DAV:   2    -0.372102194989E+02   -0.91413E-03   -0.94135E-03  1456   0.260E+00    0.100E-01
DAV:   3    -0.372095673291E+02    0.65217E-03   -0.41142E-03   776   0.188E+00    0.332E-02
DAV:   4    -0.372095560140E+02    0.11315E-04   -0.95766E-04   664   0.749E-01
  48 F= -.40900181E+02 E0= -.40891480E+02  d E =-.105577E-02  mag=     0.0000
       N       E                     dE             d eps       ncg     rms          rms(c)
DAV:   1    -0.372088253530E+02    0.74198E-03   -0.74538E-02  1048   0.117E+00    0.228E-02
DAV:   2    -0.372089689586E+02   -0.14361E-03   -0.14918E-03  1256   0.366E-01
  49 F= -.40900291E+02 E0= -.40891619E+02  d E =-.116580E-02  mag=     0.0000
       N       E                     dE             d eps       ncg     rms          rms(c)
DAV:   1    -0.372098069617E+02   -0.98161E-03   -0.17243E-01  1056   0.186E+00    0.366E-02
DAV:   2    -0.372104004061E+02   -0.59344E-03   -0.70414E-03  1272   0.176E+00    0.677E-02
DAV:   3    -0.372100691685E+02    0.33124E-03   -0.43519E-03  1008   0.154E+00    0.297E-02
DAV:   4    -0.372100937896E+02   -0.24621E-04   -0.38623E-04   616   0.293E-01
  50 F= -.40900594E+02 E0= -.40891832E+02  d E =-.303111E-03  mag=     0.0000
       N       E                     dE             d eps       ncg     rms          rms(c)
DAV:   1    -0.372103552909E+02   -0.28612E-03   -0.11126E-02  1264   0.520E-01    0.237E-02
DAV:   2    -0.372103577647E+02   -0.24738E-05   -0.12642E-04   584   0.354E-01
  51 F= -.40900659E+02 E0= -.40891850E+02  d E =-.367736E-03  mag=     0.0000
       N       E                     dE             d eps       ncg     rms          rms(c)
DAV:   1    -0.372107253875E+02   -0.37010E-03   -0.42145E-02  1056   0.932E-01    0.266E-02
DAV:   2    -0.372107793808E+02   -0.53993E-04   -0.69732E-04   672   0.604E-01
  52 F= -.40900685E+02 E0= -.40891779E+02  d E =-.394162E-03  mag=     0.0000
       N       E                     dE             d eps       ncg     rms          rms(c)
DAV:   1    -0.372104638011E+02    0.26159E-03   -0.21389E-02  1464   0.969E-01    0.148E-02
DAV:   2    -0.372105831588E+02   -0.11936E-03   -0.15500E-03   696   0.983E-01
  53 F= -.40900767E+02 E0= -.40891844E+02  d E =-.476289E-03  mag=     0.0000
       N       E                     dE             d eps       ncg     rms          rms(c)
DAV:   1    -0.372106050128E+02   -0.14121E-03   -0.60620E-03  1424   0.898E-01    0.915E-03
DAV:   2    -0.372106219293E+02   -0.16916E-04   -0.17439E-04   560   0.213E-01
  54 F= -.40900667E+02 E0= -.40891885E+02  d E =-.375592E-03  mag=     0.0000
       N       E                     dE             d eps       ncg     rms          rms(c)
DAV:   1    -0.372111301283E+02   -0.52512E-03   -0.49439E-02  1056   0.956E-01    0.210E-02
DAV:   2    -0.372111669409E+02   -0.36813E-04   -0.50557E-04   648   0.471E-01
  55 F= -.40900924E+02 E0= -.40892172E+02  d E =-.257221E-03  mag=     0.0000
       N       E                     dE             d eps       ncg     rms          rms(c)
DAV:   1    -0.372115263753E+02   -0.39625E-03   -0.21144E-02  1400   0.871E-01    0.268E-02
DAV:   2    -0.372116724182E+02   -0.14604E-03   -0.20461E-03   704   0.117E+00    0.487E-02
DAV:   3    -0.372115147097E+02    0.15771E-03   -0.16780E-03   656   0.106E+00
  56 F= -.40901091E+02 E0= -.40892391E+02  d E =-.424896E-03  mag=     0.0000
       N       E                     dE             d eps       ncg     rms          rms(c)
DAV:   1    -0.372119374875E+02   -0.26507E-03   -0.77067E-02  1064   0.118E+00    0.265E-02
DAV:   2    -0.372120778918E+02   -0.14040E-03   -0.15088E-03  1128   0.764E-01
  57 F= -.40901295E+02 E0= -.40892781E+02  d E =-.627924E-03  mag=     0.0000
       N       E                     dE             d eps       ncg     rms          rms(c)
DAV:   1    -0.372119844586E+02   -0.46971E-04   -0.10788E-03   936   0.668E-01    0.246E-02
DAV:   2    -0.372120842018E+02   -0.99743E-04   -0.12935E-03   640   0.946E-01
  58 F= -.40901336E+02 E0= -.40892765E+02  d E =-.668925E-03  mag=     0.0000
       N       E                     dE             d eps       ncg     rms          rms(c)
DAV:   1    -0.372120373575E+02   -0.52899E-04   -0.11902E-03   656   0.860E-01    0.115E-02
DAV:   2    -0.372120983389E+02   -0.60981E-04   -0.81498E-04   624   0.723E-01
  59 F= -.40901316E+02 E0= -.40892682E+02  d E =-.649303E-03  mag=     0.0000
       N       E                     dE             d eps       ncg     rms          rms(c)
DAV:   1    -0.372120302050E+02    0.71526E-05   -0.58329E-04   600   0.611E-01    0.736E-03
DAV:   2    -0.372120394553E+02   -0.92504E-05   -0.94824E-05   568   0.238E-01
  60 F= -.40901274E+02 E0= -.40892601E+02  d E =-.607299E-03  mag=     0.0000
       N       E                     dE             d eps       ncg     rms          rms(c)
DAV:   1    -0.372120436407E+02   -0.13436E-04   -0.89995E-05   480   0.227E-01    0.461E-03
DAV:   2    -0.372120526092E+02   -0.89685E-05   -0.11530E-04   480   0.284E-01
  61 F= -.40901282E+02 E0= -.40892588E+02  d E =-.615667E-03  mag=     0.0000
       N       E                     dE             d eps       ncg     rms          rms(c)
DAV:   1    -0.372120467561E+02   -0.31154E-05   -0.88120E-05   480   0.238E-01    0.217E-03
DAV:   2    -0.372120502941E+02   -0.35380E-05   -0.38128E-05   480   0.144E-01
  62 F= -.40901279E+02 E0= -.40892588E+02  d E =-.612817E-03  mag=     0.0000
       N       E                     dE             d eps       ncg     rms          rms(c)
DAV:   1    -0.372120546772E+02   -0.79212E-05   -0.42582E-05   480   0.129E-01    0.252E-03
DAV:   2    -0.372120580162E+02   -0.33390E-05   -0.34200E-05   480   0.848E-02
  63 F= -.40901281E+02 E0= -.40892553E+02  d E =-.614759E-03  mag=     0.0000
       N       E                     dE             d eps       ncg     rms          rms(c)
DAV:   1    -0.372120543652E+02    0.31199E-06   -0.16342E-05   480   0.784E-02    0.188E-03
DAV:   2    -0.372120551345E+02   -0.76931E-06   -0.99669E-06   480   0.765E-02
  64 F= -.40901283E+02 E0= -.40892575E+02  d E =-.616131E-03  mag=     0.0000
       N       E                     dE             d eps       ncg     rms          rms(c)
DAV:   1    -0.372120575980E+02   -0.32328E-05   -0.89449E-06   480   0.711E-02    0.102E-03
DAV:   2    -0.372120581470E+02   -0.54905E-06   -0.54915E-06   480   0.382E-02
  65 F= -.40901283E+02 E0= -.40892566E+02  d E =-.616671E-03  mag=     0.0000
       N       E                     dE             d eps       ncg     rms          rms(c)
DAV:   1    -0.372120590679E+02   -0.14699E-05   -0.47817E-06   480   0.398E-02    0.822E-04
DAV:   2    -0.372120594643E+02   -0.39639E-06   -0.44088E-06   480   0.529E-02
  66 F= -.40901284E+02 E0= -.40892570E+02  d E =-.617390E-03  mag=     0.0000
       N       E                     dE             d eps       ncg     rms          rms(c)
DAV:   1    -0.372120599821E+02   -0.91417E-06   -0.33999E-06   480   0.438E-02    0.356E-04
DAV:   2    -0.372120602149E+02   -0.23283E-06   -0.22647E-06   480   0.236E-02
  67 F= -.40901284E+02 E0= -.40892567E+02  d E =-.617549E-03  mag=     0.0000
       N       E                     dE             d eps       ncg     rms          rms(c)
DAV:   1    -0.372120606984E+02   -0.71629E-06   -0.20807E-06   480   0.195E-02    0.426E-04
DAV:   2    -0.372120607955E+02   -0.97147E-07   -0.10210E-06   480   0.138E-02
  68 F= -.40901284E+02 E0= -.40892561E+02  d E =-.617834E-03  mag=     0.0000
       N       E                     dE             d eps       ncg     rms          rms(c)
DAV:   1    -0.372120610618E+02   -0.36344E-06   -0.16841E-06   480   0.249E-02    0.993E-04
DAV:   2    -0.372120611183E+02   -0.56511E-07   -0.78272E-07   480   0.112E-02
  69 F= -.40901285E+02 E0= -.40892566E+02  d E =-.618008E-03  mag=     0.0000
       N       E                     dE             d eps       ncg     rms          rms(c)
DAV:   1    -0.372120612447E+02   -0.18284E-06   -0.49124E-07   480   0.103E-02    0.465E-04
DAV:   2    -0.372120612745E+02   -0.29833E-07   -0.24192E-07   480   0.113E-02
  70 F= -.40901285E+02 E0= -.40892566E+02  d E =-.618085E-03  mag=     0.0000
       N       E                     dE             d eps       ncg     rms          rms(c)
DAV:   1    -0.372120613255E+02   -0.80863E-07   -0.16865E-07   480   0.107E-02    0.259E-04
DAV:   2    -0.372120613622E+02   -0.36725E-07   -0.35875E-07   480   0.154E-02
  71 F= -.40901285E+02 E0= -.40892563E+02  d E =-.618135E-03  mag=     0.0000
       N       E                     dE             d eps       ncg     rms          rms(c)
DAV:   1    -0.372120613633E+02   -0.37782E-07   -0.24852E-07   480   0.129E-02    0.154E-04
DAV:   2    -0.372120613792E+02   -0.15913E-07   -0.10139E-07   480   0.427E-03
  72 F= -.40901285E+02 E0= -.40892564E+02  d E =-.618135E-03  mag=     0.0000
       N       E                     dE             d eps       ncg     rms          rms(c)
DAV:   1    -0.372099882944E+02    0.20731E-02   -0.39833E-01  1056   0.262E+00    0.461E-02
DAV:   2    -0.372106846937E+02   -0.69640E-03   -0.73217E-03  1472   0.863E-01    0.514E-02
DAV:   3    -0.372106701259E+02    0.14568E-04   -0.12826E-03   768   0.935E-01
  73 F= -.40900715E+02 E0= -.40892050E+02  d E =-.481966E-04  mag=     0.0000
