 vasp.6.3.2 27Jun22 (build Aug 17 2022 15:43:34) complex                        
  
 executed on           tv2STDVTST date 2025.02.04  14:35:02
 running   20 mpi-ranks, with    1 threads/rank
 distrk:  each k-point on   20 cores,    1 groups
 distr:  one band on NCORE=   5 cores,    4 groups


--------------------------------------------------------------------------------------------------------


 -----------------------------------------------------------------------------
|                                                                             |
|           W    W    AA    RRRRR   N    N  II  N    N   GGGG   !!!           |
|           W    W   A  A   R    R  NN   N  II  NN   N  G    G  !!!           |
|           W    W  A    A  R    R  N N  N  II  N N  N  G       !!!           |
|           W WW W  AAAAAA  RRRRR   N  N N  II  N  N N  G  GGG   !            |
|           WW  WW  A    A  R   R   N   NN  II  N   NN  G    G                |
|           W    W  A    A  R    R  N    N  II  N    N   GGGG   !!!           |
|                                                                             |
|     Found issues when parsing the INCAR file                                |
|     In line 61: Tagname --- R W I G S contains invalid characters.          |
|     Please check if the interpretation in the OUTCAR file is correct.       |
|                                                                             |
 -----------------------------------------------------------------------------

 INCAR:
    = \=\=\=\=\=\=\=\=\=\=\=\=\=\=\=\=\=\=\=\=\=\=\=\=\=\=\=\=\=\=\=\=\=\=\=\=\=\=\=\=\=\=\=\=\=\=\=\=\=\=\=\=\=\=\=\=\=\=\=\=\=\=\=\=\=\=\=\=\=\=\=\=
    = \=\=\=\=\=\=\=\=\=\=\=\=\=\=\=\=\=\=\=\=\=\=\=\=\=\=\=\=\=\=\=\=\=\=\=\=\=\=\=\=\=\=\=\=\=\=\=\=\=\=\=\=\=\=\=\=\=\=\=\=\=\=\=\=\=\=\=\=\=\=\=\=
   ISTART = 0
   ICHARG = 2
   IPIPOL = 3
   IVDW = 11
    = \=\=\=\=\=\=\=\=\=\=\=\=\=\=\=\=\=\=\=\=\=\=\=\=\=\=\=\=\=\=\=\=\=\=\=\=\=\=\=\=\=\=\=\=\=\=\=\=\=\=\=\=\=\=\=\=\=\=\=\=\=\=\=\=\=\=\=\=\=\=\=\=
    = \=\=\=\=\=\=\=\=\=\=\=\=\=\=\=\=\=\=\=\=\=\=\=\=\=\=\=\=\=\=\=\=\=\=\=\=\=\=\=\=\=\=\=\=\=\=\=\=\=\=\=\=\=\=\=\=\=\=\=\=\=\=\=\=\=\=\=\=\=\=\=\=
   ISPIN = 2
    = \=\=\=\=\=\=\=\=\=\=\=\=\=\=\=\=\=\=\=\=\=\=\=\=\=\=\=\=\=\=\=\=\=\=\=\=\=\=\=\=\=\=\=\=\=\=\=\=\=\=\=\=\=\=\=\=\=\=\=\=\=\=\=\=\=\=\=\=\=\=\=\=
    = \=\=\=\=\=\=\=\=\=\=\=\=\=\=\=\=\=\=\=\=\=\=\=\=\=\=\=\=\=\=\=\=\=\=\=\=\=\=\=\=\=\=\=\=\=\=\=\=\=\=\=\=\=\=\=\=\=\=\=\=\=\=\=\=\=\=\=\=\=\=\=\=
   ENCUT = 400
   PREC = Normal
   EDIFF = 2E-04
   GGA = PE
   ISMEAR = 1
   SIGMA = 0.2
   LREAL = .FALSE.
    = \=\=\=\=\=\=\=\=\=\=\=\=\=\=\=\=\=\=\=\=\=\=\=\=\=\=\=\=\=\=\=\=\=\=\=\=\=\=\=\=\=\=\=\=\=\=\=\=\=\=\=\=\=\=\=\=\=\=\=\=\=\=\=\=\=\=\=\=\=\=\=\=
    = \=\=\=\=\=\=\=\=\=\=\=\=\=\=\=\=\=\=\=\=\=\=\=\=\=\=\=\=\=\=\=\=\=\=\=\=\=\=\=\=\=\=\=\=\=\=\=\=\=\=\=\=\=\=\=\=\=\=\=\=\=\=\=\=\=\=\=\=\=\=\=\=
   ISYM = 1
   NSW = 800
   IBRION = 2
   POTIM = 0.5
   ISIF = 2
   EDIFFG = -.03
    = \=\=\=\=\=\=\=\=\=\=\=\=\=\=\=\=\=\=\=\=\=\=\=\=\=\=\=\=\=\=\=\=\=\=\=\=\=\=\=\=\=\=\=\=\=\=\=\=\=\=\=\=\=\=\=\=\=\=\=\=\=\=\=\=\=\=\=\=\=\=\=\=
    = \=\=\=\=\=\=\=\=\=\=\=\=\=\=\=\=\=\=\=\=\=\=\=\=\=\=\=\=\=\=\=\=\=\=\=\=\=\=\=\=\=\=\=\=\=\=\=\=\=\=\=\=\=\=\=\=\=\=\=\=\=\=\=\=\=\=\=\=\=\=\=\=
   NPAR = 4
   LWAVE = .FALSE.
   LCHARG = .FALSE.

 POTCAR:    PAW_PBE Cu 22Jun2005                  
 POTCAR:    PAW_PBE H 15Jun2001                   
 -----------------------------------------------------------------------------
|                                                                             |
|           W    W    AA    RRRRR   N    N  II  N    N   GGGG   !!!           |
|           W    W   A  A   R    R  NN   N  II  NN   N  G    G  !!!           |
|           W    W  A    A  R    R  N N  N  II  N N  N  G       !!!           |
|           W WW W  AAAAAA  RRRRR   N  N N  II  N  N N  G  GGG   !            |
|           WW  WW  A    A  R   R   N   NN  II  N   NN  G    G                |
|           W    W  A    A  R    R  N    N  II  N    N   GGGG   !!!           |
|                                                                             |
|     You use a magnetic or noncollinear calculation, but did not specify     |
|     the initial magnetic moment with the MAGMOM tag. Note that a            |
|     default of 1 will be used for all atoms. This ferromagnetic setup       |
|     may break the symmetry of the crystal, in particular it may rule        |
|     out finding an antiferromagnetic solution. Thence, we recommend         |
|     setting the initial magnetic moment manually or verifying carefully     |
|     that this magnetic setup is desired.                                    |
|                                                                             |
 -----------------------------------------------------------------------------

 POTCAR:    PAW_PBE Cu 22Jun2005                  
   SHA256 =  0e71e558f37a4e8407882b4609ceaae59938afaad9ced71dfe8490308a0ab630 Cu/POTCAR             
   COPYR  = (c) Copyright 22Jun2005 Georg Kresse                                                    
   COPYR  = This file is part of the software VASP. Any use, copying, and all other rights are regul
   COPYR  = If you do not have a valid VASP license, you may not use, copy or distribute this file. 
   VRHFIN =Cu: d10 p1                                                                               
   LEXCH  = PE                                                                                      
   EATOM  =  1390.9808 eV,  102.2342 Ry                                                             
                                                                                                    
   TITEL  = PAW_PBE Cu 22Jun2005                                                                    
   LULTRA =        F    use ultrasoft PP ?                                                          
   IUNSCR =        1    unscreen: 0-lin 1-nonlin 2-no                                               
   RPACOR =    2.000    partial core radius                                                         
   POMASS =   63.546; ZVAL   =   11.000    mass and valenz                                          
   RCORE  =    2.300    outmost cutoff radius                                                       
   RWIGS  =    2.200; RWIGS  =    1.164    wigner-seitz radius (au A)                               
   ENMAX  =  295.446; ENMIN  =  221.585 eV                                                          
   ICORE  =        3    local potential                                                             
   LCOR   =        T    correct aug charges                                                         
   LPAW   =        T    paw PP                                                                      
   EAUG   =  586.980                                                                                
   DEXC   =    0.000                                                                                
   RMAX   =    2.344    core radius for proj-oper                                                   
   RAUG   =    1.300    factor for augmentation sphere                                              
   RDEP   =    2.302    radius for radial grids                                                     
   RDEPT  =    1.771    core radius for aug-charge                                                  
                                                                                                    
   Atomic configuration                                                                             
    9 entries                                                                                       
     n  l   j            E        occ.                                                              
     1  0  0.50     -8850.2468   2.0000                                                             
     2  0  0.50     -1062.3498   2.0000                                                             
     2  1  1.50      -916.8226   6.0000                                                             
     3  0  0.50      -114.6929   2.0000                                                             
     3  1  1.50       -72.1325   6.0000                                                             
     3  2  2.50        -5.0394  10.0000                                                             
     4  0  0.50        -4.6097   1.0000                                                             
     4  1  0.50        -4.0817   0.0000                                                             
     4  3  2.50        -1.3606   0.0000                                                             
   Description                                                                                      
     l       E           TYP  RCUT    TYP  RCUT                                                     
     2     -5.0393973     23  2.200                                                                 
     2     10.8846608     23  2.200                                                                 
     0     -4.6097109     23  2.200                                                                 
     0      8.2520465     23  2.200                                                                 
     1     -2.7211652     23  2.200                                                                 
     1     21.7055443     23  2.200                                                                 
     3      2.7211652     23  2.300                                                                 
  local pseudopotential read in
  partial core-charges read in
  partial kinetic energy density read in
  atomic valenz-charges read in
  non local Contribution for L=           2  read in
    real space projection operators read in
  non local Contribution for L=           2  read in
    real space projection operators read in
  non local Contribution for L=           0  read in
    real space projection operators read in
  non local Contribution for L=           0  read in
    real space projection operators read in
  non local Contribution for L=           1  read in
    real space projection operators read in
  non local Contribution for L=           1  read in
    real space projection operators read in
    PAW grid and wavefunctions read in
 
   number of l-projection  operators is LMAX  =           6
   number of lm-projection operators is LMMAX =          18
 
 POTCAR:    PAW_PBE H 15Jun2001                   
   SHA256 =  030f79b5d3ab3cf0e668861823c8fb652ff669f3e15e46930bd03bfd63a607b6 H/POTCAR              
   COPYR  = (c) Copyright 15Jun2001 Georg Kresse                                                    
   COPYR  = This file is part of the software VASP. Any use, copying, and all other rights are regul
   COPYR  = If you do not have a valid VASP license, you may not use, copy or distribute this file. 
   VRHFIN =H: ultrasoft test                                                                        
   LEXCH  = PE                                                                                      
   EATOM  =    12.4884 eV,    0.9179 Ry                                                             
                                                                                                    
   TITEL  = PAW_PBE H 15Jun2001                                                                     
   LULTRA =        F    use ultrasoft PP ?                                                          
   IUNSCR =        0    unscreen: 0-lin 1-nonlin 2-no                                               
   RPACOR =    0.000    partial core radius                                                         
   POMASS =    1.000; ZVAL   =    1.000    mass and valenz                                          
   RCORE  =    1.100    outmost cutoff radius                                                       
   RWIGS  =    0.700; RWIGS  =    0.370    wigner-seitz radius (au A)                               
   ENMAX  =  250.000; ENMIN  =  200.000 eV                                                          
   RCLOC  =    0.701    cutoff for local pot                                                        
   LCOR   =        T    correct aug charges                                                         
   LPAW   =        T    paw PP                                                                      
   EAUG   =  400.000                                                                                
   RMAX   =    1.123    core radius for proj-oper                                                   
   RAUG   =    1.200    factor for augmentation sphere                                              
   RDEP   =    1.112    radius for radial grids                                                     
   RDEPT  =    0.926    core radius for aug-charge                                                  
                                                                                                    
   Atomic configuration                                                                             
    2 entries                                                                                       
     n  l   j            E        occ.                                                              
     1  0  0.50        -6.4927   1.0000                                                             
     2  1  0.50        -3.4015   0.0000                                                             
   Description                                                                                      
     l       E           TYP  RCUT    TYP  RCUT                                                     
     0     -6.4927494     23  1.100                                                                 
     0      6.8029130     23  1.100                                                                 
     1     -4.0817478     23  1.100                                                                 
  local pseudopotential read in
  atomic valenz-charges read in
  non local Contribution for L=           0  read in
    real space projection operators read in
  non local Contribution for L=           0  read in
    real space projection operators read in
  non local Contribution for L=           1  read in
    real space projection operators read in
    PAW grid and wavefunctions read in
 
   number of l-projection  operators is LMAX  =           3
   number of lm-projection operators is LMMAX =           5
 
  PAW_PBE Cu 22Jun2005                  :
 energy of atom  1       EATOM=-1390.9808
 kinetic energy error for atom=    0.0232 (will be added to EATOM!!)
  PAW_PBE H 15Jun2001                   :
 energy of atom  2       EATOM=  -12.4884
 kinetic energy error for atom=    0.0098 (will be added to EATOM!!)
 
 
 POSCAR: FCC Cu
  positions in cartesian coordinates
  No initial velocities read in
 exchange correlation table for  LEXCH =        8
   RHO(1)=    0.500       N(1)  =     2000
   RHO(2)=  100.500       N(2)  =     4000

 VTST: version 4.2, (08/11/21)

 CHAIN: initializing optimizer
 
 OPT: Using VASP Conjugate-Gradient optimizer
 CHAIN: Read ICHAIN            0
 
 POSCAR: FCC Cu
  positions in cartesian coordinates
  No initial velocities read in
 


--------------------------------------------------------------------------------------------------------


 ion  position               nearest neighbor table
   1  0.000  0.000  0.000-   2 2.57   2 2.57   2 2.57
   2  0.333  0.333  0.071-   3 2.51   3 2.51   3 2.51   1 2.57   1 2.57   1 2.57
   3  0.667  0.667  0.139-   2 2.51   2 2.51   2 2.51   4 2.53   4 2.53   4 2.53
   4  0.000  0.000  0.208-   5 2.51   5 2.51   5 2.51   3 2.53   3 2.53   3 2.53
   5  0.333  0.333  0.277-   4 2.51   4 2.51   4 2.51   6 2.53   6 2.53   6 2.53
   6  0.667  0.667  0.346-   7 2.51   7 2.51   7 2.51   5 2.53   5 2.53   5 2.53
   7  0.000  0.000  0.414-   8 2.49   8 2.49   8 2.49   6 2.51   6 2.51   6 2.51
   8  0.333  0.333  0.481-   9 1.57  10 1.74   7 2.49   7 2.49   7 2.49
   9  0.333  0.333  0.534-  10 0.75   8 1.57
  10  0.166  0.669  0.534-   9 0.75   8 1.74
 
  LATTYP: Found a hexagonal cell.
 ALAT       =     2.5667977333
 C/A-ratio  =    11.5593335643
  
  Lattice vectors:
  
 A1 = (  -1.2833988667,  -2.2229120434,   0.0000000000)
 A2 = (   2.5667977333,   0.0000000000,   0.0000000000)
 A3 = (   0.0000000000,   0.0000000000,  29.6704711914)


Analysis of symmetry for initial positions (statically):
=====================================================================
 Subroutine PRICEL returns:
 Original cell was already a primitive cell.
 

 Routine SETGRP: Setting up the symmetry group for a 
 hexagonal supercell.


 Subroutine GETGRP returns: Found  2 space group operations
 (whereof  2 operations were pure point group operations)
 out of a pool of 24 trial point group operations.


The static configuration has the point symmetry C_1h.


Analysis of symmetry for dynamics (positions and initial velocities):
=====================================================================
 Subroutine PRICEL returns:
 Original cell was already a primitive cell.
 

 Routine SETGRP: Setting up the symmetry group for a 
 hexagonal supercell.


 Subroutine GETGRP returns: Found  2 space group operations
 (whereof  2 operations were pure point group operations)
 out of a pool of 24 trial point group operations.


The dynamic configuration has the point symmetry C_1h.


Analysis of structural, dynamic, and magnetic symmetry:
=====================================================================
 Subroutine PRICEL returns:
 Original cell was already a primitive cell.
 

 Routine SETGRP: Setting up the symmetry group for a 
 hexagonal supercell.


 Subroutine GETGRP returns: Found  2 space group operations
 (whereof  2 operations were pure point group operations)
 out of a pool of 24 trial point group operations.


The overall configuration has the point symmetry C_1h.


 Subroutine INISYM returns: Found  2 space group operations
 (whereof  2 operations are pure point group operations),
 and found     1 'primitive' translations


----------------------------------------------------------------------------------------

                                     Primitive cell                                     

  volume of cell :     169.2928

  direct lattice vectors                    reciprocal lattice vectors
     2.566797733  0.000000000  0.000000000     0.389590495 -0.224930177  0.000000000
     1.283398867  2.222912043  0.000000000     0.000000000  0.449860355  0.000000000
     0.000000000  0.000000000 29.670471191     0.000000000  0.000000000  0.033703543

  length of vectors
     2.566797733  2.566797733 29.670471191     0.449860355  0.449860355  0.033703543

  position of ions in fractional coordinates (direct lattice)
     0.000000000  0.000000000  0.000000000
     0.333333333  0.333333333  0.070635264
     0.666666667  0.666666667  0.139085938
     0.000000000  0.000000000  0.208165116
     0.333333333  0.333333333  0.276562395
     0.666666667  0.666666667  0.345560339
     0.000000000  0.000000000  0.414005934
     0.333333333  0.333333333  0.481392695
     0.333333334  0.333333333  0.534259303
     0.165535421  0.668929158  0.534259303

  ion indices of the primitive-cell ions
   primitive index   ion index
                 1           1
                 2           2
                 3           3
                 4           4
                 5           5
                 6           6
                 7           7
                 8           8
                 9           9
                10          10

----------------------------------------------------------------------------------------

 
 
 KPOINTS: Auto-mesh                               

Automatic generation of k-mesh.
 Grid dimensions read from file:
 generate k-points for:    3    3    1

 Generating k-lattice:

  Cartesian coordinates                     Fractional coordinates (reciprocal lattice)
     0.129863498 -0.074976726  0.000000000     0.333333333  0.000000000  0.000000000
     0.000000000  0.149953452  0.000000000     0.000000000  0.333333333  0.000000000
     0.000000000  0.000000000  0.033703543     0.000000000  0.000000000  1.000000000

  Length of vectors
     0.149953452  0.149953452  0.033703543

  Shift w.r.t. Gamma in fractional coordinates (k-lattice)
     0.000000000  0.000000000  0.000000000

 
 Subroutine IBZKPT returns following result:
 ===========================================
 
 Found      4 irreducible k-points:
 
 Following reciprocal coordinates:
            Coordinates               Weight
  0.000000  0.000000  0.000000      1.000000
  0.333333  0.000000  0.000000      4.000000
  0.000000  0.333333  0.000000      2.000000
 -0.333333  0.333333  0.000000      2.000000
 
 Following cartesian coordinates:
            Coordinates               Weight
  0.000000  0.000000  0.000000      1.000000
  0.129863 -0.074977  0.000000      4.000000
  0.000000  0.149953  0.000000      2.000000
 -0.129863  0.224930  0.000000      2.000000
 


--------------------------------------------------------------------------------------------------------




 Dimension of arrays:
   k-points           NKPTS =      4   k-points in BZ     NKDIM =      4   number of bands    NBANDS=     60
   number of dos      NEDOS =    301   number of ions     NIONS =     10
   non local maximal  LDIM  =      6   non local SUM 2l+1 LMDIM =     18
   total plane-waves  NPLWV =  29400
   max r-space proj   IRMAX =      1   max aug-charges    IRDMAX=   5229
   dimension x,y,z NGX =    14 NGY =   14 NGZ =  150
   dimension x,y,z NGXF=    28 NGYF=   28 NGZF=  300
   support grid    NGXF=    28 NGYF=   28 NGZF=  300
   ions per type =               8   2
   NGX,Y,Z   is equivalent  to a cutoff of   9.07,  9.07,  8.40 a.u.
   NGXF,Y,Z  is equivalent  to a cutoff of  18.13, 18.13, 16.81 a.u.

 SYSTEM =  unknown system                          
 POSCAR =  FCC Cu                                  

 Startparameter for this run:
   NWRITE =      2    write-flag & timer
   PREC   = normal    normal or accurate (medium, high low for compatibility)
   ISTART =      0    job   : 0-new  1-cont  2-samecut
   ICHARG =      2    charge: 1-file 2-atom 10-const
   ISPIN  =      2    spin polarized calculation?
   LNONCOLLINEAR =      F non collinear calculations
   LSORBIT =      F    spin-orbit coupling
   INIWAV =      1    electr: 0-lowe 1-rand  2-diag
   LASPH  =      F    aspherical Exc in radial PAW
 Electronic Relaxation 1
   ENCUT  =  400.0 eV  29.40 Ry    5.42 a.u.   4.19  4.19 48.39*2*pi/ulx,y,z
   ENINI  =  400.0     initial cutoff
   ENAUG  =  587.0 eV  augmentation charge cutoff
   NELM   =     60;   NELMIN=  2; NELMDL= -5     # of ELM steps 
   EDIFF  = 0.2E-03   stopping-criterion for ELM
   LREAL  =      F    real-space projection
   NLSPLINE    = F    spline interpolate recip. space projectors
   LCOMPAT=      F    compatible to vasp.4.4
   GGA_COMPAT  = T    GGA compatible to vasp.4.4-vasp.4.6
   LMAXPAW     = -100 max onsite density
   LMAXMIX     =    2 max onsite mixed and CHGCAR
   VOSKOWN=      0    Vosko Wilk Nusair interpolation
   ROPT   =    0.00000   0.00000
 Ionic relaxation
   EDIFFG = -.3E-01   stopping-criterion for IOM
   NSW    =    800    number of steps for IOM
   NBLOCK =      1;   KBLOCK =    800    inner block; outer block 
   IBRION =      2    ionic relax: 0-MD 1-quasi-New 2-CG
   NFREE  =      1    steps in history (QN), initial steepest desc. (CG)
   ISIF   =      2    stress and relaxation
   IWAVPR =     11    prediction:  0-non 1-charg 2-wave 3-comb
   ISYM   =      1    0-nonsym 1-usesym 2-fastsym
   LCORR  =      T    Harris-Foulkes like correction to forces

   POTIM  = 0.5000    time-step for ionic-motion
   TEIN   =    0.0    initial temperature
   TEBEG  =    0.0;   TEEND  =   0.0 temperature during run
   SMASS  =  -3.00    Nose mass-parameter (am)
   estimated Nose-frequenzy (Omega)   =  0.10E-29 period in steps = 0.13E+47 mass=  -0.151E-27a.u.
   SCALEE = 1.0000    scale energy and forces
   NPACO  =    256;   APACO  = 10.0  distance and # of slots for P.C.
   PSTRESS=    0.0 pullay stress

  Mass of Ions in am
   POMASS =  63.55  1.00
  Ionic Valenz
   ZVAL   =  11.00  1.00
  Atomic Wigner-Seitz radii
   RWIGS  =  -1.00 -1.00
  virtual crystal weights 
   VCA    =   1.00  1.00
   NELECT =      90.0000    total number of electrons
   NUPDOWN=      -1.0000    fix difference up-down

 DOS related values:
   EMIN   =  10.00;   EMAX   =-10.00  energy-range for DOS
   EFERMI =   0.00
   ISMEAR =     1;   SIGMA  =   0.20  broadening in eV -4-tet -1-fermi 0-gaus

 Electronic relaxation 2 (details)
   IALGO  =     38    algorithm
   LDIAG  =      T    sub-space diagonalisation (order eigenvalues)
   LSUBROT=      F    optimize rotation matrix (better conditioning)
   TURBO    =      0    0=normal 1=particle mesh
   IRESTART =      0    0=no restart 2=restart with 2 vectors
   NREBOOT  =      0    no. of reboots
   NMIN     =      0    reboot dimension
   EREF     =   0.00    reference energy to select bands
   IMIX   =      4    mixing-type and parameters
     AMIX     =   0.40;   BMIX     =  1.00
     AMIX_MAG =   1.60;   BMIX_MAG =  1.00
     AMIN     =   0.10
     WC   =   100.;   INIMIX=   1;  MIXPRE=   1;  MAXMIX= -45

 Intra band minimization:
   WEIMIN = 0.0010     energy-eigenvalue tresh-hold
   EBREAK =  0.83E-06  absolut break condition
   DEPER  =   0.30     relativ break condition  

   TIME   =   0.40     timestep for ELM

  volume/ion in A,a.u.               =      16.93       114.24
  Fermi-wavevector in a.u.,A,eV,Ry     =   1.326202  2.506158 23.930072  1.758811
  Thomas-Fermi vector in A             =   2.455606
 
 Write flags
   LWAVE        =      F    write WAVECAR
   LDOWNSAMPLE  =      F    k-point downsampling of WAVECAR
   LCHARG       =      F    write CHGCAR
   LVTOT        =      F    write LOCPOT, total local potential
   LVHAR        =      F    write LOCPOT, Hartree potential only
   LELF         =      F    write electronic localiz. function (ELF)
   LORBIT       =      0    0 simple, 1 ext, 2 COOP (PROOUT), +10 PAW based schemes


 Dipole corrections
   LMONO  =      F    monopole corrections only (constant potential shift)
   LDIPOL =      F    correct potential (dipole corrections)
   IDIPOL =      0    1-x, 2-y, 3-z, 4-all directions 
   EPSILON=  1.0000000 bulk dielectric constant

 Exchange correlation treatment:
   GGA     =    PE    GGA type
   LEXCH   =     8    internal setting for exchange type
   LIBXC   =     F    Libxc                    
   VOSKOWN =     0    Vosko Wilk Nusair interpolation
   LHFCALC =     F    Hartree Fock is set to
   LHFONE  =     F    Hartree Fock one center treatment
   AEXX    =    0.0000 exact exchange contribution

 Linear response parameters
   LEPSILON=     F    determine dielectric tensor
   LRPA    =     F    only Hartree local field effects (RPA)
   LNABLA  =     F    use nabla operator in PAW spheres
   LVEL    =     F    velocity operator in full k-point grid
   CSHIFT  =0.1000    complex shift for real part using Kramers Kronig
   OMEGAMAX=  -1.0    maximum frequency
   DEG_THRESHOLD= 0.2000000E-02 threshold for treating states as degnerate
   RTIME   =   -0.100 relaxation time in fs
  (WPLASMAI=    0.000 imaginary part of plasma frequency in eV, 0.658/RTIME)
   DFIELD  = 0.0000000 0.0000000 0.0000000 field for delta impulse in time
 
  Optional k-point grid parameters
   LKPOINTS_OPT  =     F    use optional k-point grid
   KPOINTS_OPT_MODE=     1    mode for optional k-point grid
 
 Orbital magnetization related:
   ORBITALMAG=     F  switch on orbital magnetization
   LCHIMAG   =     F  perturbation theory with respect to B field
   DQ        =  0.001000  dq finite difference perturbation B field
   LLRAUG    =     F  two centre corrections for induced B field



--------------------------------------------------------------------------------------------------------


 conjugate gradient relaxation of ions
 charge density and potential will be updated during run
 spin polarized calculation
 Variant of blocked Davidson
 Davidson routine will perform the subspace rotation
 perform sub-space diagonalisation
    after iterative eigenvector-optimisation
 modified Broyden-mixing scheme, WC =      100.0
 initial mixing is a Kerker type mixing with AMIX =  0.4000 and BMIX =      1.0000
 Hartree-type preconditioning will be used
 using additional bands           15
 reciprocal scheme for non local part
 use partial core corrections
 calculate Harris-corrections to forces 
   (improved forces if not selfconsistent)
 use gradient corrections 
 use of overlap-Matrix (Vanderbilt PP)
 Methfessel and Paxton  Order N= 1 SIGMA  =   0.20


--------------------------------------------------------------------------------------------------------


  energy-cutoff  :      400.00
  volume of cell :      169.29
      direct lattice vectors                 reciprocal lattice vectors
     2.566797733  0.000000000  0.000000000     0.389590495 -0.224930177  0.000000000
     1.283398867  2.222912043  0.000000000     0.000000000  0.449860355  0.000000000
     0.000000000  0.000000000 29.670471191     0.000000000  0.000000000  0.033703543

  length of vectors
     2.566797733  2.566797733 29.670471191     0.449860355  0.449860355  0.033703543


 
 k-points in units of 2pi/SCALE and weight: Auto-mesh                               
   0.00000000  0.00000000  0.00000000       0.111
   0.12986350 -0.07497673  0.00000000       0.444
   0.00000000  0.14995345  0.00000000       0.222
  -0.12986350  0.22493018  0.00000000       0.222
 
 k-points in reciprocal lattice and weights: Auto-mesh                               
   0.00000000  0.00000000  0.00000000       0.111
   0.33333333  0.00000000  0.00000000       0.444
   0.00000000  0.33333333  0.00000000       0.222
  -0.33333333  0.33333333  0.00000000       0.222
 
 position of ions in fractional coordinates (direct lattice) 
   0.00000000  0.00000000  0.00000000
   0.33333333  0.33333333  0.07063526
   0.66666667  0.66666667  0.13908594
   0.00000000  0.00000000  0.20816512
   0.33333333  0.33333333  0.27656240
   0.66666667  0.66666667  0.34556034
   0.00000000  0.00000000  0.41400593
   0.33333333  0.33333333  0.48139269
   0.33333333  0.33333333  0.53425930
   0.16553542  0.66892916  0.53425930
 
 position of ions in cartesian coordinates  (Angst):
   0.00000000  0.00000000  0.00000000
   1.28339887  0.74097068  2.09578157
   2.56679773  1.48194136  4.12674532
   0.00000000  0.00000000  6.17635708
   1.28339887  0.74097068  8.20573658
   2.56679773  1.48194136 10.25293808
   0.00000000  0.00000000 12.28375114
   1.28339887  0.74097068 14.28314809
   1.28339887  0.74097068 15.85172525
   1.28339887  1.48697068 15.85172525
 


--------------------------------------------------------------------------------------------------------


 k-point   1 :   0.0000 0.0000 0.0000  plane waves:    3091
 k-point   2 :   0.3333 0.0000 0.0000  plane waves:    3081
 k-point   3 :   0.0000 0.3333 0.0000  plane waves:    3081
 k-point   4 :  -0.3333 0.3333 0.0000  plane waves:    3096

 maximum and minimum number of plane-waves per node :       634      594

 maximum number of plane-waves:      3096
 maximum index in each direction: 
   IXMAX=    4   IYMAX=    4   IZMAX=   48
   IXMIN=   -4   IYMIN=   -4   IZMIN=  -48


 parallel 3D FFT for wavefunctions:
    minimum data exchange during FFTs selected (reduces bandwidth)
 parallel 3D FFT for charge:
    minimum data exchange during FFTs selected (reduces bandwidth)


 total amount of memory used by VASP MPI-rank0    34706. kBytes
=======================================================================

   base      :      30000. kBytes
   nonl-proj :        813. kBytes
   fftplans  :        716. kBytes
   grid      :       1856. kBytes
   one-center:         62. kBytes
   wavefun   :       1259. kBytes
 
     INWAV:  cpu time      0.0000: real time      0.0004
 Broyden mixing: mesh for mixing (old mesh)
   NGX =  9   NGY =  9   NGZ = 97
  (NGX  = 28   NGY  = 28   NGZ  =300)
  gives a total of   7857 points

 initial charge density was supplied:
 charge density of overlapping atoms calculated
 number of electron      90.0000000 magnetization      10.0000000
 keeping initial charge density in first step


--------------------------------------------------------------------------------------------------------


 Maximum index for augmentation-charges          479 (set IRDMAX)


--------------------------------------------------------------------------------------------------------


 First call to EWALD:  gamma=   0.320
 Maximum number of real-space cells 6x 6x 1
 Maximum number of reciprocal cells 2x 2x13

    FEWALD:  cpu time      0.0020: real time      0.0020


--------------------------------------- Iteration      1(   1)  ---------------------------------------


    POTLOK:  cpu time      0.0223: real time      0.0226
    SETDIJ:  cpu time      0.0068: real time      0.0068
     EDDAV:  cpu time      0.2852: real time      0.2876
       DOS:  cpu time      0.0012: real time      0.0012
    --------------------------------------------
      LOOP:  cpu time      0.3156: real time      0.3183

 eigenvalue-minimisations  :   960
 total energy-change (2. order) : 0.7998007E+03  (-0.3353878E+04)
 number of electron      90.0000000 magnetization      10.0000000
 augmentation part       90.0000000 magnetization      10.0000000

 Free energy of the ion-electron system (eV)
  ---------------------------------------------------
  alpha Z        PSCENC =       285.34744303
  Ewald energy   TEWEN  =     52658.86310975
  -Hartree energ DENC   =    -63706.27857187
  -exchange      EXHF   =         0.00000000
  -V(xc)+E(xc)   XCENC  =       372.99915854
  PAW double counting   =      9828.36862813   -10674.97285505
  entropy T*S    EENTRO =        -0.00919961
  eigenvalues    EBANDS =       882.86460888
  atomic energy  EATOM  =     11152.61838693
  Solvation  Ediel_sol  =         0.00000000
  ---------------------------------------------------
  free energy    TOTEN  =       799.80070872 eV

  energy without entropy =      799.80990833  energy(sigma->0) =      799.80377526


--------------------------------------------------------------------------------------------------------




--------------------------------------- Iteration      1(   2)  ---------------------------------------


     EDDAV:  cpu time      0.2739: real time      0.2769
       DOS:  cpu time      0.0008: real time      0.0008
    --------------------------------------------
      LOOP:  cpu time      0.2747: real time      0.2777

 eigenvalue-minimisations  :   960
 total energy-change (2. order) :-0.7255666E+03  (-0.6940275E+03)
 number of electron      90.0000000 magnetization      10.0000000
 augmentation part       90.0000000 magnetization      10.0000000

 Free energy of the ion-electron system (eV)
  ---------------------------------------------------
  alpha Z        PSCENC =       285.34744303
  Ewald energy   TEWEN  =     52658.86310975
  -Hartree energ DENC   =    -63706.27857187
  -exchange      EXHF   =         0.00000000
  -V(xc)+E(xc)   XCENC  =       372.99915854
  PAW double counting   =      9828.36862813   -10674.97285505
  entropy T*S    EENTRO =         0.01380985
  eigenvalues    EBANDS =       157.27501608
  atomic energy  EATOM  =     11152.61838693
  Solvation  Ediel_sol  =         0.00000000
  ---------------------------------------------------
  free energy    TOTEN  =        74.23412538 eV

  energy without entropy =       74.22031554  energy(sigma->0) =       74.22952210


--------------------------------------------------------------------------------------------------------




--------------------------------------- Iteration      1(   3)  ---------------------------------------


     EDDAV:  cpu time      0.2794: real time      0.2818
       DOS:  cpu time      0.0009: real time      0.0009
    --------------------------------------------
      LOOP:  cpu time      0.2802: real time      0.2826

 eigenvalue-minimisations  :   996
 total energy-change (2. order) :-0.1075270E+03  (-0.1010891E+03)
 number of electron      90.0000000 magnetization      10.0000000
 augmentation part       90.0000000 magnetization      10.0000000

 Free energy of the ion-electron system (eV)
  ---------------------------------------------------
  alpha Z        PSCENC =       285.34744303
  Ewald energy   TEWEN  =     52658.86310975
  -Hartree energ DENC   =    -63706.27857187
  -exchange      EXHF   =         0.00000000
  -V(xc)+E(xc)   XCENC  =       372.99915854
  PAW double counting   =      9828.36862813   -10674.97285505
  entropy T*S    EENTRO =        -0.02587375
  eigenvalues    EBANDS =        49.78772763
  atomic energy  EATOM  =     11152.61838693
  Solvation  Ediel_sol  =         0.00000000
  ---------------------------------------------------
  free energy    TOTEN  =       -33.29284667 eV

  energy without entropy =      -33.26697292  energy(sigma->0) =      -33.28422209


--------------------------------------------------------------------------------------------------------




--------------------------------------- Iteration      1(   4)  ---------------------------------------


     EDDAV:  cpu time      0.2980: real time      0.3012
       DOS:  cpu time      0.0009: real time      0.0009
    --------------------------------------------
      LOOP:  cpu time      0.2988: real time      0.3021

 eigenvalue-minimisations  :  1076
 total energy-change (2. order) :-0.4589625E+01  (-0.4550526E+01)
 number of electron      90.0000000 magnetization      10.0000000
 augmentation part       90.0000000 magnetization      10.0000000

 Free energy of the ion-electron system (eV)
  ---------------------------------------------------
  alpha Z        PSCENC =       285.34744303
  Ewald energy   TEWEN  =     52658.86310975
  -Hartree energ DENC   =    -63706.27857187
  -exchange      EXHF   =         0.00000000
  -V(xc)+E(xc)   XCENC  =       372.99915854
  PAW double counting   =      9828.36862813   -10674.97285505
  entropy T*S    EENTRO =        -0.02129226
  eigenvalues    EBANDS =        45.19352163
  atomic energy  EATOM  =     11152.61838693
  Solvation  Ediel_sol  =         0.00000000
  ---------------------------------------------------
  free energy    TOTEN  =       -37.88247118 eV

  energy without entropy =      -37.86117892  energy(sigma->0) =      -37.87537376


--------------------------------------------------------------------------------------------------------




--------------------------------------- Iteration      1(   5)  ---------------------------------------


     EDDAV:  cpu time      0.3216: real time      0.3242
       DOS:  cpu time      0.0009: real time      0.0009
    CHARGE:  cpu time      0.0598: real time      0.0601
    MIXING:  cpu time      0.0017: real time      0.0017
    --------------------------------------------
      LOOP:  cpu time      0.3841: real time      0.3869

 eigenvalue-minimisations  :  1128
 total energy-change (2. order) :-0.1047304E+00  (-0.1046547E+00)
 number of electron      89.9999969 magnetization       9.3889533
 augmentation part       52.0702803 magnetization       9.2060092

 Broyden mixing:
  rms(total) = 0.28145E+01    rms(broyden)= 0.28144E+01
  rms(prec ) = 0.28912E+01
  weight for this iteration     100.00

 Free energy of the ion-electron system (eV)
  ---------------------------------------------------
  alpha Z        PSCENC =       285.34744303
  Ewald energy   TEWEN  =     52658.86310975
  -Hartree energ DENC   =    -63706.27857187
  -exchange      EXHF   =         0.00000000
  -V(xc)+E(xc)   XCENC  =       372.99915854
  PAW double counting   =      9828.36862813   -10674.97285505
  entropy T*S    EENTRO =        -0.02106490
  eigenvalues    EBANDS =        45.08856387
  atomic energy  EATOM  =     11152.61838693
  Solvation  Ediel_sol  =         0.00000000
  ---------------------------------------------------
  free energy    TOTEN  =       -37.98720158 eV

  energy without entropy =      -37.96613668  energy(sigma->0) =      -37.98017995


--------------------------------------------------------------------------------------------------------




--------------------------------------- Iteration      1(   6)  ---------------------------------------


    POTLOK:  cpu time      0.0207: real time      0.0210
    SETDIJ:  cpu time      0.0069: real time      0.0069
     EDDAV:  cpu time      0.3496: real time      0.3524
       DOS:  cpu time      0.0013: real time      0.0013
    CHARGE:  cpu time      0.0564: real time      0.0569
    MIXING:  cpu time      0.0007: real time      0.0007
    --------------------------------------------
      LOOP:  cpu time      0.4356: real time      0.4392

 eigenvalue-minimisations  :  1340
 total energy-change (2. order) :-0.7642528E-01  (-0.1299449E+02)
 number of electron      89.9999992 magnetization       9.2561628
 augmentation part       55.6821836 magnetization       6.6163877

 Broyden mixing:
  rms(total) = 0.30381E+01    rms(broyden)= 0.30379E+01
  rms(prec ) = 0.47361E+01
  weight for this iteration     100.00

 eigenvalues of (default mixing * dielectric matrix)
  average eigenvalue GAMMA=   0.5652
  0.5652

 Free energy of the ion-electron system (eV)
  ---------------------------------------------------
  alpha Z        PSCENC =       285.34744303
  Ewald energy   TEWEN  =     52658.86310975
  -Hartree energ DENC   =    -63520.21329151
  -exchange      EXHF   =         0.00000000
  -V(xc)+E(xc)   XCENC  =       365.77886175
  PAW double counting   =     10025.54349228   -10829.52055889
  entropy T*S    EENTRO =        -0.01341193
  eigenvalues    EBANDS =      -176.46765828
  atomic energy  EATOM  =     11152.61838693
  Solvation  Ediel_sol  =         0.00000000
  ---------------------------------------------------
  free energy    TOTEN  =       -38.06362686 eV

  energy without entropy =      -38.05021494  energy(sigma->0) =      -38.05915622


--------------------------------------------------------------------------------------------------------




--------------------------------------- Iteration      1(   7)  ---------------------------------------


    POTLOK:  cpu time      0.0192: real time      0.0194
    SETDIJ:  cpu time      0.0059: real time      0.0059
     EDDAV:  cpu time      0.3818: real time      0.3847
       DOS:  cpu time      0.0008: real time      0.0008
    CHARGE:  cpu time      0.0545: real time      0.0547
    MIXING:  cpu time      0.0007: real time      0.0007
    --------------------------------------------
      LOOP:  cpu time      0.4629: real time      0.4663

 eigenvalue-minimisations  :  1472
 total energy-change (2. order) :-0.4360560E+02  (-0.4654533E+02)
 number of electron      89.9999989 magnetization       9.0916980
 augmentation part       52.4353672 magnetization       6.7921532

 Broyden mixing:
  rms(total) = 0.57183E+01    rms(broyden)= 0.57181E+01
  rms(prec ) = 0.99220E+01
  weight for this iteration     100.00

 eigenvalues of (default mixing * dielectric matrix)
  average eigenvalue GAMMA=   0.3789
  0.6719  0.0859

 Free energy of the ion-electron system (eV)
  ---------------------------------------------------
  alpha Z        PSCENC =       285.34744303
  Ewald energy   TEWEN  =     52658.86310975
  -Hartree energ DENC   =    -63577.14716498
  -exchange      EXHF   =         0.00000000
  -V(xc)+E(xc)   XCENC  =       365.32470702
  PAW double counting   =     10076.79195952   -10889.52629995
  entropy T*S    EENTRO =        -0.00641328
  eigenvalues    EBANDS =      -153.93495121
  atomic energy  EATOM  =     11152.61838693
  Solvation  Ediel_sol  =         0.00000000
  ---------------------------------------------------
  free energy    TOTEN  =       -81.66922318 eV

  energy without entropy =      -81.66280989  energy(sigma->0) =      -81.66708542


--------------------------------------------------------------------------------------------------------




--------------------------------------- Iteration      1(   8)  ---------------------------------------


    POTLOK:  cpu time      0.0191: real time      0.0194
    SETDIJ:  cpu time      0.0059: real time      0.0060
     EDDAV:  cpu time      0.4092: real time      0.4127
       DOS:  cpu time      0.0009: real time      0.0009
    CHARGE:  cpu time      0.0523: real time      0.0525
    MIXING:  cpu time      0.0007: real time      0.0007
    --------------------------------------------
      LOOP:  cpu time      0.4882: real time      0.4922

 eigenvalue-minimisations  :  1608
 total energy-change (2. order) : 0.3944874E+02  (-0.3797381E+02)
 number of electron      89.9999968 magnetization       8.8109555
 augmentation part       57.1313345 magnetization       7.2080419

 Broyden mixing:
  rms(total) = 0.21904E+01    rms(broyden)= 0.21899E+01
  rms(prec ) = 0.25407E+01
  weight for this iteration     100.00

 eigenvalues of (default mixing * dielectric matrix)
  average eigenvalue GAMMA=   0.4065
  0.8337  0.3001  0.0857

 Free energy of the ion-electron system (eV)
  ---------------------------------------------------
  alpha Z        PSCENC =       285.34744303
  Ewald energy   TEWEN  =     52658.86310975
  -Hartree energ DENC   =    -63526.96348466
  -exchange      EXHF   =         0.00000000
  -V(xc)+E(xc)   XCENC  =       364.57525795
  PAW double counting   =     10108.96763285   -10928.80923374
  entropy T*S    EENTRO =        -0.03602846
  eigenvalues    EBANDS =      -156.78356801
  atomic energy  EATOM  =     11152.61838693
  Solvation  Ediel_sol  =         0.00000000
  ---------------------------------------------------
  free energy    TOTEN  =       -42.22048437 eV

  energy without entropy =      -42.18445591  energy(sigma->0) =      -42.20847488


--------------------------------------------------------------------------------------------------------




--------------------------------------- Iteration      1(   9)  ---------------------------------------


    POTLOK:  cpu time      0.0190: real time      0.0195
    SETDIJ:  cpu time      0.0058: real time      0.0058
     EDDAV:  cpu time      0.3779: real time      0.3807
       DOS:  cpu time      0.0009: real time      0.0009
    CHARGE:  cpu time      0.0540: real time      0.0543
    MIXING:  cpu time      0.0008: real time      0.0008
    --------------------------------------------
      LOOP:  cpu time      0.4584: real time      0.4620

 eigenvalue-minimisations  :  1468
 total energy-change (2. order) : 0.7270630E+01  (-0.4779611E+01)
 number of electron      89.9999960 magnetization       8.6513183
 augmentation part       57.4736717 magnetization       7.5415422

 Broyden mixing:
  rms(total) = 0.15614E+01    rms(broyden)= 0.15613E+01
  rms(prec ) = 0.16568E+01
  weight for this iteration     100.00

 eigenvalues of (default mixing * dielectric matrix)
  average eigenvalue GAMMA=   0.3965
  0.8915  0.3035  0.3035  0.0874

 Free energy of the ion-electron system (eV)
  ---------------------------------------------------
  alpha Z        PSCENC =       285.34744303
  Ewald energy   TEWEN  =     52658.86310975
  -Hartree energ DENC   =    -63439.26753868
  -exchange      EXHF   =         0.00000000
  -V(xc)+E(xc)   XCENC  =       365.19963188
  PAW double counting   =     10227.60435672   -11067.32235451
  entropy T*S    EENTRO =        -0.00156727
  eigenvalues    EBANDS =      -217.99132174
  atomic energy  EATOM  =     11152.61838693
  Solvation  Ediel_sol  =         0.00000000
  ---------------------------------------------------
  free energy    TOTEN  =       -34.94985391 eV

  energy without entropy =      -34.94828663  energy(sigma->0) =      -34.94933148


--------------------------------------------------------------------------------------------------------




--------------------------------------- Iteration      1(  10)  ---------------------------------------


    POTLOK:  cpu time      0.0191: real time      0.0208
    SETDIJ:  cpu time      0.0058: real time      0.0058
     EDDAV:  cpu time      0.3987: real time      0.4021
       DOS:  cpu time      0.0008: real time      0.0008
    CHARGE:  cpu time      0.0543: real time      0.0546
    MIXING:  cpu time      0.0010: real time      0.0010
    --------------------------------------------
      LOOP:  cpu time      0.4798: real time      0.4851

 eigenvalue-minimisations  :  1496
 total energy-change (2. order) : 0.2336197E+01  (-0.6249119E+00)
 number of electron      89.9999967 magnetization       8.4854670
 augmentation part       57.1252172 magnetization       7.3074343

 Broyden mixing:
  rms(total) = 0.12547E+01    rms(broyden)= 0.12546E+01
  rms(prec ) = 0.13133E+01
  weight for this iteration     100.00

 eigenvalues of (default mixing * dielectric matrix)
  average eigenvalue GAMMA=   0.4278
  0.9059  0.4319  0.4319  0.0873  0.2819

 Free energy of the ion-electron system (eV)
  ---------------------------------------------------
  alpha Z        PSCENC =       285.34744303
  Ewald energy   TEWEN  =     52658.86310975
  -Hartree energ DENC   =    -63508.95289888
  -exchange      EXHF   =         0.00000000
  -V(xc)+E(xc)   XCENC  =       366.03430819
  PAW double counting   =     10289.26308802   -11136.26714085
  entropy T*S    EENTRO =        -0.01088266
  eigenvalues    EBANDS =      -139.50907049
  atomic energy  EATOM  =     11152.61838693
  Solvation  Ediel_sol  =         0.00000000
  ---------------------------------------------------
  free energy    TOTEN  =       -32.61365697 eV

  energy without entropy =      -32.60277430  energy(sigma->0) =      -32.61002941


--------------------------------------------------------------------------------------------------------




--------------------------------------- Iteration      1(  11)  ---------------------------------------


    POTLOK:  cpu time      0.0201: real time      0.0203
    SETDIJ:  cpu time      0.0061: real time      0.0061
     EDDAV:  cpu time      0.3360: real time      0.3388
       DOS:  cpu time      0.0009: real time      0.0009
    CHARGE:  cpu time      0.0522: real time      0.0524
    MIXING:  cpu time      0.0008: real time      0.0009
    --------------------------------------------
      LOOP:  cpu time      0.4160: real time      0.4194

 eigenvalue-minimisations  :  1276
 total energy-change (2. order) : 0.7332028E+00  (-0.1582742E+00)
 number of electron      89.9999968 magnetization       7.8342723
 augmentation part       56.8651012 magnetization       6.6090401

 Broyden mixing:
  rms(total) = 0.11080E+01    rms(broyden)= 0.11080E+01
  rms(prec ) = 0.11607E+01
  weight for this iteration     100.00

 eigenvalues of (default mixing * dielectric matrix)
  average eigenvalue GAMMA=   0.5499
  1.0309  0.7440  0.7440  0.0873  0.3467  0.3467

 Free energy of the ion-electron system (eV)
  ---------------------------------------------------
  alpha Z        PSCENC =       285.34744303
  Ewald energy   TEWEN  =     52658.86310975
  -Hartree energ DENC   =    -63525.35570096
  -exchange      EXHF   =         0.00000000
  -V(xc)+E(xc)   XCENC  =       366.43984353
  PAW double counting   =     10331.94249884   -11182.64477671
  entropy T*S    EENTRO =        -0.01027111
  eigenvalues    EBANDS =      -119.08098745
  atomic energy  EATOM  =     11152.61838693
  Solvation  Ediel_sol  =         0.00000000
  ---------------------------------------------------
  free energy    TOTEN  =       -31.88045415 eV

  energy without entropy =      -31.87018303  energy(sigma->0) =      -31.87703044


--------------------------------------------------------------------------------------------------------




--------------------------------------- Iteration      1(  12)  ---------------------------------------


    POTLOK:  cpu time      0.0191: real time      0.0193
    SETDIJ:  cpu time      0.0058: real time      0.0058
     EDDAV:  cpu time      0.3586: real time      0.3614
       DOS:  cpu time      0.0008: real time      0.0008
    CHARGE:  cpu time      0.0529: real time      0.0531
    MIXING:  cpu time      0.0009: real time      0.0009
    --------------------------------------------
      LOOP:  cpu time      0.4381: real time      0.4414

 eigenvalue-minimisations  :  1380
 total energy-change (2. order) : 0.1319683E+01  (-0.1766225E+00)
 number of electron      89.9999972 magnetization       6.7877625
 augmentation part       56.4280241 magnetization       5.4963363

 Broyden mixing:
  rms(total) = 0.82029E+00    rms(broyden)= 0.82027E+00
  rms(prec ) = 0.85694E+00
  weight for this iteration     100.00

 eigenvalues of (default mixing * dielectric matrix)
  average eigenvalue GAMMA=   0.5935
  1.2650  0.0873  0.7907  0.6235  0.6235  0.3390  0.4254

 Free energy of the ion-electron system (eV)
  ---------------------------------------------------
  alpha Z        PSCENC =       285.34744303
  Ewald energy   TEWEN  =     52658.86310975
  -Hartree energ DENC   =    -63583.05112361
  -exchange      EXHF   =         0.00000000
  -V(xc)+E(xc)   XCENC  =       367.13771195
  PAW double counting   =     10457.04770178   -11316.42657055
  entropy T*S    EENTRO =        -0.01023852
  eigenvalues    EBANDS =       -52.08719165
  atomic energy  EATOM  =     11152.61838693
  Solvation  Ediel_sol  =         0.00000000
  ---------------------------------------------------
  free energy    TOTEN  =       -30.56077089 eV

  energy without entropy =      -30.55053237  energy(sigma->0) =      -30.55735805


--------------------------------------------------------------------------------------------------------




--------------------------------------- Iteration      1(  13)  ---------------------------------------


    POTLOK:  cpu time      0.0189: real time      0.0192
    SETDIJ:  cpu time      0.0058: real time      0.0058
     EDDAV:  cpu time      0.3951: real time      0.3986
       DOS:  cpu time      0.0008: real time      0.0008
    CHARGE:  cpu time      0.0533: real time      0.0535
    MIXING:  cpu time      0.0009: real time      0.0009
    --------------------------------------------
      LOOP:  cpu time      0.4749: real time      0.4789

 eigenvalue-minimisations  :  1540
 total energy-change (2. order) :-0.1124231E+00  (-0.2404199E+00)
 number of electron      89.9999976 magnetization       5.0637794
 augmentation part       56.1168530 magnetization       3.6380140

 Broyden mixing:
  rms(total) = 0.56297E+00    rms(broyden)= 0.56291E+00
  rms(prec ) = 0.57426E+00
  weight for this iteration     100.00

 eigenvalues of (default mixing * dielectric matrix)
  average eigenvalue GAMMA=   0.7547
  1.9466  1.1800  0.8066  0.8066  0.0873  0.4397  0.3856  0.3856

 Free energy of the ion-electron system (eV)
  ---------------------------------------------------
  alpha Z        PSCENC =       285.34744303
  Ewald energy   TEWEN  =     52658.86310975
  -Hartree energ DENC   =    -63625.46797449
  -exchange      EXHF   =         0.00000000
  -V(xc)+E(xc)   XCENC  =       367.16329246
  PAW double counting   =     10603.85625839   -11469.21398779
  entropy T*S    EENTRO =        -0.00919982
  eigenvalues    EBANDS =        -3.83052249
  atomic energy  EATOM  =     11152.61838693
  Solvation  Ediel_sol  =         0.00000000
  ---------------------------------------------------
  free energy    TOTEN  =       -30.67319403 eV

  energy without entropy =      -30.66399421  energy(sigma->0) =      -30.67012742


--------------------------------------------------------------------------------------------------------




--------------------------------------- Iteration      1(  14)  ---------------------------------------


    POTLOK:  cpu time      0.0190: real time      0.0199
    SETDIJ:  cpu time      0.0070: real time      0.0070
     EDDAV:  cpu time      0.4069: real time      0.4102
       DOS:  cpu time      0.0009: real time      0.0009
    CHARGE:  cpu time      0.0552: real time      0.0555
    MIXING:  cpu time      0.0010: real time      0.0010
    --------------------------------------------
      LOOP:  cpu time      0.4900: real time      0.4945

 eigenvalue-minimisations  :  1600
 total energy-change (2. order) :-0.2130281E+01  (-0.6782128E+00)
 number of electron      89.9999986 magnetization       4.5900357
 augmentation part       55.6156447 magnetization       3.4729951

 Broyden mixing:
  rms(total) = 0.10583E+01    rms(broyden)= 0.10580E+01
  rms(prec ) = 0.12264E+01
  weight for this iteration     100.00

 eigenvalues of (default mixing * dielectric matrix)
  average eigenvalue GAMMA=   0.6799
  1.9678  1.1381  0.8220  0.8220  0.4448  0.3842  0.3842  0.0873  0.0686

 Free energy of the ion-electron system (eV)
  ---------------------------------------------------
  alpha Z        PSCENC =       285.34744303
  Ewald energy   TEWEN  =     52658.86310975
  -Hartree energ DENC   =    -63631.36872866
  -exchange      EXHF   =         0.00000000
  -V(xc)+E(xc)   XCENC  =       366.55365789
  PAW double counting   =     10747.02141402   -11615.59136786
  entropy T*S    EENTRO =        -0.03233292
  eigenvalues    EBANDS =         3.78494318
  atomic energy  EATOM  =     11152.61838693
  Solvation  Ediel_sol  =         0.00000000
  ---------------------------------------------------
  free energy    TOTEN  =       -32.80347465 eV

  energy without entropy =      -32.77114172  energy(sigma->0) =      -32.79269700


--------------------------------------------------------------------------------------------------------




--------------------------------------- Iteration      1(  15)  ---------------------------------------


    POTLOK:  cpu time      0.0189: real time      0.0192
    SETDIJ:  cpu time      0.0058: real time      0.0058
     EDDAV:  cpu time      0.3759: real time      0.3791
       DOS:  cpu time      0.0009: real time      0.0009
    CHARGE:  cpu time      0.0564: real time      0.0566
    MIXING:  cpu time      0.0012: real time      0.0012
    --------------------------------------------
      LOOP:  cpu time      0.4590: real time      0.4628

 eigenvalue-minimisations  :  1464
 total energy-change (2. order) : 0.1297900E+01  (-0.3590759E+00)
 number of electron      89.9999974 magnetization       3.4798625
 augmentation part       56.0218603 magnetization       2.2588200

 Broyden mixing:
  rms(total) = 0.47974E+00    rms(broyden)= 0.47925E+00
  rms(prec ) = 0.50795E+00
  weight for this iteration     100.00

 eigenvalues of (default mixing * dielectric matrix)
  average eigenvalue GAMMA=   0.9580
  4.6065  1.2646  0.8104  0.8104  0.0873  0.5186  0.5082  0.3976  0.3673  0.2086

 Free energy of the ion-electron system (eV)
  ---------------------------------------------------
  alpha Z        PSCENC =       285.34744303
  Ewald energy   TEWEN  =     52658.86310975
  -Hartree energ DENC   =    -63636.04400785
  -exchange      EXHF   =         0.00000000
  -V(xc)+E(xc)   XCENC  =       367.35040357
  PAW double counting   =     10764.38820998   -11633.34433604
  entropy T*S    EENTRO =        -0.00289796
  eigenvalues    EBANDS =         9.31811395
  atomic energy  EATOM  =     11152.61838693
  Solvation  Ediel_sol  =         0.00000000
  ---------------------------------------------------
  free energy    TOTEN  =       -31.50557464 eV

  energy without entropy =      -31.50267668  energy(sigma->0) =      -31.50460865


--------------------------------------------------------------------------------------------------------




--------------------------------------- Iteration      1(  16)  ---------------------------------------


    POTLOK:  cpu time      0.0189: real time      0.0191
    SETDIJ:  cpu time      0.0058: real time      0.0058
     EDDAV:  cpu time      0.3670: real time      0.3700
       DOS:  cpu time      0.0009: real time      0.0009
    CHARGE:  cpu time      0.0548: real time      0.0550
    MIXING:  cpu time      0.0012: real time      0.0012
    --------------------------------------------
      LOOP:  cpu time      0.4485: real time      0.4520

 eigenvalue-minimisations  :  1420
 total energy-change (2. order) :-0.2143219E+01  (-0.6574620E-01)
 number of electron      89.9999973 magnetization       2.4965258
 augmentation part       56.2275459 magnetization       1.6051635

 Broyden mixing:
  rms(total) = 0.39210E+00    rms(broyden)= 0.39208E+00
  rms(prec ) = 0.42720E+00
  weight for this iteration     100.00

 eigenvalues of (default mixing * dielectric matrix)
  average eigenvalue GAMMA=   1.0947
  5.9954  1.4484  0.8423  0.8423  0.0873  0.7435  0.6464  0.4341  0.4341  0.3414
  0.2265

 Free energy of the ion-electron system (eV)
  ---------------------------------------------------
  alpha Z        PSCENC =       285.34744303
  Ewald energy   TEWEN  =     52658.86310975
  -Hartree energ DENC   =    -63630.71032256
  -exchange      EXHF   =         0.00000000
  -V(xc)+E(xc)   XCENC  =       365.29269965
  PAW double counting   =     10765.27926859   -11631.60165486
  entropy T*S    EENTRO =        -0.02086949
  eigenvalues    EBANDS =         1.28314517
  atomic energy  EATOM  =     11152.61838693
  Solvation  Ediel_sol  =         0.00000000
  ---------------------------------------------------
  free energy    TOTEN  =       -33.64879379 eV

  energy without entropy =      -33.62792431  energy(sigma->0) =      -33.64183730


--------------------------------------------------------------------------------------------------------




--------------------------------------- Iteration      1(  17)  ---------------------------------------


    POTLOK:  cpu time      0.0236: real time      0.0239
    SETDIJ:  cpu time      0.0072: real time      0.0073
     EDDAV:  cpu time      0.3710: real time      0.3742
       DOS:  cpu time      0.0008: real time      0.0009
    CHARGE:  cpu time      0.0559: real time      0.0562
    MIXING:  cpu time      0.0016: real time      0.0016
    --------------------------------------------
      LOOP:  cpu time      0.4602: real time      0.4639

 eigenvalue-minimisations  :  1420
 total energy-change (2. order) :-0.6768517E+00  (-0.1051208E+00)
 number of electron      89.9999973 magnetization       1.6917118
 augmentation part       56.2571872 magnetization       0.9477358

 Broyden mixing:
  rms(total) = 0.27777E+00    rms(broyden)= 0.27776E+00
  rms(prec ) = 0.28881E+00
  weight for this iteration     100.00

 eigenvalues of (default mixing * dielectric matrix)
  average eigenvalue GAMMA=   1.3294
  8.4956  1.8487  1.0013  1.0013  0.7660  0.7660  0.0873  0.5601  0.4297  0.4297
  0.3443  0.2234

 Free energy of the ion-electron system (eV)
  ---------------------------------------------------
  alpha Z        PSCENC =       285.34744303
  Ewald energy   TEWEN  =     52658.86310975
  -Hartree energ DENC   =    -63648.98236367
  -exchange      EXHF   =         0.00000000
  -V(xc)+E(xc)   XCENC  =       364.84897564
  PAW double counting   =     10713.60661853   -11577.40247053
  entropy T*S    EENTRO =        -0.01744550
  eigenvalues    EBANDS =        16.79210033
  atomic energy  EATOM  =     11152.61838693
  Solvation  Ediel_sol  =         0.00000000
  ---------------------------------------------------
  free energy    TOTEN  =       -34.32564549 eV

  energy without entropy =      -34.30819999  energy(sigma->0) =      -34.31983032


--------------------------------------------------------------------------------------------------------




--------------------------------------- Iteration      1(  18)  ---------------------------------------


    POTLOK:  cpu time      0.0199: real time      0.0202
    SETDIJ:  cpu time      0.0059: real time      0.0059
     EDDAV:  cpu time      0.3404: real time      0.3430
       DOS:  cpu time      0.0009: real time      0.0009
    CHARGE:  cpu time      0.0538: real time      0.0541
    MIXING:  cpu time      0.0014: real time      0.0014
    --------------------------------------------
      LOOP:  cpu time      0.4223: real time      0.4254

 eigenvalue-minimisations  :  1296
 total energy-change (2. order) :-0.7911647E+00  (-0.8147497E-01)
 number of electron      89.9999974 magnetization       1.3969676
 augmentation part       56.2573018 magnetization       0.8678213

 Broyden mixing:
  rms(total) = 0.15160E+00    rms(broyden)= 0.15157E+00
  rms(prec ) = 0.17406E+00
  weight for this iteration     100.00

 eigenvalues of (default mixing * dielectric matrix)
  average eigenvalue GAMMA=   1.3900
  9.6101  1.9685  1.1042  1.1042  0.8140  0.8140  0.0873  0.5704  0.5704  0.4299
  0.4299  0.3443  0.2232

 Free energy of the ion-electron system (eV)
  ---------------------------------------------------
  alpha Z        PSCENC =       285.34744303
  Ewald energy   TEWEN  =     52658.86310975
  -Hartree energ DENC   =    -63643.83019603
  -exchange      EXHF   =         0.00000000
  -V(xc)+E(xc)   XCENC  =       364.40445689
  PAW double counting   =     10636.89734921   -11498.54570793
  entropy T*S    EENTRO =        -0.01034673
  eigenvalues    EBANDS =         9.13869469
  atomic energy  EATOM  =     11152.61838693
  Solvation  Ediel_sol  =         0.00000000
  ---------------------------------------------------
  free energy    TOTEN  =       -35.11681019 eV

  energy without entropy =      -35.10646346  energy(sigma->0) =      -35.11336128


--------------------------------------------------------------------------------------------------------




--------------------------------------- Iteration      1(  19)  ---------------------------------------


    POTLOK:  cpu time      0.0189: real time      0.0192
    SETDIJ:  cpu time      0.0058: real time      0.0058
     EDDAV:  cpu time      0.3310: real time      0.3335
       DOS:  cpu time      0.0009: real time      0.0009
    CHARGE:  cpu time      0.0545: real time      0.0548
    MIXING:  cpu time      0.0014: real time      0.0014
    --------------------------------------------
      LOOP:  cpu time      0.4125: real time      0.4155

 eigenvalue-minimisations  :  1260
 total energy-change (2. order) :-0.5087025E+00  (-0.4495780E-01)
 number of electron      89.9999975 magnetization       1.1639527
 augmentation part       56.1254103 magnetization       0.7196278

 Broyden mixing:
  rms(total) = 0.11583E+00    rms(broyden)= 0.11581E+00
  rms(prec ) = 0.12197E+00
  weight for this iteration     100.00

 eigenvalues of (default mixing * dielectric matrix)
  average eigenvalue GAMMA=   1.4974
 11.1855  2.3867  1.0123  1.0123  1.0318  0.8585  0.8585  0.0873  0.5442  0.5442
  0.4369  0.4369  0.3447  0.2232

 Free energy of the ion-electron system (eV)
  ---------------------------------------------------
  alpha Z        PSCENC =       285.34744303
  Ewald energy   TEWEN  =     52658.86310975
  -Hartree energ DENC   =    -63649.17039371
  -exchange      EXHF   =         0.00000000
  -V(xc)+E(xc)   XCENC  =       364.26990698
  PAW double counting   =     10614.63661238   -11476.38061693
  entropy T*S    EENTRO =        -0.01091196
  eigenvalues    EBANDS =        14.20095083
  atomic energy  EATOM  =     11152.61838693
  Solvation  Ediel_sol  =         0.00000000
  ---------------------------------------------------
  free energy    TOTEN  =       -35.62551271 eV

  energy without entropy =      -35.61460075  energy(sigma->0) =      -35.62187539


--------------------------------------------------------------------------------------------------------




--------------------------------------- Iteration      1(  20)  ---------------------------------------


    POTLOK:  cpu time      0.0189: real time      0.0195
    SETDIJ:  cpu time      0.0058: real time      0.0058
     EDDAV:  cpu time      0.3507: real time      0.3534
       DOS:  cpu time      0.0009: real time      0.0009
    CHARGE:  cpu time      0.0545: real time      0.0547
    MIXING:  cpu time      0.0017: real time      0.0017
    --------------------------------------------
      LOOP:  cpu time      0.4324: real time      0.4360

 eigenvalue-minimisations  :  1348
 total energy-change (2. order) :-0.2458163E+00  (-0.1547642E-01)
 number of electron      89.9999975 magnetization       0.9439005
 augmentation part       56.0785814 magnetization       0.5524321

 Broyden mixing:
  rms(total) = 0.94322E-01    rms(broyden)= 0.94316E-01
  rms(prec ) = 0.98357E-01
  weight for this iteration     100.00

 eigenvalues of (default mixing * dielectric matrix)
  average eigenvalue GAMMA=   1.5473
 11.9453  2.8320  1.3301  1.1666  1.1666  0.7995  0.7995  0.0873  0.5783  0.5783
  0.3445  0.4327  0.4327  0.4926  0.2232

 Free energy of the ion-electron system (eV)
  ---------------------------------------------------
  alpha Z        PSCENC =       285.34744303
  Ewald energy   TEWEN  =     52658.86310975
  -Hartree energ DENC   =    -63646.96456740
  -exchange      EXHF   =         0.00000000
  -V(xc)+E(xc)   XCENC  =       364.12680107
  PAW double counting   =     10606.52357476   -11468.71513515
  entropy T*S    EENTRO =        -0.01323985
  eigenvalues    EBANDS =        12.34229786
  atomic energy  EATOM  =     11152.61838693
  Solvation  Ediel_sol  =         0.00000000
  ---------------------------------------------------
  free energy    TOTEN  =       -35.87132902 eV

  energy without entropy =      -35.85808917  energy(sigma->0) =      -35.86691573


--------------------------------------------------------------------------------------------------------




--------------------------------------- Iteration      1(  21)  ---------------------------------------


    POTLOK:  cpu time      0.0189: real time      0.0191
    SETDIJ:  cpu time      0.0060: real time      0.0060
     EDDAV:  cpu time      0.3104: real time      0.3130
       DOS:  cpu time      0.0009: real time      0.0009
    CHARGE:  cpu time      0.0544: real time      0.0546
    MIXING:  cpu time      0.0016: real time      0.0016
    --------------------------------------------
      LOOP:  cpu time      0.3921: real time      0.3952

 eigenvalue-minimisations  :  1160
 total energy-change (2. order) :-0.1475498E+00  (-0.1187457E-01)
 number of electron      89.9999974 magnetization       0.8195014
 augmentation part       56.1445557 magnetization       0.5103200

 Broyden mixing:
  rms(total) = 0.77114E-01    rms(broyden)= 0.77097E-01
  rms(prec ) = 0.78488E-01
  weight for this iteration     100.00

 eigenvalues of (default mixing * dielectric matrix)
  average eigenvalue GAMMA=   1.5617
 12.4171  3.0355  1.7323  1.1316  1.1316  0.8203  0.8203  0.0873  0.6626  0.6626
  0.3446  0.4330  0.4330  0.5262  0.5262  0.2232

 Free energy of the ion-electron system (eV)
  ---------------------------------------------------
  alpha Z        PSCENC =       285.34744303
  Ewald energy   TEWEN  =     52658.86310975
  -Hartree energ DENC   =    -63637.48411405
  -exchange      EXHF   =         0.00000000
  -V(xc)+E(xc)   XCENC  =       363.87731977
  PAW double counting   =     10595.39237673   -11457.40263396
  entropy T*S    EENTRO =        -0.01906993
  eigenvalues    EBANDS =         2.78830290
  atomic energy  EATOM  =     11152.61838693
  Solvation  Ediel_sol  =         0.00000000
  ---------------------------------------------------
  free energy    TOTEN  =       -36.01887884 eV

  energy without entropy =      -35.99980891  energy(sigma->0) =      -36.01252220


--------------------------------------------------------------------------------------------------------




--------------------------------------- Iteration      1(  22)  ---------------------------------------


    POTLOK:  cpu time      0.0189: real time      0.0191
    SETDIJ:  cpu time      0.0058: real time      0.0058
     EDDAV:  cpu time      0.3440: real time      0.3470
       DOS:  cpu time      0.0009: real time      0.0009
    CHARGE:  cpu time      0.0544: real time      0.0546
    MIXING:  cpu time      0.0017: real time      0.0017
    --------------------------------------------
      LOOP:  cpu time      0.4256: real time      0.4291

 eigenvalue-minimisations  :  1320
 total energy-change (2. order) :-0.4873352E-01  (-0.5176335E-02)
 number of electron      89.9999974 magnetization       0.5857665
 augmentation part       56.1396797 magnetization       0.2903426

 Broyden mixing:
  rms(total) = 0.62248E-01    rms(broyden)= 0.62240E-01
  rms(prec ) = 0.66672E-01
  weight for this iteration     100.00

 eigenvalues of (default mixing * dielectric matrix)
  average eigenvalue GAMMA=   1.6367
 13.0887  3.7526  2.1241  1.1443  1.1443  1.1189  0.8100  0.8100  0.0873  0.6567
  0.5998  0.5998  0.3446  0.4330  0.4330  0.4535  0.2232

 Free energy of the ion-electron system (eV)
  ---------------------------------------------------
  alpha Z        PSCENC =       285.34744303
  Ewald energy   TEWEN  =     52658.86310975
  -Hartree energ DENC   =    -63639.23583219
  -exchange      EXHF   =         0.00000000
  -V(xc)+E(xc)   XCENC  =       363.83722181
  PAW double counting   =     10600.79056361   -11463.11810653
  entropy T*S    EENTRO =        -0.02039826
  eigenvalues    EBANDS =         4.84999948
  atomic energy  EATOM  =     11152.61838693
  Solvation  Ediel_sol  =         0.00000000
  ---------------------------------------------------
  free energy    TOTEN  =       -36.06761237 eV

  energy without entropy =      -36.04721411  energy(sigma->0) =      -36.06081295


--------------------------------------------------------------------------------------------------------




--------------------------------------- Iteration      1(  23)  ---------------------------------------


    POTLOK:  cpu time      0.0188: real time      0.0190
    SETDIJ:  cpu time      0.0058: real time      0.0058
     EDDAV:  cpu time      0.3151: real time      0.3174
       DOS:  cpu time      0.0009: real time      0.0009
    CHARGE:  cpu time      0.0543: real time      0.0545
    MIXING:  cpu time      0.0019: real time      0.0019
    --------------------------------------------
      LOOP:  cpu time      0.3966: real time      0.3995

 eigenvalue-minimisations  :  1188
 total energy-change (2. order) :-0.2616256E-01  (-0.6126236E-02)
 number of electron      89.9999975 magnetization       0.4407186
 augmentation part       56.1357339 magnetization       0.2204047

 Broyden mixing:
  rms(total) = 0.48966E-01    rms(broyden)= 0.48956E-01
  rms(prec ) = 0.50122E-01
  weight for this iteration     100.00

 eigenvalues of (default mixing * dielectric matrix)
  average eigenvalue GAMMA=   1.6369
 13.4634  4.0022  2.3926  1.1288  1.1288  0.9918  0.9918  0.8033  0.8033  0.0873
  0.6348  0.5828  0.5828  0.2232  0.3446  0.4325  0.4325  0.4367

 Free energy of the ion-electron system (eV)
  ---------------------------------------------------
  alpha Z        PSCENC =       285.34744303
  Ewald energy   TEWEN  =     52658.86310975
  -Hartree energ DENC   =    -63636.96310862
  -exchange      EXHF   =         0.00000000
  -V(xc)+E(xc)   XCENC  =       363.85249705
  PAW double counting   =     10605.57082383   -11468.37694177
  entropy T*S    EENTRO =        -0.02279037
  eigenvalues    EBANDS =         3.01680524
  atomic energy  EATOM  =     11152.61838693
  Solvation  Ediel_sol  =         0.00000000
  ---------------------------------------------------
  free energy    TOTEN  =       -36.09377493 eV

  energy without entropy =      -36.07098456  energy(sigma->0) =      -36.08617814


--------------------------------------------------------------------------------------------------------




--------------------------------------- Iteration      1(  24)  ---------------------------------------


    POTLOK:  cpu time      0.0188: real time      0.0191
    SETDIJ:  cpu time      0.0058: real time      0.0058
     EDDAV:  cpu time      0.3291: real time      0.3320
       DOS:  cpu time      0.0009: real time      0.0009
    CHARGE:  cpu time      0.0543: real time      0.0545
    MIXING:  cpu time      0.0019: real time      0.0019
    --------------------------------------------
      LOOP:  cpu time      0.4108: real time      0.4141

 eigenvalue-minimisations  :  1252
 total energy-change (2. order) :-0.6859024E-01  (-0.2617778E-02)
 number of electron      89.9999974 magnetization       0.3113880
 augmentation part       56.1415947 magnetization       0.1252142

 Broyden mixing:
  rms(total) = 0.36323E-01    rms(broyden)= 0.36313E-01
  rms(prec ) = 0.37142E-01
  weight for this iteration     100.00

 eigenvalues of (default mixing * dielectric matrix)
  average eigenvalue GAMMA=   1.7376
 14.1165  5.1122  2.6333  1.7922  1.1195  1.1195  1.0287  0.8103  0.8103  0.0873
  0.6706  0.6706  0.5849  0.5849  0.2232  0.3446  0.4326  0.4326  0.4408

 Free energy of the ion-electron system (eV)
  ---------------------------------------------------
  alpha Z        PSCENC =       285.34744303
  Ewald energy   TEWEN  =     52658.86310975
  -Hartree energ DENC   =    -63637.30593975
  -exchange      EXHF   =         0.00000000
  -V(xc)+E(xc)   XCENC  =       363.77380356
  PAW double counting   =     10612.70041813   -11475.59719484
  entropy T*S    EENTRO =        -0.02429590
  eigenvalues    EBANDS =         3.46190393
  atomic energy  EATOM  =     11152.61838693
  Solvation  Ediel_sol  =         0.00000000
  ---------------------------------------------------
  free energy    TOTEN  =       -36.16236517 eV

  energy without entropy =      -36.13806926  energy(sigma->0) =      -36.15426653


--------------------------------------------------------------------------------------------------------




--------------------------------------- Iteration      1(  25)  ---------------------------------------


    POTLOK:  cpu time      0.0189: real time      0.0191
    SETDIJ:  cpu time      0.0058: real time      0.0058
     EDDAV:  cpu time      0.3083: real time      0.3106
       DOS:  cpu time      0.0009: real time      0.0009
    CHARGE:  cpu time      0.0561: real time      0.0563
    MIXING:  cpu time      0.0021: real time      0.0021
    --------------------------------------------
      LOOP:  cpu time      0.3921: real time      0.3949

 eigenvalue-minimisations  :  1152
 total energy-change (2. order) :-0.3227834E+00  (-0.2341887E-02)
 number of electron      89.9999974 magnetization       0.2077094
 augmentation part       56.1550149 magnetization       0.0730615

 Broyden mixing:
  rms(total) = 0.33242E-01    rms(broyden)= 0.33230E-01
  rms(prec ) = 0.37566E-01
  weight for this iteration     100.00

 eigenvalues of (default mixing * dielectric matrix)
  average eigenvalue GAMMA=   1.8810
 14.9487  6.8578  3.1021  2.2079  1.1147  1.1147  1.0880  1.0880  0.8087  0.8087
  0.0873  0.7300  0.5924  0.5924  0.6047  0.2232  0.3446  0.4325  0.4325  0.4410

 Free energy of the ion-electron system (eV)
  ---------------------------------------------------
  alpha Z        PSCENC =       285.34744303
  Ewald energy   TEWEN  =     52658.86310975
  -Hartree energ DENC   =    -63636.15428418
  -exchange      EXHF   =         0.00000000
  -V(xc)+E(xc)   XCENC  =       363.46783408
  PAW double counting   =     10614.27084981   -11476.99581012
  entropy T*S    EENTRO =        -0.02401176
  eigenvalues    EBANDS =         2.12133388
  atomic energy  EATOM  =     11152.61838693
  Solvation  Ediel_sol  =         0.00000000
  ---------------------------------------------------
  free energy    TOTEN  =       -36.48514858 eV

  energy without entropy =      -36.46113682  energy(sigma->0) =      -36.47714466


--------------------------------------------------------------------------------------------------------




[...]
      4      -2.8984      1.00000
      5      -2.4659      1.00000
      6      -2.0768      1.00000
      7      -1.7461      1.00000
      8      -1.5628      1.00000
      9      -1.4932      1.00000
     10      -1.3838      1.00000
     11      -1.3288      1.00000
     12      -1.1184      1.00000
     13      -0.9331      1.00000
     14      -0.7809      1.00000
     15      -0.6038      1.00000
     16      -0.5803      1.00000
     17      -0.4380      1.00000
     18      -0.3772      1.00000
     19      -0.3275      1.00000
     20      -0.2300      1.00000
     21      -0.2287      1.00000
     22      -0.1524      1.00000
     23      -0.0282      1.00000
     24       0.0072      1.00000
     25       0.1481      1.00000
     26       0.2532      1.00000
     27       0.3444      1.00000
     28       0.4601      1.00000
     29       0.4955      1.00000
     30       0.6201      1.00000
     31       0.6349      1.00000
     32       0.7116      1.00000
     33       0.7342      1.00000
     34       0.7824      1.00000
     35       0.8150      1.00000
     36       0.8612      1.00000
     37       0.8656      1.00000
     38       0.9063      1.00000
     39       1.0074      1.00000
     40       1.0112      1.00000
     41       1.1070      1.00000
     42       1.2279      1.00000
     43       1.2740      1.00000
     44       1.2861      1.00000
     45       1.4574      1.00000
     46       2.0865      0.79789
     47       3.2024     -0.00000
     48       4.5610     -0.00000
     49       6.0440     -0.00000
     50       7.2115     -0.00000
     51       8.1919      0.00000
     52       9.1137      0.00000
     53       9.5327      0.00000
     54       9.9440      0.00000
     55      10.0623      0.00000
     56      10.3956      0.00000
     57      10.9616      0.00000
     58      11.5242      0.00000
     59      11.8085      0.00000
     60      12.1234      0.00000

 k-point     4 :      -0.3333    0.3333    0.0000
  band No.  band energies     occupation 
      1      -3.0218      1.00000
      2      -1.4844      1.00000
      3      -1.4722      1.00000
      4      -1.4688      1.00000
      5      -1.4017      1.00000
      6      -1.3749      1.00000
      7      -1.3533      1.00000
      8      -1.3217      1.00000
      9      -1.3080      1.00000
     10      -1.3019      1.00000
     11      -1.2745      1.00000
     12      -1.2505      1.00000
     13      -1.2032      1.00000
     14      -1.0557      1.00000
     15      -1.0189      1.00000
     16      -0.9338      1.00000
     17      -0.6433      1.00000
     18      -0.5985      1.00000
     19      -0.5903      1.00000
     20      -0.5238      1.00000
     21      -0.4079      1.00000
     22      -0.2669      1.00000
     23       0.0263      1.00000
     24       0.0325      1.00000
     25       0.3182      1.00000
     26       0.3329      1.00000
     27       0.4050      1.00000
     28       0.4053      1.00000
     29       0.4379      1.00000
     30       0.4456      1.00000
     31       0.4587      1.00000
     32       0.6702      1.00000
     33       0.8137      1.00000
     34       0.9250      1.00000
     35       0.9358      1.00000
     36       0.9467      1.00000
     37       1.0372      1.00000
     38       1.0544      1.00000
     39       1.0663      1.00000
     40       1.1599      1.00000
     41       1.2304      1.00000
     42       5.8404     -0.00000
     43       5.8493     -0.00000
     44       5.8704     -0.00000
     45       6.0125     -0.00000
     46       6.0475     -0.00000
     47       6.2326     -0.00000
     48       6.4318     -0.00000
     49       6.7948     -0.00000
     50       7.1856     -0.00000
     51       7.7344      0.00000
     52       7.7608      0.00000
     53       7.8657      0.00000
     54       8.2868      0.00000
     55       8.3282      0.00000
     56       8.5935      0.00000
     57       9.2767      0.00000
     58       9.4954      0.00000
     59      10.2396      0.00000
     60      10.5830      0.00000


--------------------------------------------------------------------------------------------------------


 soft charge-density along one line, spin component           1
         0         1         2         3         4         5         6         7         8         9
 total charge-density along one line
 
 soft charge-density along one line, spin component           2
         0         1         2         3         4         5         6         7         8         9
 total charge-density along one line
 
 pseudopotential strength for first ion, spin component:           1
 -5.951  -0.000   0.000  -0.004   0.000  -2.417   0.000  -0.000
 -0.000  -6.004   0.000   0.000  -0.004   0.000  -2.381  -0.000
  0.000   0.000  -6.029   0.000   0.000  -0.000  -0.000  -2.364
 -0.004   0.000   0.000  -6.004  -0.000   0.003  -0.000  -0.000
  0.000  -0.004   0.000  -0.000  -5.951  -0.000   0.003  -0.000
 -2.417   0.000  -0.000   0.003  -0.000   8.681  -0.000   0.000
  0.000  -2.381  -0.000  -0.000   0.003  -0.000   8.658   0.000
 -0.000  -0.000  -2.364  -0.000  -0.000   0.000   0.000   8.646
  0.003  -0.000  -0.000  -2.381   0.000  -0.002  -0.000  -0.000
 -0.000   0.003  -0.000   0.000  -2.417   0.000  -0.002   0.000
  0.000  -0.000   0.003   0.000   0.000   0.000  -0.000   0.001
  0.000  -0.000   0.005   0.000   0.000   0.000  -0.000   0.003
  0.000  -0.013  -0.000  -0.000   0.000  -0.000   0.012   0.000
 -0.000   0.000  -0.012   0.000  -0.000  -0.000  -0.000   0.010
  0.000  -0.000  -0.000  -0.013   0.000   0.000  -0.000   0.000
  0.000  -0.015  -0.000   0.000   0.000  -0.000   0.014   0.000
  0.000   0.000  -0.013   0.000  -0.000  -0.000  -0.000   0.011
  0.000   0.000  -0.000  -0.015   0.000   0.000  -0.000   0.000
 pseudopotential strength for first ion, spin component:           2
 -5.951  -0.000   0.000  -0.004   0.000  -2.417   0.000  -0.000
 -0.000  -6.004   0.000   0.000  -0.004   0.000  -2.381  -0.000
  0.000   0.000  -6.029   0.000   0.000  -0.000  -0.000  -2.364
 -0.004   0.000   0.000  -6.004  -0.000   0.003  -0.000  -0.000
  0.000  -0.004   0.000  -0.000  -5.951  -0.000   0.003  -0.000
 -2.417   0.000  -0.000   0.003  -0.000   8.681  -0.000   0.000
  0.000  -2.381  -0.000  -0.000   0.003  -0.000   8.658   0.000
 -0.000  -0.000  -2.364  -0.000  -0.000   0.000   0.000   8.646
  0.003  -0.000  -0.000  -2.381   0.000  -0.002  -0.000  -0.000
 -0.000   0.003  -0.000   0.000  -2.417   0.000  -0.002   0.000
  0.000  -0.000   0.003   0.000   0.000   0.000  -0.000   0.001
  0.000  -0.000   0.005   0.000   0.000   0.000  -0.000   0.003
  0.000  -0.013  -0.000  -0.000   0.000  -0.000   0.012   0.000
 -0.000   0.000  -0.012   0.000  -0.000  -0.000  -0.000   0.010
  0.000  -0.000  -0.000  -0.013   0.000   0.000  -0.000   0.000
  0.000  -0.015  -0.000   0.000   0.000  -0.000   0.014   0.000
  0.000   0.000  -0.013   0.000  -0.000  -0.000  -0.000   0.011
  0.000   0.000  -0.000  -0.015   0.000   0.000  -0.000   0.000
 total augmentation occupancy for first ion, spin component:           1
  1.932   0.000  -0.000  -0.004  -0.000  -0.017  -0.000   0.000   0.005   0.000   0.000  -0.000  -0.000  -0.000   0.006   0.000
  0.000   1.928   0.000   0.000  -0.004  -0.000  -0.024  -0.000  -0.000   0.005  -0.000   0.000   0.008  -0.000   0.000  -0.013
 -0.000   0.000   1.915   0.000   0.000   0.000  -0.000  -0.018  -0.000  -0.000  -0.065   0.028  -0.000   0.076  -0.000  -0.000
 -0.004   0.000   0.000   1.928  -0.000   0.005  -0.000  -0.000  -0.024   0.000  -0.000   0.000   0.000  -0.000   0.008  -0.000
 -0.000  -0.004   0.000  -0.000   1.932   0.000   0.005  -0.000   0.000  -0.016  -0.000   0.000   0.006  -0.000   0.000  -0.001
 -0.017  -0.000   0.000   0.005   0.000   0.013  -0.000  -0.000   0.000   0.000   0.000  -0.000  -0.000  -0.000   0.004   0.000
 -0.000  -0.024  -0.000  -0.000   0.005  -0.000   0.010   0.000   0.000   0.000  -0.000   0.000   0.019  -0.000   0.000  -0.001
  0.000  -0.000  -0.018  -0.000  -0.000  -0.000   0.000   0.012  -0.000   0.000  -0.022   0.001  -0.000   0.021  -0.000  -0.000
  0.005  -0.000  -0.000  -0.024   0.000   0.000   0.000  -0.000   0.010   0.000  -0.000   0.000   0.000  -0.000   0.019  -0.000
  0.000   0.005  -0.000   0.000  -0.016   0.000   0.000   0.000   0.000   0.013  -0.000   0.000   0.004  -0.000   0.000  -0.000
  0.000  -0.000  -0.065  -0.000  -0.000   0.000  -0.000  -0.022  -0.000  -0.000   1.759  -0.150  -0.000   0.176  -0.000   0.000
 -0.000   0.000   0.028   0.000   0.000  -0.000   0.000   0.001   0.000   0.000  -0.150   0.018   0.000  -0.025   0.000  -0.000
 -0.000   0.008  -0.000   0.000   0.006  -0.000   0.019  -0.000   0.000   0.004  -0.000   0.000   0.235  -0.000   0.000  -0.015
 -0.000  -0.000   0.076  -0.000  -0.000  -0.000  -0.000   0.021  -0.000  -0.000   0.176  -0.025  -0.000   0.115  -0.000   0.000
  0.006   0.000  -0.000   0.008   0.000   0.004   0.000  -0.000   0.019   0.000  -0.000   0.000   0.000  -0.000   0.235  -0.000
  0.000  -0.013  -0.000  -0.000  -0.001   0.000  -0.001  -0.000  -0.000  -0.000   0.000  -0.000  -0.015   0.000  -0.000   0.001
  0.000   0.000  -0.020   0.000   0.000   0.000  -0.000  -0.001  -0.000   0.000  -0.023   0.003   0.000  -0.009   0.000  -0.000
 -0.001  -0.000   0.000  -0.013  -0.000  -0.000  -0.000   0.000  -0.001  -0.000   0.000  -0.000  -0.000   0.000  -0.015   0.000
 total augmentation occupancy for first ion, spin component:           2
 -0.000   0.000   0.000  -0.000   0.000   0.000   0.000  -0.000  -0.000   0.000   0.000  -0.000   0.000  -0.000  -0.000   0.000
  0.000  -0.000  -0.000  -0.000  -0.000   0.000   0.000   0.000   0.000  -0.000  -0.000  -0.000  -0.000   0.000  -0.000   0.000
  0.000  -0.000   0.000  -0.000  -0.000   0.000  -0.000   0.000  -0.000  -0.000   0.000   0.000   0.000  -0.000   0.000   0.000
 -0.000  -0.000  -0.000  -0.000  -0.000  -0.000   0.000   0.000   0.000  -0.000  -0.000  -0.000  -0.000   0.000   0.000   0.000
  0.000  -0.000  -0.000  -0.000   0.000  -0.000   0.000   0.000  -0.000   0.000  -0.000   0.000  -0.000   0.000  -0.000  -0.000
  0.000   0.000   0.000  -0.000  -0.000   0.000  -0.000  -0.000  -0.000  -0.000   0.000   0.000  -0.000  -0.000   0.000   0.000
  0.000   0.000  -0.000   0.000   0.000  -0.000  -0.000   0.000  -0.000  -0.000  -0.000  -0.000  -0.000   0.000  -0.000   0.000
 -0.000   0.000   0.000   0.000   0.000  -0.000   0.000  -0.000   0.000   0.000  -0.000  -0.000   0.000   0.000  -0.000   0.000
 -0.000   0.000  -0.000   0.000  -0.000  -0.000  -0.000   0.000   0.000  -0.000  -0.000  -0.000  -0.000   0.000  -0.000   0.000
  0.000  -0.000  -0.000  -0.000   0.000  -0.000  -0.000   0.000  -0.000   0.000  -0.000  -0.000   0.000   0.000   0.000  -0.000
  0.000  -0.000   0.000  -0.000  -0.000   0.000  -0.000  -0.000  -0.000  -0.000   0.000  -0.000   0.000  -0.000   0.000  -0.000
 -0.000  -0.000   0.000  -0.000   0.000   0.000  -0.000  -0.000  -0.000  -0.000  -0.000   0.000  -0.000  -0.000  -0.000   0.000
  0.000  -0.000   0.000  -0.000  -0.000  -0.000  -0.000   0.000  -0.000   0.000   0.000  -0.000   0.000   0.000   0.000  -0.000
 -0.000   0.000  -0.000   0.000   0.000  -0.000   0.000   0.000   0.000   0.000  -0.000  -0.000   0.000   0.000   0.000  -0.000
 -0.000  -0.000   0.000   0.000  -0.000   0.000  -0.000  -0.000  -0.000   0.000   0.000  -0.000   0.000   0.000   0.000  -0.000
  0.000   0.000   0.000   0.000  -0.000   0.000   0.000   0.000   0.000  -0.000  -0.000   0.000  -0.000  -0.000  -0.000   0.000
  0.000  -0.000   0.000  -0.000  -0.000   0.000  -0.000  -0.000  -0.000  -0.000   0.000  -0.000  -0.000   0.000  -0.000   0.000
 -0.000   0.000   0.000  -0.000  -0.000  -0.000   0.000   0.000  -0.000  -0.000  -0.000   0.000  -0.000  -0.000  -0.000   0.000


------------------------ aborting loop because EDIFF is reached ----------------------------------------


    CHARGE:  cpu time      0.0527: real time      0.0530
    FORLOC:  cpu time      0.0012: real time      0.0012
    FORNL :  cpu time      0.1264: real time      0.1269
    STRESS:  cpu time      0.1365: real time      0.1371
    FORCOR:  cpu time      0.0185: real time      0.0186
    FORHAR:  cpu time      0.0029: real time      0.0029
    MIXING:  cpu time      0.0005: real time      0.0005
    OFIELD:  cpu time      0.0000: real time      0.0000

 ---------------------------------------------------------------------------------------------

         DFTD3 V3.0 Rev 1        
 Edisp (eV)   -3.69004

 E6    (eV) :    -1.5446
 E8    (eV) :    -2.1454
 % E8        : 58.14
    FORVDW:  cpu time      0.0723: real time      0.0726

  FORCE on cell =-STRESS in cart. coord.  units (eV):
  Direction    XX          YY          ZZ          XY          YZ          ZX
  --------------------------------------------------------------------------------------
  Alpha Z   285.34744   285.34744   285.34744
  Ewald   59519.15882 59528.61225-65406.00705    -0.00000    -5.30481    -0.00000
  Hartree 62768.55702 62771.34924-60949.78450     0.00000     0.14679    -0.00000
  E(xc)    -521.07154  -521.00000  -521.13455    -0.00013    -0.07616     0.00000
  Local  ************************125285.45279     0.00399     2.10066    -0.00001
  n-local  -174.24521  -174.43665  -179.04834     3.95246     0.38988     1.33916
  augment   759.93890   759.81385   753.57022    -0.00384    -0.02041     0.00000
  Kinetic   742.94621   740.92040   735.66000   -15.36369     2.76475     2.54569
  Fock        0.00000     0.00000     0.00000     0.00000     0.00000     0.00000
  vdW        -4.39816    -4.38777    -3.83428     0.00000    -0.01264     0.00000
  -------------------------------------------------------------------------------------
  Total      -4.11635    -4.10043     0.22174    -0.00000    -0.01193    -0.00000
  in kB     -38.95688   -38.80629     2.09857    -0.00000    -0.11288    -0.00000
  external pressure =      -25.22 kB  Pullay stress =        0.00 kB


 VOLUME and BASIS-vectors are now :
 -----------------------------------------------------------------------------
  energy-cutoff  :      400.00
  volume of cell :      169.29
      direct lattice vectors                 reciprocal lattice vectors
     2.566797733  0.000000000  0.000000000     0.389590495 -0.224930177  0.000000000
     1.283398867  2.222912043  0.000000000     0.000000000  0.449860355  0.000000000
     0.000000000  0.000000000 29.670471191     0.000000000  0.000000000  0.033703543

  length of vectors
     2.566797733  2.566797733 29.670471191     0.449860355  0.449860355  0.033703543


 FORCES acting on ions
    electron-ion (+dipol)            ewald-force                    non-local-force                 convergence-correction
 -----------------------------------------------------------------------------------------------
   -.515E-05 -.486E-01 0.609E+04   0.106E-07 0.529E-01 -.609E+04   0.315E-12 0.140E-01 -.371E+01   0.143E-05 -.153E-01 0.633E-01
   0.871E-05 -.911E-01 0.438E+04   -.260E-07 0.100E+00 -.438E+04   0.695E-12 0.309E-01 0.347E+00   -.288E-06 -.323E-01 -.677E+00
   -.286E-05 -.182E+00 0.268E+04   0.249E-07 0.202E+00 -.268E+04   0.113E-11 0.503E-01 -.217E+00   0.771E-05 -.599E-01 -.598E+00
   -.206E-04 0.895E-01 0.985E+03   0.390E-09 -.851E-01 -.984E+03   0.415E-12 0.185E-01 -.792E+00   0.151E-05 -.239E-01 -.906E+00
   0.202E-04 0.137E+00 -.726E+03   -.253E-07 -.162E+00 0.726E+03   -.148E-11 -.658E-01 0.699E+00   -.202E-05 0.755E-01 -.653E+00
   -.362E-06 0.149E+00 -.242E+04   0.255E-07 -.177E+00 0.242E+04   -.166E-11 -.740E-01 -.686E-01   -.579E-05 0.911E-01 -.516E+00
   -.193E-04 0.290E-01 -.413E+04   0.796E-09 -.317E-01 0.413E+04   -.272E-12 -.121E-01 0.169E+00   -.891E-06 0.131E-01 -.192E+00
   0.223E-04 0.169E+01 -.584E+04   -.109E-07 -.164E+01 0.584E+04   -.315E-11 -.140E+00 0.479E+01   -.443E-05 0.817E-01 0.205E-01
   -.735E-07 0.876E+01 -.502E+03   0.193E-09 -.112E+02 0.506E+03   0.563E-10 0.250E+01 -.406E+01   0.108E-06 0.818E-03 0.577E-01
   0.895E-07 -.104E+02 -.520E+03   -.177E-09 0.130E+02 0.517E+03   -.580E-10 -.258E+01 0.387E+01   0.124E-06 0.210E-02 0.542E-01
 -----------------------------------------------------------------------------------------------
   0.282E-05 0.113E+00 0.227E+01   0.219E-12 -.551E-13 0.171E-11   -.568E-11 -.253E+00 0.103E+01   -.253E-05 0.133E+00 -.335E+01
 
 
 POSITION                                       TOTAL-FORCE (eV/Angst)
 -----------------------------------------------------------------------------------
      0.00000      0.00038     -0.01055         0.000000      0.003677     -0.038037
      1.28340      0.74321      1.97853         0.000000      0.008516      0.067444
      2.56680      1.49010      4.00547         0.000000      0.011068     -0.115132
      0.00000      0.02164      6.02704        -0.000000     -0.000533      0.026426
      1.28340      0.77255      8.03648        -0.000000     -0.014579     -0.014548
      2.56680      1.51774     10.06453        -0.000000     -0.010307     -0.007377
      0.00000      0.03317     12.07804        -0.000000     -0.001098     -0.002705
      1.28340      0.77039     14.06538        -0.000000     -0.013876      0.056403
      1.28340      0.83307     16.76765         0.000000      0.014727     -0.002337
      1.28340      1.23247     16.11533         0.000000      0.002405      0.029863
 -----------------------------------------------------------------------------------
    total drift:                                0.000000     -0.006448     -0.048202


--------------------------------------------------------------------------------------------------------



  FREE ENERGIE OF THE ION-ELECTRON SYSTEM (eV)
  ---------------------------------------------------
  free  energy   TOTEN  =       -40.90071479 eV

  energy  without entropy=      -40.87472103  energy(sigma->0) =      -40.89205020
 
 d Force =-0.7566611E-03[-0.126E-02,-0.254E-03]  d Energy =-0.5699383E-03-0.187E-03
 d Force =-0.4725047E+02[-0.473E+02,-0.472E+02]  d Ewald  =-0.4725047E+02 0.539E-06


--------------------------------------------------------------------------------------------------------


    POTLOK:  cpu time      0.0260: real time      0.0261


--------------------------------------------------------------------------------------------------------


 stress matrix after NEB project (eV)
     -4.11635     -0.00000     -0.00000
     -0.00000     -4.10043     -0.01193
     -0.00000     -0.01193      0.22174
  FORCES: max atom, RMS     0.115663    0.050245
  FORCE total and by dimension    0.158888    0.115132
  Stress total and by dimension    5.814407    4.116346
 -----------------------------------------------------------------------------
|                                                                             |
|     EEEEEEE  RRRRRR   RRRRRR   OOOOOOO  RRRRRR      ###     ###     ###     |
|     E        R     R  R     R  O     O  R     R     ###     ###     ###     |
|     E        R     R  R     R  O     O  R     R     ###     ###     ###     |
|     EEEEE    RRRRRR   RRRRRR   O     O  RRRRRR       #       #       #      |
|     E        R   R    R   R    O     O  R   R                               |
|     E        R    R   R    R   O     O  R    R      ###     ###     ###     |
|     EEEEEEE  R     R  R     R  OOOOOOO  R     R     ###     ###     ###     |
|                                                                             |
|     ZBRENT: fatal error in bracketing                                       |
|      please rerun with smaller EDIFF, or copy CONTCAR                       |
|      to POSCAR and continue                                                 |
|                                                                             |
|       ---->  I REFUSE TO CONTINUE WITH THIS SICK JOB ... BYE!!! <----       |
|                                                                             |
 -----------------------------------------------------------------------------

