unknown system                          
           1
     2.566798    0.000000    0.000000
     1.283399    2.222912    0.000000
     0.000000    0.000000   29.670471
   Cu   H 
     8     2
Direct configuration=     1
   0.00000000  0.00000000  0.00000000
   0.33333333  0.33333333  0.07063526
   0.66666667  0.66666667  0.13908594
   0.00000000  0.00000000  0.20816512
   0.33333333  0.33333333  0.27656240
   0.66666667  0.66666667  0.34556034
   0.00000000  0.00000000  0.41400593
   0.33333333  0.33333333  0.48139269
   0.33333333  0.33333333  0.53425930
   0.16553542  0.66892916  0.53425930
Direct configuration=     2
  -0.00000079  0.00000158  0.00075875
   0.33333636  0.33332728  0.07000198
   0.66666258  0.66667485  0.13908399
   0.00000146 -0.00000291  0.20816655
   0.33333518  0.33332963  0.27650150
   0.66664706  0.66670587  0.34543898
  -0.00022263  0.00044525  0.41373257
   0.32984913  0.34030173  0.47891156
   0.35044393  0.29911214  0.53666917
   0.15214980  0.69570040  0.53466122
Direct configuration=     3
  -0.00000049  0.00000099  0.00047356
   0.33333522  0.33332956  0.07024001
   0.66666411  0.66667177  0.13908472
   0.00000091 -0.00000182  0.20816601
   0.33333449  0.33333102  0.27652439
   0.66665443  0.66669114  0.34548460
  -0.00013895  0.00027790  0.41383532
   0.33115873  0.33768253  0.47984414
   0.34401260  0.31197479  0.53576337
   0.15718103  0.68563794  0.53451015
Direct configuration=     4
  -0.00000036  0.00000072  0.00126078
   0.33333957  0.33332085  0.06968807
   0.66665522  0.66668956  0.13902589
   0.00000879 -0.00001758  0.20816169
   0.33332536  0.33334928  0.27644125
   0.66663479  0.66673042  0.34530321
  -0.00050702  0.00101405  0.41316087
   0.32711355  0.34577291  0.47839415
   0.34201664  0.31596673  0.53769380
   0.16361555  0.67276889  0.53479659
Direct configuration=     5
  -0.00000022  0.00000044  0.00210144
   0.33334422  0.33331155  0.06909866
   0.66664572  0.66670856  0.13896305
   0.00001720 -0.00003440  0.20815707
   0.33331561  0.33336878  0.27635247
   0.66661382  0.66677236  0.34510950
  -0.00090008  0.00180017  0.41244064
   0.32279375  0.35441250  0.47684572
   0.33988517  0.32022965  0.53975527
   0.17048689  0.65902622  0.53510247
Direct configuration=     6
  -0.00000018  0.00000036  0.00233908
   0.33334554  0.33330893  0.06893204
   0.66664304  0.66671392  0.13894529
   0.00001958 -0.00003916  0.20815576
   0.33331286  0.33337429  0.27632737
   0.66660789  0.66678422  0.34505475
  -0.00101120  0.00202239  0.41223704
   0.32157262  0.35685476  0.47640801
   0.33928265  0.32143471  0.54033801
   0.17242929  0.65514142  0.53518893
Direct configuration=     7
   0.00000884 -0.00001768  0.00276913
   0.33334905  0.33330189  0.06918432
   0.66664600  0.66670800  0.13858206
   0.00002181 -0.00004361  0.20803894
   0.33332037  0.33335926  0.27616640
   0.66650331  0.66699339  0.34447462
  -0.00235117  0.00470233  0.41071030
   0.31768885  0.36462229  0.47589522
   0.34491748  0.31016504  0.54268068
   0.17209754  0.65580491  0.53542462
Direct configuration=     8
   0.00000976 -0.00001953  0.00281322
   0.33334942  0.33330117  0.06921018
   0.66664630  0.66670739  0.13854482
   0.00002203 -0.00004407  0.20802697
   0.33332114  0.33335772  0.27614989
   0.66649259  0.66701483  0.34441516
  -0.00248853  0.00497705  0.41055379
   0.31729073  0.36541854  0.47584266
   0.34549511  0.30900979  0.54292083
   0.17206354  0.65587293  0.53544878
Direct configuration=     9
   0.00001667 -0.00003333  0.00294840
   0.33335188  0.33329624  0.06972870
   0.66665079  0.66669841  0.13825029
   0.00002329 -0.00004658  0.20783365
   0.33332260  0.33335481  0.27590583
   0.66630858  0.66738284  0.34364821
  -0.00398360  0.00796721  0.40940649
   0.31471051  0.37057899  0.47575846
   0.34466872  0.31066256  0.54458059
   0.17713266  0.64573468  0.53586567
Direct configuration=    10
   0.00002458 -0.00004916  0.00310336
   0.33335471  0.33329058  0.07032310
   0.66665594  0.66668812  0.13791265
   0.00002473 -0.00004945  0.20761205
   0.33332427  0.33335147  0.27562605
   0.66609765  0.66780471  0.34276903
  -0.00569745  0.01139490  0.40809132
   0.31175273  0.37649455  0.47566194
   0.34372142  0.31255716  0.54648322
   0.18294353  0.63411294  0.53634356
Direct configuration=    11
   0.00003929 -0.00007858  0.00315882
   0.33336413  0.33327173  0.07041674
   0.66667092  0.66665817  0.13812625
   0.00003701 -0.00007402  0.20734223
   0.33331161  0.33337677  0.27515395
   0.66574001  0.66851999  0.34209285
  -0.00669932  0.01339864  0.40833087
   0.31138520  0.37722959  0.47537004
   0.34255486  0.31489029  0.54730040
   0.18579838  0.62840324  0.53663413
Direct configuration=    12
   0.00005564 -0.00011129  0.00322048
   0.33337461  0.33325078  0.07052087
   0.66668757  0.66662486  0.13836380
   0.00005068 -0.00010135  0.20704216
   0.33329755  0.33340491  0.27462894
   0.66534228  0.66931544  0.34134089
  -0.00781348  0.01562696  0.40859727
   0.31097649  0.37804702  0.47504543
   0.34125755  0.31748490  0.54820917
   0.18897320  0.62205360  0.53695727
Direct configuration=    13
   0.00006830 -0.00013660  0.00326794
   0.33338211  0.33323578  0.07053768
   0.66670140  0.66659720  0.13854465
   0.00006125 -0.00012250  0.20677525
   0.33324257  0.33351486  0.27404630
   0.66488868  0.67022264  0.34099857
  -0.00886401  0.01772802  0.40869555
   0.31122370  0.37755261  0.47482622
   0.34291887  0.31416226  0.54919085
   0.18857922  0.62284155  0.53704328
Direct configuration=    14
   0.00006943 -0.00013885  0.00327216
   0.33338278  0.33323444  0.07053918
   0.66670263  0.66659473  0.13856075
   0.00006219 -0.00012438  0.20675148
   0.33323767  0.33352465  0.27399441
   0.66484828  0.67030344  0.34096808
  -0.00895758  0.01791516  0.40870431
   0.31124571  0.37750857  0.47480670
   0.34306684  0.31386632  0.54927828
   0.18854413  0.62291173  0.53705094
Direct configuration=    15
   0.00006734 -0.00013467  0.00328775
   0.33337950  0.33324100  0.07052002
   0.66670284  0.66659432  0.13856937
   0.00005441 -0.00010881  0.20658201
   0.33314903  0.33370194  0.27361953
   0.66448508  0.67102984  0.34100705
  -0.00959560  0.01919120  0.40854969
   0.31183462  0.37633076  0.47479949
   0.34253642  0.31492717  0.54978480
   0.18958847  0.62082307  0.53720658
Direct configuration=    16
   0.00006107 -0.00012213  0.00333450
   0.33336965  0.33326070  0.07046256
   0.66670345  0.66659309  0.13859521
   0.00003106 -0.00006211  0.20607361
   0.33288311  0.33423378  0.27249489
   0.66339547  0.67320905  0.34112395
  -0.01150967  0.02301934  0.40808583
   0.31360134  0.37279732  0.47477786
   0.34094514  0.31810972  0.55130437
   0.19272146  0.61455707  0.53767351
Direct configuration=    17
   0.00006648 -0.00013297  0.00333712
   0.33337589  0.33324822  0.07046489
   0.66670890  0.66658221  0.13837380
   0.00000953 -0.00001907  0.20576439
   0.33268873  0.33462253  0.27236216
   0.66267690  0.67464621  0.34091643
  -0.01221661  0.02443323  0.40795379
   0.31470575  0.37058850  0.47474236
   0.33932339  0.32135322  0.55204012
   0.19486313  0.61027375  0.53797123
Direct configuration=    18
   0.00008273 -0.00016546  0.00334500
   0.33339460  0.33321079  0.07047189
   0.66672522  0.66654956  0.13770956
  -0.00005503  0.00011007  0.20483672
   0.33210560  0.33578880  0.27196399
   0.66052116  0.67895768  0.34029385
  -0.01433744  0.02867487  0.40755767
   0.31801899  0.36396203  0.47463588
   0.33445814  0.33108372  0.55424735
   0.20128811  0.59742377  0.53886440
Direct configuration=    19
   0.00008473 -0.00016946  0.00334371
   0.33339697  0.33320606  0.07046200
   0.66672666  0.66654667  0.13763123
  -0.00006486  0.00012972  0.20474629
   0.33203317  0.33593365  0.27192908
   0.66028042  0.67943917  0.34021876
  -0.01453695  0.02907390  0.40752154
   0.31837862  0.36324276  0.47461595
   0.33420342  0.33159315  0.55452672
   0.20169991  0.59660019  0.53893101
Direct configuration=    20
   0.00009072 -0.00018144  0.00333986
   0.33340407  0.33319186  0.07043233
   0.66673098  0.66653803  0.13739624
  -0.00009433  0.00018867  0.20447499
   0.33181588  0.33636823  0.27182436
   0.65955818  0.68088363  0.33999348
  -0.01513549  0.03027098  0.40741317
   0.31945751  0.36108497  0.47455617
   0.33343927  0.33312145  0.55536484
   0.20293528  0.59412944  0.53913084
Direct configuration=    21
   0.00010270 -0.00020540  0.00333216
   0.33341827  0.33316346  0.07037300
   0.66673963  0.66652074  0.13692627
  -0.00015328  0.00030657  0.20393240
   0.33138131  0.33723739  0.27161491
   0.65811372  0.68377256  0.33954294
  -0.01633257  0.03266514  0.40719642
   0.32161531  0.35676939  0.47443660
   0.33191098  0.33617804  0.55704109
   0.20540603  0.58918795  0.53953051
Direct configuration=    22
   0.00010813 -0.00021627  0.00332867
   0.33342471  0.33315058  0.07034610
   0.66674355  0.66651290  0.13671320
  -0.00018001  0.00036002  0.20368642
   0.33118429  0.33763142  0.27151995
   0.65745887  0.68508226  0.33933869
  -0.01687527  0.03375053  0.40709815
   0.32259354  0.35481291  0.47438240
   0.33121812  0.33756375  0.55780102
   0.20652615  0.58694771  0.53971169
Direct configuration=    23
   0.00010718 -0.00021436  0.00332928
   0.33342358  0.33315285  0.07035083
   0.66674286  0.66651428  0.13675072
  -0.00017530  0.00035061  0.20372973
   0.33121898  0.33756205  0.27153667
   0.65757417  0.68485167  0.33937465
  -0.01677972  0.03355943  0.40711545
   0.32242131  0.35515738  0.47439194
   0.33134011  0.33731978  0.55766722
   0.20632893  0.58734214  0.53967979
Direct configuration=    24
   0.00010781 -0.00021561  0.00332888
   0.33342432  0.33315136  0.07034772
   0.66674331  0.66651338  0.13672605
  -0.00017840  0.00035679  0.20370125
   0.33119617  0.33760766  0.27152568
   0.65749836  0.68500329  0.33935100
  -0.01684254  0.03368509  0.40710408
   0.32253456  0.35493088  0.47438567
   0.33125990  0.33748020  0.55775520
   0.20645860  0.58708279  0.53970077
Direct configuration=    25
   0.00010749 -0.00021499  0.00332908
   0.33342395  0.33315210  0.07034928
   0.66674308  0.66651383  0.13673838
  -0.00017685  0.00035370  0.20371549
   0.33120757  0.33758486  0.27153118
   0.65753626  0.68492748  0.33936283
  -0.01681113  0.03362226  0.40710976
   0.32247793  0.35504413  0.47438881
   0.33130001  0.33739999  0.55771121
   0.20639377  0.58721247  0.53969028
Direct configuration=    26
   0.00010772 -0.00021543  0.00332894
   0.33342421  0.33315157  0.07034817
   0.66674325  0.66651351  0.13672964
  -0.00017795  0.00035589  0.20370539
   0.33119949  0.33760102  0.27152728
   0.65750939  0.68498122  0.33935444
  -0.01683340  0.03366680  0.40710573
   0.32251808  0.35496385  0.47438658
   0.33127157  0.33745685  0.55774239
   0.20643973  0.58712053  0.53969772
Direct configuration=    27
   0.00010858 -0.00021715  0.00331295
   0.33342620  0.33314760  0.07026829
   0.66674061  0.66651878  0.13667286
  -0.00020272  0.00040545  0.20369403
   0.33108589  0.33782822  0.27147070
   0.65729902  0.68540197  0.33930576
  -0.01687054  0.03374109  0.40708653
   0.32280389  0.35439222  0.47434512
   0.33086120  0.33827760  0.55798804
   0.20694998  0.58610005  0.53978201
Direct configuration=    28
   0.00011116 -0.00022232  0.00326499
   0.33343216  0.33313568  0.07002865
   0.66673270  0.66653461  0.13650252
  -0.00027706  0.00055412  0.20365994
   0.33074509  0.33850982  0.27130096
   0.65666791  0.68666419  0.33915969
  -0.01698197  0.03396395  0.40702893
   0.32366132  0.35267736  0.47422074
   0.32963008  0.34073985  0.55872496
   0.20848071  0.58303858  0.54003490
Direct configuration=    29
   0.00011633 -0.00023266  0.00316908
   0.33344407  0.33311185  0.06954936
   0.66671687  0.66656625  0.13616184
  -0.00042573  0.00085146  0.20359175
   0.33006349  0.33987301  0.27096148
   0.65540568  0.68918864  0.33886757
  -0.01720483  0.03440967  0.40691372
   0.32537619  0.34924762  0.47397199
   0.32716783  0.34566434  0.56019880
   0.21154218  0.57691565  0.54054069
Direct configuration=    30
   0.00011530 -0.00023061  0.00301388
   0.33344497  0.33311007  0.06934367
   0.66669558  0.66660884  0.13612723
  -0.00053469  0.00106938  0.20364021
   0.32973520  0.34052960  0.27086298
   0.65513927  0.68972145  0.33886043
  -0.01686978  0.03373957  0.40685410
   0.32570625  0.34858751  0.47389237
   0.32537016  0.34925969  0.56047369
   0.21339984  0.57320033  0.54085773
Direct configuration=    31
   0.00011482 -0.00022963  0.00294020
   0.33344539  0.33310922  0.06924603
   0.66668547  0.66662906  0.13611081
  -0.00058641  0.00117283  0.20366321
   0.32957935  0.34084130  0.27081622
   0.65501281  0.68997439  0.33885703
  -0.01671073  0.03342146  0.40682579
   0.32586293  0.34827414  0.47385458
   0.32451677  0.35096645  0.56060418
   0.21428169  0.57143661  0.54100823
Direct configuration=    32
   0.00010981 -0.00021962  0.00270453
   0.33344411  0.33311178  0.06909598
   0.66665027  0.66669946  0.13613228
  -0.00073343  0.00146687  0.20371053
   0.32924836  0.34150327  0.27079603
   0.65496160  0.69007681  0.33889485
  -0.01612277  0.03224554  0.40675690
   0.32589588  0.34820824  0.47378534
   0.32382841  0.35234318  0.56092446
   0.21491985  0.57016029  0.54112540
Direct configuration=    33
   0.00009478 -0.00018957  0.00199754
   0.33344027  0.33311946  0.06864582
   0.66654467  0.66691065  0.13619668
  -0.00117449  0.00234898  0.20385247
   0.32825540  0.34348921  0.27073547
   0.65480797  0.69038405  0.33900829
  -0.01435889  0.02871779  0.40655023
   0.32599473  0.34801055  0.47357760
   0.32176332  0.35647337  0.56188530
   0.21683433  0.56633134  0.54147689
Direct configuration=    34
   0.00006474 -0.00012947  0.00058354
   0.33343259  0.33313482  0.06774551
   0.66633347  0.66733305  0.13632550
  -0.00205660  0.00411320  0.20413636
   0.32626946  0.34746107  0.27061434
   0.65450072  0.69099855  0.33923518
  -0.01083114  0.02166229  0.40613688
   0.32619242  0.34761516  0.47316213
   0.31763313  0.36473374  0.56380697
   0.22066329  0.55867342  0.54217988
Direct configuration=    35
   0.00008420 -0.00016839  0.00149928
   0.33343756  0.33312487  0.06832858
   0.66647025  0.66705950  0.13624208
  -0.00148532  0.00297064  0.20395251
   0.32755561  0.34488879  0.27069279
   0.65469971  0.69060059  0.33908824
  -0.01311581  0.02623162  0.40640457
   0.32606439  0.34787122  0.47343120
   0.32030795  0.35938410  0.56256244
   0.21818355  0.56363289  0.54172461
Direct configuration=    36
   0.00006931 -0.00013862  0.00098110
   0.33340763  0.33318474  0.06811904
   0.66633799  0.66732401  0.13610376
  -0.00197506  0.00395012  0.20390359
   0.32691703  0.34616594  0.27094281
   0.65491822  0.69016356  0.33899997
  -0.01167375  0.02334751  0.40642326
   0.32597407  0.34805186  0.47335087
   0.31858178  0.36283643  0.56307361
   0.21964486  0.56071027  0.54202827
Direct configuration=    37
   0.00005905 -0.00011810  0.00062386
   0.33338699  0.33322602  0.06797458
   0.66624681  0.66750638  0.13600839
  -0.00231270  0.00462540  0.20386987
   0.32647678  0.34704645  0.27111518
   0.65506887  0.68986227  0.33893911
  -0.01067956  0.02135911  0.40643615
   0.32591180  0.34817640  0.47329549
   0.31739171  0.36521657  0.56342603
   0.22065234  0.55869533  0.54223763
Direct configuration=    38
   0.00005492 -0.00010985  0.00048028
   0.33337869  0.33324261  0.06791652
   0.66621016  0.66757967  0.13597007
  -0.00244839  0.00489679  0.20385631
   0.32629984  0.34740031  0.27118445
   0.65512941  0.68974118  0.33891466
  -0.01028000  0.02056000  0.40644133
   0.32588678  0.34822645  0.47327324
   0.31691344  0.36617313  0.56356766
   0.22105723  0.55788554  0.54232177
Direct configuration=    39
   0.00004928 -0.00009855  0.00012165
   0.33331590  0.33336819  0.06766063
   0.66600620  0.66798761  0.13566852
  -0.00302194  0.00604389  0.20380343
   0.32592372  0.34815256  0.27131726
   0.65570888  0.68858223  0.33894030
  -0.00922358  0.01844716  0.40650790
   0.32587209  0.34825582  0.47335606
   0.31626687  0.36746625  0.56414115
   0.22130467  0.55739066  0.54240940
Direct configuration=    40
   0.00005119 -0.00010239  0.00024333
   0.33333721  0.33332558  0.06774745
   0.66607540  0.66784919  0.13577084
  -0.00282734  0.00565467  0.20382137
   0.32605134  0.34789732  0.27127219
   0.65551227  0.68897547  0.33893160
  -0.00958203  0.01916405  0.40648531
   0.32587707  0.34824586  0.47332796
   0.31648625  0.36702749  0.56394656
   0.22122071  0.55755858  0.54237967
Direct configuration=    41
   0.00003842 -0.00007683  0.00004448
   0.33325686  0.33348629  0.06745027
   0.66582744  0.66834513  0.13542856
  -0.00342686  0.00685372  0.20375602
   0.32586429  0.34827142  0.27126633
   0.65627524  0.68744952  0.33903442
  -0.00876427  0.01752853  0.40657573
   0.32591877  0.34816246  0.47351913
   0.31535602  0.36928795  0.56426811
   0.22185618  0.55628764  0.54258322
Direct configuration=    42
   0.00003621 -0.00007243  0.00001021
   0.33324301  0.33351399  0.06739904
   0.66578469  0.66843062  0.13536956
  -0.00353021  0.00706042  0.20374476
   0.32583205  0.34833591  0.27126532
   0.65640676  0.68718647  0.33905215
  -0.00862330  0.01724660  0.40659132
   0.32592596  0.34814808  0.47355209
   0.31516119  0.36967762  0.56432354
   0.22196573  0.55606855  0.54261831
Direct configuration=    43
   0.00003181 -0.00006362 -0.00005835
   0.33321530  0.33356940  0.06729658
   0.66569920  0.66860160  0.13525156
  -0.00373690  0.00747381  0.20372223
   0.32576756  0.34846489  0.27126329
   0.65666981  0.68666037  0.33908760
  -0.00834136  0.01668272  0.40662249
   0.32594034  0.34811933  0.47361800
   0.31477152  0.37045696  0.56443440
   0.22218482  0.55563037  0.54268849
Direct configuration=    44
   0.00002300 -0.00004599 -0.00019547
   0.33315990  0.33368021  0.06709167
   0.66552822  0.66894356  0.13501555
  -0.00415030  0.00830060  0.20367717
   0.32563858  0.34872284  0.27125925
   0.65719591  0.68560817  0.33915850
  -0.00777748  0.01555497  0.40668484
   0.32596909  0.34806182  0.47374982
   0.31399218  0.37201563  0.56465612
   0.22262300  0.55475401  0.54282884
Direct configuration=    45
  -0.00000525  0.00001049 -0.00023813
   0.33306735  0.33386530  0.06694823
   0.66532502  0.66934996  0.13502973
  -0.00437932  0.00875863  0.20349899
   0.32580287  0.34839427  0.27113761
   0.65762999  0.68474001  0.33917581
  -0.00767234  0.01534468  0.40680667
   0.32617826  0.34764348  0.47383437
   0.31345918  0.37308163  0.56478251
   0.22279632  0.55440736  0.54295049
Direct configuration=    46
  -0.00008998  0.00017996 -0.00036611
   0.33278972  0.33442056  0.06651794
   0.66471542  0.67056917  0.13507229
  -0.00506637  0.01013275  0.20296444
   0.32629573  0.34740854  0.27077269
   0.65893223  0.68213553  0.33922776
  -0.00735691  0.01471383  0.40717215
   0.32680578  0.34638845  0.47408805
   0.31186018  0.37627964  0.56516165
   0.22331629  0.55336741  0.54331542
Direct configuration=    47
  -0.00003420  0.00006840 -0.00028186
   0.33297248  0.33405503  0.06680120
   0.66511671  0.66976657  0.13504428
  -0.00461409  0.00922818  0.20331633
   0.32597128  0.34805744  0.27101291
   0.65807498  0.68385005  0.33919357
  -0.00756456  0.01512912  0.40693156
   0.32639269  0.34721463  0.47392106
   0.31291280  0.37417441  0.56491206
   0.22297400  0.55405200  0.54307519
Direct configuration=    48
  -0.00005190  0.00010379 -0.00030859
   0.33291450  0.33417101  0.06671133
   0.66498939  0.67002122  0.13505316
  -0.00475759  0.00951518  0.20320468
   0.32607422  0.34785155  0.27093670
   0.65834697  0.68330606  0.33920442
  -0.00749868  0.01499735  0.40700790
   0.32652375  0.34695250  0.47397404
   0.31257882  0.37484236  0.56499125
   0.22308260  0.55383479  0.54315141
Direct configuration=    49
  -0.00004095  0.00008190 -0.00029206
   0.33295037  0.33409926  0.06676692
   0.66506815  0.66986369  0.13504767
  -0.00466882  0.00933764  0.20327375
   0.32601054  0.34797892  0.27098385
   0.65817871  0.68364258  0.33919770
  -0.00753943  0.01507886  0.40696067
   0.32644267  0.34711466  0.47394126
   0.31278542  0.37442916  0.56494227
   0.22301542  0.55396916  0.54310426
Direct configuration=    50
  -0.00006915  0.00013831 -0.00033262
   0.33287352  0.33425297  0.06671361
   0.66491639  0.67016722  0.13501623
  -0.00479650  0.00959299  0.20318354
   0.32615032  0.34769937  0.27090330
   0.65845759  0.68308482  0.33920583
  -0.00748963  0.01497926  0.40703240
   0.32661689  0.34676623  0.47401268
   0.31267770  0.37464460  0.56506177
   0.22286497  0.55427007  0.54312954
Direct configuration=    51
  -0.00007609  0.00015218 -0.00034259
   0.33285461  0.33429077  0.06670050
   0.66487906  0.67024187  0.13500850
  -0.00482790  0.00965580  0.20316135
   0.32618470  0.34763061  0.27088349
   0.65852619  0.68294763  0.33920783
  -0.00747738  0.01495476  0.40705005
   0.32665974  0.34668053  0.47403024
   0.31265121  0.37469759  0.56509117
   0.22282796  0.55434408  0.54313576
Direct configuration=    52
  -0.00008997  0.00017993 -0.00036254
   0.33281681  0.33436638  0.06667428
   0.66480441  0.67039119  0.13499303
  -0.00489071  0.00978143  0.20311697
   0.32625346  0.34749309  0.27084387
   0.65866338  0.68267324  0.33921182
  -0.00745288  0.01490576  0.40708534
   0.32674544  0.34650912  0.47406537
   0.31259822  0.37480357  0.56514996
   0.22275394  0.55449211  0.54314820
Direct configuration=    53
  -0.00008018  0.00016035 -0.00034847
   0.33284348  0.33431303  0.06669278
   0.66485708  0.67028584  0.13500394
  -0.00484640  0.00969279  0.20314828
   0.32620494  0.34759012  0.27087182
   0.65856658  0.68286684  0.33920900
  -0.00747016  0.01494033  0.40706044
   0.32668497  0.34663006  0.47404059
   0.31263560  0.37472879  0.56510848
   0.22280617  0.55438767  0.54313942
Direct configuration=    54
  -0.00008507  0.00017014 -0.00035550
   0.33283015  0.33433971  0.06668353
   0.66483074  0.67033851  0.13499849
  -0.00486855  0.00973711  0.20313263
   0.32622920  0.34754160  0.27085785
   0.65861498  0.68277004  0.33921041
  -0.00746152  0.01492304  0.40707289
   0.32671520  0.34656959  0.47405298
   0.31261691  0.37476618  0.56512922
   0.22278005  0.55443989  0.54314381
Direct configuration=    55
  -0.00010495  0.00020990 -0.00038925
   0.33278916  0.33442168  0.06670961
   0.66475746  0.67048508  0.13493349
  -0.00489782  0.00979565  0.20312650
   0.32632120  0.34735760  0.27083015
   0.65872379  0.68255242  0.33920498
  -0.00744502  0.01489005  0.40708246
   0.32681945  0.34636109  0.47409584
   0.31252102  0.37495797  0.56516355
   0.22271781  0.55456439  0.54316895
Direct configuration=    56
  -0.00011739  0.00023478 -0.00041036
   0.33276352  0.33447297  0.06672593
   0.66471161  0.67057678  0.13489282
  -0.00491614  0.00983227  0.20312267
   0.32637876  0.34724248  0.27081283
   0.65879187  0.68241626  0.33920159
  -0.00743470  0.01486941  0.40708845
   0.32688468  0.34623065  0.47412266
   0.31246102  0.37507795  0.56518503
   0.22267886  0.55464228  0.54318468
Direct configuration=    57
  -0.00014226  0.00028453 -0.00045259
   0.33271223  0.33457554  0.06675856
   0.66461991  0.67076018  0.13481149
  -0.00495276  0.00990552  0.20311500
   0.32649388  0.34701224  0.27077817
   0.65892802  0.68214396  0.33919480
  -0.00741406  0.01482812  0.40710042
   0.32701512  0.34596976  0.47417629
   0.31234104  0.37531793  0.56522799
   0.22260097  0.55479806  0.54321614
Direct configuration=    58
  -0.00013987  0.00027974 -0.00044852
   0.33271717  0.33456566  0.06675541
   0.66462874  0.67074251  0.13481933
  -0.00494923  0.00989847  0.20311574
   0.32648279  0.34703441  0.27078151
   0.65891491  0.68217019  0.33919545
  -0.00741605  0.01483210  0.40709927
   0.32700256  0.34599489  0.47417113
   0.31235259  0.37529481  0.56522386
   0.22260847  0.55478305  0.54321311
Direct configuration=    59
  -0.00014220  0.00028440 -0.00045248
   0.33271236  0.33457527  0.06675847
   0.66462015  0.67075970  0.13481170
  -0.00495267  0.00990533  0.20311502
   0.32649358  0.34701283  0.27077826
   0.65892767  0.68214466  0.33919481
  -0.00741411  0.01482823  0.40710039
   0.32701478  0.34597043  0.47417615
   0.31234135  0.37531731  0.56522788
   0.22260117  0.55479765  0.54321606
Direct configuration=    60
  -0.00014103  0.00028207 -0.00045050
   0.33271477  0.33457047  0.06675694
   0.66462445  0.67075111  0.13481551
  -0.00495095  0.00990190  0.20311538
   0.32648819  0.34702362  0.27077989
   0.65892129  0.68215742  0.33919513
  -0.00741508  0.01483016  0.40709983
   0.32700867  0.34598266  0.47417364
   0.31234697  0.37530606  0.56522587
   0.22260482  0.55479035  0.54321458
Direct configuration=    61
  -0.00014136  0.00028273 -0.00045106
   0.33271409  0.33457183  0.06675738
   0.66462323  0.67075354  0.13481443
  -0.00495144  0.00990287  0.20311528
   0.32648972  0.34702056  0.27077943
   0.65892310  0.68215380  0.33919504
  -0.00741481  0.01482962  0.40709999
   0.32701040  0.34597919  0.47417435
   0.31234538  0.37530925  0.56522644
   0.22260379  0.55479242  0.54321500
Direct configuration=    62
  -0.00014140  0.00028280 -0.00045112
   0.33271401  0.33457198  0.06675743
   0.66462309  0.67075382  0.13481431
  -0.00495149  0.00990298  0.20311527
   0.32648989  0.34702022  0.27077938
   0.65892330  0.68215340  0.33919503
  -0.00741478  0.01482955  0.40710001
   0.32701060  0.34597881  0.47417443
   0.31234520  0.37530961  0.56522650
   0.22260367  0.55479266  0.54321505
Direct configuration=    63
  -0.00014180  0.00028360 -0.00045180
   0.33271319  0.33457363  0.06675795
   0.66462162  0.67075676  0.13481301
  -0.00495208  0.00990416  0.20311514
   0.32649174  0.34701653  0.27077882
   0.65892548  0.68214903  0.33919492
  -0.00741445  0.01482889  0.40710020
   0.32701269  0.34597462  0.47417529
   0.31234327  0.37531346  0.56522719
   0.22260242  0.55479515  0.54321555
Direct configuration=    64
  -0.00014151  0.00028301 -0.00045130
   0.33271379  0.33457242  0.06675756
   0.66462270  0.67075459  0.13481397
  -0.00495165  0.00990329  0.20311524
   0.32649038  0.34701924  0.27077923
   0.65892388  0.68215225  0.33919500
  -0.00741469  0.01482938  0.40710006
   0.32701115  0.34597770  0.47417466
   0.31234469  0.37531062  0.56522669
   0.22260334  0.55479332  0.54321518
Direct configuration=    65
  -0.00014168  0.00028336 -0.00045159
   0.33271344  0.33457312  0.06675779
   0.66462207  0.67075585  0.13481341
  -0.00495190  0.00990379  0.20311518
   0.32649117  0.34701766  0.27077899
   0.65892481  0.68215038  0.33919496
  -0.00741455  0.01482910  0.40710014
   0.32701205  0.34597591  0.47417503
   0.31234387  0.37531227  0.56522698
   0.22260281  0.55479438  0.54321540
Direct configuration=    66
  -0.00014172  0.00028344 -0.00045166
   0.33271335  0.33457329  0.06675784
   0.66462192  0.67075616  0.13481328
  -0.00495196  0.00990392  0.20311517
   0.32649136  0.34701728  0.27077893
   0.65892504  0.68214992  0.33919495
  -0.00741451  0.01482903  0.40710016
   0.32701226  0.34597548  0.47417512
   0.31234367  0.37531267  0.56522705
   0.22260268  0.55479464  0.54321545
Direct configuration=    67
  -0.00014176  0.00028352 -0.00045173
   0.33271327  0.33457346  0.06675790
   0.66462177  0.67075646  0.13481314
  -0.00495202  0.00990404  0.20311516
   0.32649155  0.34701690  0.27077888
   0.65892526  0.68214948  0.33919493
  -0.00741448  0.01482896  0.40710018
   0.32701248  0.34597505  0.47417521
   0.31234347  0.37531306  0.56522712
   0.22260255  0.55479490  0.54321550
Direct configuration=    68
  -0.00014178  0.00028356 -0.00045176
   0.33271323  0.33457354  0.06675792
   0.66462170  0.67075661  0.13481307
  -0.00495205  0.00990410  0.20311515
   0.32649164  0.34701671  0.27077885
   0.65892537  0.68214925  0.33919493
  -0.00741446  0.01482893  0.40710019
   0.32701258  0.34597483  0.47417525
   0.31234337  0.37531326  0.56522716
   0.22260249  0.55479503  0.54321553
Direct configuration=    69
  -0.00014179  0.00028358 -0.00045178
   0.33271321  0.33457359  0.06675794
   0.66462166  0.67075668  0.13481304
  -0.00495206  0.00990413  0.20311515
   0.32649169  0.34701662  0.27077883
   0.65892543  0.68214914  0.33919493
  -0.00741445  0.01482891  0.40710019
   0.32701264  0.34597473  0.47417527
   0.31234332  0.37531336  0.56522718
   0.22260245  0.55479509  0.54321554
Direct configuration=    70
  -0.00014180  0.00028359 -0.00045179
   0.33271320  0.33457361  0.06675794
   0.66462164  0.67075673  0.13481302
  -0.00495207  0.00990414  0.20311515
   0.32649172  0.34701657  0.27077883
   0.65892546  0.68214908  0.33919492
  -0.00741445  0.01482890  0.40710020
   0.32701267  0.34597467  0.47417528
   0.31234329  0.37531341  0.56522719
   0.22260244  0.55479513  0.54321555
Direct configuration=    71
  -0.00014180  0.00028360 -0.00045180
   0.33271319  0.33457362  0.06675795
   0.66462163  0.67075674  0.13481301
  -0.00495208  0.00990415  0.20311515
   0.32649173  0.34701654  0.27077882
   0.65892547  0.68214905  0.33919492
  -0.00741445  0.01482890  0.40710020
   0.32701268  0.34597464  0.47417529
   0.31234328  0.37531344  0.56522719
   0.22260243  0.55479514  0.54321555
Direct configuration=    72
  -0.00014180  0.00028360 -0.00045180
   0.33271319  0.33457362  0.06675795
   0.66462162  0.67075675  0.13481301
  -0.00495208  0.00990415  0.20311514
   0.32649173  0.34701653  0.27077882
   0.65892548  0.68214904  0.33919492
  -0.00741445  0.01482889  0.40710020
   0.32701269  0.34597463  0.47417529
   0.31234328  0.37531345  0.56522719
   0.22260243  0.55479515  0.54321555
