  90  90   0   0
  0.2933178E+02  0.1089000E-08  0.1089000E-08  0.2226000E-08  0.5000000E-15
  1.000000000000000E-004
  CAR 
 unknown system                          
     11.02508978    -10.58764433  301      0.42901591      1.00000000
    -10.588  0.0000E+00  0.0000E+00  0.0000E+00  0.0000E+00
    -10.516  0.0000E+00  0.0000E+00  0.0000E+00  0.0000E+00
    -10.444  0.0000E+00  0.0000E+00  0.0000E+00  0.0000E+00
    -10.372  0.0000E+00  0.0000E+00  0.0000E+00  0.0000E+00
    -10.299  0.0000E+00  0.0000E+00  0.0000E+00  0.0000E+00
    -10.227 -0.2850E-31 -0.2850E-31 -0.2053E-32 -0.2053E-32
    -10.155 -0.8766E-29 -0.8766E-29 -0.6336E-30 -0.6336E-30
    -10.083 -0.2080E-26 -0.2081E-26 -0.1505E-27 -0.1505E-27
    -10.011 -0.3799E-24 -0.3799E-24 -0.2752E-25 -0.2752E-25
     -9.939 -0.5336E-22 -0.5336E-22 -0.3872E-23 -0.3872E-23
     -9.867 -0.5763E-20 -0.5763E-20 -0.4191E-21 -0.4191E-21
     -9.795 -0.4783E-18 -0.4783E-18 -0.3488E-19 -0.3488E-19
     -9.723 -0.2953E-16 -0.2953E-16 -0.2162E-17 -0.2163E-17
     -9.651 -0.1440E-14 -0.1440E-14 -0.1059E-15 -0.1059E-15
     -9.579 -0.5377E-13 -0.5377E-13 -0.3980E-14 -0.3980E-14
     -9.507 -0.1536E-11 -0.1536E-11 -0.1147E-12 -0.1147E-12
     -9.435 -0.3353E-10 -0.3353E-10 -0.2530E-11 -0.2530E-11
     -9.363 -0.5581E-09 -0.5581E-09 -0.4274E-10 -0.4274E-10
     -9.291 -0.7065E-08 -0.7065E-08 -0.5517E-09 -0.5517E-09
     -9.219 -0.6779E-07 -0.6780E-07 -0.5436E-08 -0.5436E-08
     -9.147 -0.4911E-06 -0.4912E-06 -0.4082E-07 -0.4082E-07
     -9.075 -0.2671E-05 -0.2671E-05 -0.2332E-06 -0.2332E-06
     -9.003 -0.1080E-04 -0.1080E-04 -0.1011E-05 -0.1011E-05
     -8.931 -0.3195E-04 -0.3195E-04 -0.3313E-05 -0.3313E-05
     -8.859 -0.6608E-04 -0.6608E-04 -0.8074E-05 -0.8074E-05
     -8.787 -0.8012E-04 -0.8012E-04 -0.1385E-04 -0.1385E-04
     -8.715  0.1895E-04  0.1896E-04 -0.1248E-04 -0.1248E-04
     -8.642  0.3760E-03  0.3760E-03  0.1461E-04  0.1461E-04
     -8.570  0.1109E-02  0.1109E-02  0.9451E-04  0.9451E-04
     -8.498  0.2157E-02  0.2157E-02  0.2499E-03  0.2499E-03
     -8.426  0.3173E-02  0.3173E-02  0.4785E-03  0.4785E-03
     -8.354  0.3646E-02  0.3646E-02  0.7411E-03  0.7411E-03
     -8.282  0.3264E-02  0.3264E-02  0.9763E-03  0.9763E-03
     -8.210  0.2283E-02  0.2283E-02  0.1141E-02  0.1141E-02
     -8.138  0.1561E-02  0.1561E-02  0.1253E-02  0.1253E-02
     -8.066  0.1961E-02  0.1961E-02  0.1395E-02  0.1395E-02
     -7.994  0.3513E-02  0.3513E-02  0.1648E-02  0.1648E-02
     -7.922  0.5199E-02  0.5199E-02  0.2022E-02  0.2022E-02
     -7.850  0.5655E-02  0.5655E-02  0.2430E-02  0.2430E-02
     -7.778  0.4333E-02  0.4333E-02  0.2742E-02  0.2742E-02
     -7.706  0.2107E-02  0.2107E-02  0.2893E-02  0.2893E-02
     -7.634  0.5132E-03  0.5132E-03  0.2930E-02  0.2930E-02
     -7.562  0.4122E-03  0.4122E-03  0.2960E-02  0.2960E-02
     -7.490  0.1580E-02  0.1580E-02  0.3074E-02  0.3074E-02
     -7.418  0.3389E-02  0.3389E-02  0.3318E-02  0.3318E-02
     -7.346  0.5528E-02  0.5528E-02  0.3716E-02  0.3716E-02
     -7.274  0.7812E-02  0.7812E-02  0.4279E-02  0.4279E-02
     -7.202  0.9386E-02  0.9386E-02  0.4955E-02  0.4955E-02
     -7.130  0.8952E-02  0.8952E-02  0.5600E-02  0.5600E-02
     -7.058  0.6402E-02  0.6402E-02  0.6062E-02  0.6062E-02
     -6.986  0.3735E-02  0.3735E-02  0.6331E-02  0.6331E-02
     -6.913  0.3495E-02  0.3495E-02  0.6582E-02  0.6582E-02
     -6.841  0.6104E-02  0.6104E-02  0.7022E-02  0.7022E-02
     -6.769  0.9120E-02  0.9120E-02  0.7679E-02  0.7679E-02
     -6.697  0.9564E-02  0.9563E-02  0.8368E-02  0.8368E-02
     -6.625  0.6919E-02  0.6919E-02  0.8867E-02  0.8867E-02
     -6.553  0.3547E-02  0.3547E-02  0.9122E-02  0.9122E-02
     -6.481  0.2320E-02  0.2320E-02  0.9289E-02  0.9289E-02
     -6.409  0.4170E-02  0.4170E-02  0.9590E-02  0.9590E-02
     -6.337  0.7653E-02  0.7653E-02  0.1014E-01  0.1014E-01
     -6.265  0.1049E-01  0.1049E-01  0.1090E-01  0.1090E-01
     -6.193  0.1147E-01  0.1147E-01  0.1172E-01  0.1172E-01
     -6.121  0.1100E-01  0.1100E-01  0.1252E-01  0.1252E-01
     -6.049  0.9973E-02  0.9973E-02  0.1323E-01  0.1323E-01
     -5.977  0.8800E-02  0.8800E-02  0.1387E-01  0.1387E-01
     -5.905  0.7548E-02  0.7548E-02  0.1441E-01  0.1441E-01
     -5.833  0.6441E-02  0.6441E-02  0.1488E-01  0.1488E-01
     -5.761  0.5560E-02  0.5560E-02  0.1528E-01  0.1528E-01
     -5.689  0.4776E-02  0.4776E-02  0.1562E-01  0.1562E-01
     -5.617  0.4707E-02  0.4707E-02  0.1596E-01  0.1596E-01
     -5.545  0.6823E-02  0.6823E-02  0.1645E-01  0.1645E-01
     -5.473  0.1159E-01  0.1159E-01  0.1729E-01  0.1729E-01
     -5.401  0.1704E-01  0.1704E-01  0.1851E-01  0.1851E-01
     -5.329  0.2021E-01  0.2021E-01  0.1997E-01  0.1997E-01
     -5.257  0.2010E-01  0.2010E-01  0.2142E-01  0.2142E-01
     -5.184  0.1838E-01  0.1838E-01  0.2274E-01  0.2274E-01
     -5.112  0.1677E-01  0.1677E-01  0.2395E-01  0.2395E-01
     -5.040  0.1506E-01  0.1506E-01  0.2504E-01  0.2504E-01
     -4.968  0.1285E-01  0.1285E-01  0.2596E-01  0.2596E-01
     -4.896  0.1125E-01  0.1125E-01  0.2677E-01  0.2677E-01
     -4.824  0.1184E-01  0.1184E-01  0.2762E-01  0.2762E-01
     -4.752  0.1557E-01  0.1557E-01  0.2875E-01  0.2875E-01
     -4.680  0.2237E-01  0.2237E-01  0.3036E-01  0.3036E-01
     -4.608  0.3043E-01  0.3043E-01  0.3255E-01  0.3255E-01
     -4.536  0.3696E-01  0.3696E-01  0.3521E-01  0.3521E-01
     -4.464  0.4129E-01  0.4129E-01  0.3819E-01  0.3819E-01
     -4.392  0.4550E-01  0.4550E-01  0.4146E-01  0.4146E-01
     -4.320  0.5045E-01  0.5045E-01  0.4510E-01  0.4510E-01
     -4.248  0.5355E-01  0.5355E-01  0.4896E-01  0.4896E-01
     -4.176  0.5285E-01  0.5285E-01  0.5276E-01  0.5276E-01
     -4.104  0.5116E-01  0.5116E-01  0.5645E-01  0.5645E-01
     -4.032  0.5390E-01  0.5390E-01  0.6033E-01  0.6033E-01
     -3.960  0.6523E-01  0.6523E-01  0.6503E-01  0.6503E-01
     -3.888  0.8501E-01  0.8501E-01  0.7116E-01  0.7116E-01
     -3.816  0.1067E+00  0.1067E+00  0.7884E-01  0.7884E-01
     -3.744  0.1216E+00  0.1216E+00  0.8761E-01  0.8761E-01
     -3.672  0.1272E+00  0.1272E+00  0.9677E-01  0.9677E-01
     -3.600  0.1271E+00  0.1271E+00  0.1059E+00  0.1059E+00
     -3.527  0.1240E+00  0.1240E+00  0.1149E+00  0.1149E+00
     -3.455  0.1173E+00  0.1173E+00  0.1233E+00  0.1233E+00
     -3.383  0.1071E+00  0.1071E+00  0.1310E+00  0.1310E+00
     -3.311  0.9700E-01  0.9700E-01  0.1380E+00  0.1380E+00
     -3.239  0.9192E-01  0.9192E-01  0.1446E+00  0.1446E+00
     -3.167  0.9491E-01  0.9491E-01  0.1515E+00  0.1515E+00
     -3.095  0.1055E+00  0.1055E+00  0.1591E+00  0.1591E+00
     -3.023  0.1205E+00  0.1205E+00  0.1678E+00  0.1678E+00
     -2.951  0.1358E+00  0.1358E+00  0.1775E+00  0.1775E+00
     -2.879  0.1482E+00  0.1482E+00  0.1882E+00  0.1882E+00
     -2.807  0.1564E+00  0.1564E+00  0.1995E+00  0.1995E+00
     -2.735  0.1629E+00  0.1629E+00  0.2112E+00  0.2112E+00
     -2.663  0.1727E+00  0.1727E+00  0.2237E+00  0.2237E+00
     -2.591  0.1873E+00  0.1873E+00  0.2371E+00  0.2371E+00
     -2.519  0.2000E+00  0.2000E+00  0.2516E+00  0.2516E+00
     -2.447  0.2003E+00  0.2003E+00  0.2660E+00  0.2660E+00
     -2.375  0.1869E+00  0.1869E+00  0.2794E+00  0.2794E+00
     -2.303  0.1717E+00  0.1717E+00  0.2918E+00  0.2918E+00
     -2.231  0.1679E+00  0.1679E+00  0.3039E+00  0.3039E+00
     -2.159  0.1770E+00  0.1770E+00  0.3167E+00  0.3167E+00
     -2.087  0.1905E+00  0.1905E+00  0.3304E+00  0.3304E+00
     -2.015  0.2012E+00  0.2012E+00  0.3449E+00  0.3449E+00
     -1.943  0.2074E+00  0.2074E+00  0.3598E+00  0.3598E+00
     -1.871  0.2114E+00  0.2114E+00  0.3750E+00  0.3750E+00
     -1.798  0.2151E+00  0.2151E+00  0.3905E+00  0.3905E+00
     -1.726  0.2180E+00  0.2180E+00  0.4062E+00  0.4062E+00
     -1.654  0.2186E+00  0.2186E+00  0.4220E+00  0.4220E+00
     -1.582  0.2201E+00  0.2201E+00  0.4379E+00  0.4379E+00
     -1.510  0.2292E+00  0.2292E+00  0.4544E+00  0.4544E+00
     -1.438  0.2479E+00  0.2479E+00  0.4722E+00  0.4722E+00
     -1.366  0.2717E+00  0.2717E+00  0.4918E+00  0.4918E+00
     -1.294  0.2923E+00  0.2923E+00  0.5129E+00  0.5129E+00
     -1.222  0.2986E+00  0.2986E+00  0.5344E+00  0.5344E+00
     -1.150  0.2784E+00  0.2784E+00  0.5544E+00  0.5544E+00
     -1.078  0.2289E+00  0.2289E+00  0.5709E+00  0.5709E+00
     -1.006  0.1621E+00  0.1621E+00  0.5826E+00  0.5826E+00
     -0.934  0.9791E-01  0.9791E-01  0.5896E+00  0.5896E+00
     -0.862  0.5122E-01  0.5122E-01  0.5933E+00  0.5933E+00
     -0.790  0.2578E-01  0.2578E-01  0.5952E+00  0.5952E+00
     -0.718  0.1703E-01  0.1703E-01  0.5964E+00  0.5964E+00
     -0.646  0.1792E-01  0.1792E-01  0.5977E+00  0.5977E+00
     -0.574  0.2311E-01  0.2311E-01  0.5994E+00  0.5994E+00
     -0.502  0.2896E-01  0.2896E-01  0.6015E+00  0.6015E+00
     -0.430  0.3135E-01  0.3135E-01  0.6037E+00  0.6037E+00
     -0.358  0.2757E-01  0.2757E-01  0.6057E+00  0.6057E+00
     -0.286  0.2030E-01  0.2030E-01  0.6072E+00  0.6072E+00
     -0.214  0.1475E-01  0.1475E-01  0.6082E+00  0.6082E+00
     -0.141  0.1219E-01  0.1219E-01  0.6091E+00  0.6091E+00
     -0.069  0.1030E-01  0.1030E-01  0.6099E+00  0.6099E+00
      0.003  0.8428E-02  0.8428E-02  0.6105E+00  0.6105E+00
      0.075  0.8719E-02  0.8719E-02  0.6111E+00  0.6111E+00
      0.147  0.1217E-01  0.1217E-01  0.6120E+00  0.6120E+00
      0.219  0.1684E-01  0.1684E-01  0.6132E+00  0.6132E+00
      0.291  0.2116E-01  0.2116E-01  0.6147E+00  0.6147E+00
      0.363  0.2632E-01  0.2632E-01  0.6166E+00  0.6166E+00
      0.435  0.3266E-01  0.3266E-01  0.6190E+00  0.6190E+00
      0.507  0.3581E-01  0.3581E-01  0.6215E+00  0.6215E+00
      0.579  0.3103E-01  0.3103E-01  0.6238E+00  0.6238E+00
      0.651  0.2000E-01  0.2000E-01  0.6252E+00  0.6252E+00
      0.723  0.9408E-02  0.9408E-02  0.6259E+00  0.6259E+00
      0.795  0.4205E-02  0.4205E-02  0.6262E+00  0.6262E+00
      0.867  0.4656E-02  0.4656E-02  0.6265E+00  0.6265E+00
      0.939  0.8456E-02  0.8456E-02  0.6271E+00  0.6271E+00
      1.011  0.1328E-01  0.1328E-01  0.6281E+00  0.6281E+00
      1.083  0.1737E-01  0.1737E-01  0.6293E+00  0.6293E+00
      1.155  0.1953E-01  0.1953E-01  0.6308E+00  0.6308E+00
      1.227  0.1988E-01  0.1988E-01  0.6322E+00  0.6322E+00
      1.299  0.1954E-01  0.1954E-01  0.6336E+00  0.6336E+00
      1.371  0.1918E-01  0.1918E-01  0.6350E+00  0.6350E+00
      1.443  0.1896E-01  0.1896E-01  0.6363E+00  0.6363E+00
      1.515  0.1923E-01  0.1923E-01  0.6377E+00  0.6377E+00
      1.588  0.2006E-01  0.2006E-01  0.6392E+00  0.6392E+00
      1.660  0.2044E-01  0.2044E-01  0.6406E+00  0.6406E+00
      1.732  0.1903E-01  0.1903E-01  0.6420E+00  0.6420E+00
      1.804  0.1595E-01  0.1595E-01  0.6432E+00  0.6432E+00
      1.876  0.1328E-01  0.1328E-01  0.6441E+00  0.6441E+00
      1.948  0.1277E-01  0.1277E-01  0.6450E+00  0.6450E+00
      2.020  0.1414E-01  0.1414E-01  0.6461E+00  0.6461E+00
      2.092  0.1682E-01  0.1682E-01  0.6473E+00  0.6473E+00
      2.164  0.2095E-01  0.2095E-01  0.6488E+00  0.6488E+00
      2.236  0.2486E-01  0.2486E-01  0.6506E+00  0.6506E+00
      2.308  0.2452E-01  0.2452E-01  0.6523E+00  0.6523E+00
      2.380  0.1829E-01  0.1829E-01  0.6537E+00  0.6537E+00
      2.452  0.1020E-01  0.1020E-01  0.6544E+00  0.6544E+00
      2.524  0.6274E-02  0.6274E-02  0.6548E+00  0.6548E+00
      2.596  0.8408E-02  0.8408E-02  0.6554E+00  0.6554E+00
      2.668  0.1307E-01  0.1307E-01  0.6564E+00  0.6564E+00
      2.740  0.1574E-01  0.1574E-01  0.6575E+00  0.6575E+00
      2.812  0.1517E-01  0.1517E-01  0.6586E+00  0.6586E+00
      2.884  0.1293E-01  0.1293E-01  0.6595E+00  0.6595E+00
      2.956  0.1059E-01  0.1059E-01  0.6603E+00  0.6603E+00
      3.028  0.9031E-02  0.9031E-02  0.6610E+00  0.6610E+00
      3.100  0.9191E-02  0.9191E-02  0.6616E+00  0.6616E+00
      3.172  0.1189E-01  0.1189E-01  0.6625E+00  0.6625E+00
      3.245  0.1648E-01  0.1648E-01  0.6637E+00  0.6637E+00
      3.317  0.2027E-01  0.2027E-01  0.6651E+00  0.6651E+00
      3.389  0.2070E-01  0.2070E-01  0.6666E+00  0.6666E+00
      3.461  0.1864E-01  0.1864E-01  0.6680E+00  0.6680E+00
      3.533  0.1750E-01  0.1750E-01  0.6692E+00  0.6692E+00
      3.605  0.1850E-01  0.1850E-01  0.6706E+00  0.6706E+00
      3.677  0.1924E-01  0.1924E-01  0.6719E+00  0.6719E+00
      3.749  0.1818E-01  0.1818E-01  0.6733E+00  0.6733E+00
      3.821  0.1746E-01  0.1746E-01  0.6745E+00  0.6745E+00
      3.893  0.1925E-01  0.1925E-01  0.6759E+00  0.6759E+00
      3.965  0.2190E-01  0.2190E-01  0.6775E+00  0.6775E+00
      4.037  0.2168E-01  0.2168E-01  0.6790E+00  0.6790E+00
      4.109  0.1751E-01  0.1751E-01  0.6803E+00  0.6803E+00
      4.181  0.1289E-01  0.1289E-01  0.6812E+00  0.6812E+00
      4.253  0.1279E-01  0.1279E-01  0.6821E+00  0.6821E+00
      4.325  0.1869E-01  0.1869E-01  0.6835E+00  0.6835E+00
      4.397  0.2674E-01  0.2674E-01  0.6854E+00  0.6854E+00
      4.469  0.3059E-01  0.3059E-01  0.6876E+00  0.6876E+00
      4.541  0.2668E-01  0.2668E-01  0.6895E+00  0.6895E+00
      4.613  0.1807E-01  0.1807E-01  0.6908E+00  0.6908E+00
      4.685  0.1183E-01  0.1183E-01  0.6917E+00  0.6917E+00
      4.757  0.1160E-01  0.1160E-01  0.6925E+00  0.6925E+00
      4.829  0.1442E-01  0.1442E-01  0.6936E+00  0.6936E+00
      4.901  0.1620E-01  0.1620E-01  0.6947E+00  0.6947E+00
      4.974  0.1749E-01  0.1749E-01  0.6960E+00  0.6960E+00
      5.046  0.2112E-01  0.2112E-01  0.6975E+00  0.6975E+00
      5.118  0.2630E-01  0.2630E-01  0.6994E+00  0.6994E+00
      5.190  0.2865E-01  0.2865E-01  0.7015E+00  0.7015E+00
      5.262  0.2563E-01  0.2563E-01  0.7033E+00  0.7033E+00
      5.334  0.1939E-01  0.1939E-01  0.7047E+00  0.7047E+00
      5.406  0.1418E-01  0.1418E-01  0.7057E+00  0.7057E+00
      5.478  0.1227E-01  0.1227E-01  0.7066E+00  0.7066E+00
      5.550  0.1283E-01  0.1283E-01  0.7076E+00  0.7076E+00
      5.622  0.1447E-01  0.1447E-01  0.7086E+00  0.7086E+00
      5.694  0.1772E-01  0.1772E-01  0.7099E+00  0.7099E+00
      5.766  0.2379E-01  0.2379E-01  0.7116E+00  0.7116E+00
      5.838  0.3154E-01  0.3154E-01  0.7139E+00  0.7139E+00
      5.910  0.3758E-01  0.3758E-01  0.7166E+00  0.7166E+00
      5.982  0.3914E-01  0.3914E-01  0.7194E+00  0.7194E+00
      6.054  0.3619E-01  0.3619E-01  0.7220E+00  0.7220E+00
      6.126  0.3132E-01  0.3132E-01  0.7243E+00  0.7242E+00
      6.198  0.2722E-01  0.2722E-01  0.7262E+00  0.7262E+00
      6.270  0.2477E-01  0.2477E-01  0.7280E+00  0.7280E+00
      6.342  0.2401E-01  0.2401E-01  0.7297E+00  0.7297E+00
      6.414  0.2477E-01  0.2477E-01  0.7315E+00  0.7315E+00
      6.486  0.2556E-01  0.2556E-01  0.7334E+00  0.7334E+00
      6.558  0.2448E-01  0.2448E-01  0.7351E+00  0.7351E+00
      6.631  0.2148E-01  0.2148E-01  0.7367E+00  0.7367E+00
      6.703  0.1845E-01  0.1845E-01  0.7380E+00  0.7380E+00
      6.775  0.1809E-01  0.1810E-01  0.7393E+00  0.7393E+00
      6.847  0.2233E-01  0.2233E-01  0.7409E+00  0.7409E+00
      6.919  0.2930E-01  0.2930E-01  0.7430E+00  0.7430E+00
      6.991  0.3330E-01  0.3330E-01  0.7454E+00  0.7454E+00
      7.063  0.3091E-01  0.3091E-01  0.7476E+00  0.7476E+00
      7.135  0.2506E-01  0.2505E-01  0.7494E+00  0.7494E+00
      7.207  0.2069E-01  0.2069E-01  0.7509E+00  0.7509E+00
      7.279  0.1925E-01  0.1925E-01  0.7523E+00  0.7523E+00
      7.351  0.1917E-01  0.1917E-01  0.7537E+00  0.7537E+00
      7.423  0.1925E-01  0.1925E-01  0.7551E+00  0.7551E+00
      7.495  0.2055E-01  0.2055E-01  0.7566E+00  0.7566E+00
      7.567  0.2496E-01  0.2496E-01  0.7584E+00  0.7584E+00
      7.639  0.3127E-01  0.3127E-01  0.7606E+00  0.7606E+00
      7.711  0.3485E-01  0.3485E-01  0.7631E+00  0.7631E+00
      7.783  0.3350E-01  0.3350E-01  0.7655E+00  0.7655E+00
      7.855  0.3103E-01  0.3103E-01  0.7678E+00  0.7678E+00
      7.927  0.3265E-01  0.3265E-01  0.7701E+00  0.7701E+00
      7.999  0.3885E-01  0.3884E-01  0.7729E+00  0.7729E+00
      8.071  0.4481E-01  0.4481E-01  0.7762E+00  0.7762E+00
      8.143  0.4511E-01  0.4511E-01  0.7794E+00  0.7794E+00
      8.215  0.3838E-01  0.3838E-01  0.7822E+00  0.7822E+00
      8.287  0.2752E-01  0.2753E-01  0.7842E+00  0.7842E+00
      8.360  0.1685E-01  0.1687E-01  0.7854E+00  0.7854E+00
      8.432  0.1057E-01  0.1063E-01  0.7861E+00  0.7861E+00
      8.504  0.1175E-01  0.1187E-01  0.7870E+00  0.7870E+00
      8.576  0.1997E-01  0.2000E-01  0.7884E+00  0.7884E+00
      8.648  0.3038E-01  0.2988E-01  0.7906E+00  0.7906E+00
      8.720  0.3693E-01  0.3546E-01  0.7933E+00  0.7931E+00
      8.792  0.3633E-01  0.3424E-01  0.7959E+00  0.7956E+00
      8.864  0.2902E-01  0.2767E-01  0.7980E+00  0.7976E+00
      8.936  0.1834E-01  0.1883E-01  0.7993E+00  0.7990E+00
      9.008  0.8642E-02  0.1051E-01  0.7999E+00  0.7997E+00
      9.080  0.2575E-02  0.4411E-02  0.8001E+00  0.8000E+00
      9.152 -0.4444E-05  0.9574E-03  0.8001E+00  0.8001E+00
      9.224 -0.6062E-03 -0.3875E-03  0.8001E+00  0.8001E+00
      9.296 -0.4853E-03 -0.5549E-03  0.8000E+00  0.8000E+00
      9.368 -0.2506E-03 -0.3372E-03  0.8000E+00  0.8000E+00
      9.440 -0.9526E-04 -0.1375E-03  0.8000E+00  0.8000E+00
      9.512 -0.2727E-04 -0.4081E-04  0.8000E+00  0.8000E+00
      9.584 -0.5912E-05 -0.9069E-05  0.8000E+00  0.8000E+00
      9.656 -0.9733E-06 -0.1526E-05  0.8000E+00  0.8000E+00
      9.728 -0.1221E-06 -0.1956E-06  0.8000E+00  0.8000E+00
      9.800 -0.1170E-07 -0.1916E-07  0.8000E+00  0.8000E+00
      9.872 -0.8591E-09 -0.1437E-08  0.8000E+00  0.8000E+00
      9.944 -0.4843E-10 -0.8274E-10  0.8000E+00  0.8000E+00
     10.016 -0.2099E-11 -0.3658E-11  0.8000E+00  0.8000E+00
     10.089 -0.7003E-13 -0.1243E-12  0.8000E+00  0.8000E+00
     10.161 -0.1798E-14 -0.3247E-14  0.8000E+00  0.8000E+00
     10.233 -0.3639E-16 -0.6592E-16  0.8000E+00  0.8000E+00
     10.305 -0.4281E-18 -0.8561E-18  0.8000E+00  0.8000E+00
     10.377  0.0000E+00  0.0000E+00  0.8000E+00  0.8000E+00
     10.449  0.0000E+00  0.0000E+00  0.8000E+00  0.8000E+00
     10.521  0.0000E+00  0.0000E+00  0.8000E+00  0.8000E+00
     10.593  0.0000E+00  0.0000E+00  0.8000E+00  0.8000E+00
     10.665  0.0000E+00  0.0000E+00  0.8000E+00  0.8000E+00
     10.737  0.0000E+00  0.0000E+00  0.8000E+00  0.8000E+00
     10.809  0.0000E+00  0.0000E+00  0.8000E+00  0.8000E+00
     10.881  0.0000E+00  0.0000E+00  0.8000E+00  0.8000E+00
     10.953  0.0000E+00  0.0000E+00  0.8000E+00  0.8000E+00
     11.025  0.0000E+00  0.0000E+00  0.8000E+00  0.8000E+00
