 vasp.6.3.2 27Jun22 (build Aug 17 2022 15:43:34) complex                        
  
 executed on           tv2STDVTST date 2025.01.21  20:05:43
 running   20 mpi-ranks, with    1 threads/rank
 distrk:  each k-point on   20 cores,    1 groups
 distr:  one band on NCORE=   5 cores,    4 groups


--------------------------------------------------------------------------------------------------------


 -----------------------------------------------------------------------------
|                                                                             |
|           W    W    AA    RRRRR   N    N  II  N    N   GGGG   !!!           |
|           W    W   A  A   R    R  NN   N  II  NN   N  G    G  !!!           |
|           W    W  A    A  R    R  N N  N  II  N N  N  G       !!!           |
|           W WW W  AAAAAA  RRRRR   N  N N  II  N  N N  G  GGG   !            |
|           WW  WW  A    A  R   R   N   NN  II  N   NN  G    G                |
|           W    W  A    A  R    R  N    N  II  N    N   GGGG   !!!           |
|                                                                             |
|     Found issues when parsing the INCAR file                                |
|     In line 64: Tagname --- R W I G S contains invalid characters.          |
|     Please check if the interpretation in the OUTCAR file is correct.       |
|                                                                             |
 -----------------------------------------------------------------------------

 INCAR:
    = \=\=\=\=\=\=\=\=\=\=\=\=\=\=\=\=\=\=\=\=\=\=\=\=\=\=\=\=\=\=\=\=\=\=\=\=\=\=\=\=\=\=\=\=\=\=\=\=\=\=\=\=\=\=\=\=\=\=\=\=\=\=\=\=\=\=\=\=\=\=\=\=
    = \=\=\=\=\=\=\=\=\=\=\=\=\=\=\=\=\=\=\=\=\=\=\=\=\=\=\=\=\=\=\=\=\=\=\=\=\=\=\=\=\=\=\=\=\=\=\=\=\=\=\=\=\=\=\=\=\=\=\=\=\=\=\=\=\=\=\=\=\=\=\=\=
   ISTART = 0
   ICHARG = 2
   IPIPOL = 3
   IVDW = 11
   IDIPOL = 3
   IVDW = 11
    = \=\=\=\=\=\=\=\=\=\=\=\=\=\=\=\=\=\=\=\=\=\=\=\=\=\=\=\=\=\=\=\=\=\=\=\=\=\=\=\=\=\=\=\=\=\=\=\=\=\=\=\=\=\=\=\=\=\=\=\=\=\=\=\=\=\=\=\=\=\=\=\=
    = \=\=\=\=\=\=\=\=\=\=\=\=\=\=\=\=\=\=\=\=\=\=\=\=\=\=\=\=\=\=\=\=\=\=\=\=\=\=\=\=\=\=\=\=\=\=\=\=\=\=\=\=\=\=\=\=\=\=\=\=\=\=\=\=\=\=\=\=\=\=\=\=
   ISPIN = 2
    = \=\=\=\=\=\=\=\=\=\=\=\=\=\=\=\=\=\=\=\=\=\=\=\=\=\=\=\=\=\=\=\=\=\=\=\=\=\=\=\=\=\=\=\=\=\=\=\=\=\=\=\=\=\=\=\=\=\=\=\=\=\=\=\=\=\=\=\=\=\=\=\=
    = \=\=\=\=\=\=\=\=\=\=\=\=\=\=\=\=\=\=\=\=\=\=\=\=\=\=\=\=\=\=\=\=\=\=\=\=\=\=\=\=\=\=\=\=\=\=\=\=\=\=\=\=\=\=\=\=\=\=\=\=\=\=\=\=\=\=\=\=\=\=\=\=
   ENCUT = 400
   PREC = Normal
   EDIFF = 2E-04
   GGA = PE
   ISMEAR = 1
   SIGMA = 0.2
   LREAL = .FALSE.
    = \=\=\=\=\=\=\=\=\=\=\=\=\=\=\=\=\=\=\=\=\=\=\=\=\=\=\=\=\=\=\=\=\=\=\=\=\=\=\=\=\=\=\=\=\=\=\=\=\=\=\=\=\=\=\=\=\=\=\=\=\=\=\=\=\=\=\=\=\=\=\=\=
    = \=\=\=\=\=\=\=\=\=\=\=\=\=\=\=\=\=\=\=\=\=\=\=\=\=\=\=\=\=\=\=\=\=\=\=\=\=\=\=\=\=\=\=\=\=\=\=\=\=\=\=\=\=\=\=\=\=\=\=\=\=\=\=\=\=\=\=\=\=\=\=\=
   ISYM = 1
   NSW = 800
   IBRION = 2
   POTIM = 0.5
   ISIF = 2
   EDIFFG = -.03
    = \=\=\=\=\=\=\=\=\=\=\=\=\=\=\=\=\=\=\=\=\=\=\=\=\=\=\=\=\=\=\=\=\=\=\=\=\=\=\=\=\=\=\=\=\=\=\=\=\=\=\=\=\=\=\=\=\=\=\=\=\=\=\=\=\=\=\=\=\=\=\=\=
    = \=\=\=\=\=\=\=\=\=\=\=\=\=\=\=\=\=\=\=\=\=\=\=\=\=\=\=\=\=\=\=\=\=\=\=\=\=\=\=\=\=\=\=\=\=\=\=\=\=\=\=\=\=\=\=\=\=\=\=\=\=\=\=\=\=\=\=\=\=\=\=\=
   NPAR = 4
   LWAVE = .FALSE.
   LCHARG = .FALSE.

 POTCAR:    PAW_PBE Cu 22Jun2005                  
 -----------------------------------------------------------------------------
|                                                                             |
|           W    W    AA    RRRRR   N    N  II  N    N   GGGG   !!!           |
|           W    W   A  A   R    R  NN   N  II  NN   N  G    G  !!!           |
|           W    W  A    A  R    R  N N  N  II  N N  N  G       !!!           |
|           W WW W  AAAAAA  RRRRR   N  N N  II  N  N N  G  GGG   !            |
|           WW  WW  A    A  R   R   N   NN  II  N   NN  G    G                |
|           W    W  A    A  R    R  N    N  II  N    N   GGGG   !!!           |
|                                                                             |
|     You use a magnetic or noncollinear calculation, but did not specify     |
|     the initial magnetic moment with the MAGMOM tag. Note that a            |
|     default of 1 will be used for all atoms. This ferromagnetic setup       |
|     may break the symmetry of the crystal, in particular it may rule        |
|     out finding an antiferromagnetic solution. Thence, we recommend         |
|     setting the initial magnetic moment manually or verifying carefully     |
|     that this magnetic setup is desired.                                    |
|                                                                             |
 -----------------------------------------------------------------------------

 POTCAR:    PAW_PBE Cu 22Jun2005                  
   SHA256 =  0e71e558f37a4e8407882b4609ceaae59938afaad9ced71dfe8490308a0ab630 Cu/POTCAR             
   COPYR  = (c) Copyright 22Jun2005 Georg Kresse                                                    
   COPYR  = This file is part of the software VASP. Any use, copying, and all other rights are regul
   COPYR  = If you do not have a valid VASP license, you may not use, copy or distribute this file. 
   VRHFIN =Cu: d10 p1                                                                               
   LEXCH  = PE                                                                                      
   EATOM  =  1390.9808 eV,  102.2342 Ry                                                             
                                                                                                    
   TITEL  = PAW_PBE Cu 22Jun2005                                                                    
   LULTRA =        F    use ultrasoft PP ?                                                          
   IUNSCR =        1    unscreen: 0-lin 1-nonlin 2-no                                               
   RPACOR =    2.000    partial core radius                                                         
   POMASS =   63.546; ZVAL   =   11.000    mass and valenz                                          
   RCORE  =    2.300    outmost cutoff radius                                                       
   RWIGS  =    2.200; RWIGS  =    1.164    wigner-seitz radius (au A)                               
   ENMAX  =  295.446; ENMIN  =  221.585 eV                                                          
   ICORE  =        3    local potential                                                             
   LCOR   =        T    correct aug charges                                                         
   LPAW   =        T    paw PP                                                                      
   EAUG   =  586.980                                                                                
   DEXC   =    0.000                                                                                
   RMAX   =    2.344    core radius for proj-oper                                                   
   RAUG   =    1.300    factor for augmentation sphere                                              
   RDEP   =    2.302    radius for radial grids                                                     
   RDEPT  =    1.771    core radius for aug-charge                                                  
                                                                                                    
   Atomic configuration                                                                             
    9 entries                                                                                       
     n  l   j            E        occ.                                                              
     1  0  0.50     -8850.2468   2.0000                                                             
     2  0  0.50     -1062.3498   2.0000                                                             
     2  1  1.50      -916.8226   6.0000                                                             
     3  0  0.50      -114.6929   2.0000                                                             
     3  1  1.50       -72.1325   6.0000                                                             
     3  2  2.50        -5.0394  10.0000                                                             
     4  0  0.50        -4.6097   1.0000                                                             
     4  1  0.50        -4.0817   0.0000                                                             
     4  3  2.50        -1.3606   0.0000                                                             
   Description                                                                                      
     l       E           TYP  RCUT    TYP  RCUT                                                     
     2     -5.0393973     23  2.200                                                                 
     2     10.8846608     23  2.200                                                                 
     0     -4.6097109     23  2.200                                                                 
     0      8.2520465     23  2.200                                                                 
     1     -2.7211652     23  2.200                                                                 
     1     21.7055443     23  2.200                                                                 
     3      2.7211652     23  2.300                                                                 
  local pseudopotential read in
  partial core-charges read in
  partial kinetic energy density read in
  atomic valenz-charges read in
  non local Contribution for L=           2  read in
    real space projection operators read in
  non local Contribution for L=           2  read in
    real space projection operators read in
  non local Contribution for L=           0  read in
    real space projection operators read in
  non local Contribution for L=           0  read in
    real space projection operators read in
  non local Contribution for L=           1  read in
    real space projection operators read in
  non local Contribution for L=           1  read in
    real space projection operators read in
    PAW grid and wavefunctions read in
 
   number of l-projection  operators is LMAX  =           6
   number of lm-projection operators is LMMAX =          18
 
 -----------------------------------------------------------------------------
|                                                                             |
|               ----> ADVICE to this user running VASP <----                  |
|                                                                             |
|     You have a (more or less) 'large supercell' and for larger cells it     |
|     might be more efficient to use real-space projection operators.         |
|     Therefore, try LREAL= Auto in the INCAR file.                           |
|     Mind: For very accurate calculation, you might also keep the            |
|     reciprocal projection scheme (i.e. LREAL=.FALSE.).                      |
|                                                                             |
 -----------------------------------------------------------------------------

  PAW_PBE Cu 22Jun2005                  :
 energy of atom  1       EATOM=-1390.9808
 kinetic energy error for atom=    0.0232 (will be added to EATOM!!)
 
 
 POSCAR: FCC Cu
  positions in cartesian coordinates
  velocities in cartesian coordinates
  No initial velocities read in
 exchange correlation table for  LEXCH =        8
   RHO(1)=    0.500       N(1)  =     2000
   RHO(2)=  100.500       N(2)  =     4000

 VTST: version 4.2, (08/11/21)

 CHAIN: initializing optimizer
 
 OPT: Using VASP Conjugate-Gradient optimizer
 CHAIN: Read ICHAIN            0
 
 POSCAR: FCC Cu
  positions in cartesian coordinates
  velocities in cartesian coordinates
  No initial velocities read in
 


--------------------------------------------------------------------------------------------------------


 ion  position               nearest neighbor table
   1  0.000  0.000  0.000-  19 2.57  28 2.57  21 2.57  34 2.57  10 2.57  12 2.57  16 2.57  18 2.57

   2  0.000  0.333  0.000-  19 2.57  29 2.57  20 2.57  35 2.57  10 2.57  11 2.57  16 2.57  17 2.57

   3  0.000  0.667  0.000-  30 2.57  21 2.57  36 2.57  20 2.57  12 2.57  18 2.57  11 2.57  17 2.57

   4  0.333  0.000  0.000-  22 2.57  28 2.57  31 2.57  24 2.57  10 2.57  13 2.57  12 2.57  15 2.57

   5  0.333  0.333  0.000-  22 2.57  29 2.57  23 2.57  32 2.57  10 2.57  11 2.57  13 2.57  14 2.57

   6  0.333  0.667  0.000-  30 2.57  24 2.57  33 2.57  23 2.57  12 2.57  15 2.57  11 2.57  14 2.57

   7  0.667  0.000  0.000-  25 2.57  34 2.57  27 2.57  31 2.57  16 2.57  18 2.57  13 2.57  15 2.57

   8  0.667  0.333  0.000-  25 2.57  26 2.57  35 2.57  32 2.57  16 2.57  17 2.57  13 2.57  14 2.57

   9  0.667  0.667  0.000-  27 2.57  36 2.57  33 2.57  26 2.57  18 2.57  17 2.57  15 2.57  14 2.57

  10  0.167  0.167  0.000-  19 2.57  22 2.57  28 2.57  29 2.57   1 2.57   2 2.57   4 2.57   5 2.57

  11  0.167  0.500  0.000-  20 2.57  23 2.57  29 2.57  30 2.57   2 2.57   5 2.57   3 2.57   6 2.57

  12  0.167  0.833  0.000-  21 2.57  24 2.57  30 2.57  28 2.57   3 2.57   6 2.57   4 2.57   1 2.57

  13  0.500  0.167  0.000-  31 2.57  32 2.57  22 2.57  25 2.57   4 2.57   5 2.57   7 2.57   8 2.57

  14  0.500  0.500  0.000-  23 2.57  32 2.57  26 2.57  33 2.57   5 2.57   6 2.57   8 2.57   9 2.57

  15  0.500  0.833  0.000-  24 2.57  33 2.57  31 2.57  27 2.57   6 2.57   4 2.57   9 2.57   7 2.57

  16  0.833  0.167  0.000-  34 2.57  35 2.57  25 2.57  19 2.57   7 2.57   8 2.57   1 2.57   2 2.57

  17  0.833  0.500  0.000-  26 2.57  35 2.57  20 2.57  36 2.57   8 2.57   2 2.57   9 2.57   3 2.57

  18  0.833  0.833  0.000-  27 2.57  36 2.57  34 2.57  21 2.57   9 2.57   7 2.57   3 2.57   1 2.57

  19  0.000  0.167  0.082-  37 2.57  38 2.57  46 2.57  52 2.57   2 2.57  10 2.57   1 2.57  16 2.57
                            28 2.57  29 2.57  34 2.57  35 2.57
  20  0.000  0.500  0.082-  47 2.57  38 2.57  53 2.57  39 2.57  11 2.57   2 2.57  17 2.57   3 2.57
                            29 2.57  35 2.57  30 2.57  36 2.57
  21  0.000  0.833  0.082-  48 2.57  39 2.57  37 2.57  54 2.57  12 2.57   3 2.57   1 2.57  18 2.57
                            30 2.57  28 2.57  36 2.57  34 2.57
  22  0.333  0.167  0.082-  40 2.57  41 2.57  46 2.57  49 2.57   5 2.57  10 2.57   4 2.57  13 2.57
                            28 2.57  29 2.57  31 2.57  32 2.57
  23  0.333  0.500  0.082-  47 2.57  41 2.57  50 2.57  42 2.57  11 2.57   5 2.57  14 2.57   6 2.57
                            29 2.57  32 2.57  30 2.57  33 2.57
  24  0.333  0.833  0.082-  48 2.57  42 2.57  51 2.57  40 2.57  12 2.57   6 2.57  15 2.57   4 2.57
                            30 2.57  33 2.57  28 2.57  31 2.57
  25  0.667  0.167  0.082-  43 2.57  44 2.57  52 2.57  49 2.57   7 2.57   8 2.57  16 2.57  13 2.57
                            34 2.57  35 2.57  31 2.57  32 2.57
  26  0.667  0.500  0.082-  44 2.57  53 2.57  50 2.57  45 2.57   8 2.57  17 2.57  14 2.57   9 2.57
                            35 2.57  32 2.57  36 2.57  33 2.57
  27  0.667  0.833  0.082-  45 2.57  54 2.57  43 2.57  51 2.57   9 2.57  18 2.57   7 2.57  15 2.57
                            36 2.57  34 2.57  33 2.57  31 2.57
  28  0.167  0.000  0.082-  37 2.57  40 2.57  46 2.57  48 2.57   4 2.57  10 2.57   1 2.57  12 2.57
                            19 2.57  22 2.57  21 2.57  24 2.57
  29  0.167  0.333  0.082-  38 2.57  41 2.57  46 2.57  47 2.57   5 2.57  10 2.57   2 2.57  11 2.57
                            19 2.57  22 2.57  20 2.57  23 2.57
  30  0.167  0.667  0.082-  39 2.57  42 2.57  48 2.57  47 2.57   3 2.57   6 2.57  12 2.57  11 2.57
                            21 2.57  24 2.57  23 2.57  20 2.57
  31  0.500  0.000  0.082-  49 2.57  40 2.57  51 2.57  43 2.57  13 2.57   4 2.57  15 2.57   7 2.57
                            22 2.57  24 2.57  25 2.57  27 2.57
  32  0.500  0.333  0.082-  49 2.57  41 2.57  50 2.57  44 2.57  13 2.57   5 2.57  14 2.57   8 2.57
                            22 2.57  23 2.57  25 2.57  26 2.57
  33  0.500  0.667  0.082-  42 2.57  51 2.57  50 2.57  45 2.57   6 2.57  15 2.57  14 2.57   9 2.57
                            24 2.57  23 2.57  27 2.57  26 2.57
  34  0.833  0.000  0.082-  52 2.57  43 2.57  37 2.57  54 2.57  16 2.57   7 2.57   1 2.57  18 2.57
                            25 2.57  19 2.57  27 2.57  21 2.57
  35  0.833  0.333  0.082-  52 2.57  44 2.57  53 2.57  38 2.57  16 2.57   8 2.57  17 2.57   2 2.57
                            25 2.57  26 2.57  19 2.57  20 2.57
  36  0.833  0.667  0.082-  45 2.57  54 2.57  39 2.57  53 2.57   9 2.57  18 2.57   3 2.57  17 2.57
                            27 2.57  21 2.57  26 2.57  20 2.57
  37  0.000  0.000  0.163-  19 2.57  28 2.57  21 2.57  34 2.57  55 2.57  64 2.57  57 2.57  70 2.57
                            46 2.57  48 2.57  52 2.57  54 2.57
  38  0.000  0.333  0.163-  19 2.57  29 2.57  20 2.57  35 2.57  55 2.57  65 2.57  56 2.57  71 2.57
                            46 2.57  47 2.57  52 2.57  53 2.57
  39  0.000  0.667  0.163-  30 2.57  21 2.57  36 2.57  20 2.57  66 2.57  57 2.57  72 2.57  56 2.57
                            48 2.57  54 2.57  47 2.57  53 2.57
  40  0.333  0.000  0.163-  22 2.57  28 2.57  31 2.57  24 2.57  58 2.57  64 2.57  67 2.57  60 2.57
                            46 2.57  49 2.57  48 2.57  51 2.57
  41  0.333  0.333  0.163-  22 2.57  29 2.57  23 2.57  32 2.57  58 2.57  65 2.57  59 2.57  68 2.57
                            46 2.57  47 2.57  49 2.57  50 2.57
  42  0.333  0.667  0.163-  30 2.57  24 2.57  33 2.57  23 2.57  66 2.57  60 2.57  69 2.57  59 2.57
                            48 2.57  51 2.57  47 2.57  50 2.57
  43  0.667  0.000  0.163-  25 2.57  34 2.57  27 2.57  31 2.57  61 2.57  70 2.57  63 2.57  67 2.57
                            52 2.57  54 2.57  49 2.57  51 2.57
  44  0.667  0.333  0.163-  25 2.57  26 2.57  35 2.57  32 2.57  61 2.57  62 2.57  71 2.57  68 2.57
                            52 2.57  53 2.57  49 2.57  50 2.57
  45  0.667  0.667  0.163-  27 2.57  36 2.57  33 2.57  26 2.57  63 2.57  72 2.57  69 2.57  62 2.57
                            54 2.57  53 2.57  51 2.57  50 2.57
  46  0.167  0.167  0.163-  19 2.57  22 2.57  28 2.57  29 2.57  55 2.57  58 2.57  64 2.57  65 2.57
                            37 2.57  38 2.57  40 2.57  41 2.57
  47  0.167  0.500  0.163-  20 2.57  23 2.57  29 2.57  30 2.57  56 2.57  59 2.57  65 2.57  66 2.57
                            38 2.57  41 2.57  39 2.57  42 2.57
  48  0.167  0.833  0.163-  21 2.57  24 2.57  30 2.57  28 2.57  57 2.57  60 2.57  66 2.57  64 2.57
                            39 2.57  42 2.57  40 2.57  37 2.57
  49  0.500  0.167  0.163-  31 2.57  32 2.57  22 2.57  25 2.57  67 2.57  68 2.57  58 2.57  61 2.57
                            40 2.57  41 2.57  43 2.57  44 2.57
  50  0.500  0.500  0.163-  23 2.57  32 2.57  26 2.57  33 2.57  59 2.57  68 2.57  62 2.57  69 2.57
                            41 2.57  42 2.57  44 2.57  45 2.57
  51  0.500  0.833  0.163-  24 2.57  33 2.57  31 2.57  27 2.57  60 2.57  69 2.57  67 2.57  63 2.57
                            42 2.57  40 2.57  45 2.57  43 2.57
  52  0.833  0.167  0.163-  34 2.57  35 2.57  25 2.57  19 2.57  70 2.57  71 2.57  61 2.57  55 2.57
                            43 2.57  44 2.57  37 2.57  38 2.57
  53  0.833  0.500  0.163-  26 2.57  35 2.57  20 2.57  36 2.57  62 2.57  71 2.57  56 2.57  72 2.57
                            44 2.57  38 2.57  45 2.57  39 2.57
  54  0.833  0.833  0.163-  27 2.57  36 2.57  34 2.57  21 2.57  63 2.57  72 2.57  70 2.57  57 2.57
                            45 2.57  43 2.57  39 2.57  37 2.57
  55  0.000  0.167  0.245-  73 2.57  74 2.57  82 2.57  88 2.57  38 2.57  46 2.57  37 2.57  52 2.57
                            64 2.57  65 2.57  70 2.57  71 2.57
  56  0.000  0.500  0.245-  83 2.57  74 2.57  89 2.57  75 2.57  47 2.57  38 2.57  53 2.57  39 2.57
                            65 2.57  71 2.57  66 2.57  72 2.57
  57  0.000  0.833  0.245-  84 2.57  75 2.57  73 2.57  90 2.57  48 2.57  39 2.57  37 2.57  54 2.57
                            66 2.57  64 2.57  72 2.57  70 2.57
  58  0.333  0.167  0.245-  76 2.57  77 2.57  82 2.57  85 2.57  41 2.57  46 2.57  40 2.57  49 2.57
                            64 2.57  65 2.57  67 2.57  68 2.57
  59  0.333  0.500  0.245-  83 2.57  77 2.57  86 2.57  78 2.57  47 2.57  41 2.57  50 2.57  42 2.57
                            65 2.57  68 2.57  66 2.57  69 2.57
  60  0.333  0.833  0.245-  84 2.57  78 2.57  87 2.57  76 2.57  48 2.57  42 2.57  51 2.57  40 2.57
                            66 2.57  69 2.57  64 2.57  67 2.57
  61  0.667  0.167  0.245-  79 2.57  80 2.57  88 2.57  85 2.57  43 2.57  44 2.57  52 2.57  49 2.57
                            70 2.57  71 2.57  67 2.57  68 2.57
  62  0.667  0.500  0.245-  80 2.57  89 2.57  86 2.57  81 2.57  44 2.57  53 2.57  50 2.57  45 2.57
                            71 2.57  68 2.57  72 2.57  69 2.57
  63  0.667  0.833  0.245-  81 2.57  90 2.57  79 2.57  87 2.57  45 2.57  54 2.57  43 2.57  51 2.57
                            72 2.57  70 2.57  69 2.57  67 2.57
  64  0.167  0.000  0.245-  73 2.57  76 2.57  82 2.57  84 2.57  40 2.57  46 2.57  37 2.57  48 2.57
                            55 2.57  58 2.57  57 2.57  60 2.57
  65  0.167  0.333  0.245-  74 2.57  77 2.57  82 2.57  83 2.57  41 2.57  46 2.57  38 2.57  47 2.57
                            55 2.57  58 2.57  56 2.57  59 2.57
  66  0.167  0.667  0.245-  75 2.57  78 2.57  84 2.57  83 2.57  39 2.57  42 2.57  48 2.57  47 2.57
                            57 2.57  60 2.57  59 2.57  56 2.57
  67  0.500  0.000  0.245-  85 2.57  76 2.57  87 2.57  79 2.57  49 2.57  40 2.57  51 2.57  43 2.57
                            58 2.57  60 2.57  61 2.57  63 2.57
  68  0.500  0.333  0.245-  85 2.57  77 2.57  86 2.57  80 2.57  49 2.57  41 2.57  50 2.57  44 2.57
                            58 2.57  59 2.57  61 2.57  62 2.57
  69  0.500  0.667  0.245-  78 2.57  87 2.57  86 2.57  81 2.57  42 2.57  51 2.57  50 2.57  45 2.57
                            60 2.57  59 2.57  63 2.57  62 2.57
  70  0.833  0.000  0.245-  88 2.57  79 2.57  73 2.57  90 2.57  52 2.57  43 2.57  37 2.57  54 2.57
                            61 2.57  55 2.57  63 2.57  57 2.57
  71  0.833  0.333  0.245-  88 2.57  80 2.57  89 2.57  74 2.57  52 2.57  44 2.57  53 2.57  38 2.57
                            61 2.57  62 2.57  55 2.57  56 2.57
  72  0.833  0.667  0.245-  81 2.57  90 2.57  75 2.57  89 2.57  45 2.57  54 2.57  39 2.57  53 2.57
                            63 2.57  57 2.57  62 2.57  56 2.57
  73  0.000  0.000  0.326-  55 2.57  64 2.57  57 2.57  70 2.57  82 2.57  84 2.57  88 2.57  90 2.57

  74  0.000  0.333  0.326-  55 2.57  65 2.57  56 2.57  71 2.57  82 2.57  83 2.57  88 2.57  89 2.57

  75  0.000  0.667  0.326-  66 2.57  57 2.57  72 2.57  56 2.57  84 2.57  90 2.57  83 2.57  89 2.57

  76  0.333  0.000  0.326-  58 2.57  64 2.57  67 2.57  60 2.57  82 2.57  85 2.57  84 2.57  87 2.57

  77  0.333  0.333  0.326-  58 2.57  65 2.57  59 2.57  68 2.57  82 2.57  83 2.57  85 2.57  86 2.57

  78  0.333  0.667  0.326-  66 2.57  60 2.57  69 2.57  59 2.57  84 2.57  87 2.57  83 2.57  86 2.57

  79  0.667  0.000  0.326-  61 2.57  70 2.57  63 2.57  67 2.57  88 2.57  90 2.57  85 2.57  87 2.57

  80  0.667  0.333  0.326-  61 2.57  62 2.57  71 2.57  68 2.57  88 2.57  89 2.57  85 2.57  86 2.57

  81  0.667  0.667  0.326-  63 2.57  72 2.57  69 2.57  62 2.57  90 2.57  89 2.57  87 2.57  86 2.57

  82  0.167  0.167  0.326-  55 2.57  58 2.57  64 2.57  65 2.57  73 2.57  74 2.57  76 2.57  77 2.57

  83  0.167  0.500  0.326-  56 2.57  59 2.57  65 2.57  66 2.57  74 2.57  77 2.57  75 2.57  78 2.57

  84  0.167  0.833  0.326-  57 2.57  60 2.57  66 2.57  64 2.57  75 2.57  78 2.57  76 2.57  73 2.57

  85  0.500  0.167  0.326-  67 2.57  68 2.57  58 2.57  61 2.57  76 2.57  77 2.57  79 2.57  80 2.57

  86  0.500  0.500  0.326-  59 2.57  68 2.57  62 2.57  69 2.57  77 2.57  78 2.57  80 2.57  81 2.57

  87  0.500  0.833  0.326-  60 2.57  69 2.57  67 2.57  63 2.57  78 2.57  76 2.57  81 2.57  79 2.57

  88  0.833  0.167  0.326-  70 2.57  71 2.57  61 2.57  55 2.57  79 2.57  80 2.57  73 2.57  74 2.57

  89  0.833  0.500  0.326-  62 2.57  71 2.57  56 2.57  72 2.57  80 2.57  74 2.57  81 2.57  75 2.57

  90  0.833  0.833  0.326-  63 2.57  72 2.57  70 2.57  57 2.57  81 2.57  79 2.57  75 2.57  73 2.57

 
  LATTYP: Found a simple tetragonal cell.
 ALAT       =    10.8900003433
 C/A-ratio  =     2.0440770705
  
  Lattice vectors:
  
 A1 = (  10.8900003433,   0.0000000000,   0.0000000000)
 A2 = (   0.0000000000,  10.8900003433,   0.0000000000)
 A3 = (   0.0000000000,   0.0000000000,  22.2600000000)


Analysis of symmetry for initial positions (statically):
=====================================================================
 Subroutine PRICEL returns following result:
 
  LATTYP: Found a simple tetragonal cell.
 ALAT       =     2.5667976963
 C/A-ratio  =     8.6722845482
  
  Lattice vectors:
  
 A1 = (   1.8150000570,  -1.8150000570,   0.0000000000)
 A2 = (   1.8150000570,   1.8150000570,   0.0000000000)
 A3 = (   0.0000000000,   0.0000000000,  22.2600000000)
 
  18 primitive cells build up your supercell.
 

 Routine SETGRP: Setting up the symmetry group for a 
 simple tetragonal supercell.


 Subroutine GETGRP returns: Found 16 space group operations
 (whereof  8 operations were pure point group operations)
 out of a pool of 16 trial point group operations.


The static configuration has the point symmetry C_4v.
 The point group associated with its full space group is D_4h.


Analysis of symmetry for dynamics (positions and initial velocities):
=====================================================================
 Subroutine PRICEL returns following result:
 
  LATTYP: Found a simple tetragonal cell.
 ALAT       =     2.5667976963
 C/A-ratio  =     8.6722845482
  
  Lattice vectors:
  
 A1 = (   1.8150000570,  -1.8150000570,   0.0000000000)
 A2 = (   1.8150000570,   1.8150000570,   0.0000000000)
 A3 = (   0.0000000000,   0.0000000000,  22.2600000000)
 
  18 primitive cells build up your supercell.
 

 Routine SETGRP: Setting up the symmetry group for a 
 simple tetragonal supercell.


 Subroutine GETGRP returns: Found 16 space group operations
 (whereof  8 operations were pure point group operations)
 out of a pool of 16 trial point group operations.


The dynamic configuration has the point symmetry C_4v.
 The point group associated with its full space group is D_4h.


Analysis of constrained symmetry for selective dynamics:
=====================================================================
 Subroutine PRICEL returns following result:
 
  LATTYP: Found a simple tetragonal cell.
 ALAT       =     2.5667976963
 C/A-ratio  =     8.6722845482
  
  Lattice vectors:
  
 A1 = (   1.8150000570,  -1.8150000570,   0.0000000000)
 A2 = (   1.8150000570,   1.8150000570,   0.0000000000)
 A3 = (   0.0000000000,   0.0000000000,  22.2600000000)
 
  18 primitive cells build up your supercell.
 

 Routine SETGRP: Setting up the symmetry group for a 
 simple tetragonal supercell.


 Subroutine GETGRP returns: Found  8 space group operations
 (whereof  8 operations were pure point group operations)
 out of a pool of 16 trial point group operations.


The constrained configuration has the point symmetry C_4v.


Analysis of structural, dynamic, and magnetic symmetry:
=====================================================================
 Subroutine PRICEL returns following result:
 
  LATTYP: Found a simple tetragonal cell.
 ALAT       =     2.5667976963
 C/A-ratio  =     8.6722845482
  
  Lattice vectors:
  
 A1 = (   1.8150000570,  -1.8150000570,   0.0000000000)
 A2 = (   1.8150000570,   1.8150000570,   0.0000000000)
 A3 = (   0.0000000000,   0.0000000000,  22.2600000000)
 
  18 primitive cells build up your supercell.
 

 Routine SETGRP: Setting up the symmetry group for a 
 simple tetragonal supercell.


 Subroutine GETGRP returns: Found  8 space group operations
 (whereof  8 operations were pure point group operations)
 out of a pool of 16 trial point group operations.


The overall configuration has the point symmetry C_4v.


 Subroutine INISYM returns: Found  8 space group operations
 (whereof  8 operations are pure point group operations),
 and found    18 'primitive' translations


----------------------------------------------------------------------------------------

                                     Primitive cell                                     

  volume of cell :     146.6589

  direct lattice vectors                    reciprocal lattice vectors
     1.815000057 -1.815000057  0.000000000     0.275482085 -0.275482085  0.000000000
     1.815000057  1.815000057  0.000000000     0.275482085  0.275482085  0.000000000
     0.000000000  0.000000000 22.260000000     0.000000000  0.000000000  0.044923630

  length of vectors
     2.566797696  2.566797696 22.260000000     0.389590501  0.389590501  0.044923630

  position of ions in fractional coordinates (direct lattice)
     0.000000000  0.000000000  0.000000000
     0.500000000  0.500000000  0.081536389
     0.000000000  0.000000000  0.163072779
     0.500000000  0.500000000  0.244609168
     0.000000000  0.000000000  0.326145557

  ion indices of the primitive-cell ions
   primitive index   ion index
                 1           1
                 2          19
                 3          37
                 4          55
                 5          73

----------------------------------------------------------------------------------------

 
 
 KPOINTS: Auto-mesh                               

Automatic generation of k-mesh.
 Grid dimensions read from file:
 generate k-points for:    3    3    1

 Generating k-lattice:

  Cartesian coordinates                     Fractional coordinates (reciprocal lattice)
     0.030609121  0.000000000  0.000000000     0.333333333  0.000000000  0.000000000
     0.000000000  0.030609121  0.000000000     0.000000000  0.333333333  0.000000000
     0.000000000  0.000000000  0.044923630     0.000000000  0.000000000  1.000000000

  Length of vectors
     0.030609121  0.030609121  0.044923630

  Shift w.r.t. Gamma in fractional coordinates (k-lattice)
     0.000000000  0.000000000  0.000000000

 
 Subroutine IBZKPT returns following result:
 ===========================================
 
 Found      3 irreducible k-points:
 
 Following reciprocal coordinates:
            Coordinates               Weight
  0.000000  0.000000  0.000000      1.000000
  0.333333  0.000000  0.000000      4.000000
  0.333333  0.333333  0.000000      4.000000
 
 Following cartesian coordinates:
            Coordinates               Weight
  0.000000  0.000000  0.000000      1.000000
  0.030609  0.000000  0.000000      4.000000
  0.030609  0.030609  0.000000      4.000000
 


--------------------------------------------------------------------------------------------------------




 Dimension of arrays:
   k-points           NKPTS =      3   k-points in BZ     NKDIM =      3   number of bands    NBANDS=    640
   number of dos      NEDOS =    301   number of ions     NIONS =     90
   non local maximal  LDIM  =      6   non local SUM 2l+1 LMDIM =     18
   total plane-waves  NPLWV = 326592
   max r-space proj   IRMAX =      1   max aug-charges    IRDMAX=   3783
   dimension x,y,z NGX =    54 NGY =   54 NGZ =  112
   dimension x,y,z NGXF=   108 NGYF=  108 NGZF=  224
   support grid    NGXF=   108 NGYF=  108 NGZF=  224
   ions per type =              90
   NGX,Y,Z   is equivalent  to a cutoff of   8.24,  8.24,  8.36 a.u.
   NGXF,Y,Z  is equivalent  to a cutoff of  16.49, 16.49, 16.73 a.u.

 SYSTEM =  unknown system                          
 POSCAR =  FCC Cu                                  

 Startparameter for this run:
   NWRITE =      2    write-flag & timer
   PREC   = normal    normal or accurate (medium, high low for compatibility)
   ISTART =      0    job   : 0-new  1-cont  2-samecut
   ICHARG =      2    charge: 1-file 2-atom 10-const
   ISPIN  =      2    spin polarized calculation?
   LNONCOLLINEAR =      F non collinear calculations
   LSORBIT =      F    spin-orbit coupling
   INIWAV =      1    electr: 0-lowe 1-rand  2-diag
   LASPH  =      F    aspherical Exc in radial PAW
 Electronic Relaxation 1
   ENCUT  =  400.0 eV  29.40 Ry    5.42 a.u.  17.76 17.76 36.30*2*pi/ulx,y,z
   ENINI  =  400.0     initial cutoff
   ENAUG  =  587.0 eV  augmentation charge cutoff
   NELM   =     60;   NELMIN=  2; NELMDL= -5     # of ELM steps 
   EDIFF  = 0.2E-03   stopping-criterion for ELM
   LREAL  =      F    real-space projection
   NLSPLINE    = F    spline interpolate recip. space projectors
   LCOMPAT=      F    compatible to vasp.4.4
   GGA_COMPAT  = T    GGA compatible to vasp.4.4-vasp.4.6
   LMAXPAW     = -100 max onsite density
   LMAXMIX     =    2 max onsite mixed and CHGCAR
   VOSKOWN=      0    Vosko Wilk Nusair interpolation
   ROPT   =    0.00000
 Ionic relaxation
   EDIFFG = -.3E-01   stopping-criterion for IOM
   NSW    =    800    number of steps for IOM
   NBLOCK =      1;   KBLOCK =    800    inner block; outer block 
   IBRION =      2    ionic relax: 0-MD 1-quasi-New 2-CG
   NFREE  =      1    steps in history (QN), initial steepest desc. (CG)
   ISIF   =      2    stress and relaxation
   IWAVPR =     11    prediction:  0-non 1-charg 2-wave 3-comb
   ISYM   =      1    0-nonsym 1-usesym 2-fastsym
   LCORR  =      T    Harris-Foulkes like correction to forces

   POTIM  = 0.5000    time-step for ionic-motion
   TEIN   =    0.0    initial temperature
   TEBEG  =    0.0;   TEEND  =   0.0 temperature during run
   SMASS  =  -3.00    Nose mass-parameter (am)
   estimated Nose-frequenzy (Omega)   =  0.10E-29 period in steps = 0.13E+47 mass=  -0.271E-26a.u.
   SCALEE = 1.0000    scale energy and forces
   NPACO  =    256;   APACO  = 10.0  distance and # of slots for P.C.
   PSTRESS=    0.0 pullay stress

  Mass of Ions in am
   POMASS =  63.55
  Ionic Valenz
   ZVAL   =  11.00
  Atomic Wigner-Seitz radii
   RWIGS  =  -1.00
  virtual crystal weights 
   VCA    =   1.00
   NELECT =     990.0000    total number of electrons
   NUPDOWN=      -1.0000    fix difference up-down

 DOS related values:
   EMIN   =  10.00;   EMAX   =-10.00  energy-range for DOS
   EFERMI =   0.00
   ISMEAR =     1;   SIGMA  =   0.20  broadening in eV -4-tet -1-fermi 0-gaus

 Electronic relaxation 2 (details)
   IALGO  =     38    algorithm
   LDIAG  =      T    sub-space diagonalisation (order eigenvalues)
   LSUBROT=      F    optimize rotation matrix (better conditioning)
   TURBO    =      0    0=normal 1=particle mesh
   IRESTART =      0    0=no restart 2=restart with 2 vectors
   NREBOOT  =      0    no. of reboots
   NMIN     =      0    reboot dimension
   EREF     =   0.00    reference energy to select bands
   IMIX   =      4    mixing-type and parameters
     AMIX     =   0.40;   BMIX     =  1.00
     AMIX_MAG =   1.60;   BMIX_MAG =  1.00
     AMIN     =   0.10
     WC   =   100.;   INIMIX=   1;  MIXPRE=   1;  MAXMIX= -45

 Intra band minimization:
   WEIMIN = 0.0010     energy-eigenvalue tresh-hold
   EBREAK =  0.78E-07  absolut break condition
   DEPER  =   0.30     relativ break condition  

   TIME   =   0.40     timestep for ELM

  volume/ion in A,a.u.               =      29.33       197.94
  Fermi-wavevector in a.u.,A,eV,Ry     =   1.180573  2.230960 18.963161  1.393753
  Thomas-Fermi vector in A             =   2.316863
 
 Write flags
   LWAVE        =      F    write WAVECAR
   LDOWNSAMPLE  =      F    k-point downsampling of WAVECAR
   LCHARG       =      F    write CHGCAR
   LVTOT        =      F    write LOCPOT, total local potential
   LVHAR        =      F    write LOCPOT, Hartree potential only
   LELF         =      F    write electronic localiz. function (ELF)
   LORBIT       =      0    0 simple, 1 ext, 2 COOP (PROOUT), +10 PAW based schemes


 Dipole corrections
   LMONO  =      F    monopole corrections only (constant potential shift)
   LDIPOL =      F    correct potential (dipole corrections)
   IDIPOL =      3    1-x, 2-y, 3-z, 4-all directions 
   EPSILON=  1.0000000 bulk dielectric constant

 Exchange correlation treatment:
   GGA     =    PE    GGA type
   LEXCH   =     8    internal setting for exchange type
   LIBXC   =     F    Libxc                    
   VOSKOWN =     0    Vosko Wilk Nusair interpolation
   LHFCALC =     F    Hartree Fock is set to
   LHFONE  =     F    Hartree Fock one center treatment
   AEXX    =    0.0000 exact exchange contribution

 Linear response parameters
   LEPSILON=     F    determine dielectric tensor
   LRPA    =     F    only Hartree local field effects (RPA)
   LNABLA  =     F    use nabla operator in PAW spheres
   LVEL    =     F    velocity operator in full k-point grid
   CSHIFT  =0.1000    complex shift for real part using Kramers Kronig
   OMEGAMAX=  -1.0    maximum frequency
   DEG_THRESHOLD= 0.2000000E-02 threshold for treating states as degnerate
   RTIME   =   -0.100 relaxation time in fs
  (WPLASMAI=    0.000 imaginary part of plasma frequency in eV, 0.658/RTIME)
   DFIELD  = 0.0000000 0.0000000 0.0000000 field for delta impulse in time
 
  Optional k-point grid parameters
   LKPOINTS_OPT  =     F    use optional k-point grid
   KPOINTS_OPT_MODE=     1    mode for optional k-point grid
 
 Orbital magnetization related:
   ORBITALMAG=     F  switch on orbital magnetization
   LCHIMAG   =     F  perturbation theory with respect to B field
   DQ        =  0.001000  dq finite difference perturbation B field
   LLRAUG    =     F  two centre corrections for induced B field



--------------------------------------------------------------------------------------------------------


 conjugate gradient relaxation of ions
   using selective dynamics as specified on POSCAR
   WARNING: If single coordinates had been selected the selection of coordinates
            is made according to the corresponding   d i r e c t   coordinates!
            Don't support selection of single cartesian coordinates -- sorry ...
  !
 charge density and potential will be updated during run
 spin polarized calculation
 Variant of blocked Davidson
 Davidson routine will perform the subspace rotation
 perform sub-space diagonalisation
    after iterative eigenvector-optimisation
 modified Broyden-mixing scheme, WC =      100.0
 initial mixing is a Kerker type mixing with AMIX =  0.4000 and BMIX =      1.0000
 Hartree-type preconditioning will be used
 using additional bands          145
 reciprocal scheme for non local part
 use partial core corrections
 calculate Harris-corrections to forces 
   (improved forces if not selfconsistent)
 use gradient corrections 
 use of overlap-Matrix (Vanderbilt PP)
 Methfessel and Paxton  Order N= 1 SIGMA  =   0.20


--------------------------------------------------------------------------------------------------------


  energy-cutoff  :      400.00
  volume of cell :     2639.86
      direct lattice vectors                 reciprocal lattice vectors
    10.890000343  0.000000000  0.000000000     0.091827362  0.000000000  0.000000000
     0.000000000 10.890000343  0.000000000     0.000000000  0.091827362  0.000000000
     0.000000000  0.000000000 22.260000000     0.000000000  0.000000000  0.044923630

  length of vectors
    10.890000343 10.890000343 22.260000000     0.091827362  0.091827362  0.044923630


 
 k-points in units of 2pi/SCALE and weight: Auto-mesh                               
   0.00000000  0.00000000  0.00000000       0.111
   0.03060912  0.00000000  0.00000000       0.444
   0.03060912  0.03060912  0.00000000       0.444
 
 k-points in reciprocal lattice and weights: Auto-mesh                               
   0.00000000  0.00000000  0.00000000       0.111
   0.33333333  0.00000000  0.00000000       0.444
   0.33333333  0.33333333  0.00000000       0.444
 
 position of ions in fractional coordinates (direct lattice) 
   0.00000000  0.00000000  0.00000000
   0.00000000  0.33333333  0.00000000
   0.00000000  0.66666667  0.00000000
   0.33333333  0.00000000  0.00000000
   0.33333333  0.33333333  0.00000000
   0.33333333  0.66666667  0.00000000
   0.66666667  0.00000000  0.00000000
   0.66666667  0.33333333  0.00000000
   0.66666667  0.66666667  0.00000000
   0.16666667  0.16666667  0.00000000
   0.16666667  0.50000000  0.00000000
   0.16666667  0.83333333  0.00000000
   0.50000000  0.16666667  0.00000000
   0.50000000  0.50000000  0.00000000
   0.50000000  0.83333333  0.00000000
   0.83333333  0.16666667  0.00000000
   0.83333333  0.50000000  0.00000000
   0.83333333  0.83333333  0.00000000
   0.00000000  0.16666667  0.08153639
   0.00000000  0.50000000  0.08153639
   0.00000000  0.83333333  0.08153639
   0.33333333  0.16666667  0.08153639
   0.33333333  0.50000000  0.08153639
   0.33333333  0.83333333  0.08153639
   0.66666667  0.16666667  0.08153639
   0.66666667  0.50000000  0.08153639
   0.66666667  0.83333333  0.08153639
   0.16666667  0.00000000  0.08153639
   0.16666667  0.33333333  0.08153639
   0.16666667  0.66666667  0.08153639
   0.50000000  0.00000000  0.08153639
   0.50000000  0.33333333  0.08153639
   0.50000000  0.66666667  0.08153639
   0.83333333  0.00000000  0.08153639
   0.83333333  0.33333333  0.08153639
   0.83333333  0.66666667  0.08153639
   0.00000000  0.00000000  0.16307278
   0.00000000  0.33333333  0.16307278
   0.00000000  0.66666667  0.16307278
   0.33333333  0.00000000  0.16307278
   0.33333333  0.33333333  0.16307278
   0.33333333  0.66666667  0.16307278
   0.66666667  0.00000000  0.16307278
   0.66666667  0.33333333  0.16307278
   0.66666667  0.66666667  0.16307278
   0.16666667  0.16666667  0.16307278
   0.16666667  0.50000000  0.16307278
   0.16666667  0.83333333  0.16307278
   0.50000000  0.16666667  0.16307278
   0.50000000  0.50000000  0.16307278
   0.50000000  0.83333333  0.16307278
   0.83333333  0.16666667  0.16307278
   0.83333333  0.50000000  0.16307278
   0.83333333  0.83333333  0.16307278
   0.00000000  0.16666667  0.24460917
   0.00000000  0.50000000  0.24460917
   0.00000000  0.83333333  0.24460917
   0.33333333  0.16666667  0.24460917
   0.33333333  0.50000000  0.24460917
   0.33333333  0.83333333  0.24460917
   0.66666667  0.16666667  0.24460917
   0.66666667  0.50000000  0.24460917
   0.66666667  0.83333333  0.24460917
   0.16666667  0.00000000  0.24460917
   0.16666667  0.33333333  0.24460917
   0.16666667  0.66666667  0.24460917
   0.50000000  0.00000000  0.24460917
   0.50000000  0.33333333  0.24460917
   0.50000000  0.66666667  0.24460917
   0.83333333  0.00000000  0.24460917
   0.83333333  0.33333333  0.24460917
   0.83333333  0.66666667  0.24460917
   0.00000000  0.00000000  0.32614556
   0.00000000  0.33333333  0.32614556
   0.00000000  0.66666667  0.32614556
   0.33333333  0.00000000  0.32614556
   0.33333333  0.33333333  0.32614556
   0.33333333  0.66666667  0.32614556
   0.66666667  0.00000000  0.32614556
   0.66666667  0.33333333  0.32614556
   0.66666667  0.66666667  0.32614556
   0.16666667  0.16666667  0.32614556
   0.16666667  0.50000000  0.32614556
   0.16666667  0.83333333  0.32614556
   0.50000000  0.16666667  0.32614556
   0.50000000  0.50000000  0.32614556
   0.50000000  0.83333333  0.32614556
   0.83333333  0.16666667  0.32614556
   0.83333333  0.50000000  0.32614556
   0.83333333  0.83333333  0.32614556
 
 position of ions in cartesian coordinates  (Angst):
   0.00000000  0.00000000  0.00000000
   0.00000000  3.63000011  0.00000000
   0.00000000  7.26000023  0.00000000
   3.63000011  0.00000000  0.00000000
   3.63000011  3.63000011  0.00000000
   3.63000011  7.26000023  0.00000000
   7.26000023  0.00000000  0.00000000
   7.26000023  3.63000011  0.00000000
   7.26000023  7.26000023  0.00000000
   1.81500006  1.81500006  0.00000000
   1.81500006  5.44500017  0.00000000
   1.81500006  9.07500029  0.00000000
   5.44500017  1.81500006  0.00000000
   5.44500017  5.44500017  0.00000000
   5.44500017  9.07500029  0.00000000
   9.07500029  1.81500006  0.00000000
   9.07500029  5.44500017  0.00000000
   9.07500029  9.07500029  0.00000000
   0.00000000  1.81500006  1.81500003
   0.00000000  5.44500017  1.81500003
   0.00000000  9.07500029  1.81500003
   3.63000011  1.81500006  1.81500003
   3.63000011  5.44500017  1.81500003
   3.63000011  9.07500029  1.81500003
   7.26000023  1.81500006  1.81500003
   7.26000023  5.44500017  1.81500003
   7.26000023  9.07500029  1.81500003
   1.81500006  0.00000000  1.81500003
   1.81500006  3.63000011  1.81500003
   1.81500006  7.26000023  1.81500003
   5.44500017  0.00000000  1.81500003
   5.44500017  3.63000011  1.81500003
   5.44500017  7.26000023  1.81500003
   9.07500029  0.00000000  1.81500003
   9.07500029  3.63000011  1.81500003
   9.07500029  7.26000023  1.81500003
   0.00000000  0.00000000  3.63000005
   0.00000000  3.63000011  3.63000005
   0.00000000  7.26000023  3.63000005
   3.63000011  0.00000000  3.63000005
   3.63000011  3.63000011  3.63000005
   3.63000011  7.26000023  3.63000005
   7.26000023  0.00000000  3.63000005
   7.26000023  3.63000011  3.63000005
   7.26000023  7.26000023  3.63000005
   1.81500006  1.81500006  3.63000005
   1.81500006  5.44500017  3.63000005
   1.81500006  9.07500029  3.63000005
   5.44500017  1.81500006  3.63000005
   5.44500017  5.44500017  3.63000005
   5.44500017  9.07500029  3.63000005
   9.07500029  1.81500006  3.63000005
   9.07500029  5.44500017  3.63000005
   9.07500029  9.07500029  3.63000005
   0.00000000  1.81500006  5.44500008
   0.00000000  5.44500017  5.44500008
   0.00000000  9.07500029  5.44500008
   3.63000011  1.81500006  5.44500008
   3.63000011  5.44500017  5.44500008
   3.63000011  9.07500029  5.44500008
   7.26000023  1.81500006  5.44500008
   7.26000023  5.44500017  5.44500008
   7.26000023  9.07500029  5.44500008
   1.81500006  0.00000000  5.44500008
   1.81500006  3.63000011  5.44500008
   1.81500006  7.26000023  5.44500008
   5.44500017  0.00000000  5.44500008
   5.44500017  3.63000011  5.44500008
   5.44500017  7.26000023  5.44500008
   9.07500029  0.00000000  5.44500008
   9.07500029  3.63000011  5.44500008
   9.07500029  7.26000023  5.44500008
   0.00000000  0.00000000  7.26000010
   0.00000000  3.63000011  7.26000010
   0.00000000  7.26000023  7.26000010
   3.63000011  0.00000000  7.26000010
   3.63000011  3.63000011  7.26000010
   3.63000011  7.26000023  7.26000010
   7.26000023  0.00000000  7.26000010
   7.26000023  3.63000011  7.26000010
   7.26000023  7.26000023  7.26000010
   1.81500006  1.81500006  7.26000010
   1.81500006  5.44500017  7.26000010
   1.81500006  9.07500029  7.26000010
   5.44500017  1.81500006  7.26000010
   5.44500017  5.44500017  7.26000010
   5.44500017  9.07500029  7.26000010
   9.07500029  1.81500006  7.26000010
   9.07500029  5.44500017  7.26000010
   9.07500029  9.07500029  7.26000010
 


--------------------------------------------------------------------------------------------------------


 k-point   1 :   0.0000 0.0000 0.0000  plane waves:   47933
 k-point   2 :   0.3333 0.0000 0.0000  plane waves:   47968
 k-point   3 :   0.3333 0.3333 0.0000  plane waves:   47963

 maximum and minimum number of plane-waves per node :      9627     9569

 maximum number of plane-waves:     47968
 maximum index in each direction: 
   IXMAX=   17   IYMAX=   17   IZMAX=   36
   IXMIN=  -18   IYMIN=  -18   IZMIN=  -36


 parallel 3D FFT for wavefunctions:
    minimum data exchange during FFTs selected (reduces bandwidth)
 parallel 3D FFT for charge:
    minimum data exchange during FFTs selected (reduces bandwidth)


 total amount of memory used by VASP MPI-rank0   223998. kBytes
=======================================================================

   base      :      30000. kBytes
   nonl-proj :      18008. kBytes
   fftplans  :       6828. kBytes
   grid      :      15864. kBytes
   one-center:        559. kBytes
   wavefun   :     152739. kBytes
 
     INWAV:  cpu time      0.0000: real time      0.0004
 Broyden mixing: mesh for mixing (old mesh)
   NGX = 35   NGY = 35   NGZ = 73
  (NGX  =108   NGY  =108   NGZ  =224)
  gives a total of  89425 points

 initial charge density was supplied:
 charge density of overlapping atoms calculated
 number of electron     990.0000000 magnetization      90.0000000
 keeping initial charge density in first step


--------------------------------------------------------------------------------------------------------


 Maximum index for augmentation-charges          359 (set IRDMAX)


--------------------------------------------------------------------------------------------------------


 First call to EWALD:  gamma=   0.128
 Maximum number of real-space cells 3x 3x 2
 Maximum number of reciprocal cells 2x 2x 4

    FEWALD:  cpu time      0.0050: real time      0.0051


--------------------------------------- Iteration      1(   1)  ---------------------------------------


    POTLOK:  cpu time      0.1903: real time      0.1916
    SETDIJ:  cpu time      0.0309: real time      0.0311
     EDDAV:  cpu time    168.6231: real time    169.9020
       DOS:  cpu time      0.0052: real time      0.0052
    --------------------------------------------
      LOOP:  cpu time    168.8495: real time    170.1299

 eigenvalue-minimisations  :  7680
 total energy-change (2. order) : 0.9117083E+04  (-0.3539313E+05)
 number of electron     990.0000000 magnetization      90.0000000
 augmentation part      990.0000000 magnetization      90.0000000

 Free energy of the ion-electron system (eV)
  ---------------------------------------------------
  alpha Z        PSCENC =      2243.96611888
  Ewald energy   TEWEN  =    401497.80668226
  -Hartree energ DENC   =   -522420.82608459
  -exchange      EXHF   =         0.00000000
  -V(xc)+E(xc)   XCENC  =      4105.71294563
  PAW double counting   =    110528.77464441  -120052.88383725
  entropy T*S    EENTRO =        -0.02618175
  eigenvalues    EBANDS =      8028.37077159
  atomic energy  EATOM  =    125186.18761798
  Solvation  Ediel_sol  =         0.00000000
  ---------------------------------------------------
  free energy    TOTEN  =      9117.08267717 eV

  energy without entropy =     9117.10885892  energy(sigma->0) =     9117.09140442


--------------------------------------------------------------------------------------------------------




--------------------------------------- Iteration      1(   2)  ---------------------------------------


     EDDAV:  cpu time    168.1864: real time    169.4610
       DOS:  cpu time      0.0062: real time      0.0062
    --------------------------------------------
      LOOP:  cpu time    168.1926: real time    169.4672

 eigenvalue-minimisations  :  7680
 total energy-change (2. order) :-0.8040440E+04  (-0.7699473E+04)
 number of electron     990.0000000 magnetization      90.0000000
 augmentation part      990.0000000 magnetization      90.0000000

 Free energy of the ion-electron system (eV)
  ---------------------------------------------------
  alpha Z        PSCENC =      2243.96611888
  Ewald energy   TEWEN  =    401497.80668226
  -Hartree energ DENC   =   -522420.82608459
  -exchange      EXHF   =         0.00000000
  -V(xc)+E(xc)   XCENC  =      4105.71294563
  PAW double counting   =    110528.77464441  -120052.88383725
  entropy T*S    EENTRO =        -0.00064599
  eigenvalues    EBANDS =       -12.09449913
  atomic energy  EATOM  =    125186.18761798
  Solvation  Ediel_sol  =         0.00000000
  ---------------------------------------------------
  free energy    TOTEN  =      1076.64294221 eV

  energy without entropy =     1076.64358820  energy(sigma->0) =     1076.64315754


--------------------------------------------------------------------------------------------------------




--------------------------------------- Iteration      1(   3)  ---------------------------------------


     EDDAV:  cpu time    167.0162: real time    168.1851
       DOS:  cpu time      0.0062: real time      0.0062
    --------------------------------------------
      LOOP:  cpu time    167.0223: real time    168.1913

 eigenvalue-minimisations  :  7680
 total energy-change (2. order) :-0.1349394E+04  (-0.1214901E+04)
 number of electron     990.0000000 magnetization      90.0000000
 augmentation part      990.0000000 magnetization      90.0000000

 Free energy of the ion-electron system (eV)
  ---------------------------------------------------
  alpha Z        PSCENC =      2243.96611888
  Ewald energy   TEWEN  =    401497.80668226
  -Hartree energ DENC   =   -522420.82608459
  -exchange      EXHF   =         0.00000000
  -V(xc)+E(xc)   XCENC  =      4105.71294563
  PAW double counting   =    110528.77464441  -120052.88383725
  entropy T*S    EENTRO =         0.21564700
  eigenvalues    EBANDS =     -1361.70488720
  atomic energy  EATOM  =    125186.18761798
  Solvation  Ediel_sol  =         0.00000000
  ---------------------------------------------------
  free energy    TOTEN  =      -272.75115287 eV

  energy without entropy =     -272.96679987  energy(sigma->0) =     -272.82303520


--------------------------------------------------------------------------------------------------------




--------------------------------------- Iteration      1(   4)  ---------------------------------------


     EDDAV:  cpu time    185.6113: real time    187.5540
       DOS:  cpu time      0.0112: real time      0.0113
    --------------------------------------------
      LOOP:  cpu time    185.6225: real time    187.5653

 eigenvalue-minimisations  :  8584
 total energy-change (2. order) :-0.9598518E+02  (-0.9237249E+02)
 number of electron     990.0000000 magnetization      90.0000000
 augmentation part      990.0000000 magnetization      90.0000000

 Free energy of the ion-electron system (eV)
  ---------------------------------------------------
  alpha Z        PSCENC =      2243.96611888
  Ewald energy   TEWEN  =    401497.80668226
  -Hartree energ DENC   =   -522420.82608459
  -exchange      EXHF   =         0.00000000
  -V(xc)+E(xc)   XCENC  =      4105.71294563
  PAW double counting   =    110528.77464441  -120052.88383725
  entropy T*S    EENTRO =         0.28261483
  eigenvalues    EBANDS =     -1457.75703929
  atomic energy  EATOM  =    125186.18761798
  Solvation  Ediel_sol  =         0.00000000
  ---------------------------------------------------
  free energy    TOTEN  =      -368.73633713 eV

  energy without entropy =     -369.01895196  energy(sigma->0) =     -368.83054207


--------------------------------------------------------------------------------------------------------




--------------------------------------- Iteration      1(   5)  ---------------------------------------


     EDDAV:  cpu time    183.3613: real time    184.7266
       DOS:  cpu time      0.0096: real time      0.0097
    CHARGE:  cpu time      2.8620: real time      2.8764
    MIXING:  cpu time      0.0393: real time      0.0394
    --------------------------------------------
      LOOP:  cpu time    186.2722: real time    187.6521

 eigenvalue-minimisations  :  8632
 total energy-change (2. order) :-0.2395930E+01  (-0.2385630E+01)
 number of electron     990.0014013 magnetization      81.0819243
 augmentation part      587.2584272 magnetization      80.2149420

 Broyden mixing:
  rms(total) = 0.86632E+01    rms(broyden)= 0.86622E+01
  rms(prec ) = 0.89895E+01
  weight for this iteration     100.00

 Free energy of the ion-electron system (eV)
  ---------------------------------------------------
  alpha Z        PSCENC =      2243.96611888
  Ewald energy   TEWEN  =    401497.80668226
  -Hartree energ DENC   =   -522420.82608459
  -exchange      EXHF   =         0.00000000
  -V(xc)+E(xc)   XCENC  =      4105.71294563
  PAW double counting   =    110528.77464441  -120052.88383725
  entropy T*S    EENTRO =         0.28396806
  eigenvalues    EBANDS =     -1460.15432242
  atomic energy  EATOM  =    125186.18761798
  Solvation  Ediel_sol  =         0.00000000
  ---------------------------------------------------
  free energy    TOTEN  =      -371.13226704 eV

  energy without entropy =     -371.41623509  energy(sigma->0) =     -371.22692306


--------------------------------------------------------------------------------------------------------




--------------------------------------- Iteration      1(   6)  ---------------------------------------


    POTLOK:  cpu time      0.1931: real time      0.1977
    SETDIJ:  cpu time      0.0296: real time      0.0297
     EDDAV:  cpu time    179.5202: real time    181.2207
       DOS:  cpu time      0.0060: real time      0.0060
    CHARGE:  cpu time      2.7914: real time      2.8056
    MIXING:  cpu time      0.0336: real time      0.0337
    --------------------------------------------
      LOOP:  cpu time    182.5739: real time    184.2935

 eigenvalue-minimisations  :  8224
 total energy-change (2. order) : 0.6839899E+02  (-0.9016225E+02)
 number of electron     990.0015507 magnetization      75.5657961
 augmentation part      661.5713081 magnetization      55.7126047

 Broyden mixing:
  rms(total) = 0.44495E+01    rms(broyden)= 0.44473E+01
  rms(prec ) = 0.46828E+01
  weight for this iteration     100.00

 eigenvalues of (default mixing * dielectric matrix)
  average eigenvalue GAMMA=   0.7892
  0.7892

 Free energy of the ion-electron system (eV)
  ---------------------------------------------------
  alpha Z        PSCENC =      2243.96611888
  Ewald energy   TEWEN  =    401497.80668226
  -Hartree energ DENC   =   -519991.10314329
  -exchange      EXHF   =         0.00000000
  -V(xc)+E(xc)   XCENC  =      4005.52736784
  PAW double counting   =    111662.82140453  -120705.34183415
  entropy T*S    EENTRO =         0.00462572
  eigenvalues    EBANDS =     -4202.60211753
  atomic energy  EATOM  =    125186.18761798
  Solvation  Ediel_sol  =         0.00000000
  ---------------------------------------------------
  free energy    TOTEN  =      -302.73327775 eV

  energy without entropy =     -302.73790347  energy(sigma->0) =     -302.73481966


--------------------------------------------------------------------------------------------------------




--------------------------------------- Iteration      1(   7)  ---------------------------------------


    POTLOK:  cpu time      0.1961: real time      0.2004
    SETDIJ:  cpu time      0.0284: real time      0.0285
     EDDAV:  cpu time    179.1685: real time    180.5938
       DOS:  cpu time      0.0075: real time      0.0075
    CHARGE:  cpu time      2.7913: real time      2.8076
    MIXING:  cpu time      0.2608: real time      0.3783
    --------------------------------------------
      LOOP:  cpu time    182.4526: real time    184.0162

 eigenvalue-minimisations  :  8376
 total energy-change (2. order) : 0.4516137E+02  (-0.2196435E+02)
 number of electron     990.0015033 magnetization      69.0709842
 augmentation part      634.6820710 magnetization      47.6060943

 Broyden mixing:
  rms(total) = 0.21053E+01    rms(broyden)= 0.21048E+01
  rms(prec ) = 0.21463E+01
  weight for this iteration     100.00

 eigenvalues of (default mixing * dielectric matrix)
  average eigenvalue GAMMA=   0.8254
  1.0114  0.6393

 Free energy of the ion-electron system (eV)
  ---------------------------------------------------
  alpha Z        PSCENC =      2243.96611888
  Ewald energy   TEWEN  =    401497.80668226
  -Hartree energ DENC   =   -521291.05454826
  -exchange      EXHF   =         0.00000000
  -V(xc)+E(xc)   XCENC  =      4058.61608227
  PAW double counting   =    113987.56859970  -123484.94851891
  entropy T*S    EENTRO =         0.07017972
  eigenvalues    EBANDS =     -2455.78412351
  atomic energy  EATOM  =    125186.18761798
  Solvation  Ediel_sol  =         0.00000000
  ---------------------------------------------------
  free energy    TOTEN  =      -257.57190986 eV

  energy without entropy =     -257.64208958  energy(sigma->0) =     -257.59530310


--------------------------------------------------------------------------------------------------------




--------------------------------------- Iteration      1(   8)  ---------------------------------------


    POTLOK:  cpu time      0.3754: real time      0.3833
    SETDIJ:  cpu time      0.0285: real time      0.0286
     EDDAV:  cpu time    185.8621: real time    187.2825
       DOS:  cpu time      0.0070: real time      0.0070
    CHARGE:  cpu time      2.7942: real time      2.8084
    MIXING:  cpu time      0.0356: real time      0.0357
    --------------------------------------------
      LOOP:  cpu time    189.1028: real time    190.5455

 eigenvalue-minimisations  :  8784
 total energy-change (2. order) : 0.3450568E+01  (-0.5745800E+01)
 number of electron     990.0014846 magnetization      62.8132669
 augmentation part      631.7456321 magnetization      40.5226783

 Broyden mixing:
  rms(total) = 0.20809E+01    rms(broyden)= 0.20806E+01
  rms(prec ) = 0.21890E+01
  weight for this iteration     100.00

 eigenvalues of (default mixing * dielectric matrix)
  average eigenvalue GAMMA=   0.7320
  1.1423  0.6436  0.4102

 Free energy of the ion-electron system (eV)
  ---------------------------------------------------
  alpha Z        PSCENC =      2243.96611888
  Ewald energy   TEWEN  =    401497.80668226
  -Hartree energ DENC   =   -521369.89594955
  -exchange      EXHF   =         0.00000000
  -V(xc)+E(xc)   XCENC  =      4062.14677805
  PAW double counting   =    115382.04631510  -124987.16032625
  entropy T*S    EENTRO =         0.07296066
  eigenvalues    EBANDS =     -2269.29153903
  atomic energy  EATOM  =    125186.18761798
  Solvation  Ediel_sol  =         0.00000000
  ---------------------------------------------------
  free energy    TOTEN  =      -254.12134189 eV

  energy without entropy =     -254.19430255  energy(sigma->0) =     -254.14566211


--------------------------------------------------------------------------------------------------------




--------------------------------------- Iteration      1(   9)  ---------------------------------------


    POTLOK:  cpu time      0.1816: real time      0.1912
    SETDIJ:  cpu time      0.0284: real time      0.0285
     EDDAV:  cpu time    219.7380: real time    221.5849
       DOS:  cpu time      0.0063: real time      0.0063
    CHARGE:  cpu time      2.8481: real time      2.8620
    MIXING:  cpu time      0.0427: real time      0.0428
    --------------------------------------------
      LOOP:  cpu time    222.8451: real time    224.7158

 eigenvalue-minimisations  : 10624
 total energy-change (2. order) : 0.5711761E+01  (-0.1611156E+01)
 number of electron     990.0014882 magnetization      39.3108231
 augmentation part      630.4149247 magnetization      16.7857570

 Broyden mixing:
  rms(total) = 0.15300E+01    rms(broyden)= 0.15300E+01
  rms(prec ) = 0.15414E+01
  weight for this iteration     100.00

 eigenvalues of (default mixing * dielectric matrix)
  average eigenvalue GAMMA=   1.2152
  2.4932  1.2737  0.7158  0.3779

 Free energy of the ion-electron system (eV)
  ---------------------------------------------------
  alpha Z        PSCENC =      2243.96611888
  Ewald energy   TEWEN  =    401497.80668226
  -Hartree energ DENC   =   -521545.86373374
  -exchange      EXHF   =         0.00000000
  -V(xc)+E(xc)   XCENC  =      4061.30636711
  PAW double counting   =    116402.97412550  -126072.62533116
  entropy T*S    EENTRO =         0.00632732
  eigenvalues    EBANDS =     -2022.16775510
  atomic energy  EATOM  =    125186.18761798
  Solvation  Ediel_sol  =         0.00000000
  ---------------------------------------------------
  free energy    TOTEN  =      -248.40958094 eV

  energy without entropy =     -248.41590826  energy(sigma->0) =     -248.41169005


--------------------------------------------------------------------------------------------------------




--------------------------------------- Iteration      1(  10)  ---------------------------------------


    POTLOK:  cpu time      0.1824: real time      0.1875
    SETDIJ:  cpu time      0.0283: real time      0.0284
     EDDAV:  cpu time    202.0381: real time    203.7981
       DOS:  cpu time      0.0059: real time      0.0059
    CHARGE:  cpu time      2.8249: real time      2.8401
    MIXING:  cpu time      0.0467: real time      0.0469
    --------------------------------------------
      LOOP:  cpu time    205.1264: real time    206.9069

 eigenvalue-minimisations  :  9704
 total energy-change (2. order) :-0.4797875E+01  (-0.2930705E+01)
 number of electron     990.0015064 magnetization      26.2786762
 augmentation part      638.6746476 magnetization       8.0685212

 Broyden mixing:
  rms(total) = 0.13536E+01    rms(broyden)= 0.13534E+01
  rms(prec ) = 0.14103E+01
  weight for this iteration     100.00

 eigenvalues of (default mixing * dielectric matrix)
  average eigenvalue GAMMA=   1.3760
  4.0311  1.1378  0.6669  0.6669  0.3772

 Free energy of the ion-electron system (eV)
  ---------------------------------------------------
  alpha Z        PSCENC =      2243.96611888
  Ewald energy   TEWEN  =    401497.80668226
  -Hartree energ DENC   =   -521384.44570702
  -exchange      EXHF   =         0.00000000
  -V(xc)+E(xc)   XCENC  =      4038.36736154
  PAW double counting   =    118164.44913238  -127850.33047956
  entropy T*S    EENTRO =         0.02270726
  eigenvalues    EBANDS =     -2149.23088950
  atomic energy  EATOM  =    125186.18761798
  Solvation  Ediel_sol  =         0.00000000
  ---------------------------------------------------
  free energy    TOTEN  =      -253.20745576 eV

  energy without entropy =     -253.23016302  energy(sigma->0) =     -253.21502485


--------------------------------------------------------------------------------------------------------




--------------------------------------- Iteration      1(  11)  ---------------------------------------


    POTLOK:  cpu time      0.1820: real time      0.1863
    SETDIJ:  cpu time      0.0284: real time      0.0285
     EDDAV:  cpu time    187.2454: real time    189.0460
       DOS:  cpu time      0.0062: real time      0.0062
    CHARGE:  cpu time      2.8760: real time      2.8905
    MIXING:  cpu time      0.0365: real time      0.0366
    --------------------------------------------
      LOOP:  cpu time    190.3744: real time    192.1941

 eigenvalue-minimisations  :  8816
 total energy-change (2. order) :-0.4096298E+01  (-0.8263938E+00)
 number of electron     990.0015034 magnetization      19.5852581
 augmentation part      636.4679571 magnetization       3.4942063

 Broyden mixing:
  rms(total) = 0.97332E+00    rms(broyden)= 0.97322E+00
  rms(prec ) = 0.10241E+01
  weight for this iteration     100.00

 eigenvalues of (default mixing * dielectric matrix)
  average eigenvalue GAMMA=   1.4537
  5.1357  0.9331  0.9126  0.9126  0.3736  0.4548

 Free energy of the ion-electron system (eV)
  ---------------------------------------------------
  alpha Z        PSCENC =      2243.96611888
  Ewald energy   TEWEN  =    401497.80668226
  -Hartree energ DENC   =   -521688.10840890
  -exchange      EXHF   =         0.00000000
  -V(xc)+E(xc)   XCENC  =      4037.77690439
  PAW double counting   =    118942.90210441  -128701.28430753
  entropy T*S    EENTRO =         0.01010253
  eigenvalues    EBANDS =     -1776.56056819
  atomic energy  EATOM  =    125186.18761798
  Solvation  Ediel_sol  =         0.00000000
  ---------------------------------------------------
  free energy    TOTEN  =      -257.30375416 eV

  energy without entropy =     -257.31385669  energy(sigma->0) =     -257.30712167


--------------------------------------------------------------------------------------------------------




--------------------------------------- Iteration      1(  12)  ---------------------------------------


    POTLOK:  cpu time      0.1811: real time      0.1857
    SETDIJ:  cpu time      0.0283: real time      0.0284
     EDDAV:  cpu time    187.2390: real time    189.1409
       DOS:  cpu time      0.0064: real time      0.0064
    CHARGE:  cpu time      2.8544: real time      2.8692
    MIXING:  cpu time      0.0370: real time      0.0371
    --------------------------------------------
      LOOP:  cpu time    190.3462: real time    192.2678

 eigenvalue-minimisations  :  8736
 total energy-change (2. order) :-0.8066953E+01  (-0.8541412E+00)
 number of electron     990.0014926 magnetization      12.2275429
 augmentation part      632.8882524 magnetization      -1.9210977

 Broyden mixing:
  rms(total) = 0.44413E+00    rms(broyden)= 0.44393E+00
  rms(prec ) = 0.47983E+00
  weight for this iteration     100.00

 eigenvalues of (default mixing * dielectric matrix)
  average eigenvalue GAMMA=   1.7043
  7.1055  1.5883  0.9925  0.7391  0.7391  0.3672  0.3988

 Free energy of the ion-electron system (eV)
  ---------------------------------------------------
  alpha Z        PSCENC =      2243.96611888
  Ewald energy   TEWEN  =    401497.80668226
  -Hartree energ DENC   =   -521885.37468899
  -exchange      EXHF   =         0.00000000
  -V(xc)+E(xc)   XCENC  =      4037.99274996
  PAW double counting   =    118863.53454803  -128652.80644395
  entropy T*S    EENTRO =         0.07761547
  eigenvalues    EBANDS =     -1556.75490690
  atomic energy  EATOM  =    125186.18761798
  Solvation  Ediel_sol  =         0.00000000
  ---------------------------------------------------
  free energy    TOTEN  =      -265.37070725 eV

  energy without entropy =     -265.44832272  energy(sigma->0) =     -265.39657907


--------------------------------------------------------------------------------------------------------




--------------------------------------- Iteration      1(  13)  ---------------------------------------


    POTLOK:  cpu time      0.1823: real time      0.1873
    SETDIJ:  cpu time      0.0399: real time      0.0401
     EDDAV:  cpu time    221.4953: real time    223.3069
       DOS:  cpu time      0.0075: real time      0.0075
    CHARGE:  cpu time      2.8367: real time      2.8514
    MIXING:  cpu time      0.0401: real time      0.0402
    --------------------------------------------
      LOOP:  cpu time    224.6018: real time    226.4334

 eigenvalue-minimisations  : 10824
 total energy-change (2. order) :-0.2182160E+02  (-0.1614603E+01)
 number of electron     990.0014857 magnetization      10.7826334
 augmentation part      630.3502085 magnetization       0.3420220

 Broyden mixing:
  rms(total) = 0.49310E+00    rms(broyden)= 0.49299E+00
  rms(prec ) = 0.53575E+00
  weight for this iteration     100.00

 eigenvalues of (default mixing * dielectric matrix)
  average eigenvalue GAMMA=   1.7407
  7.9016  2.1517  0.9530  0.7851  0.7851  0.6002  0.3744  0.3744

 Free energy of the ion-electron system (eV)
  ---------------------------------------------------
  alpha Z        PSCENC =      2243.96611888
  Ewald energy   TEWEN  =    401497.80668226
  -Hartree energ DENC   =   -521897.60497041
  -exchange      EXHF   =         0.00000000
  -V(xc)+E(xc)   XCENC  =      4027.76606529
  PAW double counting   =    117738.98789174  -127481.69201254
  entropy T*S    EENTRO =         0.06777358
  eigenvalues    EBANDS =     -1602.67747045
  atomic energy  EATOM  =    125186.18761798
  Solvation  Ediel_sol  =         0.00000000
  ---------------------------------------------------
  free energy    TOTEN  =      -287.19230366 eV

  energy without entropy =     -287.26007724  energy(sigma->0) =     -287.21489486


--------------------------------------------------------------------------------------------------------




--------------------------------------- Iteration      1(  14)  ---------------------------------------


    POTLOK:  cpu time      0.1823: real time      0.1865
    SETDIJ:  cpu time      0.0284: real time      0.0285
     EDDAV:  cpu time    211.8935: real time    213.6810
       DOS:  cpu time      0.0064: real time      0.0064
    CHARGE:  cpu time      2.8523: real time      2.8670
    MIXING:  cpu time      0.0410: real time      0.0412
    --------------------------------------------
      LOOP:  cpu time    215.0039: real time    216.8105

 eigenvalue-minimisations  : 10264
 total energy-change (2. order) :-0.9781844E+01  (-0.6641270E+00)
 number of electron     990.0014867 magnetization       9.5457144
 augmentation part      630.7634601 magnetization       1.3232262

 Broyden mixing:
  rms(total) = 0.38103E+00    rms(broyden)= 0.38092E+00
  rms(prec ) = 0.43576E+00
  weight for this iteration     100.00

 eigenvalues of (default mixing * dielectric matrix)
  average eigenvalue GAMMA=   1.6919
  8.2385  2.5827  0.9849  0.8089  0.8089  0.6471  0.4017  0.4017  0.3528

 Free energy of the ion-electron system (eV)
  ---------------------------------------------------
  alpha Z        PSCENC =      2243.96611888
  Ewald energy   TEWEN  =    401497.80668226
  -Hartree energ DENC   =   -521786.04767623
  -exchange      EXHF   =         0.00000000
  -V(xc)+E(xc)   XCENC  =      4020.48111824
  PAW double counting   =    117224.31794866  -126927.62270792
  entropy T*S    EENTRO =        -0.00172320
  eigenvalues    EBANDS =     -1756.06152669
  atomic energy  EATOM  =    125186.18761798
  Solvation  Ediel_sol  =         0.00000000
  ---------------------------------------------------
  free energy    TOTEN  =      -296.97414801 eV

  energy without entropy =     -296.97242481  energy(sigma->0) =     -296.97357361


--------------------------------------------------------------------------------------------------------




--------------------------------------- Iteration      1(  15)  ---------------------------------------


    POTLOK:  cpu time      0.1966: real time      0.2015
    SETDIJ:  cpu time      0.0283: real time      0.0284
     EDDAV:  cpu time    203.8410: real time    206.1964
       DOS:  cpu time      0.0065: real time      0.0065
    CHARGE:  cpu time      2.8252: real time      2.8398
    MIXING:  cpu time      0.0373: real time      0.0374
    --------------------------------------------
      LOOP:  cpu time    206.9349: real time    209.3100

 eigenvalue-minimisations  :  9624
 total energy-change (2. order) :-0.7419684E+01  (-0.6707237E+00)
 number of electron     990.0014901 magnetization       7.2413011
 augmentation part      632.0362405 magnetization       1.6637354

 Broyden mixing:
  rms(total) = 0.18945E+00    rms(broyden)= 0.18917E+00
  rms(prec ) = 0.21135E+00
  weight for this iteration     100.00

 eigenvalues of (default mixing * dielectric matrix)
  average eigenvalue GAMMA=   1.7353
  8.8023  3.2389  1.1244  0.8960  0.8960  0.7059  0.6522  0.3756  0.3756  0.2866

 Free energy of the ion-electron system (eV)
  ---------------------------------------------------
  alpha Z        PSCENC =      2243.96611888
  Ewald energy   TEWEN  =    401497.80668226
  -Hartree energ DENC   =   -521637.90355897
  -exchange      EXHF   =         0.00000000
  -V(xc)+E(xc)   XCENC  =      4014.02053779
  PAW double counting   =    116779.93269899  -126444.09030503
  entropy T*S    EENTRO =        -0.05194390
  eigenvalues    EBANDS =     -1944.26168008
  atomic energy  EATOM  =    125186.18761798
  Solvation  Ediel_sol  =         0.00000000
  ---------------------------------------------------
  free energy    TOTEN  =      -304.39383207 eV

  energy without entropy =     -304.34188816  energy(sigma->0) =     -304.37651743


--------------------------------------------------------------------------------------------------------




--------------------------------------- Iteration      1(  16)  ---------------------------------------


    POTLOK:  cpu time      0.1819: real time      0.1874
    SETDIJ:  cpu time      0.0284: real time      0.0285
     EDDAV:  cpu time    192.4640: real time    194.1673
       DOS:  cpu time      0.0052: real time      0.0052
    CHARGE:  cpu time      2.8685: real time      2.8831
    MIXING:  cpu time      0.0420: real time      0.0421
    --------------------------------------------
      LOOP:  cpu time    195.5900: real time    197.3137

 eigenvalue-minimisations  :  9112
 total energy-change (2. order) :-0.3494163E+01  (-0.4559287E+00)
 number of electron     990.0014933 magnetization       4.8508516
 augmentation part      633.2251331 magnetization       1.9661679

 Broyden mixing:
  rms(total) = 0.22477E+00    rms(broyden)= 0.22462E+00
  rms(prec ) = 0.23429E+00
  weight for this iteration     100.00

 eigenvalues of (default mixing * dielectric matrix)
  average eigenvalue GAMMA=   1.8332
 10.1039  3.5012  1.5518  0.9161  0.9161  0.8266  0.7232  0.6047  0.3823  0.3708
  0.2682

 Free energy of the ion-electron system (eV)
  ---------------------------------------------------
  alpha Z        PSCENC =      2243.96611888
  Ewald energy   TEWEN  =    401497.80668226
  -Hartree energ DENC   =   -521508.95323353
  -exchange      EXHF   =         0.00000000
  -V(xc)+E(xc)   XCENC  =      4011.25730645
  PAW double counting   =    116580.36571568  -126224.89830487
  entropy T*S    EENTRO =        -0.08941024
  eigenvalues    EBANDS =     -2093.53048764
  atomic energy  EATOM  =    125186.18761798
  Solvation  Ediel_sol  =         0.00000000
  ---------------------------------------------------
  free energy    TOTEN  =      -307.88799503 eV

  energy without entropy =     -307.79858479  energy(sigma->0) =     -307.85819162


--------------------------------------------------------------------------------------------------------




--------------------------------------- Iteration      1(  17)  ---------------------------------------


    POTLOK:  cpu time      0.1828: real time      0.1876
    SETDIJ:  cpu time      0.0284: real time      0.0285
     EDDAV:  cpu time    177.1580: real time    178.6951
       DOS:  cpu time      0.0063: real time      0.0063
    CHARGE:  cpu time      2.8178: real time      2.8339
    MIXING:  cpu time      0.0416: real time      0.0418
    --------------------------------------------
      LOOP:  cpu time    180.2349: real time    181.7932

 eigenvalue-minimisations  :  8256
 total energy-change (2. order) :-0.1365328E+01  (-0.9460616E-01)
 number of electron     990.0014916 magnetization       3.2549870
 augmentation part      632.5492110 magnetization       1.4362534

 Broyden mixing:
  rms(total) = 0.11093E+00    rms(broyden)= 0.11087E+00
  rms(prec ) = 0.12861E+00
  weight for this iteration     100.00

 eigenvalues of (default mixing * dielectric matrix)
  average eigenvalue GAMMA=   1.8981
 11.0462  3.6193  2.1265  1.0627  0.8911  0.8911  0.8216  0.6842  0.6109  0.3793
  0.3732  0.2708

 Free energy of the ion-electron system (eV)
  ---------------------------------------------------
  alpha Z        PSCENC =      2243.96611888
  Ewald energy   TEWEN  =    401497.80668226
  -Hartree energ DENC   =   -521499.31660648
  -exchange      EXHF   =         0.00000000
  -V(xc)+E(xc)   XCENC  =      4010.84833790
  PAW double counting   =    116807.92373890  -126473.16425622
  entropy T*S    EENTRO =        -0.09586756
  eigenvalues    EBANDS =     -2083.40908874
  atomic energy  EATOM  =    125186.18761798
  Solvation  Ediel_sol  =         0.00000000
  ---------------------------------------------------
  free energy    TOTEN  =      -309.25332307 eV

  energy without entropy =     -309.15745551  energy(sigma->0) =     -309.22136722


--------------------------------------------------------------------------------------------------------




--------------------------------------- Iteration      1(  18)  ---------------------------------------


    POTLOK:  cpu time      0.1817: real time      0.1865
    SETDIJ:  cpu time      0.0285: real time      0.0286
[...]
   -.512E-13 0.817E-06 0.201E+04   -.301E-06 0.570E-08 -.201E+04   -.170E-22 -.496E-22 -.939E+00   -.485E-10 -.250E-10 0.875E-01
   -.582E-13 0.245E-05 0.201E+04   -.301E-06 0.626E-06 -.201E+04   0.579E-23 -.662E-23 -.939E+00   -.439E-10 0.107E-10 0.875E-01
   -.511E-13 0.314E-06 0.201E+04   -.301E-06 -.222E-06 -.201E+04   -.548E-23 0.430E-22 -.939E+00   -.427E-10 -.449E-10 0.875E-01
   0.163E-05 0.817E-06 0.201E+04   0.361E-06 0.569E-08 -.201E+04   0.178E-22 0.116E-22 -.939E+00   0.977E-11 -.255E-10 0.875E-01
   0.163E-05 0.245E-05 0.201E+04   0.361E-06 0.626E-06 -.201E+04   -.517E-23 0.132E-22 -.939E+00   0.904E-11 0.135E-10 0.875E-01
   0.163E-05 0.314E-06 0.201E+04   0.361E-06 -.222E-06 -.201E+04   -.744E-23 -.596E-22 -.939E+00   0.877E-11 -.488E-10 0.875E-01
   -.502E-06 0.817E-06 0.201E+04   -.469E-06 0.569E-08 -.201E+04   -.827E-23 -.993E-23 -.939E+00   -.385E-10 -.302E-10 0.875E-01
   -.502E-06 0.245E-05 0.201E+04   -.469E-06 0.626E-06 -.201E+04   0.165E-22 -.331E-22 -.939E+00   -.424E-10 0.765E-11 0.875E-01
   -.502E-06 0.314E-06 0.201E+04   -.469E-06 -.222E-06 -.201E+04   0.265E-22 0.364E-22 -.939E+00   -.433E-10 -.497E-10 0.875E-01
   0.817E-06 0.178E-12 0.201E+04   0.568E-08 -.301E-06 -.201E+04   -.100E-23 -.463E-22 -.939E+00   -.301E-10 -.405E-10 0.875E-01
   0.817E-06 0.163E-05 0.201E+04   0.568E-08 0.361E-06 -.201E+04   -.108E-22 0.182E-22 -.939E+00   -.304E-10 0.864E-11 0.875E-01
   0.817E-06 -.502E-06 0.201E+04   0.568E-08 -.469E-06 -.201E+04   -.869E-23 -.629E-22 -.939E+00   -.283E-10 -.450E-10 0.875E-01
   0.245E-05 -.352E-12 0.201E+04   0.626E-06 -.301E-06 -.201E+04   0.662E-23 -.529E-22 -.939E+00   0.211E-10 -.388E-10 0.875E-01
   0.245E-05 0.163E-05 0.201E+04   0.626E-06 0.361E-06 -.201E+04   -.215E-22 0.174E-22 -.939E+00   0.206E-10 0.734E-11 0.875E-01
   0.245E-05 -.502E-06 0.201E+04   0.626E-06 -.469E-06 -.201E+04   -.662E-23 0.165E-22 -.939E+00   0.177E-10 -.437E-10 0.875E-01
   0.314E-06 0.341E-12 0.201E+04   -.222E-06 -.301E-06 -.201E+04   -.108E-22 -.414E-22 -.939E+00   -.514E-10 -.375E-10 0.875E-01
   0.314E-06 0.163E-05 0.201E+04   -.222E-06 0.361E-06 -.201E+04   0.281E-22 -.393E-22 -.939E+00   -.506E-10 0.152E-11 0.875E-01
   0.314E-06 -.502E-06 0.201E+04   -.222E-06 -.469E-06 -.201E+04   0.397E-22 0.310E-22 -.939E+00   -.498E-10 -.493E-10 0.875E-01
   -.338E-13 -.193E-13 0.118E+02   -.319E-06 -.319E-06 -.120E+02   0.265E-22 -.993E-23 0.435E-01   -.177E-09 -.170E-09 0.208E+00
   -.322E-13 0.163E-05 0.118E+02   -.319E-06 0.385E-06 -.120E+02   0.215E-22 -.281E-22 0.435E-01   -.181E-09 -.178E-09 0.208E+00
   -.330E-13 -.501E-06 0.118E+02   -.319E-06 -.486E-06 -.120E+02   0.306E-22 0.108E-22 0.435E-01   -.170E-09 -.393E-09 0.208E+00
   0.163E-05 -.293E-13 0.118E+02   0.385E-06 -.319E-06 -.120E+02   0.331E-23 0.331E-22 0.435E-01   -.171E-09 -.173E-09 0.208E+00
   0.163E-05 0.163E-05 0.118E+02   0.385E-06 0.385E-06 -.120E+02   0.116E-22 0.199E-22 0.435E-01   -.171E-09 -.173E-09 0.208E+00
   0.163E-05 -.501E-06 0.118E+02   0.385E-06 -.486E-06 -.120E+02   0.000E+00 -.579E-23 0.435E-01   -.171E-09 -.394E-09 0.208E+00
   -.501E-06 -.673E-13 0.118E+02   -.486E-06 -.319E-06 -.120E+02   -.116E-22 -.662E-23 0.435E-01   -.392E-09 -.167E-09 0.208E+00
   -.501E-06 0.163E-05 0.118E+02   -.486E-06 0.385E-06 -.120E+02   -.165E-22 0.150E-22 0.435E-01   -.387E-09 -.179E-09 0.208E+00
   -.501E-06 -.501E-06 0.118E+02   -.486E-06 -.486E-06 -.120E+02   -.153E-22 -.356E-22 0.435E-01   -.398E-09 -.394E-09 0.208E+00
   0.815E-06 0.815E-06 0.118E+02   0.720E-08 0.720E-08 -.120E+02   0.165E-22 0.211E-22 0.435E-01   -.155E-09 -.150E-09 0.208E+00
   0.815E-06 0.245E-05 0.118E+02   0.720E-08 0.654E-06 -.120E+02   0.199E-22 0.662E-23 0.435E-01   -.152E-09 0.101E-09 0.208E+00
   0.815E-06 0.313E-06 0.118E+02   0.720E-08 -.241E-06 -.120E+02   -.248E-22 0.215E-22 0.435E-01   -.152E-09 -.104E-10 0.208E+00
   0.245E-05 0.815E-06 0.118E+02   0.654E-06 0.719E-08 -.120E+02   0.165E-23 0.157E-22 0.435E-01   0.106E-09 -.146E-09 0.208E+00
   0.245E-05 0.245E-05 0.118E+02   0.654E-06 0.654E-06 -.120E+02   -.157E-22 -.744E-23 0.435E-01   0.103E-09 0.101E-09 0.208E+00
   0.245E-05 0.313E-06 0.118E+02   0.654E-06 -.241E-06 -.120E+02   -.157E-22 -.232E-22 0.435E-01   0.102E-09 -.104E-10 0.208E+00
   0.313E-06 0.815E-06 0.118E+02   -.241E-06 0.719E-08 -.120E+02   0.265E-22 -.298E-22 0.435E-01   -.100E-10 -.135E-09 0.208E+00
   0.313E-06 0.245E-05 0.118E+02   -.241E-06 0.654E-06 -.120E+02   0.116E-22 0.165E-22 0.435E-01   -.962E-11 0.949E-10 0.208E+00
   0.313E-06 0.313E-06 0.118E+02   -.241E-06 -.241E-06 -.120E+02   0.447E-22 0.496E-23 0.435E-01   -.919E-11 -.406E-11 0.208E+00
   -.518E-13 0.813E-06 -.200E+04   -.306E-06 0.538E-08 0.200E+04   0.500E-22 0.860E-22 0.232E+00   -.265E-10 -.838E-10 0.620E+00
   -.452E-13 0.244E-05 -.200E+04   -.306E-06 0.639E-06 0.200E+04   0.199E-22 -.132E-22 0.232E+00   -.170E-10 -.210E-09 0.620E+00
   -.497E-13 0.313E-06 -.200E+04   -.306E-06 -.220E-06 0.200E+04   -.893E-22 -.116E-21 0.232E+00   -.167E-10 -.240E-10 0.620E+00
   0.163E-05 0.813E-06 -.200E+04   0.363E-06 0.538E-08 0.200E+04   -.968E-22 -.152E-21 0.232E+00   -.162E-09 -.864E-10 0.620E+00
   0.163E-05 0.244E-05 -.200E+04   0.363E-06 0.639E-06 0.200E+04   -.397E-22 -.397E-22 0.232E+00   -.164E-09 -.205E-09 0.620E+00
   0.163E-05 0.313E-06 -.200E+04   0.363E-06 -.220E-06 0.200E+04   0.000E+00 -.265E-22 0.232E+00   -.161E-09 -.261E-10 0.620E+00
   -.500E-06 0.813E-06 -.200E+04   -.481E-06 0.538E-08 0.200E+04   -.199E-22 -.662E-23 0.232E+00   0.106E-10 -.859E-10 0.620E+00
   -.500E-06 0.244E-05 -.200E+04   -.481E-06 0.639E-06 0.200E+04   -.662E-22 -.184E-21 0.232E+00   0.369E-11 -.212E-09 0.620E+00
   -.500E-06 0.313E-06 -.200E+04   -.481E-06 -.220E-06 0.200E+04   -.529E-22 0.199E-22 0.232E+00   0.420E-12 -.232E-10 0.620E+00
   0.813E-06 -.708E-12 -.200E+04   0.536E-08 -.306E-06 0.200E+04   -.397E-22 -.151E-21 0.232E+00   -.883E-10 -.150E-10 0.620E+00
   0.813E-06 0.163E-05 -.200E+04   0.536E-08 0.363E-06 0.200E+04   -.794E-22 0.364E-22 0.232E+00   -.891E-10 -.164E-09 0.620E+00
   0.813E-06 -.500E-06 -.200E+04   0.536E-08 -.481E-06 0.200E+04   0.711E-22 -.112E-21 0.232E+00   -.865E-10 0.170E-11 0.620E+00
   0.244E-05 -.130E-11 -.200E+04   0.639E-06 -.306E-06 0.200E+04   -.106E-21 0.000E+00 0.232E+00   -.208E-09 -.154E-10 0.620E+00
   0.244E-05 0.163E-05 -.200E+04   0.639E-06 0.363E-06 0.200E+04   0.397E-22 -.108E-21 0.232E+00   -.207E-09 -.166E-09 0.620E+00
   0.244E-05 -.500E-06 -.200E+04   0.639E-06 -.481E-06 0.200E+04   0.124E-21 -.662E-22 0.232E+00   -.211E-09 0.525E-11 0.620E+00
   0.313E-06 -.619E-12 -.200E+04   -.220E-06 -.306E-06 0.200E+04   0.662E-23 -.397E-22 0.232E+00   -.224E-10 -.966E-11 0.620E+00
   0.313E-06 0.163E-05 -.200E+04   -.220E-06 0.363E-06 0.200E+04   -.529E-22 -.728E-22 0.232E+00   -.224E-10 -.174E-09 0.620E+00
   0.313E-06 -.500E-06 -.200E+04   -.220E-06 -.481E-06 0.200E+04   -.414E-23 -.152E-21 0.232E+00   -.214E-10 0.192E-11 0.620E+00
   -.417E-13 0.373E-12 -.395E+04   -.235E-06 -.235E-06 0.394E+04   -.277E-22 -.629E-22 0.365E+01   0.176E-09 0.181E-09 0.191E+00
   -.572E-13 0.167E-05 -.395E+04   -.235E-06 0.283E-06 0.394E+04   0.993E-23 -.132E-22 0.365E+01   0.177E-09 0.260E-09 0.191E+00
   -.497E-13 -.514E-06 -.395E+04   -.235E-06 -.364E-06 0.394E+04   0.529E-22 0.199E-22 0.365E+01   0.179E-09 0.385E-09 0.191E+00
   0.167E-05 -.577E-12 -.395E+04   0.283E-06 -.235E-06 0.394E+04   0.364E-22 0.132E-22 0.365E+01   0.262E-09 0.178E-09 0.191E+00
   0.167E-05 0.167E-05 -.395E+04   0.283E-06 0.283E-06 0.394E+04   -.165E-22 0.165E-22 0.365E+01   0.260E-09 0.263E-09 0.191E+00
   0.167E-05 -.514E-06 -.395E+04   0.283E-06 -.364E-06 0.394E+04   -.538E-22 0.695E-22 0.365E+01   0.261E-09 0.386E-09 0.191E+00
   -.514E-06 0.830E-12 -.395E+04   -.364E-06 -.235E-06 0.394E+04   0.000E+00 -.463E-22 0.365E+01   0.388E-09 0.184E-09 0.191E+00
   -.514E-06 0.167E-05 -.395E+04   -.364E-06 0.283E-06 0.394E+04   0.529E-22 0.000E+00 0.365E+01   0.388E-09 0.259E-09 0.191E+00
   -.514E-06 -.514E-06 -.395E+04   -.364E-06 -.364E-06 0.394E+04   -.165E-22 0.567E-22 0.365E+01   0.386E-09 0.386E-09 0.191E+00
   0.835E-06 0.835E-06 -.395E+04   0.389E-08 0.389E-08 0.394E+04   0.554E-22 -.314E-22 0.365E+01   0.193E-09 0.196E-09 0.191E+00
   0.835E-06 0.250E-05 -.395E+04   0.389E-08 0.487E-06 0.394E+04   0.182E-22 0.165E-22 0.365E+01   0.194E-09 0.785E-11 0.191E+00
   0.835E-06 0.321E-06 -.395E+04   0.389E-08 -.174E-06 0.394E+04   -.662E-23 0.265E-22 0.365E+01   0.195E-09 0.178E-10 0.191E+00
   0.250E-05 0.835E-06 -.395E+04   0.487E-06 0.389E-08 0.394E+04   0.132E-22 -.331E-23 0.365E+01   0.862E-11 0.195E-09 0.191E+00
   0.250E-05 0.250E-05 -.395E+04   0.487E-06 0.487E-06 0.394E+04   -.182E-22 0.194E-22 0.365E+01   0.549E-11 0.763E-11 0.191E+00
   0.250E-05 0.321E-06 -.395E+04   0.487E-06 -.174E-06 0.394E+04   -.993E-23 -.232E-22 0.365E+01   0.431E-11 0.181E-10 0.191E+00
   0.321E-06 0.835E-06 -.395E+04   -.174E-06 0.389E-08 0.394E+04   0.662E-22 0.232E-22 0.365E+01   0.202E-10 0.194E-09 0.191E+00
   0.321E-06 0.250E-05 -.395E+04   -.174E-06 0.487E-06 0.394E+04   0.000E+00 0.298E-22 0.365E+01   0.223E-10 0.479E-11 0.191E+00
   0.321E-06 0.321E-06 -.395E+04   -.174E-06 -.174E-06 0.394E+04   0.265E-22 -.430E-22 0.365E+01   0.224E-10 0.204E-10 0.191E+00
 -----------------------------------------------------------------------------------------------
   0.713E-04 0.713E-04 -.105E+02   0.876E-12 -.144E-12 -.364E-10   0.187E-21 -.141E-20 -.971E+01   -.149E-08 -.150E-08 0.198E+02
 
 
 POSITION                                       TOTAL-FORCE (eV/Angst)
 -----------------------------------------------------------------------------------
      0.00000      0.00000      0.00000        -0.000000      0.000000      0.318618
      0.00000      3.63000      0.00000         0.000000     -0.000000      0.318618
      0.00000      7.26000      0.00000         0.000000     -0.000000      0.318618
      3.63000      0.00000      0.00000        -0.000000      0.000000      0.318618
      3.63000      3.63000      0.00000        -0.000000     -0.000000      0.318618
      3.63000      7.26000      0.00000        -0.000000      0.000000      0.318618
      7.26000      0.00000      0.00000         0.000000     -0.000000      0.318618
      7.26000      3.63000      0.00000         0.000000     -0.000000      0.318618
      7.26000      7.26000      0.00000         0.000000      0.000000      0.318618
      1.81500      1.81500      0.00000        -0.000000     -0.000000      0.318618
      1.81500      5.44500      0.00000        -0.000000     -0.000000      0.318618
      1.81500      9.07500      0.00000         0.000000      0.000000      0.318618
      5.44500      1.81500      0.00000        -0.000000     -0.000000      0.318618
      5.44500      5.44500      0.00000         0.000000     -0.000000      0.318618
      5.44500      9.07500      0.00000        -0.000000      0.000000      0.318618
      9.07500      1.81500      0.00000         0.000000     -0.000000      0.318618
      9.07500      5.44500      0.00000        -0.000000     -0.000000      0.318618
      9.07500      9.07500      0.00000        -0.000000      0.000000      0.318618
      0.00000      1.81500      1.81500        -0.000000      0.000000     -0.319503
      0.00000      5.44500      1.81500        -0.000000      0.000000     -0.319503
      0.00000      9.07500      1.81500        -0.000000     -0.000000     -0.319503
      3.63000      1.81500      1.81500         0.000000     -0.000000     -0.319503
      3.63000      5.44500      1.81500        -0.000000     -0.000000     -0.319503
      3.63000      9.07500      1.81500        -0.000000     -0.000000     -0.319503
      7.26000      1.81500      1.81500        -0.000000     -0.000000     -0.319503
      7.26000      5.44500      1.81500        -0.000000     -0.000000     -0.319503
      7.26000      9.07500      1.81500        -0.000000     -0.000000     -0.319503
      1.81500      0.00000      1.81500         0.000000     -0.000000     -0.319503
      1.81500      3.63000      1.81500         0.000000      0.000000     -0.319503
      1.81500      7.26000      1.81500        -0.000000     -0.000000     -0.319503
      5.44500      0.00000      1.81500        -0.000000     -0.000000     -0.319503
      5.44500      3.63000      1.81500        -0.000000      0.000000     -0.319503
      5.44500      7.26000      1.81500        -0.000000      0.000000     -0.319503
      9.07500      0.00000      1.81500         0.000000      0.000000     -0.319503
      9.07500      3.63000      1.81500         0.000000      0.000000     -0.319503
      9.07500      7.26000      1.81500         0.000000     -0.000000     -0.319503
      0.00000     -0.00000      3.58193        -0.000000     -0.000000      0.002483
      0.00000      3.63000      3.58193         0.000000     -0.000000      0.002483
      0.00000      7.26000      3.58193         0.000000     -0.000000      0.002483
      3.63000     -0.00000      3.58193         0.000000     -0.000000      0.002483
      3.63000      3.63000      3.58193         0.000000     -0.000000      0.002483
      3.63000      7.26000      3.58193         0.000000      0.000000      0.002483
      7.26000      0.00000      3.58193         0.000000      0.000000      0.002483
      7.26000      3.63000      3.58193         0.000000     -0.000000      0.002483
      7.26000      7.26000      3.58193         0.000000      0.000000      0.002483
      1.81500      1.81500      3.58193        -0.000000     -0.000000      0.002483
      1.81500      5.44500      3.58193         0.000000     -0.000000      0.002483
      1.81500      9.07500      3.58193        -0.000000      0.000000      0.002483
      5.44500      1.81500      3.58193         0.000000     -0.000000      0.002483
      5.44500      5.44500      3.58193         0.000000      0.000000      0.002483
      5.44500      9.07500      3.58193         0.000000      0.000000      0.002483
      9.07500      1.81500      3.58193         0.000000     -0.000000      0.002483
      9.07500      5.44500      3.58193         0.000000      0.000000      0.002483
      9.07500      9.07500      3.58193        -0.000000      0.000000      0.002483
     -0.00000      1.81500      5.35580         0.000000     -0.000000     -0.002526
     -0.00000      5.44500      5.35580         0.000000      0.000000     -0.002526
      0.00000      9.07500      5.35580        -0.000000      0.000000     -0.002526
      3.63000      1.81500      5.35580        -0.000000     -0.000000     -0.002526
      3.63000      5.44500      5.35580        -0.000000      0.000000     -0.002526
      3.63000      9.07500      5.35580         0.000000      0.000000     -0.002526
      7.26000      1.81500      5.35580         0.000000      0.000000     -0.002526
      7.26000      5.44500      5.35580         0.000000      0.000000     -0.002526
      7.26000      9.07500      5.35580        -0.000000      0.000000     -0.002526
      1.81500      0.00000      5.35580         0.000000     -0.000000     -0.002526
      1.81500      3.63000      5.35580         0.000000      0.000000     -0.002526
      1.81500      7.26000      5.35580         0.000000     -0.000000     -0.002526
      5.44500      0.00000      5.35580        -0.000000      0.000000     -0.002526
      5.44500      3.63000      5.35580        -0.000000      0.000000     -0.002526
      5.44500      7.26000      5.35580        -0.000000      0.000000     -0.002526
      9.07500     -0.00000      5.35580         0.000000      0.000000     -0.002526
      9.07500      3.63000      5.35580        -0.000000     -0.000000     -0.002526
      9.07500      7.26000      5.35580        -0.000000     -0.000000     -0.002526
     -0.00000      0.00000      7.08545         0.000000     -0.000000      0.000928
     -0.00000      3.63000      7.08545         0.000000      0.000000      0.000928
     -0.00000      7.26000      7.08545         0.000000     -0.000000      0.000928
      3.63000     -0.00000      7.08545        -0.000000      0.000000      0.000928
      3.63000      3.63000      7.08545         0.000000     -0.000000      0.000928
      3.63000      7.26000      7.08545         0.000000     -0.000000      0.000928
      7.26000      0.00000      7.08545        -0.000000      0.000000      0.000928
      7.26000      3.63000      7.08545        -0.000000      0.000000      0.000928
      7.26000      7.26000      7.08545        -0.000000     -0.000000      0.000928
      1.81500      1.81500      7.08545         0.000000      0.000000      0.000928
      1.81500      5.44500      7.08545         0.000000     -0.000000      0.000928
      1.81500      9.07500      7.08545         0.000000     -0.000000      0.000928
      5.44500      1.81500      7.08545        -0.000000      0.000000      0.000928
      5.44500      5.44500      7.08545        -0.000000     -0.000000      0.000928
      5.44500      9.07500      7.08545        -0.000000     -0.000000      0.000928
      9.07500      1.81500      7.08545        -0.000000      0.000000      0.000928
      9.07500      5.44500      7.08545         0.000000      0.000000      0.000928
      9.07500      9.07500      7.08545         0.000000     -0.000000      0.000928
 -----------------------------------------------------------------------------------
    total drift:                                0.000071      0.000071     -0.372727


--------------------------------------------------------------------------------------------------------



  FREE ENERGIE OF THE ION-ELECTRON SYSTEM (eV)
  ---------------------------------------------------
  free  energy   TOTEN  =      -346.12048504 eV

  energy  without entropy=     -345.92032853  energy(sigma->0) =     -346.05376621
 
 d Force = 0.3085047E-02[-0.288E-03, 0.646E-02]  d Energy = 0.3164863E-02-0.798E-04
 d Force = 0.3227673E+03[ 0.323E+03, 0.323E+03]  d Ewald  = 0.3227673E+03-0.331E-04


--------------------------------------------------------------------------------------------------------


    POTLOK:  cpu time      0.2095: real time      0.2107


--------------------------------------------------------------------------------------------------------


 stress matrix after NEB project (eV)
    -50.29570      0.00000     -0.00000
      0.00000    -50.29570      0.00000
      0.00000      0.00000    -14.15274
  FORCES: max atom, RMS     0.002526    0.001637
  FORCE total and by dimension    0.015533    0.002526
  Stress total and by dimension   72.523203   50.295700


--------------------------------------------------------------------------------------------------------


  
 reached required accuracy - stopping structural energy minimisation
     LOOP+:  cpu time   1079.4425: real time   1090.1160
    4ORBIT:  cpu time      0.0000: real time      0.0000

 total amount of memory used by VASP MPI-rank0   223998. kBytes
=======================================================================

   base      :      30000. kBytes
   nonl-proj :      18008. kBytes
   fftplans  :       6828. kBytes
   grid      :      15864. kBytes
   one-center:        559. kBytes
   wavefun   :     152739. kBytes
 
  
  
 General timing and accounting informations for this job:
 ========================================================
  
                  Total CPU time used (sec):    27444.549
                            User time (sec):    27241.266
                          System time (sec):      203.283
                         Elapsed time (sec):    27708.231
  
                   Maximum memory used (kb):      567128.
                   Average memory used (kb):          N/A
  
                          Minor page faults:     15372352
                          Major page faults:         6964
                 Voluntary context switches:       280351
