 vasp.6.3.2 27Jun22 (build Aug 17 2022 15:43:34) complex                        
  
 executed on           tv2STDVTST date 2025.01.21  16:04:29
 running   20 mpi-ranks, with    1 threads/rank
 distrk:  each k-point on   20 cores,    1 groups
 distr:  one band on NCORE=   5 cores,    4 groups


--------------------------------------------------------------------------------------------------------


 -----------------------------------------------------------------------------
|                                                                             |
|           W    W    AA    RRRRR   N    N  II  N    N   GGGG   !!!           |
|           W    W   A  A   R    R  NN   N  II  NN   N  G    G  !!!           |
|           W    W  A    A  R    R  N N  N  II  N N  N  G       !!!           |
|           W WW W  AAAAAA  RRRRR   N  N N  II  N  N N  G  GGG   !            |
|           WW  WW  A    A  R   R   N   NN  II  N   NN  G    G                |
|           W    W  A    A  R    R  N    N  II  N    N   GGGG   !!!           |
|                                                                             |
|     Found issues when parsing the INCAR file                                |
|     In line 64: Tagname --- R W I G S contains invalid characters.          |
|     Please check if the interpretation in the OUTCAR file is correct.       |
|                                                                             |
 -----------------------------------------------------------------------------

 INCAR:
    = \=\=\=\=\=\=\=\=\=\=\=\=\=\=\=\=\=\=\=\=\=\=\=\=\=\=\=\=\=\=\=\=\=\=\=\=\=\=\=\=\=\=\=\=\=\=\=\=\=\=\=\=\=\=\=\=\=\=\=\=\=\=\=\=\=\=\=\=\=\=\=\=
    = \=\=\=\=\=\=\=\=\=\=\=\=\=\=\=\=\=\=\=\=\=\=\=\=\=\=\=\=\=\=\=\=\=\=\=\=\=\=\=\=\=\=\=\=\=\=\=\=\=\=\=\=\=\=\=\=\=\=\=\=\=\=\=\=\=\=\=\=\=\=\=\=
   ISTART = 0
   ICHARG = 2
   IPIPOL = 3
   IVDW = 11
   IDIPOL = 3
   IVDW = 11
    = \=\=\=\=\=\=\=\=\=\=\=\=\=\=\=\=\=\=\=\=\=\=\=\=\=\=\=\=\=\=\=\=\=\=\=\=\=\=\=\=\=\=\=\=\=\=\=\=\=\=\=\=\=\=\=\=\=\=\=\=\=\=\=\=\=\=\=\=\=\=\=\=
    = \=\=\=\=\=\=\=\=\=\=\=\=\=\=\=\=\=\=\=\=\=\=\=\=\=\=\=\=\=\=\=\=\=\=\=\=\=\=\=\=\=\=\=\=\=\=\=\=\=\=\=\=\=\=\=\=\=\=\=\=\=\=\=\=\=\=\=\=\=\=\=\=
   ISPIN = 2
    = \=\=\=\=\=\=\=\=\=\=\=\=\=\=\=\=\=\=\=\=\=\=\=\=\=\=\=\=\=\=\=\=\=\=\=\=\=\=\=\=\=\=\=\=\=\=\=\=\=\=\=\=\=\=\=\=\=\=\=\=\=\=\=\=\=\=\=\=\=\=\=\=
    = \=\=\=\=\=\=\=\=\=\=\=\=\=\=\=\=\=\=\=\=\=\=\=\=\=\=\=\=\=\=\=\=\=\=\=\=\=\=\=\=\=\=\=\=\=\=\=\=\=\=\=\=\=\=\=\=\=\=\=\=\=\=\=\=\=\=\=\=\=\=\=\=
   ENCUT = 400
   PREC = Normal
   EDIFF = 2E-04
   GGA = PE
   ISMEAR = 1
   SIGMA = 0.2
   LREAL = .FALSE.
    = \=\=\=\=\=\=\=\=\=\=\=\=\=\=\=\=\=\=\=\=\=\=\=\=\=\=\=\=\=\=\=\=\=\=\=\=\=\=\=\=\=\=\=\=\=\=\=\=\=\=\=\=\=\=\=\=\=\=\=\=\=\=\=\=\=\=\=\=\=\=\=\=
    = \=\=\=\=\=\=\=\=\=\=\=\=\=\=\=\=\=\=\=\=\=\=\=\=\=\=\=\=\=\=\=\=\=\=\=\=\=\=\=\=\=\=\=\=\=\=\=\=\=\=\=\=\=\=\=\=\=\=\=\=\=\=\=\=\=\=\=\=\=\=\=\=
   ISYM = 1
   NSW = 800
   IBRION = 2
   POTIM = 0.5
   ISIF = 2
   EDIFFG = -.03
    = \=\=\=\=\=\=\=\=\=\=\=\=\=\=\=\=\=\=\=\=\=\=\=\=\=\=\=\=\=\=\=\=\=\=\=\=\=\=\=\=\=\=\=\=\=\=\=\=\=\=\=\=\=\=\=\=\=\=\=\=\=\=\=\=\=\=\=\=\=\=\=\=
    = \=\=\=\=\=\=\=\=\=\=\=\=\=\=\=\=\=\=\=\=\=\=\=\=\=\=\=\=\=\=\=\=\=\=\=\=\=\=\=\=\=\=\=\=\=\=\=\=\=\=\=\=\=\=\=\=\=\=\=\=\=\=\=\=\=\=\=\=\=\=\=\=
   NPAR = 4
   LWAVE = .FALSE.
   LCHARG = .FALSE.

 POTCAR:    PAW_PBE Cu 22Jun2005                  
 -----------------------------------------------------------------------------
|                                                                             |
|           W    W    AA    RRRRR   N    N  II  N    N   GGGG   !!!           |
|           W    W   A  A   R    R  NN   N  II  NN   N  G    G  !!!           |
|           W    W  A    A  R    R  N N  N  II  N N  N  G       !!!           |
|           W WW W  AAAAAA  RRRRR   N  N N  II  N  N N  G  GGG   !            |
|           WW  WW  A    A  R   R   N   NN  II  N   NN  G    G                |
|           W    W  A    A  R    R  N    N  II  N    N   GGGG   !!!           |
|                                                                             |
|     You use a magnetic or noncollinear calculation, but did not specify     |
|     the initial magnetic moment with the MAGMOM tag. Note that a            |
|     default of 1 will be used for all atoms. This ferromagnetic setup       |
|     may break the symmetry of the crystal, in particular it may rule        |
|     out finding an antiferromagnetic solution. Thence, we recommend         |
|     setting the initial magnetic moment manually or verifying carefully     |
|     that this magnetic setup is desired.                                    |
|                                                                             |
 -----------------------------------------------------------------------------

 POTCAR:    PAW_PBE Cu 22Jun2005                  
   SHA256 =  0e71e558f37a4e8407882b4609ceaae59938afaad9ced71dfe8490308a0ab630 Cu/POTCAR             
   COPYR  = (c) Copyright 22Jun2005 Georg Kresse                                                    
   COPYR  = This file is part of the software VASP. Any use, copying, and all other rights are regul
   COPYR  = If you do not have a valid VASP license, you may not use, copy or distribute this file. 
   VRHFIN =Cu: d10 p1                                                                               
   LEXCH  = PE                                                                                      
   EATOM  =  1390.9808 eV,  102.2342 Ry                                                             
                                                                                                    
   TITEL  = PAW_PBE Cu 22Jun2005                                                                    
   LULTRA =        F    use ultrasoft PP ?                                                          
   IUNSCR =        1    unscreen: 0-lin 1-nonlin 2-no                                               
   RPACOR =    2.000    partial core radius                                                         
   POMASS =   63.546; ZVAL   =   11.000    mass and valenz                                          
   RCORE  =    2.300    outmost cutoff radius                                                       
   RWIGS  =    2.200; RWIGS  =    1.164    wigner-seitz radius (au A)                               
   ENMAX  =  295.446; ENMIN  =  221.585 eV                                                          
   ICORE  =        3    local potential                                                             
   LCOR   =        T    correct aug charges                                                         
   LPAW   =        T    paw PP                                                                      
   EAUG   =  586.980                                                                                
   DEXC   =    0.000                                                                                
   RMAX   =    2.344    core radius for proj-oper                                                   
   RAUG   =    1.300    factor for augmentation sphere                                              
   RDEP   =    2.302    radius for radial grids                                                     
   RDEPT  =    1.771    core radius for aug-charge                                                  
                                                                                                    
   Atomic configuration                                                                             
    9 entries                                                                                       
     n  l   j            E        occ.                                                              
     1  0  0.50     -8850.2468   2.0000                                                             
     2  0  0.50     -1062.3498   2.0000                                                             
     2  1  1.50      -916.8226   6.0000                                                             
     3  0  0.50      -114.6929   2.0000                                                             
     3  1  1.50       -72.1325   6.0000                                                             
     3  2  2.50        -5.0394  10.0000                                                             
     4  0  0.50        -4.6097   1.0000                                                             
     4  1  0.50        -4.0817   0.0000                                                             
     4  3  2.50        -1.3606   0.0000                                                             
   Description                                                                                      
     l       E           TYP  RCUT    TYP  RCUT                                                     
     2     -5.0393973     23  2.200                                                                 
     2     10.8846608     23  2.200                                                                 
     0     -4.6097109     23  2.200                                                                 
     0      8.2520465     23  2.200                                                                 
     1     -2.7211652     23  2.200                                                                 
     1     21.7055443     23  2.200                                                                 
     3      2.7211652     23  2.300                                                                 
  local pseudopotential read in
  partial core-charges read in
  partial kinetic energy density read in
  atomic valenz-charges read in
  non local Contribution for L=           2  read in
    real space projection operators read in
  non local Contribution for L=           2  read in
    real space projection operators read in
  non local Contribution for L=           0  read in
    real space projection operators read in
  non local Contribution for L=           0  read in
    real space projection operators read in
  non local Contribution for L=           1  read in
    real space projection operators read in
  non local Contribution for L=           1  read in
    real space projection operators read in
    PAW grid and wavefunctions read in
 
   number of l-projection  operators is LMAX  =           6
   number of lm-projection operators is LMMAX =          18
 
 -----------------------------------------------------------------------------
|                                                                             |
|               ----> ADVICE to this user running VASP <----                  |
|                                                                             |
|     You have a (more or less) 'large supercell' and for larger cells it     |
|     might be more efficient to use real-space projection operators.         |
|     Therefore, try LREAL= Auto in the INCAR file.                           |
|     Mind: For very accurate calculation, you might also keep the            |
|     reciprocal projection scheme (i.e. LREAL=.FALSE.).                      |
|                                                                             |
 -----------------------------------------------------------------------------

  PAW_PBE Cu 22Jun2005                  :
 energy of atom  1       EATOM=-1390.9808
 kinetic energy error for atom=    0.0232 (will be added to EATOM!!)
 
 
 POSCAR: FCC Cu
  positions in cartesian coordinates
  velocities in cartesian coordinates
  No initial velocities read in
 exchange correlation table for  LEXCH =        8
   RHO(1)=    0.500       N(1)  =     2000
   RHO(2)=  100.500       N(2)  =     4000

 VTST: version 4.2, (08/11/21)

 CHAIN: initializing optimizer
 
 OPT: Using VASP Conjugate-Gradient optimizer
 CHAIN: Read ICHAIN            0
 
 POSCAR: FCC Cu
  positions in cartesian coordinates
  velocities in cartesian coordinates
  No initial velocities read in
 


--------------------------------------------------------------------------------------------------------


 ion  position               nearest neighbor table
   1  0.000  0.000  0.000-   9 2.57   6 2.57   5 2.57   8 2.57   7 2.57   2 2.57   2 2.57
   2  0.000  0.500  0.000-  10 2.57   5 2.57   6 2.57   7 2.57   8 2.57   1 2.57   1 2.57
   3  0.500  0.000  0.000-  11 2.57   8 2.57   6 2.57   7 2.57   5 2.57   4 2.57   4 2.57
   4  0.500  0.500  0.000-  12 2.57   7 2.57   5 2.57   8 2.57   6 2.57   3 2.57   3 2.57
   5  0.250  0.250  0.064-  13 2.57  10 2.57  12 2.57   9 2.57  11 2.57   2 2.57   4 2.57   1 2.57
                             3 2.57   6 2.57   6 2.57
   6  0.250  0.750  0.064-  14 2.57   9 2.57  11 2.57  10 2.57  12 2.57   1 2.57   3 2.57   2 2.57
                             4 2.57   5 2.57   5 2.57
   7  0.750  0.250  0.064-  15 2.57  12 2.57  11 2.57  10 2.57   4 2.57   9 2.57   3 2.57   2 2.57
                             1 2.57   8 2.57   8 2.57
   8  0.750  0.750  0.064-  16 2.57  11 2.57  12 2.57   9 2.57  10 2.57   3 2.57   4 2.57   1 2.57
                             2 2.57   7 2.57   7 2.57
   9  0.000  0.000  0.127-   1 2.57  17 2.57   6 2.57   5 2.57   8 2.57   7 2.57  14 2.57  13 2.57
                            16 2.57  15 2.57  10 2.57  10 2.57
  10  0.000  0.500  0.127-   2 2.57  18 2.57   5 2.57   6 2.57   7 2.57  13 2.57   8 2.57  14 2.57
                            15 2.57  16 2.57   9 2.57   9 2.57
  11  0.500  0.000  0.127-   3 2.57  19 2.57   8 2.57   6 2.57   7 2.57   5 2.57  16 2.57  14 2.57
                            15 2.57  13 2.57  12 2.57  12 2.57
  12  0.500  0.500  0.127-   4 2.57  20 2.57   7 2.57   5 2.57   8 2.57   6 2.57  15 2.57  13 2.57
                            16 2.57  14 2.57  11 2.57  11 2.57
  13  0.250  0.250  0.191-   5 2.57  18 2.57  20 2.57  17 2.57  10 2.57  19 2.57  12 2.57   9 2.57
                            11 2.57  14 2.57  14 2.57
  14  0.250  0.750  0.191-   6 2.57  17 2.57  19 2.57  18 2.57  20 2.57   9 2.57  11 2.57  10 2.57
                            12 2.57  13 2.57  13 2.57
  15  0.750  0.250  0.191-   7 2.57  20 2.57  19 2.57  12 2.57  18 2.57  11 2.57  17 2.57  10 2.57
                             9 2.57  16 2.57  16 2.57
  16  0.750  0.750  0.191-   8 2.57  19 2.57  20 2.57  11 2.57  17 2.57  12 2.57  18 2.57   9 2.57
                            10 2.57  15 2.57  15 2.57
  17  0.000  0.000  0.255-   9 2.57  14 2.57  13 2.57  16 2.57  15 2.57  18 2.57  18 2.57
  18  0.000  0.500  0.255-  10 2.57  13 2.57  14 2.57  15 2.57  16 2.57  17 2.57  17 2.57
  19  0.500  0.000  0.255-  11 2.57  16 2.57  14 2.57  15 2.57  13 2.57  20 2.57  20 2.57
  20  0.500  0.500  0.255-  12 2.57  15 2.57  13 2.57  16 2.57  14 2.57  19 2.57  19 2.57
 
  LATTYP: Found a simple orthorhombic cell.
 ALAT       =     5.1335954666
 B/A-ratio  =     1.4142135422
 C/A-ratio  =     3.9219286231
  
  Lattice vectors:
  
 A1 = (   0.0000000000,  -5.1335954666,   0.0000000000)
 A2 = (   7.2600002289,   0.0000000000,   0.0000000000)
 A3 = (   0.0000000000,   0.0000000000,  20.1335950000)


Analysis of symmetry for initial positions (statically):
=====================================================================
 Subroutine PRICEL returns following result:
 
  LATTYP: Found a simple orthorhombic cell.
 ALAT       =     2.5667977330
 B/A-ratio  =     1.4142135422
 C/A-ratio  =     7.8438572472
  
  Lattice vectors:
  
 A1 = (   0.0000000000,  -2.5667977330,   0.0000000000)
 A2 = (   3.6300001140,   0.0000000000,   0.0000000000)
 A3 = (   0.0000000000,   0.0000000000,  20.1335950000)
 
   4 primitive cells build up your supercell.
 

 Routine SETGRP: Setting up the symmetry group for a 
 simple orthorhombic supercell.


 Subroutine GETGRP returns: Found  8 space group operations
 (whereof  4 operations were pure point group operations)
 out of a pool of  8 trial point group operations.


The static configuration has the point symmetry C_2v.
 The point group associated with its full space group is D_2h.


Analysis of symmetry for dynamics (positions and initial velocities):
=====================================================================
 Subroutine PRICEL returns following result:
 
  LATTYP: Found a simple orthorhombic cell.
 ALAT       =     2.5667977330
 B/A-ratio  =     1.4142135422
 C/A-ratio  =     7.8438572472
  
  Lattice vectors:
  
 A1 = (   0.0000000000,  -2.5667977330,   0.0000000000)
 A2 = (   3.6300001140,   0.0000000000,   0.0000000000)
 A3 = (   0.0000000000,   0.0000000000,  20.1335950000)
 
   4 primitive cells build up your supercell.
 

 Routine SETGRP: Setting up the symmetry group for a 
 simple orthorhombic supercell.


 Subroutine GETGRP returns: Found  8 space group operations
 (whereof  4 operations were pure point group operations)
 out of a pool of  8 trial point group operations.


The dynamic configuration has the point symmetry C_2v.
 The point group associated with its full space group is D_2h.


Analysis of constrained symmetry for selective dynamics:
=====================================================================
 Subroutine PRICEL returns following result:
 
  LATTYP: Found a simple orthorhombic cell.
 ALAT       =     2.5667977330
 B/A-ratio  =     1.4142135422
 C/A-ratio  =     7.8438572472
  
  Lattice vectors:
  
 A1 = (   0.0000000000,  -2.5667977330,   0.0000000000)
 A2 = (   3.6300001140,   0.0000000000,   0.0000000000)
 A3 = (   0.0000000000,   0.0000000000,  20.1335950000)
 
   4 primitive cells build up your supercell.
 

 Routine SETGRP: Setting up the symmetry group for a 
 simple orthorhombic supercell.


 Subroutine GETGRP returns: Found  4 space group operations
 (whereof  4 operations were pure point group operations)
 out of a pool of  8 trial point group operations.


The constrained configuration has the point symmetry C_2v.


Analysis of structural, dynamic, and magnetic symmetry:
=====================================================================
 Subroutine PRICEL returns following result:
 
  LATTYP: Found a simple orthorhombic cell.
 ALAT       =     2.5667977330
 B/A-ratio  =     1.4142135422
 C/A-ratio  =     7.8438572472
  
  Lattice vectors:
  
 A1 = (   0.0000000000,  -2.5667977330,   0.0000000000)
 A2 = (   3.6300001140,   0.0000000000,   0.0000000000)
 A3 = (   0.0000000000,   0.0000000000,  20.1335950000)
 
   4 primitive cells build up your supercell.
 

 Routine SETGRP: Setting up the symmetry group for a 
 simple orthorhombic supercell.


 Subroutine GETGRP returns: Found  4 space group operations
 (whereof  4 operations were pure point group operations)
 out of a pool of  8 trial point group operations.


The overall configuration has the point symmetry C_2v.


 Subroutine INISYM returns: Found  4 space group operations
 (whereof  4 operations are pure point group operations),
 and found     4 'primitive' translations


----------------------------------------------------------------------------------------

                                     Primitive cell                                     

  volume of cell :     187.5943

  direct lattice vectors                    reciprocal lattice vectors
     0.000000000 -2.566797733  0.000000000     0.000000000 -0.389590495  0.000000000
     3.630000114  0.000000000  0.000000000     0.275482085  0.000000000  0.000000000
     0.000000000  0.000000000 20.133595000     0.000000000  0.000000000  0.049668229

  length of vectors
     2.566797733  3.630000114 20.133595000     0.389590495  0.275482085  0.049668229

  position of ions in fractional coordinates (direct lattice)
     0.000000000  0.000000000  0.000000000
     0.500000000  0.500000000  0.063744146
     0.000000000  0.000000000  0.127488293
     0.500000000  0.500000000  0.191232439
     0.000000000  0.000000000  0.254976586

  ion indices of the primitive-cell ions
   primitive index   ion index
                 1           1
                 2           6
                 3           9
                 4          14
                 5          17

----------------------------------------------------------------------------------------

 
 
 KPOINTS: Auto-mesh                               

Automatic generation of k-mesh.
 Grid dimensions read from file:
 generate k-points for:    3    3    1

 Generating k-lattice:

  Cartesian coordinates                     Fractional coordinates (reciprocal lattice)
     0.045913681  0.000000000  0.000000000     0.333333333  0.000000000  0.000000000
     0.000000000  0.064931749  0.000000000     0.000000000  0.333333333  0.000000000
     0.000000000  0.000000000  0.049668229     0.000000000  0.000000000  1.000000000

  Length of vectors
     0.045913681  0.064931749  0.049668229

  Shift w.r.t. Gamma in fractional coordinates (k-lattice)
     0.000000000  0.000000000  0.000000000

 
 Subroutine IBZKPT returns following result:
 ===========================================
 
 Found      4 irreducible k-points:
 
 Following reciprocal coordinates:
            Coordinates               Weight
  0.000000  0.000000  0.000000      1.000000
  0.333333  0.000000  0.000000      2.000000
  0.000000  0.333333  0.000000      2.000000
  0.333333  0.333333  0.000000      4.000000
 
 Following cartesian coordinates:
            Coordinates               Weight
  0.000000  0.000000  0.000000      1.000000
  0.045914  0.000000  0.000000      2.000000
  0.000000  0.064932  0.000000      2.000000
  0.045914  0.064932  0.000000      4.000000
 


--------------------------------------------------------------------------------------------------------




 Dimension of arrays:
   k-points           NKPTS =      4   k-points in BZ     NKDIM =      4   number of bands    NBANDS=    144
   number of dos      NEDOS =    301   number of ions     NIONS =     20
   non local maximal  LDIM  =      6   non local SUM 2l+1 LMDIM =     18
   total plane-waves  NPLWV =  98784
   max r-space proj   IRMAX =      1   max aug-charges    IRDMAX=   4012
   dimension x,y,z NGX =    36 NGY =   28 NGZ =   98
   dimension x,y,z NGXF=    72 NGYF=   56 NGZF=  196
   support grid    NGXF=    72 NGYF=   56 NGZF=  196
   ions per type =              20
   NGX,Y,Z   is equivalent  to a cutoff of   8.24,  9.07,  8.09 a.u.
   NGXF,Y,Z  is equivalent  to a cutoff of  16.49, 18.13, 16.18 a.u.

 SYSTEM =  unknown system                          
 POSCAR =  FCC Cu                                  

 Startparameter for this run:
   NWRITE =      2    write-flag & timer
   PREC   = normal    normal or accurate (medium, high low for compatibility)
   ISTART =      0    job   : 0-new  1-cont  2-samecut
   ICHARG =      2    charge: 1-file 2-atom 10-const
   ISPIN  =      2    spin polarized calculation?
   LNONCOLLINEAR =      F non collinear calculations
   LSORBIT =      F    spin-orbit coupling
   INIWAV =      1    electr: 0-lowe 1-rand  2-diag
   LASPH  =      F    aspherical Exc in radial PAW
 Electronic Relaxation 1
   ENCUT  =  400.0 eV  29.40 Ry    5.42 a.u.  11.84  8.37 32.83*2*pi/ulx,y,z
   ENINI  =  400.0     initial cutoff
   ENAUG  =  587.0 eV  augmentation charge cutoff
   NELM   =     60;   NELMIN=  2; NELMDL= -5     # of ELM steps 
   EDIFF  = 0.2E-03   stopping-criterion for ELM
   LREAL  =      F    real-space projection
   NLSPLINE    = F    spline interpolate recip. space projectors
   LCOMPAT=      F    compatible to vasp.4.4
   GGA_COMPAT  = T    GGA compatible to vasp.4.4-vasp.4.6
   LMAXPAW     = -100 max onsite density
   LMAXMIX     =    2 max onsite mixed and CHGCAR
   VOSKOWN=      0    Vosko Wilk Nusair interpolation
   ROPT   =    0.00000
 Ionic relaxation
   EDIFFG = -.3E-01   stopping-criterion for IOM
   NSW    =    800    number of steps for IOM
   NBLOCK =      1;   KBLOCK =    800    inner block; outer block 
   IBRION =      2    ionic relax: 0-MD 1-quasi-New 2-CG
   NFREE  =      1    steps in history (QN), initial steepest desc. (CG)
   ISIF   =      2    stress and relaxation
   IWAVPR =     11    prediction:  0-non 1-charg 2-wave 3-comb
   ISYM   =      1    0-nonsym 1-usesym 2-fastsym
   LCORR  =      T    Harris-Foulkes like correction to forces

   POTIM  = 0.5000    time-step for ionic-motion
   TEIN   =    0.0    initial temperature
   TEBEG  =    0.0;   TEEND  =   0.0 temperature during run
   SMASS  =  -3.00    Nose mass-parameter (am)
   estimated Nose-frequenzy (Omega)   =  0.10E-29 period in steps = 0.13E+47 mass=  -0.120E-26a.u.
   SCALEE = 1.0000    scale energy and forces
   NPACO  =    256;   APACO  = 10.0  distance and # of slots for P.C.
   PSTRESS=    0.0 pullay stress

  Mass of Ions in am
   POMASS =  63.55
  Ionic Valenz
   ZVAL   =  11.00
  Atomic Wigner-Seitz radii
   RWIGS  =  -1.00
  virtual crystal weights 
   VCA    =   1.00
   NELECT =     220.0000    total number of electrons
   NUPDOWN=      -1.0000    fix difference up-down

 DOS related values:
   EMIN   =  10.00;   EMAX   =-10.00  energy-range for DOS
   EFERMI =   0.00
   ISMEAR =     1;   SIGMA  =   0.20  broadening in eV -4-tet -1-fermi 0-gaus

 Electronic relaxation 2 (details)
   IALGO  =     38    algorithm
   LDIAG  =      T    sub-space diagonalisation (order eigenvalues)
   LSUBROT=      F    optimize rotation matrix (better conditioning)
   TURBO    =      0    0=normal 1=particle mesh
   IRESTART =      0    0=no restart 2=restart with 2 vectors
   NREBOOT  =      0    no. of reboots
   NMIN     =      0    reboot dimension
   EREF     =   0.00    reference energy to select bands
   IMIX   =      4    mixing-type and parameters
     AMIX     =   0.40;   BMIX     =  1.00
     AMIX_MAG =   1.60;   BMIX_MAG =  1.00
     AMIN     =   0.10
     WC   =   100.;   INIMIX=   1;  MIXPRE=   1;  MAXMIX= -45

 Intra band minimization:
   WEIMIN = 0.0010     energy-eigenvalue tresh-hold
   EBREAK =  0.35E-06  absolut break condition
   DEPER  =   0.30     relativ break condition  

   TIME   =   0.40     timestep for ELM

  volume/ion in A,a.u.               =      37.52       253.19
  Fermi-wavevector in a.u.,A,eV,Ry     =   1.087567  2.055203 16.092986  1.182801
  Thomas-Fermi vector in A             =   2.223729
 
 Write flags
   LWAVE        =      F    write WAVECAR
   LDOWNSAMPLE  =      F    k-point downsampling of WAVECAR
   LCHARG       =      F    write CHGCAR
   LVTOT        =      F    write LOCPOT, total local potential
   LVHAR        =      F    write LOCPOT, Hartree potential only
   LELF         =      F    write electronic localiz. function (ELF)
   LORBIT       =      0    0 simple, 1 ext, 2 COOP (PROOUT), +10 PAW based schemes


 Dipole corrections
   LMONO  =      F    monopole corrections only (constant potential shift)
   LDIPOL =      F    correct potential (dipole corrections)
   IDIPOL =      3    1-x, 2-y, 3-z, 4-all directions 
   EPSILON=  1.0000000 bulk dielectric constant

 Exchange correlation treatment:
   GGA     =    PE    GGA type
   LEXCH   =     8    internal setting for exchange type
   LIBXC   =     F    Libxc                    
   VOSKOWN =     0    Vosko Wilk Nusair interpolation
   LHFCALC =     F    Hartree Fock is set to
   LHFONE  =     F    Hartree Fock one center treatment
   AEXX    =    0.0000 exact exchange contribution

 Linear response parameters
   LEPSILON=     F    determine dielectric tensor
   LRPA    =     F    only Hartree local field effects (RPA)
   LNABLA  =     F    use nabla operator in PAW spheres
   LVEL    =     F    velocity operator in full k-point grid
   CSHIFT  =0.1000    complex shift for real part using Kramers Kronig
   OMEGAMAX=  -1.0    maximum frequency
   DEG_THRESHOLD= 0.2000000E-02 threshold for treating states as degnerate
   RTIME   =   -0.100 relaxation time in fs
  (WPLASMAI=    0.000 imaginary part of plasma frequency in eV, 0.658/RTIME)
   DFIELD  = 0.0000000 0.0000000 0.0000000 field for delta impulse in time
 
  Optional k-point grid parameters
   LKPOINTS_OPT  =     F    use optional k-point grid
   KPOINTS_OPT_MODE=     1    mode for optional k-point grid
 
 Orbital magnetization related:
   ORBITALMAG=     F  switch on orbital magnetization
   LCHIMAG   =     F  perturbation theory with respect to B field
   DQ        =  0.001000  dq finite difference perturbation B field
   LLRAUG    =     F  two centre corrections for induced B field



--------------------------------------------------------------------------------------------------------


 conjugate gradient relaxation of ions
   using selective dynamics as specified on POSCAR
   WARNING: If single coordinates had been selected the selection of coordinates
            is made according to the corresponding   d i r e c t   coordinates!
            Don't support selection of single cartesian coordinates -- sorry ...
  !
 charge density and potential will be updated during run
 spin polarized calculation
 Variant of blocked Davidson
 Davidson routine will perform the subspace rotation
 perform sub-space diagonalisation
    after iterative eigenvector-optimisation
 modified Broyden-mixing scheme, WC =      100.0
 initial mixing is a Kerker type mixing with AMIX =  0.4000 and BMIX =      1.0000
 Hartree-type preconditioning will be used
 using additional bands           34
 reciprocal scheme for non local part
 use partial core corrections
 calculate Harris-corrections to forces 
   (improved forces if not selfconsistent)
 use gradient corrections 
 use of overlap-Matrix (Vanderbilt PP)
 Methfessel and Paxton  Order N= 1 SIGMA  =   0.20


--------------------------------------------------------------------------------------------------------


  energy-cutoff  :      400.00
  volume of cell :      750.38
      direct lattice vectors                 reciprocal lattice vectors
     7.260000229  0.000000000  0.000000000     0.137741042  0.000000000  0.000000000
     0.000000000  5.133595467  0.000000000     0.000000000  0.194795248  0.000000000
     0.000000000  0.000000000 20.133595000     0.000000000  0.000000000  0.049668229

  length of vectors
     7.260000229  5.133595467 20.133595000     0.137741042  0.194795248  0.049668229


 
 k-points in units of 2pi/SCALE and weight: Auto-mesh                               
   0.00000000  0.00000000  0.00000000       0.111
   0.04591368  0.00000000  0.00000000       0.222
   0.00000000  0.06493175  0.00000000       0.222
   0.04591368  0.06493175  0.00000000       0.444
 
 k-points in reciprocal lattice and weights: Auto-mesh                               
   0.00000000  0.00000000  0.00000000       0.111
   0.33333333  0.00000000  0.00000000       0.222
   0.00000000  0.33333333  0.00000000       0.222
   0.33333333  0.33333333  0.00000000       0.444
 
 position of ions in fractional coordinates (direct lattice) 
   0.00000000  0.00000000  0.00000000
   0.00000000  0.50000000  0.00000000
   0.50000000  0.00000000  0.00000000
   0.50000000  0.50000000  0.00000000
   0.25000000  0.25000000  0.06374415
   0.25000000  0.75000000  0.06374415
   0.75000000  0.25000000  0.06374415
   0.75000000  0.75000000  0.06374415
   0.00000000  0.00000000  0.12748829
   0.00000000  0.50000000  0.12748829
   0.50000000  0.00000000  0.12748829
   0.50000000  0.50000000  0.12748829
   0.25000000  0.25000000  0.19123244
   0.25000000  0.75000000  0.19123244
   0.75000000  0.25000000  0.19123244
   0.75000000  0.75000000  0.19123244
   0.00000000  0.00000000  0.25497659
   0.00000000  0.50000000  0.25497659
   0.50000000  0.00000000  0.25497659
   0.50000000  0.50000000  0.25497659
 
 position of ions in cartesian coordinates  (Angst):
   0.00000000  0.00000000  0.00000000
   0.00000000  2.56679773  0.00000000
   3.63000011  0.00000000  0.00000000
   3.63000011  2.56679773  0.00000000
   1.81500006  1.28339887  1.28339883
   1.81500006  3.85019660  1.28339883
   5.44500017  1.28339887  1.28339883
   5.44500017  3.85019660  1.28339883
   0.00000000  0.00000000  2.56679766
   0.00000000  2.56679773  2.56679766
   3.63000011  0.00000000  2.56679766
   3.63000011  2.56679773  2.56679766
   1.81500006  1.28339887  3.85019648
   1.81500006  3.85019660  3.85019648
   5.44500017  1.28339887  3.85019648
   5.44500017  3.85019660  3.85019648
   0.00000000  0.00000000  5.13359531
   0.00000000  2.56679773  5.13359531
   3.63000011  0.00000000  5.13359531
   3.63000011  2.56679773  5.13359531
 


--------------------------------------------------------------------------------------------------------


 k-point   1 :   0.0000 0.0000 0.0000  plane waves:   13659
 k-point   2 :   0.3333 0.0000 0.0000  plane waves:   13608
 k-point   3 :   0.0000 0.3333 0.0000  plane waves:   13621
 k-point   4 :   0.3333 0.3333 0.0000  plane waves:   13645

 maximum and minimum number of plane-waves per node :      2761     2692

 maximum number of plane-waves:     13659
 maximum index in each direction: 
   IXMAX=   11   IYMAX=    8   IZMAX=   32
   IXMIN=  -12   IYMIN=   -8   IZMIN=  -32


 parallel 3D FFT for wavefunctions:
    minimum data exchange during FFTs selected (reduces bandwidth)
 parallel 3D FFT for charge:
    minimum data exchange during FFTs selected (reduces bandwidth)


 total amount of memory used by VASP MPI-rank0    52552. kBytes
=======================================================================

   base      :      30000. kBytes
   nonl-proj :       2447. kBytes
   fftplans  :       2112. kBytes
   grid      :       4949. kBytes
   one-center:        124. kBytes
   wavefun   :      12920. kBytes
 
     INWAV:  cpu time      0.0000: real time      0.0005
 Broyden mixing: mesh for mixing (old mesh)
   NGX = 23   NGY = 17   NGZ = 65
  (NGX  = 72   NGY  = 56   NGZ  =196)
  gives a total of  25415 points

 initial charge density was supplied:
 charge density of overlapping atoms calculated
 number of electron     220.0000000 magnetization      20.0000000
 keeping initial charge density in first step


--------------------------------------------------------------------------------------------------------


 Maximum index for augmentation-charges          303 (set IRDMAX)


--------------------------------------------------------------------------------------------------------


 First call to EWALD:  gamma=   0.195
 Maximum number of real-space cells 3x 4x 2
 Maximum number of reciprocal cells 2x 2x 5

    FEWALD:  cpu time      0.0019: real time      0.0019


--------------------------------------- Iteration      1(   1)  ---------------------------------------


    POTLOK:  cpu time      0.0580: real time      0.0733
    SETDIJ:  cpu time      0.0075: real time      0.0075
     EDDAV:  cpu time      2.9289: real time      2.9545
       DOS:  cpu time      0.0019: real time      0.0019
    --------------------------------------------
      LOOP:  cpu time      2.9963: real time      3.0373

 eigenvalue-minimisations  :  2304
 total energy-change (2. order) : 0.1879842E+04  (-0.7834872E+04)
 number of electron     220.0000000 magnetization      20.0000000
 augmentation part      220.0000000 magnetization      20.0000000

 Free energy of the ion-electron system (eV)
  ---------------------------------------------------
  alpha Z        PSCENC =       389.84557517
  Ewald energy   TEWEN  =     71682.19064892
  -Hartree energ DENC   =    -98207.47776281
  -exchange      EXHF   =         0.00000000
  -V(xc)+E(xc)   XCENC  =       909.89658212
  PAW double counting   =     24561.94992098   -26678.41863050
  entropy T*S    EENTRO =         0.00222318
  eigenvalues    EBANDS =      1402.70052300
  atomic energy  EATOM  =     27819.15280400
  Solvation  Ediel_sol  =         0.00000000
  ---------------------------------------------------
  free energy    TOTEN  =      1879.84188406 eV

  energy without entropy =     1879.83966088  energy(sigma->0) =     1879.84114300


--------------------------------------------------------------------------------------------------------




--------------------------------------- Iteration      1(   2)  ---------------------------------------


     EDDAV:  cpu time      2.8898: real time      2.9148
       DOS:  cpu time      0.0016: real time      0.0016
    --------------------------------------------
      LOOP:  cpu time      2.8915: real time      2.9164

 eigenvalue-minimisations  :  2304
 total energy-change (2. order) :-0.1733635E+04  (-0.1660879E+04)
 number of electron     220.0000000 magnetization      20.0000000
 augmentation part      220.0000000 magnetization      20.0000000

 Free energy of the ion-electron system (eV)
  ---------------------------------------------------
  alpha Z        PSCENC =       389.84557517
  Ewald energy   TEWEN  =     71682.19064892
  -Hartree energ DENC   =    -98207.47776281
  -exchange      EXHF   =         0.00000000
  -V(xc)+E(xc)   XCENC  =       909.89658212
  PAW double counting   =     24561.94992098   -26678.41863050
  entropy T*S    EENTRO =         0.01423783
  eigenvalues    EBANDS =      -330.94616232
  atomic energy  EATOM  =     27819.15280400
  Solvation  Ediel_sol  =         0.00000000
  ---------------------------------------------------
  free energy    TOTEN  =       146.20721339 eV

  energy without entropy =      146.19297557  energy(sigma->0) =      146.20246745


--------------------------------------------------------------------------------------------------------




--------------------------------------- Iteration      1(   3)  ---------------------------------------


     EDDAV:  cpu time      2.9400: real time      2.9649
       DOS:  cpu time      0.0018: real time      0.0018
    --------------------------------------------
      LOOP:  cpu time      2.9418: real time      2.9667

 eigenvalue-minimisations  :  2376
 total energy-change (2. order) :-0.2139924E+03  (-0.1934408E+03)
 number of electron     220.0000000 magnetization      20.0000000
 augmentation part      220.0000000 magnetization      20.0000000

 Free energy of the ion-electron system (eV)
  ---------------------------------------------------
  alpha Z        PSCENC =       389.84557517
  Ewald energy   TEWEN  =     71682.19064892
  -Hartree energ DENC   =    -98207.47776281
  -exchange      EXHF   =         0.00000000
  -V(xc)+E(xc)   XCENC  =       909.89658212
  PAW double counting   =     24561.94992098   -26678.41863050
  entropy T*S    EENTRO =         0.03539814
  eigenvalues    EBANDS =      -544.95976683
  atomic energy  EATOM  =     27819.15280400
  Solvation  Ediel_sol  =         0.00000000
  ---------------------------------------------------
  free energy    TOTEN  =       -67.78523081 eV

  energy without entropy =      -67.82062895  energy(sigma->0) =      -67.79703019


--------------------------------------------------------------------------------------------------------




--------------------------------------- Iteration      1(   4)  ---------------------------------------


     EDDAV:  cpu time      3.1348: real time      3.1612
       DOS:  cpu time      0.0019: real time      0.0019
    --------------------------------------------
      LOOP:  cpu time      3.1367: real time      3.1631

 eigenvalue-minimisations  :  2584
 total energy-change (2. order) :-0.1103465E+02  (-0.1084933E+02)
 number of electron     220.0000000 magnetization      20.0000000
 augmentation part      220.0000000 magnetization      20.0000000

 Free energy of the ion-electron system (eV)
  ---------------------------------------------------
  alpha Z        PSCENC =       389.84557517
  Ewald energy   TEWEN  =     71682.19064892
  -Hartree energ DENC   =    -98207.47776281
  -exchange      EXHF   =         0.00000000
  -V(xc)+E(xc)   XCENC  =       909.89658212
  PAW double counting   =     24561.94992098   -26678.41863050
  entropy T*S    EENTRO =         0.04894222
  eigenvalues    EBANDS =      -556.00796108
  atomic energy  EATOM  =     27819.15280400
  Solvation  Ediel_sol  =         0.00000000
  ---------------------------------------------------
  free energy    TOTEN  =       -78.81988098 eV

  energy without entropy =      -78.86882320  energy(sigma->0) =      -78.83619505


--------------------------------------------------------------------------------------------------------




--------------------------------------- Iteration      1(   5)  ---------------------------------------


     EDDAV:  cpu time      3.2064: real time      3.2333
       DOS:  cpu time      0.0018: real time      0.0018
    CHARGE:  cpu time      0.3461: real time      0.3479
    MIXING:  cpu time      0.0027: real time      0.0027
    --------------------------------------------
      LOOP:  cpu time      3.5570: real time      3.5857

 eigenvalue-minimisations  :  2640
 total energy-change (2. order) :-0.2435757E+00  (-0.2431554E+00)
 number of electron     220.0002156 magnetization      17.6623105
 augmentation part      130.9470296 magnetization      17.3413723

 Broyden mixing:
  rms(total) = 0.39797E+01    rms(broyden)= 0.39795E+01
  rms(prec ) = 0.41639E+01
  weight for this iteration     100.00

 Free energy of the ion-electron system (eV)
  ---------------------------------------------------
  alpha Z        PSCENC =       389.84557517
  Ewald energy   TEWEN  =     71682.19064892
  -Hartree energ DENC   =    -98207.47776281
  -exchange      EXHF   =         0.00000000
  -V(xc)+E(xc)   XCENC  =       909.89658212
  PAW double counting   =     24561.94992098   -26678.41863050
  entropy T*S    EENTRO =         0.04957107
  eigenvalues    EBANDS =      -556.25216562
  atomic energy  EATOM  =     27819.15280400
  Solvation  Ediel_sol  =         0.00000000
  ---------------------------------------------------
  free energy    TOTEN  =       -79.06345666 eV

  energy without entropy =      -79.11302774  energy(sigma->0) =      -79.07998035


--------------------------------------------------------------------------------------------------------




--------------------------------------- Iteration      1(   6)  ---------------------------------------


    POTLOK:  cpu time      0.0588: real time      0.0593
    SETDIJ:  cpu time      0.0071: real time      0.0072
     EDDAV:  cpu time      2.9945: real time      3.0195
       DOS:  cpu time      0.0017: real time      0.0017
    CHARGE:  cpu time      0.3266: real time      0.3280
    MIXING:  cpu time      0.0074: real time      0.0074
    --------------------------------------------
      LOOP:  cpu time      3.3961: real time      3.4230

 eigenvalue-minimisations  :  2432
 total energy-change (2. order) : 0.1660198E+02  (-0.2028987E+02)
 number of electron     220.0002358 magnetization      16.2460313
 augmentation part      146.9267144 magnetization      11.6670419

 Broyden mixing:
  rms(total) = 0.20677E+01    rms(broyden)= 0.20672E+01
  rms(prec ) = 0.22059E+01
  weight for this iteration     100.00

 eigenvalues of (default mixing * dielectric matrix)
  average eigenvalue GAMMA=   0.7942
  0.7942

 Free energy of the ion-electron system (eV)
  ---------------------------------------------------
  alpha Z        PSCENC =       389.84557517
  Ewald energy   TEWEN  =     71682.19064892
  -Hartree energ DENC   =    -97696.31835259
  -exchange      EXHF   =         0.00000000
  -V(xc)+E(xc)   XCENC  =       889.61487080
  PAW double counting   =     24751.16284995   -26763.52459782
  entropy T*S    EENTRO =         0.00627757
  eigenvalues    EBANDS =     -1134.59155739
  atomic energy  EATOM  =     27819.15280400
  Solvation  Ediel_sol  =         0.00000000
  ---------------------------------------------------
  free energy    TOTEN  =       -62.46148141 eV

  energy without entropy =      -62.46775898  energy(sigma->0) =      -62.46357393


--------------------------------------------------------------------------------------------------------




--------------------------------------- Iteration      1(   7)  ---------------------------------------


    POTLOK:  cpu time      0.0534: real time      0.0539
    SETDIJ:  cpu time      0.0070: real time      0.0070
     EDDAV:  cpu time      3.1210: real time      3.1471
       DOS:  cpu time      0.0017: real time      0.0017
    CHARGE:  cpu time      0.3321: real time      0.3336
    MIXING:  cpu time      0.0059: real time      0.0059
    --------------------------------------------
      LOOP:  cpu time      3.5210: real time      3.5492

 eigenvalue-minimisations  :  2576
 total energy-change (2. order) : 0.1037432E+02  (-0.5442792E+01)
 number of electron     220.0002319 magnetization      14.8647797
 augmentation part      141.5586464 magnetization       9.7104325

 Broyden mixing:
  rms(total) = 0.98317E+00    rms(broyden)= 0.98301E+00
  rms(prec ) = 0.10184E+01
  weight for this iteration     100.00

 eigenvalues of (default mixing * dielectric matrix)
  average eigenvalue GAMMA=   0.7854
  0.9498  0.6210

 Free energy of the ion-electron system (eV)
  ---------------------------------------------------
  alpha Z        PSCENC =       389.84557517
  Ewald energy   TEWEN  =     71682.19064892
  -Hartree energ DENC   =    -97970.37573971
  -exchange      EXHF   =         0.00000000
  -V(xc)+E(xc)   XCENC  =       901.61649926
  PAW double counting   =     25267.04173387   -27376.78103790
  entropy T*S    EENTRO =        -0.02331837
  eigenvalues    EBANDS =      -764.75432244
  atomic energy  EATOM  =     27819.15280400
  Solvation  Ediel_sol  =         0.00000000
  ---------------------------------------------------
  free energy    TOTEN  =       -52.08715720 eV

  energy without entropy =      -52.06383883  energy(sigma->0) =      -52.07938441


--------------------------------------------------------------------------------------------------------




--------------------------------------- Iteration      1(   8)  ---------------------------------------


    POTLOK:  cpu time      0.0531: real time      0.0539
    SETDIJ:  cpu time      0.0069: real time      0.0069
     EDDAV:  cpu time      3.1540: real time      3.1801
       DOS:  cpu time      0.0017: real time      0.0017
    CHARGE:  cpu time      0.3210: real time      0.3224
    MIXING:  cpu time      0.0033: real time      0.0033
    --------------------------------------------
      LOOP:  cpu time      3.5399: real time      3.5683

 eigenvalue-minimisations  :  2616
 total energy-change (2. order) : 0.1859527E+01  (-0.1344681E+01)
 number of electron     220.0002250 magnetization      13.1259370
 augmentation part      140.6179548 magnetization       7.4663531

 Broyden mixing:
  rms(total) = 0.82488E+00    rms(broyden)= 0.82481E+00
  rms(prec ) = 0.87158E+00
  weight for this iteration     100.00

 eigenvalues of (default mixing * dielectric matrix)
  average eigenvalue GAMMA=   0.7335
  1.0925  0.6698  0.4382

 Free energy of the ion-electron system (eV)
  ---------------------------------------------------
  alpha Z        PSCENC =       389.84557517
  Ewald energy   TEWEN  =     71682.19064892
  -Hartree energ DENC   =    -98014.27410479
  -exchange      EXHF   =         0.00000000
  -V(xc)+E(xc)   XCENC  =       903.51049288
  PAW double counting   =     25537.29161010   -27670.78051799
  entropy T*S    EENTRO =        -0.02773815
  eigenvalues    EBANDS =      -697.13640085
  atomic energy  EATOM  =     27819.15280400
  Solvation  Ediel_sol  =         0.00000000
  ---------------------------------------------------
  free energy    TOTEN  =       -50.22763069 eV

  energy without entropy =      -50.19989255  energy(sigma->0) =      -50.21838465


--------------------------------------------------------------------------------------------------------




--------------------------------------- Iteration      1(   9)  ---------------------------------------


    POTLOK:  cpu time      0.0526: real time      0.0531
    SETDIJ:  cpu time      0.0068: real time      0.0068
     EDDAV:  cpu time      3.7003: real time      3.7318
       DOS:  cpu time      0.0025: real time      0.0025
    CHARGE:  cpu time      0.3285: real time      0.3300
    MIXING:  cpu time      0.0057: real time      0.0057
    --------------------------------------------
      LOOP:  cpu time      4.0964: real time      4.1300

 eigenvalue-minimisations  :  3192
 total energy-change (2. order) : 0.1519075E+01  (-0.4597595E+00)
 number of electron     220.0002265 magnetization       9.0452287
 augmentation part      140.1695473 magnetization       3.1938038

 Broyden mixing:
  rms(total) = 0.59208E+00    rms(broyden)= 0.59204E+00
  rms(prec ) = 0.60125E+00
  weight for this iteration     100.00

 eigenvalues of (default mixing * dielectric matrix)
  average eigenvalue GAMMA=   1.2131
  2.5275  1.1603  0.7639  0.4008

 Free energy of the ion-electron system (eV)
  ---------------------------------------------------
  alpha Z        PSCENC =       389.84557517
  Ewald energy   TEWEN  =     71682.19064892
  -Hartree energ DENC   =    -98057.61631809
  -exchange      EXHF   =         0.00000000
  -V(xc)+E(xc)   XCENC  =       903.55666243
  PAW double counting   =     25800.71894094   -27950.88492276
  entropy T*S    EENTRO =        -0.00591459
  eigenvalues    EBANDS =      -635.66603139
  atomic energy  EATOM  =     27819.15280400
  Solvation  Ediel_sol  =         0.00000000
  ---------------------------------------------------
  free energy    TOTEN  =       -48.70855537 eV

  energy without entropy =      -48.70264079  energy(sigma->0) =      -48.70658385


--------------------------------------------------------------------------------------------------------




--------------------------------------- Iteration      1(  10)  ---------------------------------------


    POTLOK:  cpu time      0.0551: real time      0.0573
    SETDIJ:  cpu time      0.0068: real time      0.0069
     EDDAV:  cpu time      3.4589: real time      3.4881
       DOS:  cpu time      0.0017: real time      0.0018
    CHARGE:  cpu time      0.3365: real time      0.3379
    MIXING:  cpu time      0.0042: real time      0.0042
    --------------------------------------------
      LOOP:  cpu time      3.8633: real time      3.8962

 eigenvalue-minimisations  :  2920
 total energy-change (2. order) :-0.8165651E+00  (-0.5454752E+00)
 number of electron     220.0002297 magnetization       7.5432105
 augmentation part      141.8445749 magnetization       2.8256866

 Broyden mixing:
  rms(total) = 0.53672E+00    rms(broyden)= 0.53667E+00
  rms(prec ) = 0.56237E+00
  weight for this iteration     100.00

 eigenvalues of (default mixing * dielectric matrix)
  average eigenvalue GAMMA=   1.2075
  3.3518  1.0816  0.6927  0.5148  0.3965

 Free energy of the ion-electron system (eV)
  ---------------------------------------------------
  alpha Z        PSCENC =       389.84557517
  Ewald energy   TEWEN  =     71682.19064892
  -Hartree energ DENC   =    -98038.37820043
  -exchange      EXHF   =         0.00000000
  -V(xc)+E(xc)   XCENC  =       899.04631409
  PAW double counting   =     26066.49852006   -28214.94799539
  entropy T*S    EENTRO =        -0.01089709
  eigenvalues    EBANDS =      -652.92188976
  atomic energy  EATOM  =     27819.15280400
  Solvation  Ediel_sol  =         0.00000000
  ---------------------------------------------------
  free energy    TOTEN  =       -49.52512043 eV

  energy without entropy =      -49.51422333  energy(sigma->0) =      -49.52148806


--------------------------------------------------------------------------------------------------------




--------------------------------------- Iteration      1(  11)  ---------------------------------------


    POTLOK:  cpu time      0.0539: real time      0.0545
    SETDIJ:  cpu time      0.0069: real time      0.0069
     EDDAV:  cpu time      3.0786: real time      3.1044
       DOS:  cpu time      0.0027: real time      0.0027
    CHARGE:  cpu time      0.3270: real time      0.3286
    MIXING:  cpu time      0.0059: real time      0.0059
    --------------------------------------------
      LOOP:  cpu time      3.4749: real time      3.5031

 eigenvalue-minimisations  :  2536
 total energy-change (2. order) :-0.6855752E+00  (-0.1343372E+00)
 number of electron     220.0002282 magnetization       5.4341287
 augmentation part      141.4954638 magnetization       0.8713294

 Broyden mixing:
  rms(total) = 0.37308E+00    rms(broyden)= 0.37306E+00
  rms(prec ) = 0.38899E+00
  weight for this iteration     100.00

 eigenvalues of (default mixing * dielectric matrix)
  average eigenvalue GAMMA=   1.2600
  4.0862  1.0580  0.7660  0.7660  0.4081  0.4758

 Free energy of the ion-electron system (eV)
  ---------------------------------------------------
  alpha Z        PSCENC =       389.84557517
  Ewald energy   TEWEN  =     71682.19064892
  -Hartree energ DENC   =    -98078.53933205
  -exchange      EXHF   =         0.00000000
  -V(xc)+E(xc)   XCENC  =       899.11938666
  PAW double counting   =     26145.80733493   -28302.74665838
  entropy T*S    EENTRO =        -0.00476608
  eigenvalues    EBANDS =      -605.03568880
  atomic energy  EATOM  =     27819.15280400
  Solvation  Ediel_sol  =         0.00000000
  ---------------------------------------------------
  free energy    TOTEN  =       -50.21069562 eV

  energy without entropy =      -50.20592954  energy(sigma->0) =      -50.20910693


--------------------------------------------------------------------------------------------------------




--------------------------------------- Iteration      1(  12)  ---------------------------------------


    POTLOK:  cpu time      0.0529: real time      0.0534
    SETDIJ:  cpu time      0.0067: real time      0.0067
     EDDAV:  cpu time      3.1757: real time      3.2022
       DOS:  cpu time      0.0018: real time      0.0018
    CHARGE:  cpu time      0.3238: real time      0.3252
    MIXING:  cpu time      0.0024: real time      0.0025
    --------------------------------------------
      LOOP:  cpu time      3.5634: real time      3.5918

 eigenvalue-minimisations  :  2648
 total energy-change (2. order) :-0.3139386E+01  (-0.2320555E+00)
 number of electron     220.0002266 magnetization       3.1250020
 augmentation part      140.4453557 magnetization      -0.6131800

 Broyden mixing:
  rms(total) = 0.23731E+00    rms(broyden)= 0.23726E+00
  rms(prec ) = 0.25209E+00
  weight for this iteration     100.00

 eigenvalues of (default mixing * dielectric matrix)
  average eigenvalue GAMMA=   1.4528
  5.3216  1.6331  0.9693  0.7353  0.7353  0.4054  0.3698

 Free energy of the ion-electron system (eV)
  ---------------------------------------------------
  alpha Z        PSCENC =       389.84557517
  Ewald energy   TEWEN  =     71682.19064892
  -Hartree energ DENC   =    -98133.80783067
  -exchange      EXHF   =         0.00000000
  -V(xc)+E(xc)   XCENC  =       898.59491878
  PAW double counting   =     26171.92005944   -28339.62889447
  entropy T*S    EENTRO =        -0.02166246
  eigenvalues    EBANDS =      -541.59570017
  atomic energy  EATOM  =     27819.15280400
  Solvation  Ediel_sol  =         0.00000000
  ---------------------------------------------------
  free energy    TOTEN  =       -53.35008146 eV

  energy without entropy =      -53.32841900  energy(sigma->0) =      -53.34286064


--------------------------------------------------------------------------------------------------------




--------------------------------------- Iteration      1(  13)  ---------------------------------------


    POTLOK:  cpu time      0.0532: real time      0.0537
    SETDIJ:  cpu time      0.0075: real time      0.0075
     EDDAV:  cpu time      3.4187: real time      3.4511
       DOS:  cpu time      0.0027: real time      0.0027
    CHARGE:  cpu time      0.3281: real time      0.3294
    MIXING:  cpu time      0.0063: real time      0.0064
    --------------------------------------------
      LOOP:  cpu time      3.8165: real time      3.8508

 eigenvalue-minimisations  :  2680
 total energy-change (2. order) :-0.6218961E+01  (-0.4240405E+00)
 number of electron     220.0002272 magnetization       1.3887216
 augmentation part      140.1100254 magnetization      -0.6509464

 Broyden mixing:
  rms(total) = 0.21887E+00    rms(broyden)= 0.21878E+00
  rms(prec ) = 0.23581E+00
  weight for this iteration     100.00

 eigenvalues of (default mixing * dielectric matrix)
  average eigenvalue GAMMA=   1.7239
  7.2667  2.3536  1.0718  0.8452  0.8452  0.6329  0.4009  0.3749

 Free energy of the ion-electron system (eV)
  ---------------------------------------------------
  alpha Z        PSCENC =       389.84557517
  Ewald energy   TEWEN  =     71682.19064892
  -Hartree energ DENC   =    -98135.21564987
  -exchange      EXHF   =         0.00000000
  -V(xc)+E(xc)   XCENC  =       894.91553992
  PAW double counting   =     26014.58782663   -28175.03075131
  entropy T*S    EENTRO =        -0.00625283
  eigenvalues    EBANDS =      -550.00878307
  atomic energy  EATOM  =     27819.15280400
  Solvation  Ediel_sol  =         0.00000000
  ---------------------------------------------------
  free energy    TOTEN  =       -59.56904245 eV

  energy without entropy =      -59.56278961  energy(sigma->0) =      -59.56695817


--------------------------------------------------------------------------------------------------------




--------------------------------------- Iteration      1(  14)  ---------------------------------------


    POTLOK:  cpu time      0.0541: real time      0.0545
    SETDIJ:  cpu time      0.0066: real time      0.0066
     EDDAV:  cpu time      3.1210: real time      3.1478
       DOS:  cpu time      0.0017: real time      0.0017
    CHARGE:  cpu time      0.3313: real time      0.3331
    MIXING:  cpu time      0.0024: real time      0.0025
    --------------------------------------------
      LOOP:  cpu time      3.5171: real time      3.5463

 eigenvalue-minimisations  :  2592
 total energy-change (2. order) :-0.4495975E+01  (-0.5274882E+00)
 number of electron     220.0002297 magnetization       1.7231129
 augmentation part      140.9199878 magnetization       0.7674151

 Broyden mixing:
  rms(total) = 0.16851E+00    rms(broyden)= 0.16840E+00
  rms(prec ) = 0.17514E+00
  weight for this iteration     100.00

 eigenvalues of (default mixing * dielectric matrix)
  average eigenvalue GAMMA=   1.6994
  7.6358  2.6749  1.0935  1.0935  0.7025  0.6609  0.6609  0.3987  0.3737

 Free energy of the ion-electron system (eV)
  ---------------------------------------------------
  alpha Z        PSCENC =       389.84557517
  Ewald energy   TEWEN  =     71682.19064892
  -Hartree energ DENC   =    -98087.77875712
  -exchange      EXHF   =         0.00000000
  -V(xc)+E(xc)   XCENC  =       890.96041037
  PAW double counting   =     25871.38296155   -28015.49687658
  entropy T*S    EENTRO =        -0.01323421
  eigenvalues    EBANDS =      -614.30854997
  atomic energy  EATOM  =     27819.15280400
  Solvation  Ediel_sol  =         0.00000000
  ---------------------------------------------------
  free energy    TOTEN  =       -64.06501787 eV

  energy without entropy =      -64.05178366  energy(sigma->0) =      -64.06060647


--------------------------------------------------------------------------------------------------------




--------------------------------------- Iteration      1(  15)  ---------------------------------------


    POTLOK:  cpu time      0.0518: real time      0.0522
    SETDIJ:  cpu time      0.0073: real time      0.0073
     EDDAV:  cpu time      3.2398: real time      3.2678
       DOS:  cpu time      0.0025: real time      0.0025
    CHARGE:  cpu time      0.3190: real time      0.3204
    MIXING:  cpu time      0.0067: real time      0.0068
    --------------------------------------------
      LOOP:  cpu time      3.6271: real time      3.6570

 eigenvalue-minimisations  :  2720
 total energy-change (2. order) :-0.1326159E+01  (-0.8055395E-01)
 number of electron     220.0002295 magnetization       1.2694817
 augmentation part      140.8898254 magnetization       0.5448029

 Broyden mixing:
  rms(total) = 0.11147E+00    rms(broyden)= 0.11145E+00
  rms(prec ) = 0.12156E+00
  weight for this iteration     100.00

 eigenvalues of (default mixing * dielectric matrix)
  average eigenvalue GAMMA=   1.8355
  8.8171  3.4889  1.1390  1.1390  0.7824  0.7824  0.8214  0.6124  0.3998  0.3729

 Free energy of the ion-electron system (eV)
  ---------------------------------------------------
  alpha Z        PSCENC =       389.84557517
  Ewald energy   TEWEN  =     71682.19064892
  -Hartree energ DENC   =    -98074.63985391
  -exchange      EXHF   =         0.00000000
  -V(xc)+E(xc)   XCENC  =       890.17325565
  PAW double counting   =     25852.35587110   -27995.40202081
  entropy T*S    EENTRO =        -0.01923657
  eigenvalues    EBANDS =      -629.04822015
  atomic energy  EATOM  =     27819.15280400
  Solvation  Ediel_sol  =         0.00000000
  ---------------------------------------------------
  free energy    TOTEN  =       -65.39117660 eV

  energy without entropy =      -65.37194004  energy(sigma->0) =      -65.38476442


--------------------------------------------------------------------------------------------------------




--------------------------------------- Iteration      1(  16)  ---------------------------------------


    POTLOK:  cpu time      0.0518: real time      0.0522
    SETDIJ:  cpu time      0.0072: real time      0.0073
     EDDAV:  cpu time      3.5363: real time      3.5672
       DOS:  cpu time      0.0018: real time      0.0018
    CHARGE:  cpu time      0.3249: real time      0.3265
    MIXING:  cpu time      0.0029: real time      0.0029
    --------------------------------------------
      LOOP:  cpu time      3.9249: real time      3.9579

 eigenvalue-minimisations  :  3040
 total energy-change (2. order) :-0.5834128E+00  (-0.3648714E-01)
 number of electron     220.0002292 magnetization       0.9491152
 augmentation part      140.7643364 magnetization       0.5818969

 Broyden mixing:
  rms(total) = 0.62298E-01    rms(broyden)= 0.62274E-01
  rms(prec ) = 0.68600E-01
  weight for this iteration     100.00

 eigenvalues of (default mixing * dielectric matrix)
  average eigenvalue GAMMA=   1.7610
  9.2065  3.1679  1.5534  0.9723  0.9723  0.7179  0.7179  0.7225  0.3996  0.3724
  0.5684

 Free energy of the ion-electron system (eV)
  ---------------------------------------------------
  alpha Z        PSCENC =       389.84557517
  Ewald energy   TEWEN  =     71682.19064892
  -Hartree energ DENC   =    -98058.29506753
  -exchange      EXHF   =         0.00000000
  -V(xc)+E(xc)   XCENC  =       890.06839269
  PAW double counting   =     25823.40624866   -27967.21464260
  entropy T*S    EENTRO =        -0.03665562
  eigenvalues    EBANDS =      -645.09189308
  atomic energy  EATOM  =     27819.15280400
  Solvation  Ediel_sol  =         0.00000000
  ---------------------------------------------------
  free energy    TOTEN  =       -65.97458940 eV

  energy without entropy =      -65.93793378  energy(sigma->0) =      -65.96237086


--------------------------------------------------------------------------------------------------------




--------------------------------------- Iteration      1(  17)  ---------------------------------------


    POTLOK:  cpu time      0.0533: real time      0.0538
    SETDIJ:  cpu time      0.0071: real time      0.0071
     EDDAV:  cpu time      3.3791: real time      3.4087
       DOS:  cpu time      0.0018: real time      0.0018
    CHARGE:  cpu time      0.3256: real time      0.3270
    MIXING:  cpu time      0.0072: real time      0.0073
    --------------------------------------------
      LOOP:  cpu time      3.7741: real time      3.8056

 eigenvalue-minimisations  :  2832
 total energy-change (2. order) :-0.3012362E+00  (-0.9551516E-02)
 number of electron     220.0002290 magnetization       0.6932882
 augmentation part      140.6296243 magnetization       0.4266569

 Broyden mixing:
  rms(total) = 0.48418E-01    rms(broyden)= 0.48409E-01
  rms(prec ) = 0.59945E-01
  weight for this iteration     100.00

 eigenvalues of (default mixing * dielectric matrix)
  average eigenvalue GAMMA=   1.7570
  9.6211  2.7528  2.4450  1.0483  1.0483  0.7688  0.7688  0.7743  0.6218  0.3718
  0.4005  0.4631

 Free energy of the ion-electron system (eV)
  ---------------------------------------------------
  alpha Z        PSCENC =       389.84557517
  Ewald energy   TEWEN  =     71682.19064892
  -Hartree energ DENC   =    -98053.43771333
  -exchange      EXHF   =         0.00000000
  -V(xc)+E(xc)   XCENC  =       889.89139865
  PAW double counting   =     25855.67938431   -28003.28575023
  entropy T*S    EENTRO =        -0.04155033
  eigenvalues    EBANDS =      -646.27062276
  atomic energy  EATOM  =     27819.15280400
  Solvation  Ediel_sol  =         0.00000000
  ---------------------------------------------------
  free energy    TOTEN  =       -66.27582559 eV

  energy without entropy =      -66.23427526  energy(sigma->0) =      -66.26197548


--------------------------------------------------------------------------------------------------------




--------------------------------------- Iteration      1(  18)  ---------------------------------------


    POTLOK:  cpu time      0.0541: real time      0.0570
    SETDIJ:  cpu time      0.0074: real time      0.0074
     EDDAV:  cpu time      3.3697: real time      3.3984
       DOS:  cpu time      0.0018: real time      0.0018
    CHARGE:  cpu time      0.3267: real time      0.3284
    MIXING:  cpu time      0.0032: real time      0.0032
    --------------------------------------------
      LOOP:  cpu time      3.7629: real time      3.7962

 eigenvalue-minimisations  :  2864
 total energy-change (2. order) :-0.2127134E+00  (-0.5869056E-02)
 number of electron     220.0002290 magnetization       0.3889063
 augmentation part      140.6273074 magnetization       0.1734719

 Broyden mixing:
  rms(total) = 0.41123E-01    rms(broyden)= 0.41119E-01
  rms(prec ) = 0.52880E-01
  weight for this iteration     100.00

 eigenvalues of (default mixing * dielectric matrix)
  average eigenvalue GAMMA=   1.7588
 10.1354  2.9094  2.9094  1.1296  1.1296  0.8033  0.8033  0.6510  0.6510  0.6113
  0.3997  0.3738  0.3574

 Free energy of the ion-electron system (eV)
  ---------------------------------------------------
  alpha Z        PSCENC =       389.84557517
  Ewald energy   TEWEN  =     71682.19064892
  -Hartree energ DENC   =    -98041.76414568
  -exchange      EXHF   =         0.00000000
  -V(xc)+E(xc)   XCENC  =       889.53477438
  PAW double counting   =     25880.87087470   -28030.58983940
  entropy T*S    EENTRO =        -0.04287542
  eigenvalues    EBANDS =      -655.68635568
  atomic energy  EATOM  =     27819.15280400
  Solvation  Ediel_sol  =         0.00000000
  ---------------------------------------------------
  free energy    TOTEN  =       -66.48853900 eV

  energy without entropy =      -66.44566358  energy(sigma->0) =      -66.47424719


--------------------------------------------------------------------------------------------------------




--------------------------------------- Iteration      1(  19)  ---------------------------------------


    POTLOK:  cpu time      0.0519: real time      0.0534
    SETDIJ:  cpu time      0.0074: real time      0.0204
     EDDAV:  cpu time      3.6856: real time      3.7173
       DOS:  cpu time      0.0018: real time      0.0018
    CHARGE:  cpu time      0.3267: real time      0.3281
    MIXING:  cpu time      0.0071: real time      0.0071
    --------------------------------------------
      LOOP:  cpu time      4.0805: real time      4.1281

 eigenvalue-minimisations  :  3208
 total energy-change (2. order) :-0.1135467E+00  (-0.3900036E-02)
 number of electron     220.0002290 magnetization       0.3080125
 augmentation part      140.6956756 magnetization       0.2175541

 Broyden mixing:
  rms(total) = 0.22825E-01    rms(broyden)= 0.22814E-01
  rms(prec ) = 0.27153E-01
  weight for this iteration     100.00

 eigenvalues of (default mixing * dielectric matrix)
  average eigenvalue GAMMA=   1.7434
 10.2018  3.1409  3.1409  1.2887  1.0666  1.0666  0.7435  0.7435  0.7584  0.6188
  0.5192  0.4001  0.3723  0.3462

 Free energy of the ion-electron system (eV)
  ---------------------------------------------------
  alpha Z        PSCENC =       389.84557517
  Ewald energy   TEWEN  =     71682.19064892
  -Hartree energ DENC   =    -98023.58857703
  -exchange      EXHF   =         0.00000000
  -V(xc)+E(xc)   XCENC  =       889.28868780
  PAW double counting   =     25874.12582684   -28023.76449022
  entropy T*S    EENTRO =        -0.04341003
  eigenvalues    EBANDS =      -673.80915115
  atomic energy  EATOM  =     27819.15280400
  Solvation  Ediel_sol  =         0.00000000
  ---------------------------------------------------
  free energy    TOTEN  =       -66.60208570 eV

  energy without entropy =      -66.55867568  energy(sigma->0) =      -66.58761569


--------------------------------------------------------------------------------------------------------




--------------------------------------- Iteration      1(  20)  ---------------------------------------


    POTLOK:  cpu time      0.0517: real time      0.0522
    SETDIJ:  cpu time      0.0072: real time      0.0072
     EDDAV:  cpu time      3.4391: real time      3.4683
       DOS:  cpu time      0.0021: real time      0.0021
    CHARGE:  cpu time      0.3296: real time      0.3314
    MIXING:  cpu time      0.0046: real time      0.0047
    --------------------------------------------
      LOOP:  cpu time      3.8344: real time      3.8659

 eigenvalue-minimisations  :  2928
 total energy-change (2. order) :-0.2100713E+00  (-0.1638773E-02)
 number of electron     220.0002291 magnetization       0.2964556
 augmentation part      140.7301659 magnetization       0.2246356

 Broyden mixing:
  rms(total) = 0.24955E-01    rms(broyden)= 0.24953E-01
  rms(prec ) = 0.28026E-01
  weight for this iteration     100.00

 eigenvalues of (default mixing * dielectric matrix)
  average eigenvalue GAMMA=   1.7377
 10.1590  3.4322  3.4322  1.7287  1.0575  1.0575  0.8083  0.8083  0.7289  0.6440
  0.6440  0.4491  0.4010  0.3716  0.3440

 Free energy of the ion-electron system (eV)
  ---------------------------------------------------
  alpha Z        PSCENC =       389.84557517
  Ewald energy   TEWEN  =     71682.19064892
  -Hartree energ DENC   =    -98013.72538408
  -exchange      EXHF   =         0.00000000
  -V(xc)+E(xc)   XCENC  =       889.02239459
  PAW double counting   =     25871.34424249   -28020.40047155
  entropy T*S    EENTRO =        -0.04349720
  eigenvalues    EBANDS =      -684.19846935
  atomic energy  EATOM  =     27819.15280400
  Solvation  Ediel_sol  =         0.00000000
  ---------------------------------------------------
  free energy    TOTEN  =       -66.81215701 eV

  energy without entropy =      -66.76865981  energy(sigma->0) =      -66.79765795


--------------------------------------------------------------------------------------------------------




--------------------------------------- Iteration      1(  21)  ---------------------------------------


    POTLOK:  cpu time      0.0535: real time      0.0539
    SETDIJ:  cpu time      0.0078: real time      0.0078
     EDDAV:  cpu time      3.2694: real time      3.2967
       DOS:  cpu time      0.0018: real time      0.0018
    CHARGE:  cpu time      0.3331: real time      0.3347
    MIXING:  cpu time      0.0055: real time      0.0055
    --------------------------------------------
      LOOP:  cpu time      3.6709: real time      3.7004

 eigenvalue-minimisations  :  2728
 total energy-change (2. order) :-0.1605888E+00  (-0.5834274E-03)
 number of electron     220.0002291 magnetization       0.1258069
 augmentation part      140.7020748 magnetization       0.0473273

 Broyden mixing:
  rms(total) = 0.15388E-01    rms(broyden)= 0.15386E-01
  rms(prec ) = 0.18499E-01
  weight for this iteration     100.00

 eigenvalues of (default mixing * dielectric matrix)
  average eigenvalue GAMMA=   1.7696
 10.2921  4.4148  2.9462  2.4650  1.1113  1.1113  1.0400  0.7623  0.7623  0.6725
  0.6725  0.5460  0.3716  0.4029  0.4029  0.3396

 Free energy of the ion-electron system (eV)
  ---------------------------------------------------
  alpha Z        PSCENC =       389.84557517
  Ewald energy   TEWEN  =     71682.19064892
  -Hartree energ DENC   =    -98008.85110917
  -exchange      EXHF   =         0.00000000
  -V(xc)+E(xc)   XCENC  =       888.91471187
  PAW double counting   =     25871.77974477   -28020.83880574
  entropy T*S    EENTRO =        -0.04371352
  eigenvalues    EBANDS =      -689.12260214
  atomic energy  EATOM  =     27819.15280400
  Solvation  Ediel_sol  =         0.00000000
  ---------------------------------------------------
  free energy    TOTEN  =       -66.97274582 eV

  energy without entropy =      -66.92903230  energy(sigma->0) =      -66.95817464


--------------------------------------------------------------------------------------------------------




--------------------------------------- Iteration      1(  22)  ---------------------------------------


    POTLOK:  cpu time      0.0533: real time      0.0540
    SETDIJ:  cpu time      0.0071: real time      0.0071
     EDDAV:  cpu time      3.5153: real time      3.5446
       DOS:  cpu time      0.0026: real time      0.0026
    CHARGE:  cpu time      0.3287: real time      0.3301
    MIXING:  cpu time      0.0040: real time      0.0040
    --------------------------------------------
      LOOP:  cpu time      3.9110: real time      3.9425

 eigenvalue-minimisations  :  3024
 total energy-change (2. order) :-0.1033722E+00  (-0.9347207E-03)
 number of electron     220.0002290 magnetization       0.0903085
 augmentation part      140.6784136 magnetization       0.0820643

 Broyden mixing:
  rms(total) = 0.16142E-01    rms(broyden)= 0.16136E-01
  rms(prec ) = 0.17574E-01
  weight for this iteration     100.00

 eigenvalues of (default mixing * dielectric matrix)
  average eigenvalue GAMMA=   1.7711
 10.2790  4.7637  3.3788  2.5655  1.3697  1.0168  1.0168  0.8667  0.7852  0.7852
  0.6710  0.6095  0.4882  0.3721  0.4027  0.3975  0.3408

 Free energy of the ion-electron system (eV)
  ---------------------------------------------------
  alpha Z        PSCENC =       389.84557517
  Ewald energy   TEWEN  =     71682.19064892
  -Hartree energ DENC   =    -97996.91910239
  -exchange      EXHF   =         0.00000000
  -V(xc)+E(xc)   XCENC  =       888.87490377
  PAW double counting   =     25863.30966460   -28012.22966462
  entropy T*S    EENTRO =        -0.04309808
  eigenvalues    EBANDS =      -701.25784941
  atomic energy  EATOM  =     27819.15280400
  Solvation  Ediel_sol  =         0.00000000
  ---------------------------------------------------
  free energy    TOTEN  =       -67.07611803 eV

  energy without entropy =      -67.03301995  energy(sigma->0) =      -67.06175200


--------------------------------------------------------------------------------------------------------




--------------------------------------- Iteration      1(  23)  ---------------------------------------


    POTLOK:  cpu time      0.0517: real time      0.0521
    SETDIJ:  cpu time      0.0075: real time      0.0075
     EDDAV:  cpu time      3.1388: real time      3.1654
       DOS:  cpu time      0.0018: real time      0.0018
    CHARGE:  cpu time      0.3270: real time      0.3284
    MIXING:  cpu time      0.0078: real time      0.0078
    --------------------------------------------
      LOOP:  cpu time      3.5346: real time      3.5630

 eigenvalue-minimisations  :  2616
 total energy-change (2. order) :-0.2716487E-01  (-0.1781382E-03)
 number of electron     220.0002290 magnetization       0.0334216
 augmentation part      140.6847607 magnetization       0.0187635

 Broyden mixing:
  rms(total) = 0.60616E-02    rms(broyden)= 0.60608E-02
  rms(prec ) = 0.67745E-02
  weight for this iteration     100.00

 eigenvalues of (default mixing * dielectric matrix)
  average eigenvalue GAMMA=   1.7797
 10.3862  4.9824  3.7116  2.6595  1.7049  1.0609  1.0609  0.9018  0.7684  0.7684
  0.7507  0.6768  0.6145  0.4741  0.3723  0.4036  0.3958  0.3412

 Free energy of the ion-electron system (eV)
  ---------------------------------------------------
  alpha Z        PSCENC =       389.84557517
  Ewald energy   TEWEN  =     71682.19064892
  -Hartree energ DENC   =    -97997.06622855
  -exchange      EXHF   =         0.00000000
  -V(xc)+E(xc)   XCENC  =       888.81370980
  PAW double counting   =     25867.26857819   -28016.03093949
  entropy T*S    EENTRO =        -0.04351603
  eigenvalues    EBANDS =      -701.23391491
  atomic energy  EATOM  =     27819.15280400
  Solvation  Ediel_sol  =         0.00000000
  ---------------------------------------------------
  free energy    TOTEN  =       -67.10328289 eV

  energy without entropy =      -67.05976686  energy(sigma->0) =      -67.08877755


--------------------------------------------------------------------------------------------------------




--------------------------------------- Iteration      1(  24)  ---------------------------------------


    POTLOK:  cpu time      0.0516: real time      0.0520
    SETDIJ:  cpu time      0.0067: real time      0.0067
     EDDAV:  cpu time      2.7577: real time      2.7808
       DOS:  cpu time      0.0027: real time      0.0027
    CHARGE:  cpu time      0.3301: real time      0.3317
    MIXING:  cpu time      0.0041: real time      0.0041
    --------------------------------------------
      LOOP:  cpu time      3.1528: real time      3.1781

 eigenvalue-minimisations  :  2192
 total energy-change (2. order) :-0.1470329E-01  (-0.1162527E-03)
 number of electron     220.0002290 magnetization       0.0081706
 augmentation part      140.7016834 magnetization       0.0014639

 Broyden mixing:
  rms(total) = 0.34042E-02    rms(broyden)= 0.34031E-02
  rms(prec ) = 0.39796E-02
  weight for this iteration     100.00

 eigenvalues of (default mixing * dielectric matrix)
  average eigenvalue GAMMA=   1.8223
 10.4217  6.0189  3.2023  3.2023  2.0442  1.2089  1.0645  1.0645  0.8141  0.8141
  0.7633  0.7633  0.6243  0.6243  0.4826  0.3722  0.4025  0.3952  0.3410

 Free energy of the ion-electron system (eV)
  ---------------------------------------------------
  alpha Z        PSCENC =       389.84557517
  Ewald energy   TEWEN  =     71682.19064892
  -Hartree energ DENC   =    -97995.61747655
  -exchange      EXHF   =         0.00000000
  -V(xc)+E(xc)   XCENC  =       888.77254662
  PAW double counting   =     25868.69319297   -28017.25385391
  entropy T*S    EENTRO =        -0.04349970
  eigenvalues    EBANDS =      -702.85792370
  atomic energy  EATOM  =     27819.15280400
  Solvation  Ediel_sol  =         0.00000000
  ---------------------------------------------------
  free energy    TOTEN  =       -67.11798618 eV

  energy without entropy =      -67.07448648  energy(sigma->0) =      -67.10348628


--------------------------------------------------------------------------------------------------------




--------------------------------------- Iteration      1(  25)  ---------------------------------------


    POTLOK:  cpu time      0.0516: real time      0.0521
    SETDIJ:  cpu time      0.0075: real time      0.0076
     EDDAV:  cpu time      2.3455: real time      2.3652
       DOS:  cpu time      0.0018: real time      0.0018
    CHARGE:  cpu time      0.3236: real time      0.3250
    MIXING:  cpu time      0.0089: real time      0.0090
    --------------------------------------------
      LOOP:  cpu time      2.7391: real time      2.7607

 eigenvalue-minimisations  :  1720
 total energy-change (2. order) :-0.8012571E-02  (-0.5034172E-04)
 number of electron     220.0002290 magnetization       0.0019185
[...]
    111      -0.3632      0.17692
    112       0.1401     -0.00013
    113       0.5619     -0.00000
    114       0.8046     -0.00000
    115       1.0011     -0.00000
    116       1.3426     -0.00000
    117       1.4513     -0.00000
    118       1.7237     -0.00000
    119       2.4366     -0.00000
    120       2.6326     -0.00000
    121       2.7836     -0.00000
    122       2.8980     -0.00000
    123       3.4009     -0.00000
    124       3.4050     -0.00000
    125       3.8209     -0.00000
    126       4.3061     -0.00000
    127       4.6494     -0.00000
    128       4.7433     -0.00000
    129       4.8169     -0.00000
    130       4.8558     -0.00000
    131       5.0723      0.00000
    132       5.2475      0.00000
    133       5.2883      0.00000
    134       5.6132      0.00000
    135       5.7946      0.00000
    136       5.9610      0.00000
    137       6.0159      0.00000
    138       6.4108      0.00000
    139       6.5150      0.00000
    140       6.6757      0.00000
    141       6.6775      0.00000
    142       6.7934      0.00000
    143       6.9561      0.00000
    144       7.0262      0.00000


--------------------------------------------------------------------------------------------------------


 soft charge-density along one line, spin component           1
         0         1         2         3         4         5         6         7         8         9
 total charge-density along one line
 
 soft charge-density along one line, spin component           2
         0         1         2         3         4         5         6         7         8         9
 total charge-density along one line
 
 pseudopotential strength for first ion, spin component:           1
 -8.426  -0.000  -0.000   0.000  -0.000  -0.558   0.000   0.000
 -0.000  -8.422  -0.000   0.000   0.000   0.000  -0.562   0.000
 -0.000  -0.000  -8.408  -0.000  -0.028   0.000   0.000  -0.575
  0.000   0.000  -0.000  -8.391  -0.000  -0.000  -0.000   0.000
 -0.000   0.000  -0.028  -0.000  -8.430   0.000  -0.000   0.022
 -0.558   0.000   0.000  -0.000   0.000   7.389  -0.000  -0.000
  0.000  -0.562   0.000  -0.000  -0.000  -0.000   7.394  -0.000
  0.000   0.000  -0.575   0.000   0.022  -0.000  -0.000   7.403
 -0.000  -0.000   0.000  -0.587   0.000  -0.000   0.000  -0.000
  0.000  -0.000   0.022   0.000  -0.555  -0.000   0.000  -0.015
 -0.000   0.000  -0.005   0.000  -0.006  -0.000   0.000   0.004
 -0.000   0.000  -0.010   0.000  -0.010  -0.000   0.000   0.007
  0.000  -0.018  -0.000  -0.000  -0.000  -0.000   0.013   0.000
 -0.000   0.000  -0.019   0.000   0.001  -0.000  -0.000   0.013
  0.000  -0.000  -0.000  -0.015   0.000  -0.000  -0.000   0.000
  0.000  -0.020  -0.000   0.000  -0.000   0.000   0.014  -0.000
  0.000   0.000  -0.020   0.000   0.001  -0.000   0.000   0.013
  0.000   0.000  -0.000  -0.017   0.000   0.000  -0.000  -0.000
 pseudopotential strength for first ion, spin component:           2
 -8.426  -0.000  -0.000   0.000   0.000  -0.558   0.000   0.000
 -0.000  -8.422  -0.000   0.000   0.000   0.000  -0.562   0.000
 -0.000  -0.000  -8.408  -0.000  -0.028   0.000   0.000  -0.575
  0.000   0.000  -0.000  -8.391  -0.000  -0.000  -0.000   0.000
  0.000   0.000  -0.028  -0.000  -8.430  -0.000  -0.000   0.022
 -0.558   0.000   0.000  -0.000  -0.000   7.389  -0.000  -0.000
  0.000  -0.562   0.000  -0.000  -0.000  -0.000   7.394  -0.000
  0.000   0.000  -0.575   0.000   0.022  -0.000  -0.000   7.403
 -0.000  -0.000   0.000  -0.587   0.000  -0.000   0.000  -0.000
 -0.000  -0.000   0.022   0.000  -0.555   0.000   0.000  -0.015
 -0.000   0.000  -0.005   0.000  -0.006  -0.000   0.000   0.004
 -0.000   0.000  -0.010   0.000  -0.010  -0.000   0.000   0.007
  0.000  -0.018  -0.000  -0.000  -0.000  -0.000   0.013   0.000
 -0.000   0.000  -0.019   0.000   0.001  -0.000  -0.000   0.013
  0.000  -0.000  -0.000  -0.015   0.000  -0.000  -0.000   0.000
  0.000  -0.020  -0.000   0.000  -0.000   0.000   0.014  -0.000
  0.000   0.000  -0.020   0.000   0.001  -0.000   0.000   0.013
  0.000   0.000  -0.000  -0.017   0.000   0.000  -0.000  -0.000
 total augmentation occupancy for first ion, spin component:           1
  1.925   0.000  -0.000   0.000   0.000  -0.019   0.000   0.000   0.000   0.000   0.000  -0.000   0.000   0.000   0.000  -0.000
  0.000   1.939   0.000   0.000   0.000   0.000  -0.029   0.000   0.000   0.000   0.000   0.000   0.020  -0.000  -0.000  -0.022
 -0.000   0.000   1.935   0.000  -0.012   0.000   0.000  -0.021   0.000   0.010   0.003   0.010   0.000   0.055  -0.000  -0.000
  0.000   0.000   0.000   1.937   0.000   0.000  -0.000   0.000  -0.028   0.000   0.000   0.000   0.000  -0.000   0.065   0.000
  0.000   0.000  -0.012   0.000   1.914  -0.000   0.000   0.010   0.000  -0.018  -0.005   0.004   0.000   0.027   0.000   0.000
 -0.019   0.000   0.000   0.000   0.000   0.009   0.000   0.000   0.000   0.000   0.000  -0.000   0.000   0.000   0.000   0.000
  0.000  -0.029   0.000   0.000   0.000   0.000   0.009   0.000   0.000   0.000   0.000   0.000   0.020   0.000   0.000  -0.001
  0.000   0.000  -0.021   0.000   0.010  -0.000   0.000   0.010  -0.000   0.002  -0.018  -0.001   0.000   0.019   0.000   0.000
  0.000   0.000  -0.000  -0.028   0.000   0.000  -0.000  -0.000   0.010  -0.000   0.000   0.000   0.000   0.000   0.026   0.000
 -0.000   0.000   0.010   0.000  -0.018   0.000   0.000   0.002  -0.000   0.010  -0.024   0.001   0.000   0.002   0.000   0.000
 -0.000   0.000   0.003   0.000  -0.005  -0.000   0.000  -0.018   0.000  -0.024   1.598  -0.115   0.000   0.195   0.000   0.000
 -0.000   0.000   0.010   0.000   0.004   0.000   0.000  -0.001   0.000   0.001  -0.115   0.013   0.000  -0.026   0.000   0.000
  0.000   0.020   0.000  -0.000  -0.000   0.000   0.020   0.000   0.000   0.000   0.000   0.000   0.172   0.000   0.000  -0.010
 -0.000  -0.000   0.055  -0.000   0.027  -0.000   0.000   0.019   0.000   0.002   0.195  -0.026   0.000   0.102   0.000   0.000
  0.000  -0.000   0.000   0.065   0.000   0.000   0.000   0.000   0.026   0.000   0.000   0.000   0.000   0.000   0.136  -0.000
 -0.000  -0.022   0.000   0.000  -0.000   0.000  -0.001   0.000  -0.000   0.000   0.000   0.000  -0.010   0.000  -0.000   0.001
 -0.000  -0.000  -0.026   0.000  -0.001  -0.000   0.000  -0.001   0.000  -0.000  -0.026   0.003   0.000  -0.009   0.000   0.000
  0.000   0.000   0.000  -0.024   0.000   0.000  -0.000   0.000  -0.001   0.000   0.000  -0.000  -0.000   0.000  -0.008   0.000
 total augmentation occupancy for first ion, spin component:           2
 -0.000   0.000   0.000   0.000   0.000   0.000   0.000  -0.000   0.000   0.000   0.000   0.000  -0.000   0.000   0.000  -0.000
  0.000   0.000   0.000   0.000   0.000   0.000   0.000   0.000   0.000   0.000   0.000   0.000  -0.000   0.000   0.000   0.000
  0.000   0.000  -0.000   0.000   0.000   0.000   0.000  -0.000   0.000  -0.000   0.000  -0.000   0.000   0.000   0.000   0.000
  0.000   0.000   0.000   0.000   0.000   0.000   0.000  -0.000   0.000   0.000   0.000   0.000   0.000   0.000   0.000   0.000
  0.000   0.000   0.000   0.000   0.000   0.000   0.000   0.000   0.000   0.000  -0.000  -0.000   0.000   0.000   0.000   0.000
  0.000   0.000   0.000   0.000   0.000   0.000   0.000   0.000   0.000   0.000   0.000  -0.000   0.000   0.000   0.000   0.000
  0.000   0.000   0.000   0.000   0.000   0.000   0.000   0.000   0.000   0.000   0.000   0.000   0.000   0.000   0.000  -0.000
 -0.000   0.000  -0.000   0.000   0.000   0.000   0.000   0.000  -0.000  -0.000  -0.000  -0.000   0.000   0.000   0.000   0.000
  0.000   0.000   0.000   0.000   0.000   0.000   0.000   0.000  -0.000  -0.000   0.000   0.000   0.000   0.000   0.000   0.000
  0.000   0.000  -0.000   0.000   0.000   0.000   0.000  -0.000   0.000   0.000   0.000  -0.000   0.000   0.000   0.000   0.000
  0.000   0.000   0.000   0.000  -0.000   0.000   0.000  -0.000   0.000   0.000   0.000  -0.000   0.000   0.000  -0.000   0.000
  0.000   0.000  -0.000   0.000  -0.000  -0.000   0.000  -0.000  -0.000  -0.000  -0.000   0.000   0.000  -0.000   0.000   0.000
  0.000  -0.000   0.000   0.000   0.000   0.000   0.000   0.000   0.000   0.000   0.000   0.000   0.000   0.000   0.000  -0.000
  0.000   0.000   0.000   0.000   0.000   0.000   0.000   0.000   0.000   0.000   0.000  -0.000   0.000   0.000  -0.000   0.000
  0.000   0.000  -0.000   0.000   0.000   0.000   0.000   0.000   0.000  -0.000  -0.000  -0.000   0.000   0.000   0.000  -0.000
 -0.000   0.000   0.000   0.000   0.000  -0.000  -0.000   0.000   0.000   0.000   0.000   0.000  -0.000   0.000  -0.000   0.000
 -0.000   0.000  -0.000   0.000  -0.000  -0.000   0.000   0.000   0.000  -0.000  -0.000   0.000   0.000  -0.000   0.000   0.000
  0.000   0.000  -0.000  -0.000   0.000   0.000   0.000   0.000  -0.000   0.000  -0.000   0.000   0.000  -0.000  -0.000   0.000


------------------------ aborting loop because EDIFF is reached ----------------------------------------



 DIPCOR: dipole corrections for dipol
 direction  3 min pos   121,
 dipolmoment           0.000000      0.000000      0.020414 electrons x Angstroem
 Tr[quadrupol]     -1737.461591

 energy correction for charged system         0.000000 eV
 dipol+quadrupol energy correction            0.000050 eV
 added-field ion interaction          0.000000 eV  (added to PSCEN)

 
  *************** adding dipol energy to TOTEN NOW **************** 
    CHARGE:  cpu time      0.3281: real time      0.3298
    FORLOC:  cpu time      0.0054: real time      0.0054
    FORNL :  cpu time      2.3837: real time      2.3925
    STRESS:  cpu time      1.8885: real time      1.8999
    FORCOR:  cpu time      0.0557: real time      0.0561
    FORHAR:  cpu time      0.0093: real time      0.0093
    MIXING:  cpu time      0.0018: real time      0.0018
    OFIELD:  cpu time      0.0000: real time      0.0000

 ---------------------------------------------------------------------------------------------

         DFTD3 V3.0 Rev 1        
 Edisp (eV)   -6.12383

 E6    (eV) :    -2.3330
 E8    (eV) :    -3.7908
 % E8        : 61.90
    FORVDW:  cpu time      0.0620: real time      0.0623

  FORCE on cell =-STRESS in cart. coord.  units (eV):
  Direction    XX          YY          ZZ          XY          YZ          ZX
  --------------------------------------------------------------------------------------
  Alpha Z   389.84558   389.84558   389.84558
  Ewald   87587.97350 88294.11396************    -0.00000     0.00000    -0.00000
  Hartree 94926.89399 95400.76524-90279.51603    -0.00000    -0.00000    -0.00000
  E(xc)   -1284.30314 -1283.54533 -1286.35478    -0.00000    -0.00000     0.00000
  Local  ************************190061.00187    -0.00000    -0.00000     0.00000
  n-local  -443.89143  -441.76024  -448.38714     3.92339     0.00000     0.00000
  augment  1890.48258  1885.22879  1893.97413     0.00000     0.00000     0.00000
  Kinetic  1794.98435  1786.98588  1802.41835     2.69766    -0.00000     0.00000
  Fock        0.00000     0.00000     0.00000     0.00000     0.00000     0.00000
  vdW        -7.50347    -7.84519    -3.49596    -0.00000     0.00000    -0.00000
  -------------------------------------------------------------------------------------
  Total     -12.14674   -13.97387    -3.43382     0.00000     0.00000     0.00000
  in kB     -25.93526   -29.83648    -7.33177     0.00000     0.00000     0.00000
  external pressure =      -21.03 kB  Pullay stress =        0.00 kB


 VOLUME and BASIS-vectors are now :
 -----------------------------------------------------------------------------
  energy-cutoff  :      400.00
  volume of cell :      750.38
      direct lattice vectors                 reciprocal lattice vectors
     7.260000229  0.000000000  0.000000000     0.137741042  0.000000000  0.000000000
     0.000000000  5.133595467  0.000000000     0.000000000  0.194795248  0.000000000
     0.000000000  0.000000000 20.133595000     0.000000000  0.000000000  0.049668229

  length of vectors
     7.260000229  5.133595467 20.133595000     0.137741042  0.194795248  0.049668229


 FORCES acting on ions
    electron-ion (+dipol)            ewald-force                    non-local-force                 convergence-correction
 -----------------------------------------------------------------------------------------------
   -.843E-13 -.424E-13 0.302E+04   -.303E-06 -.144E-06 -.302E+04   0.000E+00 -.132E-22 -.551E+01   -.109E-09 -.537E-10 -.126E+00
   -.623E-13 0.116E-05 0.302E+04   -.303E-06 0.196E-06 -.302E+04   0.149E-22 0.000E+00 -.551E+01   -.109E-09 0.983E-10 -.126E+00
   0.183E-05 -.765E-12 0.302E+04   0.163E-06 -.144E-06 -.302E+04   0.414E-23 0.000E+00 -.551E+01   0.257E-09 -.538E-10 -.126E+00
   0.183E-05 0.116E-05 0.302E+04   0.163E-06 0.196E-06 -.302E+04   -.662E-23 -.265E-22 -.551E+01   0.257E-09 0.984E-10 -.126E+00
   0.836E-06 -.132E-05 0.164E+04   -.156E-06 -.234E-06 -.164E+04   -.132E-22 0.000E+00 -.338E+00   0.954E-10 0.614E-10 -.214E+00
   0.836E-06 -.188E-06 0.164E+04   -.156E-06 0.127E-06 -.164E+04   -.529E-22 0.000E+00 -.338E+00   0.954E-10 -.967E-10 -.214E+00
   0.251E-05 -.132E-05 0.164E+04   0.443E-06 -.234E-06 -.164E+04   0.132E-22 0.132E-22 -.338E+00   -.311E-09 0.615E-10 -.214E+00
   0.251E-05 -.188E-06 0.164E+04   0.443E-06 0.127E-06 -.164E+04   0.860E-22 0.000E+00 -.338E+00   -.311E-09 -.968E-10 -.214E+00
   -.113E-12 -.407E-13 0.340E+02   -.479E-06 -.150E-06 -.340E+02   0.000E+00 0.000E+00 0.160E+00   0.318E-09 0.201E-10 -.209E+00
   -.114E-12 0.114E-05 0.340E+02   -.479E-06 0.254E-06 -.340E+02   0.000E+00 0.000E+00 0.160E+00   0.318E-09 -.191E-09 -.209E+00
   0.171E-05 -.314E-13 0.340E+02   0.201E-06 -.150E-06 -.340E+02   -.165E-23 0.000E+00 0.160E+00   -.662E-10 0.201E-10 -.209E+00
   0.171E-05 0.114E-05 0.340E+02   0.201E-06 0.254E-06 -.340E+02   -.165E-23 0.000E+00 0.160E+00   -.663E-10 -.191E-09 -.209E+00
   0.830E-06 -.131E-05 -.169E+04   -.156E-06 -.237E-06 0.169E+04   -.265E-22 -.132E-22 -.672E+00   0.121E-09 0.272E-10 0.534E-01
   0.830E-06 -.188E-06 -.169E+04   -.156E-06 0.125E-06 0.169E+04   -.265E-22 0.662E-23 -.672E+00   0.121E-09 0.169E-10 0.534E-01
   0.249E-05 -.131E-05 -.169E+04   0.454E-06 -.237E-06 0.169E+04   -.265E-22 -.993E-23 -.672E+00   0.103E-09 0.271E-10 0.534E-01
   0.249E-05 -.188E-06 -.169E+04   0.454E-06 0.125E-06 0.169E+04   0.265E-22 -.331E-23 -.672E+00   0.103E-09 0.171E-10 0.534E-01
   -.721E-13 -.187E-11 -.301E+04   -.331E-06 -.142E-06 0.300E+04   0.132E-22 0.132E-22 0.534E+01   -.111E-09 0.845E-10 0.993E-01
   -.471E-13 0.115E-05 -.301E+04   -.331E-06 0.206E-06 0.300E+04   0.132E-22 0.000E+00 0.534E+01   -.110E-09 0.293E-10 0.993E-01
   0.180E-05 -.101E-11 -.301E+04   0.165E-06 -.142E-06 0.300E+04   -.662E-23 0.000E+00 0.534E+01   -.357E-09 0.845E-10 0.993E-01
   0.180E-05 0.115E-05 -.301E+04   0.165E-06 0.206E-06 0.300E+04   -.199E-22 0.132E-22 0.534E+01   -.357E-09 0.292E-10 0.993E-01
 -----------------------------------------------------------------------------------------------
   0.240E-04 0.894E-06 0.563E+01   0.624E-13 0.542E-14 0.591E-11   -.108E-22 -.199E-22 -.410E+01   -.119E-09 -.775E-11 -.158E+01
 
 
 POSITION                                       TOTAL-FORCE (eV/Angst)
 -----------------------------------------------------------------------------------
      0.00000      0.00000      0.00000        -0.000000     -0.000000      0.431876
      0.00000      2.56680      0.00000        -0.000000     -0.000000      0.431876
      3.63000      0.00000      0.00000         0.000000     -0.000000      0.431876
      3.63000      2.56680      0.00000         0.000000      0.000000      0.431876
      1.81500      1.28340      1.28340         0.000000      0.000000     -0.419768
      1.81500      3.85020      1.28340         0.000000      0.000000     -0.419768
      5.44500      1.28340      1.28340         0.000000      0.000000     -0.419768
      5.44500      3.85020      1.28340        -0.000000      0.000000     -0.419768
     -0.00000     -0.00000      2.51405         0.000000      0.000000     -0.022181
      0.00000      2.56680      2.51405         0.000000     -0.000000     -0.022181
      3.63000      0.00000      2.51405        -0.000000      0.000000     -0.022181
      3.63000      2.56680      2.51405         0.000000     -0.000000     -0.022181
      1.81500      1.28340      3.83066        -0.000000     -0.000000      0.000633
      1.81500      3.85020      3.83066         0.000000     -0.000000      0.000633
      5.44500      1.28340      3.83066         0.000000     -0.000000      0.000633
      5.44500      3.85020      3.83066        -0.000000     -0.000000      0.000633
     -0.00000      0.00000      4.97149         0.000000      0.000000      0.009440
      0.00000      2.56680      4.97149         0.000000      0.000000      0.009440
      3.63000      0.00000      4.97149         0.000000      0.000000      0.009440
      3.63000      2.56680      4.97149         0.000000     -0.000000      0.009440
 -----------------------------------------------------------------------------------
    total drift:                                0.000024      0.000001     -0.054536


--------------------------------------------------------------------------------------------------------



  FREE ENERGIE OF THE ION-ELECTRON SYSTEM (eV)
  ---------------------------------------------------
  free  energy   TOTEN  =       -73.31771161 eV

  energy  without entropy=      -73.28423324  energy(sigma->0) =      -73.30655215
 
 d Force = 0.3967751E-02[-0.107E-02, 0.900E-02]  d Energy = 0.4462795E-02-0.495E-03
 d Force =-0.2445276E+03[-0.245E+03,-0.245E+03]  d Ewald  =-0.2445295E+03 0.186E-02


--------------------------------------------------------------------------------------------------------


    POTLOK:  cpu time      0.0615: real time      0.0621


--------------------------------------------------------------------------------------------------------


 stress matrix after NEB project (eV)
    -12.14674      0.00000      0.00000
      0.00000    -13.97387      0.00000
      0.00000      0.00000     -3.43382
  FORCES: max atom, RMS     0.022181    0.010785
  FORCE total and by dimension    0.048230    0.022181
  Stress total and by dimension   18.830915   13.973867
 Conjugate gradient step on ions:
 trial-energy change:   -0.004463  1 .order   -0.003968   -0.009001    0.001066
  (g-gl).g = 0.226E-02      g.g   = 0.265E-02  gl.gl    = 0.691E-02
 g(Force)  = 0.265E-02   g(Stress)= 0.000E+00 ortho     = 0.149E-03
 gamma     =   0.32759
 trial     =   3.33890
 opt step  =   2.98545  (harmonic =   2.98545) maximal distance =0.00642116
 next E    =   -73.317273   (d E  =  -0.00402)


--------------------------------------------------------------------------------------------------------


  
 reached required accuracy - stopping structural energy minimisation
     LOOP+:  cpu time     25.8349: real time     26.0698
    4ORBIT:  cpu time      0.0000: real time      0.0000

 total amount of memory used by VASP MPI-rank0    52552. kBytes
=======================================================================

   base      :      30000. kBytes
   nonl-proj :       2447. kBytes
   fftplans  :       2112. kBytes
   grid      :       4949. kBytes
   one-center:        124. kBytes
   wavefun   :      12920. kBytes
 
  
  
 General timing and accounting informations for this job:
 ========================================================
  
                  Total CPU time used (sec):      350.941
                            User time (sec):      336.278
                          System time (sec):       14.663
                         Elapsed time (sec):      355.019
  
                   Maximum memory used (kb):      268012.
                   Average memory used (kb):          N/A
  
                          Minor page faults:       288702
                          Major page faults:         6614
                 Voluntary context switches:         5187
