unknown system                          
           1
     7.260000    0.000000    0.000000
     0.000000    5.133595    0.000000
     0.000000    0.000000   20.133595
   Cu
    20
Direct configuration=     1
   0.00000000  0.00000000  0.00000000
   0.00000000  0.50000000  0.00000000
   0.50000000  0.00000000  0.00000000
   0.50000000  0.50000000  0.00000000
   0.25000000  0.25000000  0.06374415
   0.25000000  0.75000000  0.06374415
   0.75000000  0.25000000  0.06374415
   0.75000000  0.75000000  0.06374415
   0.00000000  0.00000000  0.12748829
   0.00000000  0.50000000  0.12748829
   0.50000000  0.00000000  0.12748829
   0.50000000  0.50000000  0.12748829
   0.25000000  0.25000000  0.19123244
   0.25000000  0.75000000  0.19123244
   0.75000000  0.25000000  0.19123244
   0.75000000  0.75000000  0.19123244
   0.00000000  0.00000000  0.25497659
   0.00000000  0.50000000  0.25497659
   0.50000000  0.00000000  0.25497659
   0.50000000  0.50000000  0.25497659
Direct configuration=     2
   0.00000000  0.00000000  0.00000000
   0.00000000  0.50000000  0.00000000
   0.50000000  0.00000000  0.00000000
   0.50000000  0.50000000  0.00000000
   0.25000000  0.25000000  0.06374415
   0.25000000  0.75000000  0.06374415
   0.75000000  0.25000000  0.06374415
   0.75000000  0.75000000  0.06374415
   0.00000000 -0.00000000  0.12748946
   0.00000000  0.50000000  0.12748946
   0.50000000  0.00000000  0.12748946
   0.50000000  0.50000000  0.12748946
   0.25000000  0.25000000  0.19189687
   0.25000000  0.75000000  0.19189687
   0.75000000  0.25000000  0.19189687
   0.75000000  0.75000000  0.19189687
  -0.00000000 -0.00000000  0.25379253
   0.00000000  0.50000000  0.25379253
   0.50000000  0.00000000  0.25379253
   0.50000000  0.50000000  0.25379253
Direct configuration=     3
   0.00000000  0.00000000  0.00000000
   0.00000000  0.50000000  0.00000000
   0.50000000  0.00000000  0.00000000
   0.50000000  0.50000000  0.00000000
   0.25000000  0.25000000  0.06374415
   0.25000000  0.75000000  0.06374415
   0.75000000  0.25000000  0.06374415
   0.75000000  0.75000000  0.06374415
   0.00000000 -0.00000000  0.12749272
   0.00000000  0.50000000  0.12749272
   0.50000000  0.00000000  0.12749272
   0.50000000  0.50000000  0.12749272
   0.25000000  0.25000000  0.19376163
   0.25000000  0.75000000  0.19376163
   0.75000000  0.25000000  0.19376163
   0.75000000  0.75000000  0.19376163
  -0.00000000 -0.00000000  0.25046943
   0.00000000  0.50000000  0.25046943
   0.50000000  0.00000000  0.25046943
   0.50000000  0.50000000  0.25046943
Direct configuration=     4
   0.00000000  0.00000000  0.00000000
   0.00000000  0.50000000  0.00000000
   0.50000000  0.00000000  0.00000000
   0.50000000  0.50000000  0.00000000
   0.25000000  0.25000000  0.06374415
   0.25000000  0.75000000  0.06374415
   0.75000000  0.25000000  0.06374415
   0.75000000  0.75000000  0.06374415
   0.00000000 -0.00000000  0.12749248
   0.00000000  0.50000000  0.12749248
   0.50000000  0.00000000  0.12749248
   0.50000000  0.50000000  0.12749248
   0.25000000  0.25000000  0.19362703
   0.25000000  0.75000000  0.19362703
   0.75000000  0.25000000  0.19362703
   0.75000000  0.75000000  0.19362703
  -0.00000000 -0.00000000  0.25070929
   0.00000000  0.50000000  0.25070929
   0.50000000  0.00000000  0.25070929
   0.50000000  0.50000000  0.25070929
Direct configuration=     5
   0.00000000  0.00000000  0.00000000
   0.00000000  0.50000000  0.00000000
   0.50000000  0.00000000  0.00000000
   0.50000000  0.50000000  0.00000000
   0.25000000  0.25000000  0.06374415
   0.25000000  0.75000000  0.06374415
   0.75000000  0.25000000  0.06374415
   0.75000000  0.75000000  0.06374415
   0.00000000 -0.00000000  0.12749258
   0.00000000  0.50000000  0.12749258
   0.50000000  0.00000000  0.12749258
   0.50000000  0.50000000  0.12749258
   0.25000000  0.25000000  0.19368209
   0.25000000  0.75000000  0.19368209
   0.75000000  0.25000000  0.19368209
   0.75000000  0.75000000  0.19368209
  -0.00000000 -0.00000000  0.25061117
   0.00000000  0.50000000  0.25061117
   0.50000000  0.00000000  0.25061117
   0.50000000  0.50000000  0.25061117
Direct configuration=     6
   0.00000000  0.00000000  0.00000000
   0.00000000  0.50000000  0.00000000
   0.50000000  0.00000000  0.00000000
   0.50000000  0.50000000  0.00000000
   0.25000000  0.25000000  0.06374415
   0.25000000  0.75000000  0.06374415
   0.75000000  0.25000000  0.06374415
   0.75000000  0.75000000  0.06374415
   0.00000000 -0.00000000  0.12749252
   0.00000000  0.50000000  0.12749252
   0.50000000  0.00000000  0.12749252
   0.50000000  0.50000000  0.12749252
   0.25000000  0.25000000  0.19365022
   0.25000000  0.75000000  0.19365022
   0.75000000  0.25000000  0.19365022
   0.75000000  0.75000000  0.19365022
  -0.00000000 -0.00000000  0.25066797
   0.00000000  0.50000000  0.25066797
   0.50000000  0.00000000  0.25066797
   0.50000000  0.50000000  0.25066797
Direct configuration=     7
   0.00000000  0.00000000  0.00000000
   0.00000000  0.50000000  0.00000000
   0.50000000  0.00000000  0.00000000
   0.50000000  0.50000000  0.00000000
   0.25000000  0.25000000  0.06374415
   0.25000000  0.75000000  0.06374415
   0.75000000  0.25000000  0.06374415
   0.75000000  0.75000000  0.06374415
  -0.00000000 -0.00000000  0.12706225
   0.00000000  0.50000000  0.12706225
   0.50000000  0.00000000  0.12706225
   0.50000000  0.50000000  0.12706225
   0.25000000  0.25000000  0.19329047
   0.25000000  0.75000000  0.19329047
   0.75000000  0.25000000  0.19329047
   0.75000000  0.75000000  0.19329047
  -0.00000000 -0.00000000  0.25020038
   0.00000000  0.50000000  0.25020038
   0.50000000  0.00000000  0.25020038
   0.50000000  0.50000000  0.25020038
Direct configuration=     8
   0.00000000  0.00000000  0.00000000
   0.00000000  0.50000000  0.00000000
   0.50000000  0.00000000  0.00000000
   0.50000000  0.50000000  0.00000000
   0.25000000  0.25000000  0.06374415
   0.25000000  0.75000000  0.06374415
   0.75000000  0.25000000  0.06374415
   0.75000000  0.75000000  0.06374415
  -0.00000000 -0.00000000  0.12577142
   0.00000000  0.50000000  0.12577142
   0.50000000  0.00000000  0.12577142
   0.50000000  0.50000000  0.12577142
   0.25000000  0.25000000  0.19221122
   0.25000000  0.75000000  0.19221122
   0.75000000  0.25000000  0.19221122
   0.75000000  0.75000000  0.19221122
  -0.00000000 -0.00000000  0.24879762
   0.00000000  0.50000000  0.24879762
   0.50000000  0.00000000  0.24879762
   0.50000000  0.50000000  0.24879762
Direct configuration=     9
   0.00000000  0.00000000  0.00000000
   0.00000000  0.50000000  0.00000000
   0.50000000  0.00000000  0.00000000
   0.50000000  0.50000000  0.00000000
   0.25000000  0.25000000  0.06374415
   0.25000000  0.75000000  0.06374415
   0.75000000  0.25000000  0.06374415
   0.75000000  0.75000000  0.06374415
  -0.00000000 -0.00000000  0.12318976
   0.00000000  0.50000000  0.12318976
   0.50000000  0.00000000  0.12318976
   0.50000000  0.50000000  0.12318976
   0.25000000  0.25000000  0.19005273
   0.25000000  0.75000000  0.19005273
   0.75000000  0.25000000  0.19005273
   0.75000000  0.75000000  0.19005273
  -0.00000000 -0.00000000  0.24599209
   0.00000000  0.50000000  0.24599209
   0.50000000  0.00000000  0.24599209
   0.50000000  0.50000000  0.24599209
Direct configuration=    10
   0.00000000  0.00000000  0.00000000
   0.00000000  0.50000000  0.00000000
   0.50000000  0.00000000  0.00000000
   0.50000000  0.50000000  0.00000000
   0.25000000  0.25000000  0.06374415
   0.25000000  0.75000000  0.06374415
   0.75000000  0.25000000  0.06374415
   0.75000000  0.75000000  0.06374415
  -0.00000000 -0.00000000  0.12451185
   0.00000000  0.50000000  0.12451185
   0.50000000  0.00000000  0.12451185
   0.50000000  0.50000000  0.12451185
   0.25000000  0.25000000  0.19115812
   0.25000000  0.75000000  0.19115812
   0.75000000  0.25000000  0.19115812
   0.75000000  0.75000000  0.19115812
  -0.00000000 -0.00000000  0.24742883
   0.00000000  0.50000000  0.24742883
   0.50000000  0.00000000  0.24742883
   0.50000000  0.50000000  0.24742883
Direct configuration=    11
   0.00000000  0.00000000  0.00000000
   0.00000000  0.50000000  0.00000000
   0.50000000  0.00000000  0.00000000
   0.50000000  0.50000000  0.00000000
   0.25000000  0.25000000  0.06374415
   0.25000000  0.75000000  0.06374415
   0.75000000  0.25000000  0.06374415
   0.75000000  0.75000000  0.06374415
  -0.00000000 -0.00000000  0.12486854
   0.00000000  0.50000000  0.12486854
   0.50000000  0.00000000  0.12486854
   0.50000000  0.50000000  0.12486854
   0.25000000  0.25000000  0.19026207
   0.25000000  0.75000000  0.19026207
   0.75000000  0.25000000  0.19026207
   0.75000000  0.75000000  0.19026207
  -0.00000000  0.00000000  0.24692531
   0.00000000  0.50000000  0.24692531
   0.50000000  0.00000000  0.24692531
   0.50000000  0.50000000  0.24692531
