  10  10   0   0
  0.2234684E+02  0.3630000E-09  0.2566798E-09  0.2398379E-08  0.5000000E-15
  1.000000000000000E-004
  CAR 
 unknown system                          
     11.81179639     -9.96221493  301      0.95705737      1.00000000
     -9.962  0.0000E+00  0.0000E+00  0.0000E+00  0.0000E+00
     -9.890  0.0000E+00  0.0000E+00  0.0000E+00  0.0000E+00
     -9.817  0.0000E+00  0.0000E+00  0.0000E+00  0.0000E+00
     -9.744  0.0000E+00  0.0000E+00  0.0000E+00  0.0000E+00
     -9.672  0.0000E+00  0.0000E+00  0.0000E+00  0.0000E+00
     -9.599 -0.3520E-31 -0.3520E-31 -0.2555E-32 -0.2555E-32
     -9.527 -0.1118E-28 -0.1118E-28 -0.8140E-30 -0.8140E-30
     -9.454 -0.2729E-26 -0.2729E-26 -0.1989E-27 -0.1989E-27
     -9.382 -0.5104E-24 -0.5104E-24 -0.3725E-25 -0.3725E-25
     -9.309 -0.7315E-22 -0.7315E-22 -0.5347E-23 -0.5347E-23
     -9.236 -0.8029E-20 -0.8029E-20 -0.5881E-21 -0.5881E-21
     -9.164 -0.6745E-18 -0.6745E-18 -0.4954E-19 -0.4954E-19
     -9.091 -0.4196E-16 -0.4196E-16 -0.3095E-17 -0.3095E-17
     -9.019 -0.2054E-14 -0.2054E-14 -0.1522E-15 -0.1522E-15
     -8.946 -0.7662E-13 -0.7662E-13 -0.5713E-14 -0.5713E-14
     -8.874 -0.2177E-11 -0.2177E-11 -0.1637E-12 -0.1637E-12
     -8.801 -0.4700E-10 -0.4700E-10 -0.3575E-11 -0.3575E-11
     -8.728 -0.7690E-09 -0.7690E-09 -0.5939E-10 -0.5939E-10
     -8.656 -0.9495E-08 -0.9495E-08 -0.7485E-09 -0.7485E-09
     -8.583 -0.8792E-07 -0.8792E-07 -0.7129E-08 -0.7129E-08
     -8.511 -0.6045E-06 -0.6045E-06 -0.5101E-07 -0.5101E-07
     -8.438 -0.3036E-05 -0.3036E-05 -0.2713E-06 -0.2713E-06
     -8.365 -0.1077E-04 -0.1077E-04 -0.1053E-05 -0.1053E-05
     -8.293 -0.2495E-04 -0.2495E-04 -0.2864E-05 -0.2864E-05
     -8.220 -0.2723E-04 -0.2723E-04 -0.4841E-05 -0.4841E-05
     -8.148  0.3625E-04  0.3625E-04 -0.2210E-05 -0.2210E-05
     -8.075  0.2146E-03  0.2146E-03  0.1337E-04  0.1337E-04
     -8.003  0.4504E-03  0.4504E-03  0.4605E-04  0.4605E-04
     -7.930  0.5677E-03  0.5677E-03  0.8726E-04  0.8726E-04
     -7.857  0.4527E-03  0.4527E-03  0.1201E-03  0.1201E-03
     -7.785  0.2091E-03  0.2091E-03  0.1353E-03  0.1353E-03
     -7.712  0.5785E-04  0.5785E-04  0.1395E-03  0.1395E-03
     -7.640  0.1206E-03  0.1206E-03  0.1482E-03  0.1482E-03
     -7.567  0.3301E-03  0.3301E-03  0.1722E-03  0.1722E-03
     -7.494  0.5340E-03  0.5340E-03  0.2110E-03  0.2110E-03
     -7.422  0.6973E-03  0.6973E-03  0.2616E-03  0.2616E-03
     -7.349  0.9124E-03  0.9124E-03  0.3278E-03  0.3278E-03
     -7.277  0.1127E-02  0.1127E-02  0.4096E-03  0.4096E-03
     -7.204  0.1086E-02  0.1086E-02  0.4885E-03  0.4885E-03
     -7.132  0.7037E-03  0.7037E-03  0.5395E-03  0.5395E-03
     -7.059  0.2538E-03  0.2538E-03  0.5579E-03  0.5579E-03
     -6.986  0.6038E-04  0.6038E-04  0.5623E-03  0.5623E-03
     -6.914  0.1841E-03  0.1841E-03  0.5757E-03  0.5757E-03
     -6.841  0.4743E-03  0.4743E-03  0.6101E-03  0.6101E-03
     -6.769  0.7940E-03  0.7940E-03  0.6677E-03  0.6677E-03
     -6.696  0.1090E-02  0.1090E-02  0.7468E-03  0.7468E-03
     -6.624  0.1249E-02  0.1249E-02  0.8375E-03  0.8375E-03
     -6.551  0.1093E-02  0.1093E-02  0.9168E-03  0.9168E-03
     -6.478  0.6381E-03  0.6381E-03  0.9631E-03  0.9631E-03
     -6.406  0.1578E-03  0.1578E-03  0.9746E-03  0.9746E-03
     -6.333 -0.8692E-04 -0.8692E-04  0.9683E-03  0.9683E-03
     -6.261 -0.7572E-05 -0.7572E-05  0.9677E-03  0.9677E-03
     -6.188  0.3711E-03  0.3711E-03  0.9947E-03  0.9947E-03
     -6.115  0.9507E-03  0.9507E-03  0.1064E-02  0.1064E-02
     -6.043  0.1605E-02  0.1605E-02  0.1180E-02  0.1180E-02
     -5.970  0.2229E-02  0.2229E-02  0.1342E-02  0.1342E-02
     -5.898  0.2635E-02  0.2635E-02  0.1533E-02  0.1533E-02
     -5.825  0.2593E-02  0.2593E-02  0.1721E-02  0.1721E-02
     -5.753  0.2123E-02  0.2123E-02  0.1875E-02  0.1875E-02
     -5.680  0.1563E-02  0.1563E-02  0.1989E-02  0.1989E-02
     -5.607  0.1285E-02  0.1285E-02  0.2082E-02  0.2082E-02
     -5.535  0.1413E-02  0.1413E-02  0.2185E-02  0.2185E-02
     -5.462  0.1661E-02  0.1661E-02  0.2305E-02  0.2305E-02
     -5.390  0.1550E-02  0.1550E-02  0.2418E-02  0.2418E-02
     -5.317  0.9797E-03  0.9797E-03  0.2489E-02  0.2489E-02
     -5.245  0.3381E-03  0.3381E-03  0.2513E-02  0.2513E-02
     -5.172 -0.2614E-04 -0.2614E-04  0.2511E-02  0.2511E-02
     -5.099 -0.1310E-03 -0.1310E-03  0.2502E-02  0.2502E-02
     -5.027 -0.1717E-03 -0.1717E-03  0.2490E-02  0.2490E-02
     -4.954 -0.2255E-03 -0.2255E-03  0.2473E-02  0.2473E-02
     -4.882 -0.8764E-04 -0.8764E-04  0.2467E-02  0.2467E-02
     -4.809  0.6753E-03  0.6753E-03  0.2516E-02  0.2516E-02
     -4.736  0.2235E-02  0.2235E-02  0.2678E-02  0.2678E-02
     -4.664  0.3885E-02  0.3885E-02  0.2960E-02  0.2960E-02
     -4.591  0.4384E-02  0.4384E-02  0.3278E-02  0.3278E-02
     -4.519  0.3290E-02  0.3290E-02  0.3517E-02  0.3517E-02
     -4.446  0.1509E-02  0.1509E-02  0.3626E-02  0.3626E-02
     -4.374  0.1938E-03  0.1938E-03  0.3640E-02  0.3640E-02
     -4.301 -0.3520E-03 -0.3520E-03  0.3615E-02  0.3615E-02
     -4.228 -0.4343E-03 -0.4343E-03  0.3583E-02  0.3583E-02
     -4.156 -0.1270E-03 -0.1270E-03  0.3574E-02  0.3574E-02
     -4.083  0.9419E-03  0.9419E-03  0.3643E-02  0.3643E-02
     -4.011  0.2904E-02  0.2904E-02  0.3853E-02  0.3853E-02
     -3.938  0.4900E-02  0.4900E-02  0.4209E-02  0.4209E-02
     -3.865  0.5536E-02  0.5536E-02  0.4611E-02  0.4611E-02
     -3.793  0.4392E-02  0.4392E-02  0.4930E-02  0.4930E-02
     -3.720  0.2607E-02  0.2607E-02  0.5119E-02  0.5119E-02
     -3.648  0.1647E-02  0.1647E-02  0.5238E-02  0.5238E-02
     -3.575  0.1889E-02  0.1889E-02  0.5375E-02  0.5375E-02
     -3.503  0.2750E-02  0.2750E-02  0.5575E-02  0.5575E-02
     -3.430  0.3763E-02  0.3763E-02  0.5848E-02  0.5848E-02
     -3.357  0.4906E-02  0.4906E-02  0.6204E-02  0.6204E-02
     -3.285  0.6063E-02  0.6063E-02  0.6644E-02  0.6644E-02
     -3.212  0.6926E-02  0.6926E-02  0.7147E-02  0.7147E-02
     -3.140  0.7520E-02  0.7520E-02  0.7693E-02  0.7693E-02
     -3.067  0.8239E-02  0.8239E-02  0.8291E-02  0.8291E-02
     -2.995  0.9247E-02  0.9247E-02  0.8962E-02  0.8962E-02
     -2.922  0.1033E-01  0.1033E-01  0.9712E-02  0.9712E-02
     -2.849  0.1126E-01  0.1126E-01  0.1053E-01  0.1053E-01
     -2.777  0.1174E-01  0.1174E-01  0.1138E-01  0.1138E-01
     -2.704  0.1132E-01  0.1132E-01  0.1220E-01  0.1220E-01
     -2.632  0.1001E-01  0.1001E-01  0.1293E-01  0.1293E-01
     -2.559  0.8720E-02  0.8720E-02  0.1356E-01  0.1356E-01
     -2.486  0.8607E-02  0.8607E-02  0.1419E-01  0.1419E-01
     -2.414  0.9802E-02  0.9802E-02  0.1490E-01  0.1490E-01
     -2.341  0.1129E-01  0.1129E-01  0.1572E-01  0.1572E-01
     -2.269  0.1229E-01  0.1229E-01  0.1661E-01  0.1661E-01
     -2.196  0.1307E-01  0.1307E-01  0.1756E-01  0.1756E-01
     -2.124  0.1396E-01  0.1396E-01  0.1857E-01  0.1857E-01
     -2.051  0.1456E-01  0.1456E-01  0.1963E-01  0.1963E-01
     -1.978  0.1492E-01  0.1492E-01  0.2071E-01  0.2071E-01
     -1.906  0.1623E-01  0.1623E-01  0.2189E-01  0.2189E-01
     -1.833  0.1894E-01  0.1894E-01  0.2326E-01  0.2326E-01
     -1.761  0.2131E-01  0.2131E-01  0.2481E-01  0.2481E-01
     -1.688  0.2127E-01  0.2127E-01  0.2635E-01  0.2635E-01
     -1.616  0.1896E-01  0.1896E-01  0.2773E-01  0.2773E-01
     -1.543  0.1627E-01  0.1627E-01  0.2891E-01  0.2891E-01
     -1.470  0.1462E-01  0.1462E-01  0.2997E-01  0.2997E-01
     -1.398  0.1374E-01  0.1374E-01  0.3097E-01  0.3097E-01
     -1.325  0.1275E-01  0.1275E-01  0.3189E-01  0.3189E-01
     -1.253  0.1192E-01  0.1192E-01  0.3276E-01  0.3276E-01
     -1.180  0.1250E-01  0.1250E-01  0.3367E-01  0.3367E-01
     -1.107  0.1498E-01  0.1498E-01  0.3475E-01  0.3475E-01
     -1.035  0.1856E-01  0.1856E-01  0.3610E-01  0.3610E-01
     -0.962  0.2203E-01  0.2203E-01  0.3770E-01  0.3770E-01
     -0.890  0.2424E-01  0.2424E-01  0.3946E-01  0.3946E-01
     -0.817  0.2420E-01  0.2420E-01  0.4122E-01  0.4122E-01
     -0.745  0.2241E-01  0.2241E-01  0.4284E-01  0.4284E-01
     -0.672  0.2110E-01  0.2110E-01  0.4437E-01  0.4437E-01
     -0.599  0.2168E-01  0.2168E-01  0.4595E-01  0.4595E-01
     -0.527  0.2298E-01  0.2298E-01  0.4761E-01  0.4761E-01
     -0.454  0.2304E-01  0.2304E-01  0.4929E-01  0.4929E-01
     -0.382  0.2121E-01  0.2121E-01  0.5083E-01  0.5083E-01
     -0.309  0.1799E-01  0.1799E-01  0.5213E-01  0.5213E-01
     -0.236  0.1401E-01  0.1401E-01  0.5315E-01  0.5315E-01
     -0.164  0.1013E-01  0.1013E-01  0.5388E-01  0.5388E-01
     -0.091  0.7152E-02  0.7152E-02  0.5440E-01  0.5440E-01
     -0.019  0.5140E-02  0.5140E-02  0.5478E-01  0.5478E-01
      0.054  0.3430E-02  0.3430E-02  0.5502E-01  0.5502E-01
      0.126  0.1722E-02  0.1722E-02  0.5515E-01  0.5515E-01
      0.199  0.4000E-03  0.4000E-03  0.5518E-01  0.5518E-01
      0.272 -0.2255E-03 -0.2255E-03  0.5516E-01  0.5516E-01
      0.344 -0.3227E-03 -0.3227E-03  0.5514E-01  0.5514E-01
      0.417 -0.1569E-03 -0.1569E-03  0.5513E-01  0.5513E-01
      0.489  0.2369E-03  0.2369E-03  0.5514E-01  0.5514E-01
      0.562  0.8956E-03  0.8956E-03  0.5521E-01  0.5521E-01
      0.634  0.1695E-02  0.1695E-02  0.5533E-01  0.5533E-01
      0.707  0.2440E-02  0.2440E-02  0.5551E-01  0.5551E-01
      0.780  0.3020E-02  0.3020E-02  0.5573E-01  0.5573E-01
      0.852  0.3267E-02  0.3267E-02  0.5597E-01  0.5597E-01
      0.925  0.2908E-02  0.2908E-02  0.5618E-01  0.5618E-01
      0.997  0.1952E-02  0.1952E-02  0.5632E-01  0.5632E-01
      1.070  0.9158E-03  0.9158E-03  0.5639E-01  0.5639E-01
      1.143  0.4060E-03  0.4060E-03  0.5641E-01  0.5641E-01
      1.215  0.5467E-03  0.5467E-03  0.5645E-01  0.5645E-01
      1.288  0.9113E-03  0.9113E-03  0.5652E-01  0.5652E-01
      1.360  0.1027E-02  0.1027E-02  0.5659E-01  0.5659E-01
      1.433  0.8979E-03  0.8979E-03  0.5666E-01  0.5666E-01
      1.505  0.8537E-03  0.8537E-03  0.5672E-01  0.5672E-01
      1.578  0.9534E-03  0.9534E-03  0.5679E-01  0.5679E-01
      1.651  0.9722E-03  0.9722E-03  0.5686E-01  0.5686E-01
      1.723  0.9810E-03  0.9810E-03  0.5693E-01  0.5693E-01
      1.796  0.1347E-02  0.1347E-02  0.5703E-01  0.5703E-01
      1.868  0.1981E-02  0.1981E-02  0.5717E-01  0.5717E-01
      1.941  0.2182E-02  0.2182E-02  0.5733E-01  0.5733E-01
      2.013  0.1559E-02  0.1559E-02  0.5745E-01  0.5745E-01
      2.086  0.6414E-03  0.6414E-03  0.5749E-01  0.5749E-01
      2.159  0.2989E-03  0.2989E-03  0.5751E-01  0.5751E-01
      2.231  0.8499E-03  0.8499E-03  0.5758E-01  0.5758E-01
      2.304  0.1767E-02  0.1767E-02  0.5770E-01  0.5770E-01
      2.376  0.2171E-02  0.2171E-02  0.5786E-01  0.5786E-01
      2.449  0.1780E-02  0.1780E-02  0.5799E-01  0.5799E-01
      2.522  0.1223E-02  0.1223E-02  0.5808E-01  0.5808E-01
      2.594  0.1202E-02  0.1202E-02  0.5817E-01  0.5817E-01
      2.667  0.1724E-02  0.1724E-02  0.5829E-01  0.5829E-01
      2.739  0.2356E-02  0.2356E-02  0.5846E-01  0.5846E-01
      2.812  0.2707E-02  0.2707E-02  0.5866E-01  0.5866E-01
      2.884  0.2488E-02  0.2488E-02  0.5884E-01  0.5884E-01
      2.957  0.1720E-02  0.1720E-02  0.5897E-01  0.5897E-01
      3.030  0.1015E-02  0.1015E-02  0.5904E-01  0.5904E-01
      3.102  0.1086E-02  0.1086E-02  0.5912E-01  0.5912E-01
      3.175  0.1886E-02  0.1886E-02  0.5925E-01  0.5925E-01
      3.247  0.2560E-02  0.2560E-02  0.5944E-01  0.5944E-01
      3.320  0.2349E-02  0.2349E-02  0.5961E-01  0.5961E-01
      3.393  0.1393E-02  0.1393E-02  0.5971E-01  0.5971E-01
      3.465  0.4328E-03  0.4328E-03  0.5974E-01  0.5974E-01
      3.538 -0.5123E-04 -0.5123E-04  0.5974E-01  0.5974E-01
      3.610 -0.1336E-03 -0.1336E-03  0.5973E-01  0.5973E-01
      3.683 -0.8542E-04 -0.8542E-04  0.5972E-01  0.5972E-01
      3.755 -0.7159E-04 -0.7159E-04  0.5972E-01  0.5972E-01
      3.828 -0.1407E-03 -0.1407E-03  0.5971E-01  0.5971E-01
      3.901 -0.2440E-03 -0.2440E-03  0.5969E-01  0.5969E-01
      3.973 -0.1172E-03 -0.1172E-03  0.5968E-01  0.5968E-01
      4.046  0.7301E-03  0.7301E-03  0.5973E-01  0.5973E-01
      4.118  0.2501E-02  0.2501E-02  0.5992E-01  0.5992E-01
      4.191  0.4435E-02  0.4435E-02  0.6024E-01  0.6024E-01
      4.263  0.5210E-02  0.5210E-02  0.6062E-01  0.6062E-01
      4.336  0.4382E-02  0.4382E-02  0.6093E-01  0.6093E-01
      4.409  0.2898E-02  0.2898E-02  0.6114E-01  0.6114E-01
      4.481  0.1935E-02  0.1935E-02  0.6129E-01  0.6129E-01
      4.554  0.1773E-02  0.1773E-02  0.6141E-01  0.6141E-01
      4.626  0.1899E-02  0.1899E-02  0.6155E-01  0.6155E-01
      4.699  0.1723E-02  0.1723E-02  0.6168E-01  0.6168E-01
      4.772  0.1117E-02  0.1117E-02  0.6176E-01  0.6176E-01
      4.844  0.4689E-03  0.4689E-03  0.6179E-01  0.6179E-01
      4.917  0.3406E-03  0.3406E-03  0.6182E-01  0.6182E-01
      4.989  0.9618E-03  0.9618E-03  0.6189E-01  0.6189E-01
      5.062  0.1883E-02  0.1883E-02  0.6202E-01  0.6202E-01
      5.134  0.2260E-02  0.2260E-02  0.6219E-01  0.6219E-01
      5.207  0.1713E-02  0.1713E-02  0.6231E-01  0.6231E-01
      5.280  0.7130E-03  0.7131E-03  0.6236E-01  0.6236E-01
      5.352 -0.3595E-04 -0.3594E-04  0.6236E-01  0.6236E-01
      5.425 -0.2045E-03 -0.2045E-03  0.6235E-01  0.6235E-01
      5.497  0.2510E-03  0.2510E-03  0.6236E-01  0.6236E-01
      5.570  0.1260E-02  0.1260E-02  0.6246E-01  0.6246E-01
      5.642  0.2557E-02  0.2557E-02  0.6264E-01  0.6264E-01
      5.715  0.3760E-02  0.3760E-02  0.6291E-01  0.6291E-01
      5.788  0.4529E-02  0.4529E-02  0.6324E-01  0.6324E-01
      5.860  0.4595E-02  0.4595E-02  0.6358E-01  0.6358E-01
      5.933  0.3977E-02  0.3977E-02  0.6386E-01  0.6386E-01
      6.005  0.3203E-02  0.3203E-02  0.6410E-01  0.6410E-01
      6.078  0.2870E-02  0.2870E-02  0.6431E-01  0.6431E-01
      6.151  0.3011E-02  0.3011E-02  0.6452E-01  0.6452E-01
      6.223  0.3110E-02  0.3110E-02  0.6475E-01  0.6475E-01
      6.296  0.2692E-02  0.2693E-02  0.6495E-01  0.6495E-01
      6.368  0.1949E-02  0.1949E-02  0.6509E-01  0.6509E-01
      6.441  0.1645E-02  0.1645E-02  0.6521E-01  0.6521E-01
      6.513  0.2146E-02  0.2146E-02  0.6536E-01  0.6536E-01
      6.586  0.2851E-02  0.2851E-02  0.6557E-01  0.6557E-01
      6.659  0.3008E-02  0.3008E-02  0.6579E-01  0.6579E-01
      6.731  0.2609E-02  0.2609E-02  0.6598E-01  0.6598E-01
      6.804  0.2087E-02  0.2087E-02  0.6613E-01  0.6613E-01
      6.876  0.1669E-02  0.1669E-02  0.6625E-01  0.6625E-01
      6.949  0.1470E-02  0.1471E-02  0.6636E-01  0.6636E-01
      7.022  0.1672E-02  0.1672E-02  0.6648E-01  0.6648E-01
      7.094  0.2237E-02  0.2237E-02  0.6664E-01  0.6664E-01
      7.167  0.2876E-02  0.2876E-02  0.6685E-01  0.6685E-01
      7.239  0.3442E-02  0.3442E-02  0.6710E-01  0.6710E-01
      7.312  0.3872E-02  0.3871E-02  0.6738E-01  0.6738E-01
      7.384  0.3844E-02  0.3844E-02  0.6766E-01  0.6766E-01
      7.457  0.3124E-02  0.3124E-02  0.6788E-01  0.6788E-01
      7.530  0.2072E-02  0.2072E-02  0.6804E-01  0.6804E-01
      7.602  0.1317E-02  0.1317E-02  0.6813E-01  0.6813E-01
      7.675  0.1128E-02  0.1128E-02  0.6821E-01  0.6821E-01
      7.747  0.1442E-02  0.1442E-02  0.6832E-01  0.6832E-01
      7.820  0.2077E-02  0.2077E-02  0.6847E-01  0.6847E-01
      7.892  0.2629E-02  0.2629E-02  0.6866E-01  0.6866E-01
      7.965  0.2757E-02  0.2757E-02  0.6886E-01  0.6886E-01
      8.038  0.2827E-02  0.2827E-02  0.6906E-01  0.6906E-01
      8.110  0.3471E-02  0.3471E-02  0.6932E-01  0.6932E-01
      8.183  0.4471E-02  0.4471E-02  0.6964E-01  0.6964E-01
      8.255  0.5003E-02  0.5003E-02  0.7000E-01  0.7000E-01
      8.328  0.4820E-02  0.4821E-02  0.7035E-01  0.7035E-01
      8.401  0.4374E-02  0.4374E-02  0.7067E-01  0.7067E-01
      8.473  0.4035E-02  0.4035E-02  0.7096E-01  0.7096E-01
      8.546  0.3751E-02  0.3751E-02  0.7124E-01  0.7124E-01
      8.618  0.3264E-02  0.3264E-02  0.7147E-01  0.7147E-01
      8.691  0.2498E-02  0.2499E-02  0.7165E-01  0.7165E-01
      8.763  0.1791E-02  0.1791E-02  0.7178E-01  0.7178E-01
      8.836  0.1578E-02  0.1578E-02  0.7190E-01  0.7190E-01
      8.909  0.1820E-02  0.1820E-02  0.7203E-01  0.7203E-01
      8.981  0.2070E-02  0.2070E-02  0.7218E-01  0.7218E-01
      9.054  0.2175E-02  0.2175E-02  0.7234E-01  0.7234E-01
      9.126  0.2392E-02  0.2392E-02  0.7251E-01  0.7251E-01
      9.199  0.2722E-02  0.2722E-02  0.7271E-01  0.7271E-01
      9.271  0.2795E-02  0.2795E-02  0.7291E-01  0.7291E-01
      9.344  0.2569E-02  0.2569E-02  0.7310E-01  0.7310E-01
      9.417  0.2479E-02  0.2479E-02  0.7328E-01  0.7328E-01
      9.489  0.2785E-02  0.2785E-02  0.7348E-01  0.7348E-01
      9.562  0.3328E-02  0.3328E-02  0.7372E-01  0.7372E-01
      9.634  0.3897E-02  0.3897E-02  0.7401E-01  0.7401E-01
      9.707  0.4303E-02  0.4303E-02  0.7432E-01  0.7432E-01
      9.780  0.4176E-02  0.4176E-02  0.7462E-01  0.7462E-01
      9.852  0.3242E-02  0.3242E-02  0.7486E-01  0.7486E-01
      9.925  0.1803E-02  0.1803E-02  0.7499E-01  0.7499E-01
      9.997  0.5625E-03  0.5626E-03  0.7503E-01  0.7503E-01
     10.070 -0.5829E-04 -0.5824E-04  0.7502E-01  0.7502E-01
     10.142 -0.1754E-03 -0.1754E-03  0.7501E-01  0.7501E-01
     10.215 -0.1060E-03 -0.1060E-03  0.7500E-01  0.7500E-01
     10.288 -0.3891E-04 -0.3891E-04  0.7500E-01  0.7500E-01
     10.360 -0.9926E-05 -0.9928E-05  0.7500E-01  0.7500E-01
     10.433 -0.1840E-05 -0.1841E-05  0.7500E-01  0.7500E-01
     10.505 -0.2531E-06 -0.2532E-06  0.7500E-01  0.7500E-01
     10.578 -0.2612E-07 -0.2613E-07  0.7500E-01  0.7500E-01
     10.651 -0.2036E-08 -0.2037E-08  0.7500E-01  0.7500E-01
     10.723 -0.1205E-09 -0.1205E-09  0.7500E-01  0.7500E-01
     10.796 -0.5423E-11 -0.5426E-11  0.7500E-01  0.7500E-01
     10.868 -0.1862E-12 -0.1863E-12  0.7500E-01  0.7500E-01
     10.941 -0.4885E-14 -0.4887E-14  0.7500E-01  0.7500E-01
     11.013 -0.9815E-16 -0.9815E-16  0.7500E-01  0.7500E-01
     11.086 -0.1700E-17 -0.1700E-17  0.7500E-01  0.7500E-01
     11.159  0.0000E+00  0.0000E+00  0.7500E-01  0.7500E-01
     11.231  0.0000E+00  0.0000E+00  0.7500E-01  0.7500E-01
     11.304  0.0000E+00  0.0000E+00  0.7500E-01  0.7500E-01
     11.376  0.0000E+00  0.0000E+00  0.7500E-01  0.7500E-01
     11.449  0.0000E+00  0.0000E+00  0.7500E-01  0.7500E-01
     11.521  0.0000E+00  0.0000E+00  0.7500E-01  0.7500E-01
     11.594  0.0000E+00  0.0000E+00  0.7500E-01  0.7500E-01
     11.667  0.0000E+00  0.0000E+00  0.7500E-01  0.7500E-01
     11.739  0.0000E+00  0.0000E+00  0.7500E-01  0.7500E-01
     11.812  0.0000E+00  0.0000E+00  0.7500E-01  0.7500E-01
