 vasp.6.3.2 27Jun22 (build Aug 17 2022 15:43:34) complex                        
  
 executed on           tv2STDVTST date 2025.02.04  13:35:02
 running   20 mpi-ranks, with    1 threads/rank
 distrk:  each k-point on   20 cores,    1 groups
 distr:  one band on NCORE=   5 cores,    4 groups


--------------------------------------------------------------------------------------------------------


 -----------------------------------------------------------------------------
|                                                                             |
|           W    W    AA    RRRRR   N    N  II  N    N   GGGG   !!!           |
|           W    W   A  A   R    R  NN   N  II  NN   N  G    G  !!!           |
|           W    W  A    A  R    R  N N  N  II  N N  N  G       !!!           |
|           W WW W  AAAAAA  RRRRR   N  N N  II  N  N N  G  GGG   !            |
|           WW  WW  A    A  R   R   N   NN  II  N   NN  G    G                |
|           W    W  A    A  R    R  N    N  II  N    N   GGGG   !!!           |
|                                                                             |
|     Found issues when parsing the INCAR file                                |
|     In line 61: Tagname --- R W I G S contains invalid characters.          |
|     Please check if the interpretation in the OUTCAR file is correct.       |
|                                                                             |
 -----------------------------------------------------------------------------

 INCAR:
    = \=\=\=\=\=\=\=\=\=\=\=\=\=\=\=\=\=\=\=\=\=\=\=\=\=\=\=\=\=\=\=\=\=\=\=\=\=\=\=\=\=\=\=\=\=\=\=\=\=\=\=\=\=\=\=\=\=\=\=\=\=\=\=\=\=\=\=\=\=\=\=\=
    = \=\=\=\=\=\=\=\=\=\=\=\=\=\=\=\=\=\=\=\=\=\=\=\=\=\=\=\=\=\=\=\=\=\=\=\=\=\=\=\=\=\=\=\=\=\=\=\=\=\=\=\=\=\=\=\=\=\=\=\=\=\=\=\=\=\=\=\=\=\=\=\=
   ISTART = 0
   ICHARG = 2
   IPIPOL = 3
   IVDW = 11
    = \=\=\=\=\=\=\=\=\=\=\=\=\=\=\=\=\=\=\=\=\=\=\=\=\=\=\=\=\=\=\=\=\=\=\=\=\=\=\=\=\=\=\=\=\=\=\=\=\=\=\=\=\=\=\=\=\=\=\=\=\=\=\=\=\=\=\=\=\=\=\=\=
    = \=\=\=\=\=\=\=\=\=\=\=\=\=\=\=\=\=\=\=\=\=\=\=\=\=\=\=\=\=\=\=\=\=\=\=\=\=\=\=\=\=\=\=\=\=\=\=\=\=\=\=\=\=\=\=\=\=\=\=\=\=\=\=\=\=\=\=\=\=\=\=\=
   ISPIN = 2
    = \=\=\=\=\=\=\=\=\=\=\=\=\=\=\=\=\=\=\=\=\=\=\=\=\=\=\=\=\=\=\=\=\=\=\=\=\=\=\=\=\=\=\=\=\=\=\=\=\=\=\=\=\=\=\=\=\=\=\=\=\=\=\=\=\=\=\=\=\=\=\=\=
    = \=\=\=\=\=\=\=\=\=\=\=\=\=\=\=\=\=\=\=\=\=\=\=\=\=\=\=\=\=\=\=\=\=\=\=\=\=\=\=\=\=\=\=\=\=\=\=\=\=\=\=\=\=\=\=\=\=\=\=\=\=\=\=\=\=\=\=\=\=\=\=\=
   ENCUT = 400
   PREC = Normal
   EDIFF = 2E-04
   GGA = PE
   ISMEAR = 1
   SIGMA = 0.2
   LREAL = .FALSE.
    = \=\=\=\=\=\=\=\=\=\=\=\=\=\=\=\=\=\=\=\=\=\=\=\=\=\=\=\=\=\=\=\=\=\=\=\=\=\=\=\=\=\=\=\=\=\=\=\=\=\=\=\=\=\=\=\=\=\=\=\=\=\=\=\=\=\=\=\=\=\=\=\=
    = \=\=\=\=\=\=\=\=\=\=\=\=\=\=\=\=\=\=\=\=\=\=\=\=\=\=\=\=\=\=\=\=\=\=\=\=\=\=\=\=\=\=\=\=\=\=\=\=\=\=\=\=\=\=\=\=\=\=\=\=\=\=\=\=\=\=\=\=\=\=\=\=
   ISYM = 1
   NSW = 800
   IBRION = 2
   POTIM = 0.5
   ISIF = 2
   EDIFFG = -.03
    = \=\=\=\=\=\=\=\=\=\=\=\=\=\=\=\=\=\=\=\=\=\=\=\=\=\=\=\=\=\=\=\=\=\=\=\=\=\=\=\=\=\=\=\=\=\=\=\=\=\=\=\=\=\=\=\=\=\=\=\=\=\=\=\=\=\=\=\=\=\=\=\=
    = \=\=\=\=\=\=\=\=\=\=\=\=\=\=\=\=\=\=\=\=\=\=\=\=\=\=\=\=\=\=\=\=\=\=\=\=\=\=\=\=\=\=\=\=\=\=\=\=\=\=\=\=\=\=\=\=\=\=\=\=\=\=\=\=\=\=\=\=\=\=\=\=
   NPAR = 4
   LWAVE = .FALSE.
   LCHARG = .FALSE.

 POTCAR:    PAW_PBE Cu 22Jun2005                  
 POTCAR:    PAW_PBE H 15Jun2001                   
 -----------------------------------------------------------------------------
|                                                                             |
|           W    W    AA    RRRRR   N    N  II  N    N   GGGG   !!!           |
|           W    W   A  A   R    R  NN   N  II  NN   N  G    G  !!!           |
|           W    W  A    A  R    R  N N  N  II  N N  N  G       !!!           |
|           W WW W  AAAAAA  RRRRR   N  N N  II  N  N N  G  GGG   !            |
|           WW  WW  A    A  R   R   N   NN  II  N   NN  G    G                |
|           W    W  A    A  R    R  N    N  II  N    N   GGGG   !!!           |
|                                                                             |
|     You use a magnetic or noncollinear calculation, but did not specify     |
|     the initial magnetic moment with the MAGMOM tag. Note that a            |
|     default of 1 will be used for all atoms. This ferromagnetic setup       |
|     may break the symmetry of the crystal, in particular it may rule        |
|     out finding an antiferromagnetic solution. Thence, we recommend         |
|     setting the initial magnetic moment manually or verifying carefully     |
|     that this magnetic setup is desired.                                    |
|                                                                             |
 -----------------------------------------------------------------------------

 POTCAR:    PAW_PBE Cu 22Jun2005                  
   SHA256 =  0e71e558f37a4e8407882b4609ceaae59938afaad9ced71dfe8490308a0ab630 Cu/POTCAR             
   COPYR  = (c) Copyright 22Jun2005 Georg Kresse                                                    
   COPYR  = This file is part of the software VASP. Any use, copying, and all other rights are regul
   COPYR  = If you do not have a valid VASP license, you may not use, copy or distribute this file. 
   VRHFIN =Cu: d10 p1                                                                               
   LEXCH  = PE                                                                                      
   EATOM  =  1390.9808 eV,  102.2342 Ry                                                             
                                                                                                    
   TITEL  = PAW_PBE Cu 22Jun2005                                                                    
   LULTRA =        F    use ultrasoft PP ?                                                          
   IUNSCR =        1    unscreen: 0-lin 1-nonlin 2-no                                               
   RPACOR =    2.000    partial core radius                                                         
   POMASS =   63.546; ZVAL   =   11.000    mass and valenz                                          
   RCORE  =    2.300    outmost cutoff radius                                                       
   RWIGS  =    2.200; RWIGS  =    1.164    wigner-seitz radius (au A)                               
   ENMAX  =  295.446; ENMIN  =  221.585 eV                                                          
   ICORE  =        3    local potential                                                             
   LCOR   =        T    correct aug charges                                                         
   LPAW   =        T    paw PP                                                                      
   EAUG   =  586.980                                                                                
   DEXC   =    0.000                                                                                
   RMAX   =    2.344    core radius for proj-oper                                                   
   RAUG   =    1.300    factor for augmentation sphere                                              
   RDEP   =    2.302    radius for radial grids                                                     
   RDEPT  =    1.771    core radius for aug-charge                                                  
                                                                                                    
   Atomic configuration                                                                             
    9 entries                                                                                       
     n  l   j            E        occ.                                                              
     1  0  0.50     -8850.2468   2.0000                                                             
     2  0  0.50     -1062.3498   2.0000                                                             
     2  1  1.50      -916.8226   6.0000                                                             
     3  0  0.50      -114.6929   2.0000                                                             
     3  1  1.50       -72.1325   6.0000                                                             
     3  2  2.50        -5.0394  10.0000                                                             
     4  0  0.50        -4.6097   1.0000                                                             
     4  1  0.50        -4.0817   0.0000                                                             
     4  3  2.50        -1.3606   0.0000                                                             
   Description                                                                                      
     l       E           TYP  RCUT    TYP  RCUT                                                     
     2     -5.0393973     23  2.200                                                                 
     2     10.8846608     23  2.200                                                                 
     0     -4.6097109     23  2.200                                                                 
     0      8.2520465     23  2.200                                                                 
     1     -2.7211652     23  2.200                                                                 
     1     21.7055443     23  2.200                                                                 
     3      2.7211652     23  2.300                                                                 
  local pseudopotential read in
  partial core-charges read in
  partial kinetic energy density read in
  atomic valenz-charges read in
  non local Contribution for L=           2  read in
    real space projection operators read in
  non local Contribution for L=           2  read in
    real space projection operators read in
  non local Contribution for L=           0  read in
    real space projection operators read in
  non local Contribution for L=           0  read in
    real space projection operators read in
  non local Contribution for L=           1  read in
    real space projection operators read in
  non local Contribution for L=           1  read in
    real space projection operators read in
    PAW grid and wavefunctions read in
 
   number of l-projection  operators is LMAX  =           6
   number of lm-projection operators is LMMAX =          18
 
 POTCAR:    PAW_PBE H 15Jun2001                   
   SHA256 =  030f79b5d3ab3cf0e668861823c8fb652ff669f3e15e46930bd03bfd63a607b6 H/POTCAR              
   COPYR  = (c) Copyright 15Jun2001 Georg Kresse                                                    
   COPYR  = This file is part of the software VASP. Any use, copying, and all other rights are regul
   COPYR  = If you do not have a valid VASP license, you may not use, copy or distribute this file. 
   VRHFIN =H: ultrasoft test                                                                        
   LEXCH  = PE                                                                                      
   EATOM  =    12.4884 eV,    0.9179 Ry                                                             
                                                                                                    
   TITEL  = PAW_PBE H 15Jun2001                                                                     
   LULTRA =        F    use ultrasoft PP ?                                                          
   IUNSCR =        0    unscreen: 0-lin 1-nonlin 2-no                                               
   RPACOR =    0.000    partial core radius                                                         
   POMASS =    1.000; ZVAL   =    1.000    mass and valenz                                          
   RCORE  =    1.100    outmost cutoff radius                                                       
   RWIGS  =    0.700; RWIGS  =    0.370    wigner-seitz radius (au A)                               
   ENMAX  =  250.000; ENMIN  =  200.000 eV                                                          
   RCLOC  =    0.701    cutoff for local pot                                                        
   LCOR   =        T    correct aug charges                                                         
   LPAW   =        T    paw PP                                                                      
   EAUG   =  400.000                                                                                
   RMAX   =    1.123    core radius for proj-oper                                                   
   RAUG   =    1.200    factor for augmentation sphere                                              
   RDEP   =    1.112    radius for radial grids                                                     
   RDEPT  =    0.926    core radius for aug-charge                                                  
                                                                                                    
   Atomic configuration                                                                             
    2 entries                                                                                       
     n  l   j            E        occ.                                                              
     1  0  0.50        -6.4927   1.0000                                                             
     2  1  0.50        -3.4015   0.0000                                                             
   Description                                                                                      
     l       E           TYP  RCUT    TYP  RCUT                                                     
     0     -6.4927494     23  1.100                                                                 
     0      6.8029130     23  1.100                                                                 
     1     -4.0817478     23  1.100                                                                 
  local pseudopotential read in
  atomic valenz-charges read in
  non local Contribution for L=           0  read in
    real space projection operators read in
  non local Contribution for L=           0  read in
    real space projection operators read in
  non local Contribution for L=           1  read in
    real space projection operators read in
    PAW grid and wavefunctions read in
 
   number of l-projection  operators is LMAX  =           3
   number of lm-projection operators is LMMAX =           5
 
  PAW_PBE Cu 22Jun2005                  :
 energy of atom  1       EATOM=-1390.9808
 kinetic energy error for atom=    0.0232 (will be added to EATOM!!)
  PAW_PBE H 15Jun2001                   :
 energy of atom  2       EATOM=  -12.4884
 kinetic energy error for atom=    0.0098 (will be added to EATOM!!)
 
 
 POSCAR: FCC Cu
  positions in cartesian coordinates
  No initial velocities read in
 exchange correlation table for  LEXCH =        8
   RHO(1)=    0.500       N(1)  =     2000
   RHO(2)=  100.500       N(2)  =     4000

 VTST: version 4.2, (08/11/21)

 CHAIN: initializing optimizer
 
 OPT: Using VASP Conjugate-Gradient optimizer
 CHAIN: Read ICHAIN            0
 
 POSCAR: FCC Cu
  positions in cartesian coordinates
  No initial velocities read in
 


--------------------------------------------------------------------------------------------------------


 ion  position               nearest neighbor table
   1  0.000  0.000  0.000-   3 2.51   2 2.57   2 2.57   2 2.57   2 2.57
   2  0.500  0.500  0.054-   4 2.50   3 2.54   3 2.54   3 2.54   3 2.54   1 2.57   1 2.57   1 2.57
                             1 2.57
   3  0.000  0.000  0.105-   1 2.51   2 2.54   2 2.54   2 2.54   2 2.54   5 2.54   4 2.56   4 2.56
                             4 2.56   4 2.56
   4  0.500  0.500  0.158-   2 2.50   6 2.52   5 2.56   5 2.56   5 2.56   5 2.56   3 2.56   3 2.56
                             3 2.56   3 2.56
   5  0.000  0.000  0.211-   3 2.54   6 2.55   6 2.55   6 2.55   6 2.55   7 2.55   4 2.56   4 2.56
                             4 2.56   4 2.56
   6  0.500  0.500  0.263-   8 2.44   4 2.52   5 2.55   5 2.55   5 2.55   5 2.55   7 2.58   7 2.58
                             7 2.58   7 2.58
   7  0.000  0.000  0.317-   8 2.50   8 2.50   8 2.50   8 2.50   5 2.55   6 2.58   6 2.58   6 2.58
                             6 2.58
   8  0.500  0.500  0.365-  10 1.59   6 2.44   7 2.50   7 2.50   7 2.50   7 2.50
   9  0.500  0.000  0.427-  10 0.75
  10  0.500  0.291  0.427-   9 0.75   8 1.59
 
  LATTYP: Found a simple orthorhombic cell.
 ALAT       =     2.5667977333
 B/A-ratio  =     1.4142135422
 C/A-ratio  =     9.3438571494
  
  Lattice vectors:
  
 A1 = (   0.0000000000,  -2.5667977333,   0.0000000000)
 A2 = (   3.6300001144,   0.0000000000,   0.0000000000)
 A3 = (   0.0000000000,   0.0000000000,  23.9837913513)


Analysis of symmetry for initial positions (statically):
=====================================================================
 Subroutine PRICEL returns:
 Original cell was already a primitive cell.
 

 Routine SETGRP: Setting up the symmetry group for a 
 simple orthorhombic supercell.


 Subroutine GETGRP returns: Found  2 space group operations
 (whereof  2 operations were pure point group operations)
 out of a pool of  8 trial point group operations.


The static configuration has the point symmetry C_1h.


Analysis of symmetry for dynamics (positions and initial velocities):
=====================================================================
 Subroutine PRICEL returns:
 Original cell was already a primitive cell.
 

 Routine SETGRP: Setting up the symmetry group for a 
 simple orthorhombic supercell.


 Subroutine GETGRP returns: Found  2 space group operations
 (whereof  2 operations were pure point group operations)
 out of a pool of  8 trial point group operations.


The dynamic configuration has the point symmetry C_1h.


Analysis of structural, dynamic, and magnetic symmetry:
=====================================================================
 Subroutine PRICEL returns:
 Original cell was already a primitive cell.
 

 Routine SETGRP: Setting up the symmetry group for a 
 simple orthorhombic supercell.


 Subroutine GETGRP returns: Found  2 space group operations
 (whereof  2 operations were pure point group operations)
 out of a pool of  8 trial point group operations.


The overall configuration has the point symmetry C_1h.


 Subroutine INISYM returns: Found  2 space group operations
 (whereof  2 operations are pure point group operations),
 and found     1 'primitive' translations


----------------------------------------------------------------------------------------

                                     Primitive cell                                     

  volume of cell :     223.4684

  direct lattice vectors                    reciprocal lattice vectors
     3.630000114  0.000000000  0.000000000     0.275482085  0.000000000  0.000000000
     0.000000000  2.566797733  0.000000000     0.000000000  0.389590495  0.000000000
     0.000000000  0.000000000 23.983791351     0.000000000  0.000000000  0.041694826

  length of vectors
     3.630000114  2.566797733 23.983791351     0.275482085  0.389590495  0.041694826

  position of ions in fractional coordinates (direct lattice)
     0.000000000  0.000000000  0.000000000
     0.500000000  0.500000000  0.053511090
     0.000000000  0.000000000  0.104681476
     0.500000000  0.500000000  0.157929955
     0.000000000  0.000000000  0.210708991
     0.500000000  0.500000000  0.262890478
     0.000000000  0.000000000  0.317115916
     0.500000000  0.500000000  0.364675901
     0.500000000  0.000000000  0.426907920
     0.500000000  0.290634509  0.426907920

  ion indices of the primitive-cell ions
   primitive index   ion index
                 1           1
                 2           2
                 3           3
                 4           4
                 5           5
                 6           6
                 7           7
                 8           8
                 9           9
                10          10

----------------------------------------------------------------------------------------

 
 
 KPOINTS: Auto-mesh                               

Automatic generation of k-mesh.
 Grid dimensions read from file:
 generate k-points for:    3    3    1

 Generating k-lattice:

  Cartesian coordinates                     Fractional coordinates (reciprocal lattice)
     0.091827362  0.000000000  0.000000000     0.333333333  0.000000000  0.000000000
     0.000000000  0.129863498  0.000000000     0.000000000  0.333333333  0.000000000
     0.000000000  0.000000000  0.041694826     0.000000000  0.000000000  1.000000000

  Length of vectors
     0.091827362  0.129863498  0.041694826

  Shift w.r.t. Gamma in fractional coordinates (k-lattice)
     0.000000000  0.000000000  0.000000000

 
 Subroutine IBZKPT returns following result:
 ===========================================
 
 Found      4 irreducible k-points:
 
 Following reciprocal coordinates:
            Coordinates               Weight
  0.000000  0.000000  0.000000      1.000000
  0.333333  0.000000  0.000000      2.000000
  0.000000  0.333333  0.000000      2.000000
  0.333333  0.333333  0.000000      4.000000
 
 Following cartesian coordinates:
            Coordinates               Weight
  0.000000  0.000000  0.000000      1.000000
  0.091827  0.000000  0.000000      2.000000
  0.000000  0.129863  0.000000      2.000000
  0.091827  0.129863  0.000000      4.000000
 


--------------------------------------------------------------------------------------------------------




 Dimension of arrays:
   k-points           NKPTS =      4   k-points in BZ     NKDIM =      4   number of bands    NBANDS=     60
   number of dos      NEDOS =    301   number of ions     NIONS =     10
   non local maximal  LDIM  =      6   non local SUM 2l+1 LMDIM =     18
   total plane-waves  NPLWV =  30240
   max r-space proj   IRMAX =      1   max aug-charges    IRDMAX=   4119
   dimension x,y,z NGX =    18 NGY =   14 NGZ =  120
   dimension x,y,z NGXF=    36 NGYF=   28 NGZF=  240
   support grid    NGXF=    36 NGYF=   28 NGZF=  240
   ions per type =               8   2
   NGX,Y,Z   is equivalent  to a cutoff of   8.24,  9.07,  8.32 a.u.
   NGXF,Y,Z  is equivalent  to a cutoff of  16.49, 18.13, 16.64 a.u.

 SYSTEM =  unknown system                          
 POSCAR =  FCC Cu                                  

 Startparameter for this run:
   NWRITE =      2    write-flag & timer
   PREC   = normal    normal or accurate (medium, high low for compatibility)
   ISTART =      0    job   : 0-new  1-cont  2-samecut
   ICHARG =      2    charge: 1-file 2-atom 10-const
   ISPIN  =      2    spin polarized calculation?
   LNONCOLLINEAR =      F non collinear calculations
   LSORBIT =      F    spin-orbit coupling
   INIWAV =      1    electr: 0-lowe 1-rand  2-diag
   LASPH  =      F    aspherical Exc in radial PAW
 Electronic Relaxation 1
   ENCUT  =  400.0 eV  29.40 Ry    5.42 a.u.   5.92  4.19 39.11*2*pi/ulx,y,z
   ENINI  =  400.0     initial cutoff
   ENAUG  =  587.0 eV  augmentation charge cutoff
   NELM   =     60;   NELMIN=  2; NELMDL= -5     # of ELM steps 
   EDIFF  = 0.2E-03   stopping-criterion for ELM
   LREAL  =      F    real-space projection
   NLSPLINE    = F    spline interpolate recip. space projectors
   LCOMPAT=      F    compatible to vasp.4.4
   GGA_COMPAT  = T    GGA compatible to vasp.4.4-vasp.4.6
   LMAXPAW     = -100 max onsite density
   LMAXMIX     =    2 max onsite mixed and CHGCAR
   VOSKOWN=      0    Vosko Wilk Nusair interpolation
   ROPT   =    0.00000   0.00000
 Ionic relaxation
   EDIFFG = -.3E-01   stopping-criterion for IOM
   NSW    =    800    number of steps for IOM
   NBLOCK =      1;   KBLOCK =    800    inner block; outer block 
   IBRION =      2    ionic relax: 0-MD 1-quasi-New 2-CG
   NFREE  =      1    steps in history (QN), initial steepest desc. (CG)
   ISIF   =      2    stress and relaxation
   IWAVPR =     11    prediction:  0-non 1-charg 2-wave 3-comb
   ISYM   =      1    0-nonsym 1-usesym 2-fastsym
   LCORR  =      T    Harris-Foulkes like correction to forces

   POTIM  = 0.5000    time-step for ionic-motion
   TEIN   =    0.0    initial temperature
   TEBEG  =    0.0;   TEEND  =   0.0 temperature during run
   SMASS  =  -3.00    Nose mass-parameter (am)
   estimated Nose-frequenzy (Omega)   =  0.10E-29 period in steps = 0.13E+47 mass=  -0.301E-27a.u.
   SCALEE = 1.0000    scale energy and forces
   NPACO  =    256;   APACO  = 10.0  distance and # of slots for P.C.
   PSTRESS=    0.0 pullay stress

  Mass of Ions in am
   POMASS =  63.55  1.00
  Ionic Valenz
   ZVAL   =  11.00  1.00
  Atomic Wigner-Seitz radii
   RWIGS  =  -1.00 -1.00
  virtual crystal weights 
   VCA    =   1.00  1.00
   NELECT =      90.0000    total number of electrons
   NUPDOWN=      -1.0000    fix difference up-down

 DOS related values:
   EMIN   =  10.00;   EMAX   =-10.00  energy-range for DOS
   EFERMI =   0.00
   ISMEAR =     1;   SIGMA  =   0.20  broadening in eV -4-tet -1-fermi 0-gaus

 Electronic relaxation 2 (details)
   IALGO  =     38    algorithm
   LDIAG  =      T    sub-space diagonalisation (order eigenvalues)
   LSUBROT=      F    optimize rotation matrix (better conditioning)
   TURBO    =      0    0=normal 1=particle mesh
   IRESTART =      0    0=no restart 2=restart with 2 vectors
   NREBOOT  =      0    no. of reboots
   NMIN     =      0    reboot dimension
   EREF     =   0.00    reference energy to select bands
   IMIX   =      4    mixing-type and parameters
     AMIX     =   0.40;   BMIX     =  1.00
     AMIX_MAG =   1.60;   BMIX_MAG =  1.00
     AMIN     =   0.10
     WC   =   100.;   INIMIX=   1;  MIXPRE=   1;  MAXMIX= -45

 Intra band minimization:
   WEIMIN = 0.0010     energy-eigenvalue tresh-hold
   EBREAK =  0.83E-06  absolut break condition
   DEPER  =   0.30     relativ break condition  

   TIME   =   0.40     timestep for ELM

  volume/ion in A,a.u.               =      22.35       150.80
  Fermi-wavevector in a.u.,A,eV,Ry     =   1.208974  2.284630 19.886522  1.461618
  Thomas-Fermi vector in A             =   2.344566
 
 Write flags
   LWAVE        =      F    write WAVECAR
   LDOWNSAMPLE  =      F    k-point downsampling of WAVECAR
   LCHARG       =      F    write CHGCAR
   LVTOT        =      F    write LOCPOT, total local potential
   LVHAR        =      F    write LOCPOT, Hartree potential only
   LELF         =      F    write electronic localiz. function (ELF)
   LORBIT       =      0    0 simple, 1 ext, 2 COOP (PROOUT), +10 PAW based schemes


 Dipole corrections
   LMONO  =      F    monopole corrections only (constant potential shift)
   LDIPOL =      F    correct potential (dipole corrections)
   IDIPOL =      0    1-x, 2-y, 3-z, 4-all directions 
   EPSILON=  1.0000000 bulk dielectric constant

 Exchange correlation treatment:
   GGA     =    PE    GGA type
   LEXCH   =     8    internal setting for exchange type
   LIBXC   =     F    Libxc                    
   VOSKOWN =     0    Vosko Wilk Nusair interpolation
   LHFCALC =     F    Hartree Fock is set to
   LHFONE  =     F    Hartree Fock one center treatment
   AEXX    =    0.0000 exact exchange contribution

 Linear response parameters
   LEPSILON=     F    determine dielectric tensor
   LRPA    =     F    only Hartree local field effects (RPA)
   LNABLA  =     F    use nabla operator in PAW spheres
   LVEL    =     F    velocity operator in full k-point grid
   CSHIFT  =0.1000    complex shift for real part using Kramers Kronig
   OMEGAMAX=  -1.0    maximum frequency
   DEG_THRESHOLD= 0.2000000E-02 threshold for treating states as degnerate
   RTIME   =   -0.100 relaxation time in fs
  (WPLASMAI=    0.000 imaginary part of plasma frequency in eV, 0.658/RTIME)
   DFIELD  = 0.0000000 0.0000000 0.0000000 field for delta impulse in time
 
  Optional k-point grid parameters
   LKPOINTS_OPT  =     F    use optional k-point grid
   KPOINTS_OPT_MODE=     1    mode for optional k-point grid
 
 Orbital magnetization related:
   ORBITALMAG=     F  switch on orbital magnetization
   LCHIMAG   =     F  perturbation theory with respect to B field
   DQ        =  0.001000  dq finite difference perturbation B field
   LLRAUG    =     F  two centre corrections for induced B field



--------------------------------------------------------------------------------------------------------


 conjugate gradient relaxation of ions
 charge density and potential will be updated during run
 spin polarized calculation
 Variant of blocked Davidson
 Davidson routine will perform the subspace rotation
 perform sub-space diagonalisation
    after iterative eigenvector-optimisation
 modified Broyden-mixing scheme, WC =      100.0
 initial mixing is a Kerker type mixing with AMIX =  0.4000 and BMIX =      1.0000
 Hartree-type preconditioning will be used
 using additional bands           15
 reciprocal scheme for non local part
 use partial core corrections
 calculate Harris-corrections to forces 
   (improved forces if not selfconsistent)
 use gradient corrections 
 use of overlap-Matrix (Vanderbilt PP)
 Methfessel and Paxton  Order N= 1 SIGMA  =   0.20


--------------------------------------------------------------------------------------------------------


  energy-cutoff  :      400.00
  volume of cell :      223.47
      direct lattice vectors                 reciprocal lattice vectors
     3.630000114  0.000000000  0.000000000     0.275482085  0.000000000  0.000000000
     0.000000000  2.566797733  0.000000000     0.000000000  0.389590495  0.000000000
     0.000000000  0.000000000 23.983791351     0.000000000  0.000000000  0.041694826

  length of vectors
     3.630000114  2.566797733 23.983791351     0.275482085  0.389590495  0.041694826


 
 k-points in units of 2pi/SCALE and weight: Auto-mesh                               
   0.00000000  0.00000000  0.00000000       0.111
   0.09182736  0.00000000  0.00000000       0.222
   0.00000000  0.12986350  0.00000000       0.222
   0.09182736  0.12986350  0.00000000       0.444
 
 k-points in reciprocal lattice and weights: Auto-mesh                               
   0.00000000  0.00000000  0.00000000       0.111
   0.33333333  0.00000000  0.00000000       0.222
   0.00000000  0.33333333  0.00000000       0.222
   0.33333333  0.33333333  0.00000000       0.444
 
 position of ions in fractional coordinates (direct lattice) 
   0.00000000  0.00000000  0.00000000
   0.50000000  0.50000000  0.05351109
   0.00000000  0.00000000  0.10468148
   0.50000000  0.50000000  0.15792996
   0.00000000  0.00000000  0.21070899
   0.50000000  0.50000000  0.26289048
   0.00000000  0.00000000  0.31711592
   0.50000000  0.50000000  0.36467590
   0.50000000  0.00000000  0.42690792
   0.50000000  0.29063451  0.42690792
 
 position of ions in cartesian coordinates  (Angst):
   0.00000000  0.00000000  0.00000000
   1.81500006  1.28339887  1.28339883
   0.00000000  0.00000000  2.51065868
   1.81500006  1.28339887  3.78775910
   0.00000000  0.00000000  5.05360047
   1.81500006  1.28339887  6.30511038
   0.00000000  0.00000000  7.60564196
   1.81500006  1.28339887  8.74631073
   1.81500006  0.00000000 10.23887049
   1.81500006  0.74600000 10.23887049
 


--------------------------------------------------------------------------------------------------------


 k-point   1 :   0.0000 0.0000 0.0000  plane waves:    4037
 k-point   2 :   0.3333 0.0000 0.0000  plane waves:    4064
 k-point   3 :   0.0000 0.3333 0.0000  plane waves:    4032
 k-point   4 :   0.3333 0.3333 0.0000  plane waves:    4072

 maximum and minimum number of plane-waves per node :       827      778

 maximum number of plane-waves:      4072
 maximum index in each direction: 
   IXMAX=    5   IYMAX=    4   IZMAX=   39
   IXMIN=   -6   IYMIN=   -4   IZMIN=  -39


 parallel 3D FFT for wavefunctions:
    minimum data exchange during FFTs selected (reduces bandwidth)
 parallel 3D FFT for charge:
    minimum data exchange during FFTs selected (reduces bandwidth)


 total amount of memory used by VASP MPI-rank0    35069. kBytes
=======================================================================

   base      :      30000. kBytes
   nonl-proj :       1086. kBytes
   fftplans  :        642. kBytes
   grid      :       1621. kBytes
   one-center:         62. kBytes
   wavefun   :       1658. kBytes
 
     INWAV:  cpu time      0.0000: real time      0.0005
 Broyden mixing: mesh for mixing (old mesh)
   NGX = 11   NGY =  9   NGZ = 79
  (NGX  = 36   NGY  = 28   NGZ  =240)
  gives a total of   7821 points

 initial charge density was supplied:
 charge density of overlapping atoms calculated
 number of electron      90.0000000 magnetization      10.0000000
 keeping initial charge density in first step


--------------------------------------------------------------------------------------------------------


 Maximum index for augmentation-charges          309 (set IRDMAX)


--------------------------------------------------------------------------------------------------------


 First call to EWALD:  gamma=   0.292
 Maximum number of real-space cells 4x 6x 1
 Maximum number of reciprocal cells 2x 1x 9

    FEWALD:  cpu time      0.0018: real time      0.0019


--------------------------------------- Iteration      1(   1)  ---------------------------------------


    POTLOK:  cpu time      0.0193: real time      0.0195
    SETDIJ:  cpu time      0.0066: real time      0.0066
     EDDAV:  cpu time      0.3167: real time      0.3192
       DOS:  cpu time      0.0017: real time      0.0017
    --------------------------------------------
      LOOP:  cpu time      0.3442: real time      0.3471

 eigenvalue-minimisations  :   960
 total energy-change (2. order) : 0.7752522E+03  (-0.3327534E+04)
 number of electron      90.0000000 magnetization      10.0000000
 augmentation part       90.0000000 magnetization      10.0000000

 Free energy of the ion-electron system (eV)
  ---------------------------------------------------
  alpha Z        PSCENC =       216.17040255
  Ewald energy   TEWEN  =     42530.71606648
  -Hartree energ DENC   =    -53347.76994256
  -exchange      EXHF   =         0.00000000
  -V(xc)+E(xc)   XCENC  =       371.83846387
  PAW double counting   =      9828.36862813   -10674.97285505
  entropy T*S    EENTRO =        -0.00623722
  eigenvalues    EBANDS =       698.28924791
  atomic energy  EATOM  =     11152.61838693
  Solvation  Ediel_sol  =         0.00000000
  ---------------------------------------------------
  free energy    TOTEN  =       775.25216103 eV

  energy without entropy =      775.25839825  energy(sigma->0) =      775.25424011


--------------------------------------------------------------------------------------------------------




--------------------------------------- Iteration      1(   2)  ---------------------------------------


     EDDAV:  cpu time      0.3048: real time      0.3081
       DOS:  cpu time      0.0009: real time      0.0009
    --------------------------------------------
      LOOP:  cpu time      0.3057: real time      0.3090

 eigenvalue-minimisations  :   960
 total energy-change (2. order) :-0.7164413E+03  (-0.6886434E+03)
 number of electron      90.0000000 magnetization      10.0000000
 augmentation part       90.0000000 magnetization      10.0000000

 Free energy of the ion-electron system (eV)
  ---------------------------------------------------
  alpha Z        PSCENC =       216.17040255
  Ewald energy   TEWEN  =     42530.71606648
  -Hartree energ DENC   =    -53347.76994256
  -exchange      EXHF   =         0.00000000
  -V(xc)+E(xc)   XCENC  =       371.83846387
  PAW double counting   =      9828.36862813   -10674.97285505
  entropy T*S    EENTRO =         0.00062579
  eigenvalues    EBANDS =       -18.15891657
  atomic energy  EATOM  =     11152.61838693
  Solvation  Ediel_sol  =         0.00000000
  ---------------------------------------------------
  free energy    TOTEN  =        58.81085957 eV

  energy without entropy =       58.81023378  energy(sigma->0) =       58.81065097


--------------------------------------------------------------------------------------------------------




--------------------------------------- Iteration      1(   3)  ---------------------------------------


     EDDAV:  cpu time      0.3131: real time      0.3156
       DOS:  cpu time      0.0009: real time      0.0009
    --------------------------------------------
      LOOP:  cpu time      0.3140: real time      0.3165

 eigenvalue-minimisations  :  1008
 total energy-change (2. order) :-0.9061756E+02  (-0.8441681E+02)
 number of electron      90.0000000 magnetization      10.0000000
 augmentation part       90.0000000 magnetization      10.0000000

 Free energy of the ion-electron system (eV)
  ---------------------------------------------------
  alpha Z        PSCENC =       216.17040255
  Ewald energy   TEWEN  =     42530.71606648
  -Hartree energ DENC   =    -53347.76994256
  -exchange      EXHF   =         0.00000000
  -V(xc)+E(xc)   XCENC  =       371.83846387
  PAW double counting   =      9828.36862813   -10674.97285505
  entropy T*S    EENTRO =         0.01456436
  eigenvalues    EBANDS =      -108.79042011
  atomic energy  EATOM  =     11152.61838693
  Solvation  Ediel_sol  =         0.00000000
  ---------------------------------------------------
  free energy    TOTEN  =       -31.80670540 eV

  energy without entropy =      -31.82126976  energy(sigma->0) =      -31.81156019


--------------------------------------------------------------------------------------------------------




--------------------------------------- Iteration      1(   4)  ---------------------------------------


     EDDAV:  cpu time      0.3493: real time      0.3524
       DOS:  cpu time      0.0009: real time      0.0009
    --------------------------------------------
      LOOP:  cpu time      0.3503: real time      0.3533

 eigenvalue-minimisations  :  1104
 total energy-change (2. order) :-0.3815206E+01  (-0.3784613E+01)
 number of electron      90.0000000 magnetization      10.0000000
 augmentation part       90.0000000 magnetization      10.0000000

 Free energy of the ion-electron system (eV)
  ---------------------------------------------------
  alpha Z        PSCENC =       216.17040255
  Ewald energy   TEWEN  =     42530.71606648
  -Hartree energ DENC   =    -53347.76994256
  -exchange      EXHF   =         0.00000000
  -V(xc)+E(xc)   XCENC  =       371.83846387
  PAW double counting   =      9828.36862813   -10674.97285505
  entropy T*S    EENTRO =         0.01417337
  eigenvalues    EBANDS =      -112.60523504
  atomic energy  EATOM  =     11152.61838693
  Solvation  Ediel_sol  =         0.00000000
  ---------------------------------------------------
  free energy    TOTEN  =       -35.62191132 eV

  energy without entropy =      -35.63608469  energy(sigma->0) =      -35.62663578


--------------------------------------------------------------------------------------------------------




--------------------------------------- Iteration      1(   5)  ---------------------------------------


     EDDAV:  cpu time      0.3545: real time      0.3574
       DOS:  cpu time      0.0009: real time      0.0009
    CHARGE:  cpu time      0.0570: real time      0.0572
    MIXING:  cpu time      0.0006: real time      0.0006
    --------------------------------------------
      LOOP:  cpu time      0.4130: real time      0.4162

 eigenvalue-minimisations  :  1180
 total energy-change (2. order) :-0.9288746E-01  (-0.9283327E-01)
 number of electron      90.0000813 magnetization       9.1060979
 augmentation part       52.1623163 magnetization       8.7786144

 Broyden mixing:
  rms(total) = 0.27517E+01    rms(broyden)= 0.27515E+01
  rms(prec ) = 0.28356E+01
  weight for this iteration     100.00

 Free energy of the ion-electron system (eV)
  ---------------------------------------------------
  alpha Z        PSCENC =       216.17040255
  Ewald energy   TEWEN  =     42530.71606648
  -Hartree energ DENC   =    -53347.76994256
  -exchange      EXHF   =         0.00000000
  -V(xc)+E(xc)   XCENC  =       371.83846387
  PAW double counting   =      9828.36862813   -10674.97285505
  entropy T*S    EENTRO =         0.01415548
  eigenvalues    EBANDS =      -112.69810461
  atomic energy  EATOM  =     11152.61838693
  Solvation  Ediel_sol  =         0.00000000
  ---------------------------------------------------
  free energy    TOTEN  =       -35.71479878 eV

  energy without entropy =      -35.72895427  energy(sigma->0) =      -35.71951728


--------------------------------------------------------------------------------------------------------




--------------------------------------- Iteration      1(   6)  ---------------------------------------


    POTLOK:  cpu time      0.0176: real time      0.0178
    SETDIJ:  cpu time      0.0059: real time      0.0059
     EDDAV:  cpu time      0.3324: real time      0.3352
       DOS:  cpu time      0.0010: real time      0.0010
    CHARGE:  cpu time      0.0539: real time      0.0541
    MIXING:  cpu time      0.0007: real time      0.0007
    --------------------------------------------
      LOOP:  cpu time      0.4114: real time      0.4148

 eigenvalue-minimisations  :  1092
 total energy-change (2. order) : 0.7777533E+01  (-0.9144197E+01)
 number of electron      90.0000902 magnetization       8.5451511
 augmentation part       58.5110045 magnetization       6.3872854

 Broyden mixing:
  rms(total) = 0.13749E+01    rms(broyden)= 0.13746E+01
  rms(prec ) = 0.14600E+01
  weight for this iteration     100.00

 eigenvalues of (default mixing * dielectric matrix)
  average eigenvalue GAMMA=   0.8018
  0.8018

 Free energy of the ion-electron system (eV)
  ---------------------------------------------------
  alpha Z        PSCENC =       216.17040255
  Ewald energy   TEWEN  =     42530.71606648
  -Hartree energ DENC   =    -53145.78249098
  -exchange      EXHF   =         0.00000000
  -V(xc)+E(xc)   XCENC  =       366.07095418
  PAW double counting   =      9988.29832214   -10792.63005982
  entropy T*S    EENTRO =        -0.00105460
  eigenvalues    EBANDS =      -343.39779253
  atomic energy  EATOM  =     11152.61838693
  Solvation  Ediel_sol  =         0.00000000
  ---------------------------------------------------
  free energy    TOTEN  =       -27.93726567 eV

  energy without entropy =      -27.93621106  energy(sigma->0) =      -27.93691413


--------------------------------------------------------------------------------------------------------




--------------------------------------- Iteration      1(   7)  ---------------------------------------


    POTLOK:  cpu time      0.0164: real time      0.0167
    SETDIJ:  cpu time      0.0056: real time      0.0056
     EDDAV:  cpu time      0.3489: real time      0.3517
       DOS:  cpu time      0.0009: real time      0.0009
    CHARGE:  cpu time      0.0521: real time      0.0524
    MIXING:  cpu time      0.0007: real time      0.0007
    --------------------------------------------
      LOOP:  cpu time      0.4247: real time      0.4280

 eigenvalue-minimisations  :  1160
 total energy-change (2. order) : 0.1882602E+01  (-0.2806763E+01)
 number of electron      90.0000879 magnetization       8.0969091
 augmentation part       56.4977329 magnetization       5.9433407

 Broyden mixing:
  rms(total) = 0.82374E+00    rms(broyden)= 0.82359E+00
  rms(prec ) = 0.90877E+00
  weight for this iteration     100.00

 eigenvalues of (default mixing * dielectric matrix)
  average eigenvalue GAMMA=   0.7635
  0.9347  0.5924

 Free energy of the ion-electron system (eV)
  ---------------------------------------------------
  alpha Z        PSCENC =       216.17040255
  Ewald energy   TEWEN  =     42530.71606648
  -Hartree energ DENC   =    -53269.26192625
  -exchange      EXHF   =         0.00000000
  -V(xc)+E(xc)   XCENC  =       369.27277048
  PAW double counting   =     10214.51584091   -11057.84750496
  entropy T*S    EENTRO =         0.00206943
  eigenvalues    EBANDS =      -182.24076970
  atomic energy  EATOM  =     11152.61838693
  Solvation  Ediel_sol  =         0.00000000
  ---------------------------------------------------
  free energy    TOTEN  =       -26.05466414 eV

  energy without entropy =      -26.05673357  energy(sigma->0) =      -26.05535395


--------------------------------------------------------------------------------------------------------




--------------------------------------- Iteration      1(   8)  ---------------------------------------


    POTLOK:  cpu time      0.0162: real time      0.0165
    SETDIJ:  cpu time      0.0058: real time      0.0058
     EDDAV:  cpu time      0.3893: real time      0.3924
       DOS:  cpu time      0.0008: real time      0.0011
    CHARGE:  cpu time      0.0502: real time      0.0504
    MIXING:  cpu time      0.0007: real time      0.0007
    --------------------------------------------
      LOOP:  cpu time      0.4630: real time      0.4670

 eigenvalue-minimisations  :  1336
 total energy-change (2. order) : 0.3674717E+00  (-0.1069755E+01)
 number of electron      90.0000870 magnetization       7.3763192
 augmentation part       56.1352348 magnetization       5.1608466

 Broyden mixing:
  rms(total) = 0.72541E+00    rms(broyden)= 0.72529E+00
  rms(prec ) = 0.81707E+00
  weight for this iteration     100.00

 eigenvalues of (default mixing * dielectric matrix)
  average eigenvalue GAMMA=   0.7127
  1.1084  0.6662  0.3634

 Free energy of the ion-electron system (eV)
  ---------------------------------------------------
  alpha Z        PSCENC =       216.17040255
  Ewald energy   TEWEN  =     42530.71606648
  -Hartree energ DENC   =    -53274.62520274
  -exchange      EXHF   =         0.00000000
  -V(xc)+E(xc)   XCENC  =       369.58689626
  PAW double counting   =     10311.72861486   -11163.57311169
  entropy T*S    EENTRO =         0.00295955
  eigenvalues    EBANDS =      -168.31220469
  atomic energy  EATOM  =     11152.61838693
  Solvation  Ediel_sol  =         0.00000000
  ---------------------------------------------------
  free energy    TOTEN  =       -25.68719249 eV

  energy without entropy =      -25.69015204  energy(sigma->0) =      -25.68817901


--------------------------------------------------------------------------------------------------------




--------------------------------------- Iteration      1(   9)  ---------------------------------------


    POTLOK:  cpu time      0.0162: real time      0.0165
    SETDIJ:  cpu time      0.0056: real time      0.0056
     EDDAV:  cpu time      0.4512: real time      0.4546
       DOS:  cpu time      0.0009: real time      0.0009
    CHARGE:  cpu time      0.0521: real time      0.0523
    MIXING:  cpu time      0.0035: real time      0.0035
    --------------------------------------------
      LOOP:  cpu time      0.5295: real time      0.5334

 eigenvalue-minimisations  :  1592
 total energy-change (2. order) :-0.3516657E-01  (-0.5017027E+00)
 number of electron      90.0000869 magnetization       6.4565056
 augmentation part       56.0420359 magnetization       4.3769266

 Broyden mixing:
  rms(total) = 0.61781E+00    rms(broyden)= 0.61774E+00
  rms(prec ) = 0.64539E+00
  weight for this iteration     100.00

 eigenvalues of (default mixing * dielectric matrix)
  average eigenvalue GAMMA=   0.7602
  1.3043  0.7194  0.7194  0.2975

 Free energy of the ion-electron system (eV)
  ---------------------------------------------------
  alpha Z        PSCENC =       216.17040255
  Ewald energy   TEWEN  =     42530.71606648
  -Hartree energ DENC   =    -53288.96868957
  -exchange      EXHF   =         0.00000000
  -V(xc)+E(xc)   XCENC  =       369.15754755
  PAW double counting   =     10443.03209518   -11302.87078792
  entropy T*S    EENTRO =         0.00039889
  eigenvalues    EBANDS =      -145.57777915
  atomic energy  EATOM  =     11152.61838693
  Solvation  Ediel_sol  =         0.00000000
  ---------------------------------------------------
  free energy    TOTEN  =       -25.72235906 eV

  energy without entropy =      -25.72275795  energy(sigma->0) =      -25.72249202


--------------------------------------------------------------------------------------------------------




--------------------------------------- Iteration      1(  10)  ---------------------------------------


    POTLOK:  cpu time      0.0184: real time      0.0186
    SETDIJ:  cpu time      0.0060: real time      0.0060
     EDDAV:  cpu time      0.3872: real time      0.3908
       DOS:  cpu time      0.0007: real time      0.0007
    CHARGE:  cpu time      0.0523: real time      0.0525
    MIXING:  cpu time      0.0010: real time      0.0010
    --------------------------------------------
      LOOP:  cpu time      0.4656: real time      0.4696

 eigenvalue-minimisations  :  1304
 total energy-change (2. order) :-0.5752875E+00  (-0.1675948E+00)
 number of electron      90.0000871 magnetization       4.8786051
 augmentation part       56.1230346 magnetization       2.8583351

 Broyden mixing:
  rms(total) = 0.50670E+00    rms(broyden)= 0.50668E+00
  rms(prec ) = 0.50951E+00
  weight for this iteration     100.00

 eigenvalues of (default mixing * dielectric matrix)
  average eigenvalue GAMMA=   0.9643
  2.0485  1.2352  0.7079  0.5412  0.2886

 Free energy of the ion-electron system (eV)
  ---------------------------------------------------
  alpha Z        PSCENC =       216.17040255
  Ewald energy   TEWEN  =     42530.71606648
  -Hartree energ DENC   =    -53302.56637914
  -exchange      EXHF   =         0.00000000
  -V(xc)+E(xc)   XCENC  =       368.19092405
  PAW double counting   =     10558.55728170   -11422.61334127
  entropy T*S    EENTRO =         0.00000598
  eigenvalues    EBANDS =      -127.37099380
  atomic energy  EATOM  =     11152.61838693
  Solvation  Ediel_sol  =         0.00000000
  ---------------------------------------------------
  free energy    TOTEN  =       -26.29764654 eV

  energy without entropy =      -26.29765252  energy(sigma->0) =      -26.29764853


--------------------------------------------------------------------------------------------------------




--------------------------------------- Iteration      1(  11)  ---------------------------------------


    POTLOK:  cpu time      0.0168: real time      0.0171
    SETDIJ:  cpu time      0.0057: real time      0.0057
     EDDAV:  cpu time      0.3941: real time      0.3970
       DOS:  cpu time      0.0009: real time      0.0009
    CHARGE:  cpu time      0.0554: real time      0.0557
    MIXING:  cpu time      0.0009: real time      0.0009
    --------------------------------------------
      LOOP:  cpu time      0.4738: real time      0.4774

 eigenvalue-minimisations  :  1360
 total energy-change (2. order) :-0.1830697E+01  (-0.1338619E+00)
 number of electron      90.0000873 magnetization       3.6489039
 augmentation part       56.3676971 magnetization       1.9710271

 Broyden mixing:
  rms(total) = 0.40372E+00    rms(broyden)= 0.40369E+00
  rms(prec ) = 0.41194E+00
  weight for this iteration     100.00

 eigenvalues of (default mixing * dielectric matrix)
  average eigenvalue GAMMA=   1.0964
  3.1587  1.2090  0.7149  0.7149  0.4887  0.2920

 Free energy of the ion-electron system (eV)
  ---------------------------------------------------
  alpha Z        PSCENC =       216.17040255
  Ewald energy   TEWEN  =     42530.71606648
  -Hartree energ DENC   =    -53315.77347805
  -exchange      EXHF   =         0.00000000
  -V(xc)+E(xc)   XCENC  =       366.50593532
  PAW double counting   =     10660.40155622   -11525.77062096
  entropy T*S    EENTRO =        -0.01097192
  eigenvalues    EBANDS =      -112.98562019
  atomic energy  EATOM  =     11152.61838693
  Solvation  Ediel_sol  =         0.00000000
  ---------------------------------------------------
  free energy    TOTEN  =       -28.12834363 eV

  energy without entropy =      -28.11737171  energy(sigma->0) =      -28.12468632


--------------------------------------------------------------------------------------------------------




--------------------------------------- Iteration      1(  12)  ---------------------------------------


    POTLOK:  cpu time      0.0161: real time      0.0164
    SETDIJ:  cpu time      0.0058: real time      0.0058
     EDDAV:  cpu time      0.3581: real time      0.3608
       DOS:  cpu time      0.0009: real time      0.0009
    CHARGE:  cpu time      0.0508: real time      0.0510
    MIXING:  cpu time      0.0010: real time      0.0010
    --------------------------------------------
      LOOP:  cpu time      0.4326: real time      0.4359

 eigenvalue-minimisations  :  1204
 total energy-change (2. order) :-0.1314968E+01  (-0.8153370E-01)
 number of electron      90.0000871 magnetization       2.0458329
 augmentation part       56.2922779 magnetization       0.6138142

 Broyden mixing:
  rms(total) = 0.30217E+00    rms(broyden)= 0.30216E+00
  rms(prec ) = 0.30868E+00
  weight for this iteration     100.00

 eigenvalues of (default mixing * dielectric matrix)
  average eigenvalue GAMMA=   1.4721
  5.4496  1.7130  0.8542  0.8542  0.2934  0.6553  0.4850

 Free energy of the ion-electron system (eV)
  ---------------------------------------------------
  alpha Z        PSCENC =       216.17040255
  Ewald energy   TEWEN  =     42530.71606648
  -Hartree energ DENC   =    -53331.00942556
  -exchange      EXHF   =         0.00000000
  -V(xc)+E(xc)   XCENC  =       365.82490251
  PAW double counting   =     10691.22547057   -11558.76720824
  entropy T*S    EENTRO =        -0.01397654
  eigenvalues    EBANDS =       -96.20793018
  atomic energy  EATOM  =     11152.61838693
  Solvation  Ediel_sol  =         0.00000000
  ---------------------------------------------------
  free energy    TOTEN  =       -29.44331149 eV

  energy without entropy =      -29.42933495  energy(sigma->0) =      -29.43865264


--------------------------------------------------------------------------------------------------------




--------------------------------------- Iteration      1(  13)  ---------------------------------------


    POTLOK:  cpu time      0.0162: real time      0.0164
    SETDIJ:  cpu time      0.0057: real time      0.0058
     EDDAV:  cpu time      0.3964: real time      0.3998
       DOS:  cpu time      0.0009: real time      0.0009
    CHARGE:  cpu time      0.0500: real time      0.0502
    MIXING:  cpu time      0.0010: real time      0.0010
    --------------------------------------------
      LOOP:  cpu time      0.4702: real time      0.4741

 eigenvalue-minimisations  :  1360
 total energy-change (2. order) :-0.2423273E+01  (-0.1945164E+00)
 number of electron      90.0000868 magnetization       1.0351572
 augmentation part       56.1280305 magnetization       0.0169848

 Broyden mixing:
  rms(total) = 0.19274E+00    rms(broyden)= 0.19269E+00
  rms(prec ) = 0.22259E+00
  weight for this iteration     100.00

 eigenvalues of (default mixing * dielectric matrix)
  average eigenvalue GAMMA=   1.7404
  8.1436  2.0245  0.9881  0.7322  0.7322  0.2929  0.5525  0.4574

 Free energy of the ion-electron system (eV)
  ---------------------------------------------------
  alpha Z        PSCENC =       216.17040255
  Ewald energy   TEWEN  =     42530.71606648
  -Hartree energ DENC   =    -53330.63861270
  -exchange      EXHF   =         0.00000000
  -V(xc)+E(xc)   XCENC  =       364.59333767
  PAW double counting   =     10632.18212228   -11498.37822706
  entropy T*S    EENTRO =        -0.01038450
  eigenvalues    EBANDS =       -99.11967635
  atomic energy  EATOM  =     11152.61838693
  Solvation  Ediel_sol  =         0.00000000
  ---------------------------------------------------
  free energy    TOTEN  =       -31.86658470 eV

  energy without entropy =      -31.85620020  energy(sigma->0) =      -31.86312320


--------------------------------------------------------------------------------------------------------




--------------------------------------- Iteration      1(  14)  ---------------------------------------


    POTLOK:  cpu time      0.0162: real time      0.0165
    SETDIJ:  cpu time      0.0056: real time      0.0056
     EDDAV:  cpu time      0.3441: real time      0.3470
       DOS:  cpu time      0.0009: real time      0.0009
    CHARGE:  cpu time      0.0499: real time      0.0502
    MIXING:  cpu time      0.0011: real time      0.0011
    --------------------------------------------
      LOOP:  cpu time      0.4178: real time      0.4212

 eigenvalue-minimisations  :  1144
 total energy-change (2. order) :-0.1473981E+01  (-0.1723458E+00)
 number of electron      90.0000866 magnetization       0.6151434
 augmentation part       56.0892812 magnetization       0.0867864

 Broyden mixing:
  rms(total) = 0.11466E+00    rms(broyden)= 0.11458E+00
  rms(prec ) = 0.12407E+00
  weight for this iteration     100.00

 eigenvalues of (default mixing * dielectric matrix)
  average eigenvalue GAMMA=   1.7553
  9.2390  2.0838  1.1031  0.7314  0.7314  0.6998  0.2927  0.4805  0.4365

 Free energy of the ion-electron system (eV)
  ---------------------------------------------------
  alpha Z        PSCENC =       216.17040255
  Ewald energy   TEWEN  =     42530.71606648
  -Hartree energ DENC   =    -53327.55852039
  -exchange      EXHF   =         0.00000000
  -V(xc)+E(xc)   XCENC  =       363.67996205
  PAW double counting   =     10580.44571115   -11444.26823446
  entropy T*S    EENTRO =        -0.01520357
  eigenvalues    EBANDS =      -105.12913637
  atomic energy  EATOM  =     11152.61838693
  Solvation  Ediel_sol  =         0.00000000
  ---------------------------------------------------
  free energy    TOTEN  =       -33.34056563 eV

  energy without entropy =      -33.32536206  energy(sigma->0) =      -33.33549777


--------------------------------------------------------------------------------------------------------




--------------------------------------- Iteration      1(  15)  ---------------------------------------


    POTLOK:  cpu time      0.0160: real time      0.0163
    SETDIJ:  cpu time      0.0056: real time      0.0056
     EDDAV:  cpu time      0.3453: real time      0.3483
       DOS:  cpu time      0.0009: real time      0.0009
    CHARGE:  cpu time      0.0525: real time      0.0528
    MIXING:  cpu time      0.0012: real time      0.0013
    --------------------------------------------
      LOOP:  cpu time      0.4217: real time      0.4251

 eigenvalue-minimisations  :  1156
 total energy-change (2. order) :-0.5881980E+00  (-0.6997417E-01)
 number of electron      90.0000866 magnetization       0.3784478
 augmentation part       56.1195406 magnetization       0.0848131

 Broyden mixing:
  rms(total) = 0.79914E-01    rms(broyden)= 0.79875E-01
  rms(prec ) = 0.85807E-01
  weight for this iteration     100.00

 eigenvalues of (default mixing * dielectric matrix)
  average eigenvalue GAMMA=   1.7757
 10.1080  2.2619  1.0153  0.8592  0.8592  0.8128  0.2929  0.6095  0.4858  0.4521

 Free energy of the ion-electron system (eV)
  ---------------------------------------------------
  alpha Z        PSCENC =       216.17040255
  Ewald energy   TEWEN  =     42530.71606648
  -Hartree energ DENC   =    -53323.12705824
  -exchange      EXHF   =         0.00000000
  -V(xc)+E(xc)   XCENC  =       363.27495986
  PAW double counting   =     10566.49740744   -11429.47605767
  entropy T*S    EENTRO =        -0.00649943
  eigenvalues    EBANDS =      -110.59637153
  atomic energy  EATOM  =     11152.61838693
  Solvation  Ediel_sol  =         0.00000000
  ---------------------------------------------------
  free energy    TOTEN  =       -33.92876362 eV

  energy without entropy =      -33.92226419  energy(sigma->0) =      -33.92659714


--------------------------------------------------------------------------------------------------------




--------------------------------------- Iteration      1(  16)  ---------------------------------------


    POTLOK:  cpu time      0.0162: real time      0.0165
    SETDIJ:  cpu time      0.0056: real time      0.0056
     EDDAV:  cpu time      0.3280: real time      0.3306
       DOS:  cpu time      0.0009: real time      0.0009
    CHARGE:  cpu time      0.0546: real time      0.0551
    MIXING:  cpu time      0.0015: real time      0.0015
    --------------------------------------------
      LOOP:  cpu time      0.4068: real time      0.4102

 eigenvalue-minimisations  :  1052
 total energy-change (2. order) :-0.2999865E+00  (-0.2303291E-01)
 number of electron      90.0000867 magnetization       0.2545047
 augmentation part       56.1770062 magnetization       0.1057290

 Broyden mixing:
  rms(total) = 0.52545E-01    rms(broyden)= 0.52507E-01
  rms(prec ) = 0.57029E-01
  weight for this iteration     100.00

 eigenvalues of (default mixing * dielectric matrix)
  average eigenvalue GAMMA=   1.7759
 10.7489  2.3339  1.0445  1.0445  0.9315  0.9315  0.2929  0.6955  0.5978  0.4805
  0.4335

 Free energy of the ion-electron system (eV)
  ---------------------------------------------------
  alpha Z        PSCENC =       216.17040255
  Ewald energy   TEWEN  =     42530.71606648
  -Hartree energ DENC   =    -53315.49474202
  -exchange      EXHF   =         0.00000000
  -V(xc)+E(xc)   XCENC  =       362.99959073
  PAW double counting   =     10549.18818837   -11411.08904772
  entropy T*S    EENTRO =         0.00532545
  eigenvalues    EBANDS =      -119.34292086
  atomic energy  EATOM  =     11152.61838693
  Solvation  Ediel_sol  =         0.00000000
  ---------------------------------------------------
  free energy    TOTEN  =       -34.22875010 eV

  energy without entropy =      -34.23407555  energy(sigma->0) =      -34.23052525


--------------------------------------------------------------------------------------------------------




--------------------------------------- Iteration      1(  17)  ---------------------------------------


    POTLOK:  cpu time      0.0170: real time      0.0172
    SETDIJ:  cpu time      0.0059: real time      0.0059
     EDDAV:  cpu time      0.3436: real time      0.3466
       DOS:  cpu time      0.0009: real time      0.0009
    CHARGE:  cpu time      0.0519: real time      0.0521
    MIXING:  cpu time      0.0014: real time      0.0014
    --------------------------------------------
      LOOP:  cpu time      0.4207: real time      0.4241

 eigenvalue-minimisations  :  1140
 total energy-change (2. order) :-0.1803416E+00  (-0.1017374E-01)
 number of electron      90.0000866 magnetization       0.1920484
 augmentation part       56.1911531 magnetization       0.1132382

 Broyden mixing:
  rms(total) = 0.41702E-01    rms(broyden)= 0.41686E-01
  rms(prec ) = 0.44935E-01
  weight for this iteration     100.00

 eigenvalues of (default mixing * dielectric matrix)
  average eigenvalue GAMMA=   1.7703
 11.1223  2.0761  2.0761  0.9867  0.9867  0.7856  0.7856  0.7904  0.2928  0.4898
  0.4502  0.4016

 Free energy of the ion-electron system (eV)
  ---------------------------------------------------
  alpha Z        PSCENC =       216.17040255
  Ewald energy   TEWEN  =     42530.71606648
  -Hartree energ DENC   =    -53308.93167427
  -exchange      EXHF   =         0.00000000
  -V(xc)+E(xc)   XCENC  =       362.84870560
  PAW double counting   =     10539.36443622   -11401.01464947
  entropy T*S    EENTRO =         0.00985118
  eigenvalues    EBANDS =      -126.19061693
  atomic energy  EATOM  =     11152.61838693
  Solvation  Ediel_sol  =         0.00000000
  ---------------------------------------------------
  free energy    TOTEN  =       -34.40909171 eV

  energy without entropy =      -34.41894289  energy(sigma->0) =      -34.41237543


--------------------------------------------------------------------------------------------------------




--------------------------------------- Iteration      1(  18)  ---------------------------------------


    POTLOK:  cpu time      0.0160: real time      0.0162
    SETDIJ:  cpu time      0.0057: real time      0.0057
     EDDAV:  cpu time      0.3385: real time      0.3410
       DOS:  cpu time      0.0009: real time      0.0009
    CHARGE:  cpu time      0.0500: real time      0.0503
    MIXING:  cpu time      0.0014: real time      0.0014
    --------------------------------------------
      LOOP:  cpu time      0.4124: real time      0.4155

 eigenvalue-minimisations  :  1124
 total energy-change (2. order) :-0.7524956E-01  (-0.4599643E-02)
 number of electron      90.0000866 magnetization       0.1581079
 augmentation part       56.1707044 magnetization       0.1040996

 Broyden mixing:
  rms(total) = 0.24587E-01    rms(broyden)= 0.24578E-01
  rms(prec ) = 0.27258E-01
  weight for this iteration     100.00

 eigenvalues of (default mixing * dielectric matrix)
  average eigenvalue GAMMA=   1.7884
 11.3361  2.7448  2.1168  1.4228  0.8598  0.8598  0.8075  0.8075  0.6555  0.2929
  0.4992  0.4472  0.3987

 Free energy of the ion-electron system (eV)
  ---------------------------------------------------
  alpha Z        PSCENC =       216.17040255
  Ewald energy   TEWEN  =     42530.71606648
  -Hartree energ DENC   =    -53304.47223693
  -exchange      EXHF   =         0.00000000
  -V(xc)+E(xc)   XCENC  =       362.81412943
  PAW double counting   =     10542.84494734   -11405.12959231
  entropy T*S    EENTRO =         0.01071022
  eigenvalues    EBANDS =      -130.05715498
  atomic energy  EATOM  =     11152.61838693
  Solvation  Ediel_sol  =         0.00000000
  ---------------------------------------------------
  free energy    TOTEN  =       -34.48434127 eV

  energy without entropy =      -34.49505149  energy(sigma->0) =      -34.48791134


--------------------------------------------------------------------------------------------------------




--------------------------------------- Iteration      1(  19)  ---------------------------------------


    POTLOK:  cpu time      0.0160: real time      0.0162
    SETDIJ:  cpu time      0.0056: real time      0.0056
     EDDAV:  cpu time      0.3272: real time      0.3298
       DOS:  cpu time      0.0009: real time      0.0009
    CHARGE:  cpu time      0.0500: real time      0.0502
    MIXING:  cpu time      0.0014: real time      0.0014
    --------------------------------------------
      LOOP:  cpu time      0.4011: real time      0.4041

 eigenvalue-minimisations  :  1076
 total energy-change (2. order) :-0.5874660E-01  (-0.2307998E-02)
 number of electron      90.0000866 magnetization       0.1391992
 augmentation part       56.1772378 magnetization       0.1127575

 Broyden mixing:
  rms(total) = 0.17235E-01    rms(broyden)= 0.17229E-01
  rms(prec ) = 0.18500E-01
  weight for this iteration     100.00

 eigenvalues of (default mixing * dielectric matrix)
  average eigenvalue GAMMA=   1.7604
 11.4284  3.0835  2.2946  1.3509  0.9943  0.8866  0.8866  0.7438  0.7438  0.2929
  0.5987  0.4985  0.4479  0.3949

 Free energy of the ion-electron system (eV)
  ---------------------------------------------------
  alpha Z        PSCENC =       216.17040255
  Ewald energy   TEWEN  =     42530.71606648
  -Hartree energ DENC   =    -53297.98537165
  -exchange      EXHF   =         0.00000000
  -V(xc)+E(xc)   XCENC  =       362.74866229
  PAW double counting   =     10536.75814232   -11398.81969726
  entropy T*S    EENTRO =         0.01232709
  eigenvalues    EBANDS =      -136.76200661
  atomic energy  EATOM  =     11152.61838693
  Solvation  Ediel_sol  =         0.00000000
  ---------------------------------------------------
  free energy    TOTEN  =       -34.54308787 eV

  energy without entropy =      -34.55541496  energy(sigma->0) =      -34.54719690


--------------------------------------------------------------------------------------------------------




--------------------------------------- Iteration      1(  20)  ---------------------------------------


    POTLOK:  cpu time      0.0161: real time      0.0163
    SETDIJ:  cpu time      0.0056: real time      0.0056
     EDDAV:  cpu time      0.3444: real time      0.3473
       DOS:  cpu time      0.0009: real time      0.0009
    CHARGE:  cpu time      0.0501: real time      0.0503
    MIXING:  cpu time      0.0015: real time      0.0015
    --------------------------------------------
      LOOP:  cpu time      0.4186: real time      0.4220

 eigenvalue-minimisations  :  1148
 total energy-change (2. order) :-0.4313854E-01  (-0.7371614E-03)
 number of electron      90.0000866 magnetization       0.1147207
 augmentation part       56.1718893 magnetization       0.0921589

 Broyden mixing:
  rms(total) = 0.15235E-01    rms(broyden)= 0.15233E-01
  rms(prec ) = 0.16430E-01
  weight for this iteration     100.00

 eigenvalues of (default mixing * dielectric matrix)
  average eigenvalue GAMMA=   1.7281
 11.4556  3.2603  2.4923  1.4401  1.1916  0.9042  0.9042  0.7656  0.7656  0.6480
  0.2929  0.5115  0.4478  0.4478  0.3938

 Free energy of the ion-electron system (eV)
  ---------------------------------------------------
  alpha Z        PSCENC =       216.17040255
  Ewald energy   TEWEN  =     42530.71606648
  -Hartree energ DENC   =    -53296.38645935
  -exchange      EXHF   =         0.00000000
  -V(xc)+E(xc)   XCENC  =       362.70593622
  PAW double counting   =     10539.00115961   -11401.18801609
  entropy T*S    EENTRO =         0.01230298
  eigenvalues    EBANDS =      -138.23600574
  atomic energy  EATOM  =     11152.61838693
  Solvation  Ediel_sol  =         0.00000000
  ---------------------------------------------------
  free energy    TOTEN  =       -34.58622641 eV

  energy without entropy =      -34.59852939  energy(sigma->0) =      -34.59032740


--------------------------------------------------------------------------------------------------------




--------------------------------------- Iteration      1(  21)  ---------------------------------------


    POTLOK:  cpu time      0.0161: real time      0.0163
    SETDIJ:  cpu time      0.0057: real time      0.0058
     EDDAV:  cpu time      0.3419: real time      0.3447
       DOS:  cpu time      0.0009: real time      0.0009
    CHARGE:  cpu time      0.0500: real time      0.0503
    MIXING:  cpu time      0.0017: real time      0.0017
    --------------------------------------------
      LOOP:  cpu time      0.4163: real time      0.4196

 eigenvalue-minimisations  :  1140
 total energy-change (2. order) :-0.3698581E-01  (-0.3713151E-03)
 number of electron      90.0000866 magnetization       0.0673702
 augmentation part       56.1732177 magnetization       0.0484104

 Broyden mixing:
  rms(total) = 0.11488E-01    rms(broyden)= 0.11487E-01
  rms(prec ) = 0.12376E-01
  weight for this iteration     100.00

 eigenvalues of (default mixing * dielectric matrix)
  average eigenvalue GAMMA=   1.7465
 11.4791  3.9415  2.3081  2.0925  0.9560  0.9560  0.9958  0.9958  0.7741  0.7741
  0.2929  0.6157  0.5003  0.3925  0.4351  0.4351

 Free energy of the ion-electron system (eV)
  ---------------------------------------------------
  alpha Z        PSCENC =       216.17040255
  Ewald energy   TEWEN  =     42530.71606648
  -Hartree energ DENC   =    -53294.18687978
  -exchange      EXHF   =         0.00000000
  -V(xc)+E(xc)   XCENC  =       362.65934881
  PAW double counting   =     10541.72210603   -11404.00727365
  entropy T*S    EENTRO =         0.01279165
  eigenvalues    EBANDS =      -140.32816124
  atomic energy  EATOM  =     11152.61838693
  Solvation  Ediel_sol  =         0.00000000
  ---------------------------------------------------
  free energy    TOTEN  =       -34.62321222 eV

  energy without entropy =      -34.63600387  energy(sigma->0) =      -34.62747610


--------------------------------------------------------------------------------------------------------




--------------------------------------- Iteration      1(  22)  ---------------------------------------


    POTLOK:  cpu time      0.0160: real time      0.0162
    SETDIJ:  cpu time      0.0056: real time      0.0056
     EDDAV:  cpu time      0.3410: real time      0.3439
       DOS:  cpu time      0.0009: real time      0.0009
    CHARGE:  cpu time      0.0535: real time      0.0538
    MIXING:  cpu time      0.0018: real time      0.0018
    --------------------------------------------
      LOOP:  cpu time      0.4188: real time      0.4222

 eigenvalue-minimisations  :  1140
 total energy-change (2. order) :-0.4304777E-01  (-0.5425955E-03)
 number of electron      90.0000866 magnetization       0.0492680
 augmentation part       56.1832887 magnetization       0.0437342

 Broyden mixing:
  rms(total) = 0.92964E-02    rms(broyden)= 0.92944E-02
  rms(prec ) = 0.98294E-02
  weight for this iteration     100.00

 eigenvalues of (default mixing * dielectric matrix)
  average eigenvalue GAMMA=   1.7556
 11.4952  4.1563  3.0547  1.9896  1.3536  1.0754  0.9059  0.9059  0.8115  0.8115
  0.2929  0.6207  0.6079  0.4950  0.3933  0.4422  0.4334

 Free energy of the ion-electron system (eV)
  ---------------------------------------------------
  alpha Z        PSCENC =       216.17040255
  Ewald energy   TEWEN  =     42530.71606648
  -Hartree energ DENC   =    -53289.48230527
  -exchange      EXHF   =         0.00000000
  -V(xc)+E(xc)   XCENC  =       362.59366717
  PAW double counting   =     10540.43362401   -11402.57304406
  entropy T*S    EENTRO =         0.01319192
  eigenvalues    EBANDS =      -145.15624971
  atomic energy  EATOM  =     11152.61838693
  Solvation  Ediel_sol  =         0.00000000
  ---------------------------------------------------
  free energy    TOTEN  =       -34.66625999 eV

  energy without entropy =      -34.67945191  energy(sigma->0) =      -34.67065730


--------------------------------------------------------------------------------------------------------




--------------------------------------- Iteration      1(  23)  ---------------------------------------


    POTLOK:  cpu time      0.0161: real time      0.0163
    SETDIJ:  cpu time      0.0056: real time      0.0056
     EDDAV:  cpu time      0.2927: real time      0.2948
       DOS:  cpu time      0.0009: real time      0.0009
    CHARGE:  cpu time      0.0536: real time      0.0538
    MIXING:  cpu time      0.0019: real time      0.0019
    --------------------------------------------
      LOOP:  cpu time      0.3707: real time      0.3734

 eigenvalue-minimisations  :   916
 total energy-change (2. order) :-0.3449408E-01  (-0.1123891E-03)
 number of electron      90.0000866 magnetization       0.0359596
 augmentation part       56.1792281 magnetization       0.0308501

 Broyden mixing:
  rms(total) = 0.64354E-02    rms(broyden)= 0.64348E-02
  rms(prec ) = 0.66802E-02
  weight for this iteration     100.00

 eigenvalues of (default mixing * dielectric matrix)
  average eigenvalue GAMMA=   1.7909
 11.4834  5.1556  3.2713  2.1261  1.6067  1.0557  0.9287  0.9287  0.8343  0.8343
  0.7886  0.2929  0.6310  0.5424  0.4863  0.3934  0.4445  0.4315

 Free energy of the ion-electron system (eV)
  ---------------------------------------------------
  alpha Z        PSCENC =       216.17040255
  Ewald energy   TEWEN  =     42530.71606648
  -Hartree energ DENC   =    -53288.78786366
  -exchange      EXHF   =         0.00000000
  -V(xc)+E(xc)   XCENC  =       362.56547658
  PAW double counting   =     10541.85951100   -11404.07965508
  entropy T*S    EENTRO =         0.01308286
  eigenvalues    EBANDS =      -145.77616173
  atomic energy  EATOM  =     11152.61838693
  Solvation  Ediel_sol  =         0.00000000
  ---------------------------------------------------
  free energy    TOTEN  =       -34.70075408 eV

  energy without entropy =      -34.71383694  energy(sigma->0) =      -34.70511503


--------------------------------------------------------------------------------------------------------




--------------------------------------- Iteration      1(  24)  ---------------------------------------


    POTLOK:  cpu time      0.0159: real time      0.0162
    SETDIJ:  cpu time      0.0056: real time      0.0056
     EDDAV:  cpu time      0.2812: real time      0.2834
       DOS:  cpu time      0.0009: real time      0.0009
    CHARGE:  cpu time      0.0524: real time      0.0527
    MIXING:  cpu time      0.0020: real time      0.0020
    --------------------------------------------
      LOOP:  cpu time      0.3580: real time      0.3607

 eigenvalue-minimisations  :   856
 total energy-change (2. order) :-0.3101397E-01  (-0.7610635E-04)
 number of electron      90.0000866 magnetization       0.0216577
 augmentation part       56.1757581 magnetization       0.0168940

 Broyden mixing:
  rms(total) = 0.48449E-02    rms(broyden)= 0.48446E-02
  rms(prec ) = 0.51598E-02
  weight for this iteration     100.00

 eigenvalues of (default mixing * dielectric matrix)
  average eigenvalue GAMMA=   1.8324
 11.4406  6.6329  3.2938  2.3213  1.6961  1.2615  0.9050  0.9050  0.9509  0.8126
  0.8126  0.2929  0.6430  0.5870  0.5236  0.4718  0.3929  0.4408  0.4312

 Free energy of the ion-electron system (eV)
  ---------------------------------------------------
  alpha Z        PSCENC =       216.17040255
  Ewald energy   TEWEN  =     42530.71606648
  -Hartree energ DENC   =    -53288.06048163
  -exchange      EXHF   =         0.00000000
  -V(xc)+E(xc)   XCENC  =       362.54065299
  PAW double counting   =     10541.73103012   -11403.96967913
  entropy T*S    EENTRO =         0.01295706
  eigenvalues    EBANDS =      -146.49110341
  atomic energy  EATOM  =     11152.61838693
  Solvation  Ediel_sol  =         0.00000000
  ---------------------------------------------------
  free energy    TOTEN  =       -34.73176805 eV

  energy without entropy =      -34.74472511  energy(sigma->0) =      -34.73608707


--------------------------------------------------------------------------------------------------------




--------------------------------------- Iteration      1(  25)  ---------------------------------------


    POTLOK:  cpu time      0.0159: real time      0.0161
    SETDIJ:  cpu time      0.0056: real time      0.0056
     EDDAV:  cpu time      0.2904: real time      0.2929
       DOS:  cpu time      0.0009: real time      0.0009
    CHARGE:  cpu time      0.0536: real time      0.0539
    MIXING:  cpu time      0.0022: real time      0.0022
    --------------------------------------------
      LOOP:  cpu time      0.3686: real time      0.3717

 eigenvalue-minimisations  :   900
 total energy-change (2. order) :-0.2113184E-01  (-0.7471351E-04)
 number of electron      90.0000866 magnetization       0.0071398
 augmentation part       56.1761792 magnetization       0.0041203

 Broyden mixing:
  rms(total) = 0.29301E-02    rms(broyden)= 0.29296E-02
  rms(prec ) = 0.31240E-02
  weight for this iteration     100.00

 eigenvalues of (default mixing * dielectric matrix)
  average eigenvalue GAMMA=   1.9348
 11.4260  8.9587  3.2517  2.7293  1.9984  1.1467  1.1467  0.9018  0.9018  0.9490
  0.7827  0.7827  0.2929  0.6508  0.5968  0.4947  0.4390  0.4390  0.3929  0.4149

 Free energy of the ion-electron system (eV)
  ---------------------------------------------------
  alpha Z        PSCENC =       216.17040255
  Ewald energy   TEWEN  =     42530.71606648
  -Hartree energ DENC   =    -53286.69074679
  -exchange      EXHF   =         0.00000000
  -V(xc)+E(xc)   XCENC  =       362.51798999
  PAW double counting   =     10540.88468742   -11403.08722337
  entropy T*S    EENTRO =         0.01312441
  eigenvalues    EBANDS =      -147.89558751
[...]
     14      -2.4352      1.00000
     15      -2.4077      1.00000
     16      -2.3304      1.00000
     17      -2.1554      1.00000
     18      -1.9473      1.00000
     19      -1.8104      1.00000
     20      -1.7616      1.00000
     21      -1.6163      1.00000
     22      -1.4883      1.00000
     23      -1.2385      1.00000
     24      -1.1956      1.00000
     25      -1.1198      1.00000
     26      -1.0806      1.00000
     27      -1.0394      1.00000
     28      -0.9416      1.00000
     29      -0.9109      1.00000
     30      -0.8648      1.00000
     31      -0.8467      1.00000
     32      -0.7994      1.00000
     33      -0.6860      1.00000
     34      -0.6821      1.00000
     35      -0.6080      1.00000
     36      -0.5861      1.00000
     37      -0.5700      1.00000
     38      -0.4746      1.00000
     39      -0.4617      1.00000
     40      -0.4006      1.00000
     41      -0.3579      1.00000
     42      -0.3118      1.00000
     43      -0.2511      1.00000
     44      -0.2398      1.00000
     45       0.7200      1.03520
     46       2.6338     -0.00000
     47       4.3946     -0.00000
     48       4.5668     -0.00000
     49       5.0883     -0.00000
     50       5.7847     -0.00000
     51       6.7348      0.00000
     52       7.2628      0.00000
     53       7.3542      0.00000
     54       7.4457      0.00000
     55       8.1843      0.00000
     56       8.2308      0.00000
     57       8.9646      0.00000
     58       9.6274      0.00000
     59       9.6754      0.00000
     60       9.8118      0.00000

 k-point     4 :       0.3333    0.3333    0.0000
  band No.  band energies     occupation 
      1      -5.9002      1.00000
      2      -4.6370      1.00000
      3      -3.9058      1.00000
      4      -3.3628      1.00000
      5      -3.2797      1.00000
      6      -3.0070      1.00000
      7      -2.9419      1.00000
      8      -2.8276      1.00000
      9      -2.7973      1.00000
     10      -2.6419      1.00000
     11      -2.6143      1.00000
     12      -2.3912      1.00000
     13      -2.3253      1.00000
     14      -2.2374      1.00000
     15      -2.1340      1.00000
     16      -2.1089      1.00000
     17      -2.0456      1.00000
     18      -1.9870      1.00000
     19      -1.8680      1.00000
     20      -1.8134      1.00000
     21      -1.7840      1.00000
     22      -1.7448      1.00000
     23      -1.6968      1.00000
     24      -1.6174      1.00000
     25      -1.4795      1.00000
     26      -1.3659      1.00000
     27      -1.3403      1.00000
     28      -1.1245      1.00000
     29      -1.0947      1.00000
     30      -1.0309      1.00000
     31      -0.9418      1.00000
     32      -0.8914      1.00000
     33      -0.8227      1.00000
     34      -0.8031      1.00000
     35      -0.7083      1.00000
     36      -0.6353      1.00000
     37      -0.5716      1.00000
     38      -0.5467      1.00000
     39      -0.5009      1.00000
     40      -0.4252      1.00000
     41      -0.4036      1.00000
     42      -0.3326      1.00000
     43      -0.0039      1.00000
     44       0.8578      0.86809
     45       1.8919     -0.00000
     46       2.3339     -0.00000
     47       2.8452     -0.00000
     48       4.1960     -0.00000
     49       4.2387     -0.00000
     50       5.6384     -0.00000
     51       5.8450     -0.00000
     52       6.2547     -0.00000
     53       6.5522      0.00000
     54       7.1014      0.00000
     55       7.8958      0.00000
     56       8.1397      0.00000
     57       8.3779      0.00000
     58       8.5554      0.00000
     59       9.1805      0.00000
     60       9.4878      0.00000


--------------------------------------------------------------------------------------------------------


 soft charge-density along one line, spin component           1
         0         1         2         3         4         5         6         7         8         9
 total charge-density along one line
 
 soft charge-density along one line, spin component           2
         0         1         2         3         4         5         6         7         8         9
 total charge-density along one line
 
 pseudopotential strength for first ion, spin component:           1
 -7.115  -0.000   0.000  -0.000  -0.000  -1.545   0.000  -0.000
 -0.000  -7.101   0.001  -0.000  -0.000   0.000  -1.557  -0.000
  0.000   0.001  -7.122  -0.000   0.003  -0.000  -0.000  -1.544
 -0.000  -0.000  -0.000  -7.114  -0.000   0.000   0.000   0.000
 -0.000  -0.000   0.003  -0.000  -7.110   0.000   0.000  -0.002
 -1.545   0.000  -0.000   0.000   0.000   8.077  -0.000   0.000
  0.000  -1.557  -0.000   0.000   0.000  -0.000   8.088   0.000
 -0.000  -0.000  -1.544   0.000  -0.002   0.000   0.000   8.080
  0.000   0.000   0.000  -1.550   0.000  -0.000  -0.000  -0.000
  0.000   0.000  -0.002   0.000  -1.549  -0.000  -0.000   0.000
  0.000  -0.000  -0.003   0.000  -0.001   0.000   0.000   0.004
  0.000  -0.000  -0.007   0.000  -0.001   0.000   0.000   0.008
  0.000  -0.017  -0.001   0.000  -0.001  -0.000   0.013   0.000
  0.000   0.001  -0.017   0.000   0.001   0.000  -0.000   0.012
  0.001   0.000  -0.000  -0.015   0.000  -0.000   0.000   0.000
  0.000  -0.018  -0.001  -0.000  -0.001   0.000   0.015   0.000
 -0.000   0.001  -0.018   0.000   0.001   0.000  -0.000   0.013
  0.001  -0.000  -0.000  -0.016   0.000  -0.000   0.000  -0.000
 pseudopotential strength for first ion, spin component:           2
 -7.115  -0.000   0.000  -0.000  -0.000  -1.545   0.000  -0.000
 -0.000  -7.101   0.001  -0.000  -0.000   0.000  -1.557  -0.000
  0.000   0.001  -7.122  -0.000   0.003  -0.000  -0.000  -1.544
 -0.000  -0.000  -0.000  -7.114  -0.000   0.000   0.000   0.000
 -0.000  -0.000   0.003  -0.000  -7.110   0.000   0.000  -0.002
 -1.545   0.000  -0.000   0.000   0.000   8.077  -0.000   0.000
  0.000  -1.557  -0.000   0.000   0.000  -0.000   8.088   0.000
 -0.000  -0.000  -1.544   0.000  -0.002   0.000   0.000   8.080
  0.000   0.000   0.000  -1.550   0.000  -0.000  -0.000  -0.000
  0.000   0.000  -0.002   0.000  -1.549  -0.000  -0.000   0.000
  0.000  -0.000  -0.003   0.000  -0.001   0.000   0.000   0.004
  0.000  -0.000  -0.007   0.000  -0.001   0.000   0.000   0.008
  0.000  -0.017  -0.001   0.000  -0.001  -0.000   0.013   0.000
  0.000   0.001  -0.017   0.000   0.001   0.000  -0.000   0.012
  0.001   0.000  -0.000  -0.015   0.000  -0.000   0.000   0.000
  0.000  -0.018  -0.001  -0.000  -0.001   0.000   0.015   0.000
 -0.000   0.001  -0.018   0.000   0.001   0.000  -0.000   0.013
  0.001  -0.000  -0.000  -0.016   0.000  -0.000   0.000  -0.000
 total augmentation occupancy for first ion, spin component:           1
  1.921   0.000   0.000  -0.000   0.000  -0.012   0.000   0.000   0.000   0.000   0.000   0.000   0.000   0.000   0.006   0.000
  0.000   1.946   0.001   0.000   0.000   0.000  -0.028  -0.001   0.000   0.000   0.000   0.000   0.024   0.003   0.000  -0.023
  0.000   0.001   1.928   0.000   0.002   0.000  -0.001  -0.014   0.000   0.005  -0.017   0.015  -0.003   0.070   0.000   0.002
 -0.000   0.000   0.000   1.941   0.000   0.000   0.000   0.000  -0.025   0.000   0.000   0.000   0.000   0.000   0.067   0.000
  0.000   0.000   0.002   0.000   1.926   0.000   0.000   0.005   0.000  -0.017  -0.051   0.010  -0.003   0.023   0.000   0.003
 -0.012   0.000   0.000   0.000   0.000   0.010   0.000   0.000  -0.000   0.000   0.000   0.000   0.000   0.000   0.000   0.000
  0.000  -0.028  -0.001   0.000   0.000   0.000   0.010  -0.000   0.000  -0.000  -0.000   0.000   0.021  -0.000   0.000  -0.001
  0.000  -0.001  -0.014   0.000   0.005   0.000  -0.000   0.011   0.000   0.001  -0.015  -0.000  -0.000   0.020   0.000   0.000
  0.000   0.000   0.000  -0.025   0.000  -0.000   0.000   0.000   0.012   0.000   0.000   0.000   0.000   0.000   0.031   0.000
  0.000   0.000   0.005   0.000  -0.017   0.000  -0.000   0.001   0.000   0.010  -0.006   0.001   0.000   0.003   0.000  -0.000
  0.000   0.000  -0.017   0.000  -0.051   0.000  -0.000  -0.015   0.000  -0.006   1.699  -0.128   0.000   0.228   0.000   0.000
  0.000   0.000   0.015   0.000   0.010   0.000   0.000  -0.000   0.000   0.001  -0.128   0.016   0.000  -0.028   0.000  -0.000
  0.000   0.024  -0.003   0.000  -0.003   0.000   0.021  -0.000   0.000   0.000   0.000   0.000   0.214  -0.001   0.000  -0.013
  0.000   0.003   0.070   0.000   0.023   0.000  -0.000   0.020   0.000   0.003   0.228  -0.028  -0.001   0.109   0.000   0.000
  0.006   0.000   0.000   0.067   0.000   0.000   0.000   0.000   0.031   0.000   0.000   0.000   0.000   0.000   0.151   0.000
  0.000  -0.023   0.002   0.000   0.003   0.000  -0.001   0.000   0.000  -0.000   0.000  -0.000  -0.013   0.000   0.000   0.001
  0.000  -0.002  -0.028   0.000  -0.001   0.000   0.000  -0.001   0.000  -0.000  -0.029   0.003   0.000  -0.010   0.000  -0.000
 -0.003   0.000   0.000  -0.026   0.000  -0.000   0.000   0.000  -0.002   0.000   0.000   0.000   0.000   0.000  -0.010   0.000
 total augmentation occupancy for first ion, spin component:           2
  0.000   0.000   0.000   0.000   0.000   0.000   0.000   0.000   0.000   0.000   0.000   0.000   0.000   0.000   0.000   0.000
  0.000  -0.000  -0.000   0.000   0.000   0.000  -0.000  -0.000   0.000   0.000   0.000  -0.000   0.000   0.000   0.000  -0.000
  0.000  -0.000   0.000   0.000   0.000   0.000  -0.000   0.000   0.000   0.000   0.000  -0.000   0.000  -0.000   0.000  -0.000
  0.000   0.000   0.000  -0.000   0.000   0.000   0.000   0.000  -0.000   0.000   0.000   0.000   0.000   0.000   0.000   0.000
  0.000   0.000   0.000   0.000   0.000   0.000  -0.000  -0.000   0.000   0.000   0.000   0.000  -0.000  -0.000   0.000   0.000
  0.000   0.000   0.000   0.000   0.000  -0.000   0.000   0.000   0.000   0.000   0.000   0.000   0.000   0.000   0.000   0.000
  0.000  -0.000  -0.000   0.000  -0.000   0.000  -0.000   0.000   0.000  -0.000   0.000  -0.000  -0.000   0.000   0.000   0.000
  0.000  -0.000   0.000   0.000  -0.000   0.000   0.000  -0.000   0.000   0.000  -0.000   0.000   0.000   0.000   0.000   0.000
  0.000   0.000   0.000  -0.000   0.000   0.000   0.000   0.000   0.000   0.000   0.000   0.000   0.000   0.000  -0.000   0.000
  0.000   0.000   0.000   0.000   0.000   0.000  -0.000   0.000   0.000  -0.000  -0.000   0.000  -0.000  -0.000   0.000   0.000
  0.000   0.000   0.000   0.000   0.000   0.000   0.000  -0.000   0.000  -0.000  -0.000   0.000  -0.000  -0.000   0.000   0.000
  0.000  -0.000  -0.000   0.000   0.000   0.000  -0.000   0.000   0.000   0.000   0.000  -0.000  -0.000   0.000   0.000   0.000
  0.000   0.000   0.000   0.000  -0.000   0.000  -0.000   0.000   0.000  -0.000  -0.000  -0.000   0.000   0.000   0.000  -0.000
  0.000   0.000  -0.000   0.000  -0.000   0.000   0.000   0.000   0.000  -0.000  -0.000   0.000   0.000  -0.000   0.000  -0.000
  0.000   0.000   0.000   0.000   0.000   0.000   0.000   0.000  -0.000   0.000   0.000   0.000   0.000   0.000  -0.000   0.000
  0.000  -0.000  -0.000   0.000   0.000   0.000   0.000   0.000   0.000   0.000   0.000   0.000  -0.000  -0.000   0.000   0.000
  0.000  -0.000   0.000   0.000   0.000   0.000  -0.000  -0.000   0.000   0.000   0.000   0.000  -0.000   0.000   0.000   0.000
 -0.000   0.000   0.000  -0.000   0.000  -0.000   0.000   0.000   0.000   0.000   0.000   0.000   0.000   0.000  -0.000   0.000


------------------------ aborting loop because EDIFF is reached ----------------------------------------


    CHARGE:  cpu time      0.0490: real time      0.0492
    FORLOC:  cpu time      0.0012: real time      0.0012
    FORNL :  cpu time      0.1420: real time      0.1426
    STRESS:  cpu time      0.1611: real time      0.1622
    FORCOR:  cpu time      0.0160: real time      0.0161
    FORHAR:  cpu time      0.0028: real time      0.0028
    MIXING:  cpu time      0.0005: real time      0.0005
    OFIELD:  cpu time      0.0000: real time      0.0000

 ---------------------------------------------------------------------------------------------

         DFTD3 V3.0 Rev 1        
 Edisp (eV)   -3.18952

 E6    (eV) :    -1.3073
 E8    (eV) :    -1.8822
 % E8        : 59.01
    FORVDW:  cpu time      0.0494: real time      0.0496

  FORCE on cell =-STRESS in cart. coord.  units (eV):
  Direction    XX          YY          ZZ          XY          YZ          ZX
  --------------------------------------------------------------------------------------
  Alpha Z   216.17040   216.17040   216.17040
  Ewald   48058.41096 48231.89887-53912.75107     0.00000     4.48402     0.00000
  Hartree 51155.09945 51278.47255-49314.98052    -0.00000    -1.02951    -0.00000
  E(xc)    -520.48286  -520.15160  -520.61959    -0.00000     0.07954    -0.00000
  Local  ************************102219.26984    -0.00000    -0.14570    -0.00000
  n-local  -179.20492  -175.25337  -179.83695     6.95329    -0.40019    -0.01161
  augment   755.68072   758.70783   757.51593     0.00000     0.04127    -0.00000
  Kinetic   739.04297   736.83961   737.57061     6.73418    -2.95885     0.00558
  Fock        0.00000     0.00000     0.00000     0.00000     0.00000     0.00000
  vdW        -3.90622    -3.86814    -2.79022     0.00000     0.05228    -0.00000
  -------------------------------------------------------------------------------------
  Total      -4.85298    -4.40068    -0.45156     0.00000     0.12287     0.00000
  in kB     -34.79390   -31.55109    -3.23750     0.00000     0.88091     0.00000
  external pressure =      -23.19 kB  Pullay stress =        0.00 kB


 VOLUME and BASIS-vectors are now :
 -----------------------------------------------------------------------------
  energy-cutoff  :      400.00
  volume of cell :      223.47
      direct lattice vectors                 reciprocal lattice vectors
     3.630000114  0.000000000  0.000000000     0.275482085  0.000000000  0.000000000
     0.000000000  2.566797733  0.000000000     0.000000000  0.389590495  0.000000000
     0.000000000  0.000000000 23.983791351     0.000000000  0.000000000  0.041694826

  length of vectors
     3.630000114  2.566797733 23.983791351     0.275482085  0.389590495  0.041694826


 FORCES acting on ions
    electron-ion (+dipol)            ewald-force                    non-local-force                 convergence-correction
 -----------------------------------------------------------------------------------------------
   -.187E-13 0.509E+00 0.460E+04   -.744E-07 -.466E+00 -.459E+04   0.000E+00 0.227E+00 -.618E+01   0.741E-10 -.292E+00 -.123E+00
   0.737E-06 0.116E+00 0.352E+04   0.134E-06 -.901E-01 -.352E+04   0.000E+00 0.733E-01 0.164E+01   0.113E-10 -.104E+00 -.259E+00
   -.508E-13 -.488E+00 0.209E+04   -.125E-06 0.423E+00 -.209E+04   0.000E+00 -.389E-01 -.117E+01   0.130E-10 0.109E+00 -.215E+00
   0.752E-06 0.905E-01 0.773E+03   0.129E-06 -.743E-01 -.773E+03   0.000E+00 -.336E-01 0.364E+00   0.742E-11 0.218E-01 -.485E+00
   -.542E-13 0.699E-02 -.578E+03   -.128E-06 0.103E-02 0.579E+03   0.000E+00 -.347E-01 -.503E-01   -.461E-10 0.299E-01 -.565E+00
   0.760E-06 -.272E+00 -.189E+04   0.124E-06 0.272E+00 0.189E+04   0.000E+00 -.842E-01 0.114E+01   -.507E-10 0.860E-01 -.305E+00
   -.496E-13 -.118E+00 -.333E+04   -.136E-06 0.119E+00 0.333E+04   0.000E+00 -.124E-01 -.175E+01   -.416E-10 0.122E-01 -.747E-01
   0.805E-06 -.262E+01 -.440E+04   0.820E-07 0.256E+01 0.439E+04   0.000E+00 0.216E-01 0.751E+01   0.136E-10 0.334E-01 0.229E-01
   0.556E-07 0.141E+02 -.399E+03   -.460E-08 -.173E+02 0.395E+03   0.000E+00 0.330E+01 0.313E+01   0.103E-10 -.252E-04 0.732E-02
   0.510E-07 -.115E+02 -.388E+03   -.170E-08 0.146E+02 0.391E+03   0.000E+00 -.318E+01 -.343E+01   0.267E-11 -.295E-02 0.551E-02
 -----------------------------------------------------------------------------------------------
   0.316E-05 -.152E+00 0.829E+00   0.318E-13 0.657E-13 -.909E-12   0.000E+00 0.238E+00 0.120E+01   -.620E-11 -.107E+00 -.199E+01
 
 
 POSITION                                       TOTAL-FORCE (eV/Angst)
 -----------------------------------------------------------------------------------
      0.00000     -0.05434     -0.04799         0.000000     -0.023444      0.002364
      1.81500      1.21210      1.08657         0.000000     -0.006484     -0.001082
      0.00000     -0.10628      2.38789         0.000000      0.007416     -0.022679
      1.81500      1.15601      3.63828         0.000000      0.008836     -0.004279
      0.00000     -0.14499      4.89294         0.000000      0.007087      0.015755
      1.81500      1.12692      6.15548         0.000000      0.005614     -0.003797
      0.00000     -0.15731      7.44764         0.000000      0.003067     -0.006994
      1.81500      1.12958      8.58328         0.000000     -0.001611      0.001555
      1.81500      0.59482     10.53257         0.000000      0.007929      0.017638
      1.81500      1.12307     11.09355         0.000000     -0.008410      0.001519
 -----------------------------------------------------------------------------------
    total drift:                                0.000003     -0.020833      0.042703


--------------------------------------------------------------------------------------------------------



  FREE ENERGIE OF THE ION-ELECTRON SYSTEM (eV)
  ---------------------------------------------------
  free  energy   TOTEN  =       -38.55425783 eV

  energy  without entropy=      -38.55026124  energy(sigma->0) =      -38.55292563
 
 d Force = 0.1503615E-03[ 0.518E-04, 0.249E-03]  d Energy = 0.2269513E-03-0.766E-04
 d Force = 0.5093785E+01[ 0.509E+01, 0.510E+01]  d Ewald  = 0.5093785E+01-0.275E-07


--------------------------------------------------------------------------------------------------------


    POTLOK:  cpu time      0.0250: real time      0.0251


--------------------------------------------------------------------------------------------------------


 stress matrix after NEB project (eV)
     -4.85298      0.00000      0.00000
      0.00000     -4.40068      0.12287
      0.00000      0.12287     -0.45156
  FORCES: max atom, RMS     0.023861    0.014556
  FORCE total and by dimension    0.046032    0.023444
  Stress total and by dimension    6.568982    4.852981
 Conjugate gradient step on ions:
 trial-energy change:   -0.000227  1 .order   -0.000150   -0.000249   -0.000052
  (g-gl).g = 0.365E-03      g.g   = 0.298E-03  gl.gl    = 0.440E-03
 g(Force)  = 0.298E-03   g(Stress)= 0.000E+00 ortho     = 0.172E-04
 gamma     =   0.82989
 trial     =   0.79837
 opt step  =   1.00817  (harmonic =   1.00817) maximal distance =0.00358199
 next E    =   -38.554188   (d E  =  -0.00016)


--------------------------------------------------------------------------------------------------------


  
 reached required accuracy - stopping structural energy minimisation
     LOOP+:  cpu time      1.2597: real time      1.2827
    4ORBIT:  cpu time      0.0000: real time      0.0000

 total amount of memory used by VASP MPI-rank0    35069. kBytes
=======================================================================

   base      :      30000. kBytes
   nonl-proj :       1086. kBytes
   fftplans  :        642. kBytes
   grid      :       1621. kBytes
   one-center:         62. kBytes
   wavefun   :       1658. kBytes
 
  
  
 General timing and accounting informations for this job:
 ========================================================
  
                  Total CPU time used (sec):      184.131
                            User time (sec):      183.580
                          System time (sec):        0.551
                         Elapsed time (sec):      188.431
  
                   Maximum memory used (kb):      233948.
                   Average memory used (kb):          N/A
  
                          Minor page faults:       140653
                          Major page faults:         6645
                 Voluntary context switches:         5324
