<?xml version="1.0" encoding="ISO-8859-1"?>
<modeling>
 <generator>
  <i name="program" type="string">vasp </i>
  <i name="version" type="string">6.3.2  </i>
  <i name="subversion" type="string">27Jun22 (build Aug 17 2022 15:43:34) complex                          parallel </i>
  <i name="platform" type="string">tv2STDVTST </i>
  <i name="date" type="string">2025 02 04 </i>
  <i name="time" type="string">13:35:02 </i>
 </generator>
 <incar>
  <i type="int" name="ISTART">     0</i>
  <i type="string" name="PREC">Normal</i>
  <i type="int" name="ISPIN">     2</i>
  <i type="int" name="ICHARG">     2</i>
  <i type="int" name="IBRION">     2</i>
  <i name="EDIFF">      0.00020000</i>
  <i name="EDIFFG">     -0.03000000</i>
  <i type="int" name="NSW">   800</i>
  <i type="int" name="ISIF">     2</i>
  <i type="int" name="ISYM">     1</i>
  <i name="ENCUT">    400.00000000</i>
  <i name="POTIM">      0.50000000</i>
  <i type="logical" name="LREAL"> F  </i>
  <i type="int" name="ISMEAR">     1</i>
  <i name="SIGMA">      0.20000000</i>
  <i type="logical" name="LWAVE"> F  </i>
  <i type="logical" name="LCHARG"> F  </i>
  <i type="string" name="GGA">PE</i>
  <i type="int" name="IVDW">    11</i>
 </incar>
 <primitive_cell>
  <structure name="primitive_cell" >
   <crystal>
    <varray name="basis" >
     <v>       3.63000011       0.00000000       0.00000000 </v>
     <v>       0.00000000       2.56679773       0.00000000 </v>
     <v>       0.00000000       0.00000000      23.98379135 </v>
    </varray>
    <i name="volume">    223.46840188 </i>
    <varray name="rec_basis" >
     <v>       0.27548208       0.00000000       0.00000000 </v>
     <v>       0.00000000       0.38959050       0.00000000 </v>
     <v>       0.00000000       0.00000000       0.04169483 </v>
    </varray>
   </crystal>
   <varray name="positions" >
    <v>       0.00000000       0.00000000       0.00000000 </v>
    <v>       0.50000000       0.50000000       0.05351109 </v>
    <v>       0.00000000       0.00000000       0.10468148 </v>
    <v>       0.50000000       0.50000000       0.15792996 </v>
    <v>       0.00000000       0.00000000       0.21070899 </v>
    <v>       0.50000000       0.50000000       0.26289048 </v>
    <v>       0.00000000       0.00000000       0.31711592 </v>
    <v>       0.50000000       0.50000000       0.36467590 </v>
    <v>       0.50000000       0.00000000       0.42690792 </v>
    <v>       0.50000000       0.29063451       0.42690792 </v>
   </varray>
  </structure>
  <varray name="primitive_index" >
   <v type="int" >        1 </v>
   <v type="int" >        2 </v>
   <v type="int" >        3 </v>
   <v type="int" >        4 </v>
   <v type="int" >        5 </v>
   <v type="int" >        6 </v>
   <v type="int" >        7 </v>
   <v type="int" >        8 </v>
   <v type="int" >        9 </v>
   <v type="int" >       10 </v>
  </varray>
 </primitive_cell>
 <kpoints>
  <generation param="Monkhorst-Pack">
   <v type="int" name="divisions">       3        3        1 </v>
   <v name="usershift">      0.00000000       0.00000000       0.00000000 </v>
   <v name="genvec1">      0.33333333       0.00000000       0.00000000 </v>
   <v name="genvec2">      0.00000000       0.33333333       0.00000000 </v>
   <v name="genvec3">      0.00000000       0.00000000       1.00000000 </v>
   <v name="shift">      0.00000000       0.00000000       0.00000000 </v>
  </generation>
  <varray name="kpointlist" >
   <v>       0.00000000       0.00000000       0.00000000 </v>
   <v>       0.33333333       0.00000000       0.00000000 </v>
   <v>       0.00000000       0.33333333       0.00000000 </v>
   <v>       0.33333333       0.33333333       0.00000000 </v>
  </varray>
  <varray name="weights" >
   <v>       0.11111111 </v>
   <v>       0.22222222 </v>
   <v>       0.22222222 </v>
   <v>       0.44444444 </v>
  </varray>
 </kpoints>
 <parameters>
  <separator name="general" >
   <i type="string" name="SYSTEM">unknown system</i>
   <i type="logical" name="LCOMPAT"> F  </i>
  </separator>
  <separator name="electronic" >
   <i type="string" name="PREC">normal</i>
   <i name="ENMAX">    400.00000000</i>
   <i name="ENAUG">    586.98000000</i>
   <i name="EDIFF">      0.00020000</i>
   <i type="int" name="IALGO">    38</i>
   <i type="int" name="IWAVPR">    11</i>
   <i type="int" name="NBANDS">    60</i>
   <i type="int" name="NBANDSLOW">    -1</i>
   <i type="int" name="NBANDSHIGH">    -1</i>
   <i name="NELECT">     90.00000000</i>
   <i type="int" name="TURBO">     0</i>
   <i type="int" name="IRESTART">     0</i>
   <i type="int" name="NREBOOT">     0</i>
   <i type="int" name="NMIN">     0</i>
   <i name="EREF">      0.00000000</i>
   <separator name="electronic smearing" >
    <i type="int" name="ISMEAR">     1</i>
    <i name="SIGMA">      0.20000000</i>
    <i name="KSPACING">      0.50000000</i>
    <i type="logical" name="KGAMMA"> T  </i>
    <i type="logical" name="KBLOWUP"> T  </i>
   </separator>
   <separator name="electronic projectors" >
    <i type="logical" name="LREAL"> F  </i>
    <v name="ROPT">      0.00000000      0.00000000</v>
    <i type="int" name="LMAXPAW">  -100</i>
    <i type="int" name="LMAXMIX">     2</i>
    <i type="logical" name="NLSPLINE"> F  </i>
   </separator>
   <separator name="electronic startup" >
    <i type="int" name="ISTART">     0</i>
    <i type="int" name="ICHARG">     2</i>
    <i type="int" name="INIWAV">     1</i>
   </separator>
   <separator name="electronic spin" >
    <i type="int" name="ISPIN">     2</i>
    <i type="logical" name="LNONCOLLINEAR"> F  </i>
    <v name="MAGMOM">      1.00000000      1.00000000      1.00000000      1.00000000      1.00000000      1.00000000      1.00000000      1.00000000      1.00000000      1.00000000</v>
    <i name="NUPDOWN">     -1.00000000</i>
    <i type="logical" name="LSORBIT"> F  </i>
    <v name="SAXIS">      0.00000000      0.00000000      1.00000000</v>
    <i type="logical" name="LSPIRAL"> F  </i>
    <v name="QSPIRAL">      0.00000000      0.00000000      0.00000000</v>
    <i type="logical" name="LZEROZ"> F  </i>
   </separator>
   <separator name="electronic exchange-correlation" >
    <i type="logical" name="LASPH"> F  </i>
    <i type="logical" name="LMETAGGA"> F  </i>
   </separator>
   <separator name="electronic convergence" >
    <i type="int" name="NELM">    60</i>
    <i type="int" name="NELMDL">    -5</i>
    <i type="int" name="NELMIN">     2</i>
    <i name="ENINI">    400.00000000</i>
    <separator name="electronic convergence detail" >
     <i type="logical" name="LDIAG"> T  </i>
     <i type="logical" name="LSUBROT"> F  </i>
     <i name="WEIMIN">      0.00100000</i>
     <i name="EBREAK">      0.00000083</i>
     <i name="DEPER">      0.30000000</i>
     <i type="int" name="NRMM">     4</i>
     <i name="TIME">      0.40000000</i>
    </separator>
   </separator>
   <separator name="electronic mixer" >
    <i name="AMIX">      0.40000000</i>
    <i name="BMIX">      1.00000000</i>
    <i name="AMIN">      0.10000000</i>
    <i name="AMIX_MAG">      1.60000000</i>
    <i name="BMIX_MAG">      1.00000000</i>
    <separator name="electronic mixer details" >
     <i type="int" name="IMIX">     4</i>
     <i type="logical" name="MIXFIRST"> F  </i>
     <i type="int" name="MAXMIX">   -45</i>
     <i name="WC">    100.00000000</i>
     <i type="int" name="INIMIX">     1</i>
     <i type="int" name="MIXPRE">     1</i>
     <i type="int" name="MREMOVE">     5</i>
    </separator>
   </separator>
   <separator name="electronic dipolcorrection" >
    <i type="logical" name="LDIPOL"> F  </i>
    <i type="logical" name="LMONO"> F  </i>
    <i type="int" name="IDIPOL">     0</i>
    <i name="EPSILON">      1.00000000</i>
    <v name="DIPOL">   -100.00000000   -100.00000000   -100.00000000</v>
    <i name="EFIELD">      0.00000000</i>
   </separator>
  </separator>
  <separator name="grids" >
   <i type="int" name="NGX">    18</i>
   <i type="int" name="NGY">    14</i>
   <i type="int" name="NGZ">   120</i>
   <i type="int" name="NGXF">    36</i>
   <i type="int" name="NGYF">    28</i>
   <i type="int" name="NGZF">   240</i>
   <i type="logical" name="ADDGRID"> F  </i>
  </separator>
  <separator name="ionic" >
   <i type="int" name="NSW">   800</i>
   <i type="int" name="IBRION">     2</i>
   <i type="int" name="MDALGO">     0</i>
   <i type="int" name="ISIF">     2</i>
   <i name="PSTRESS">      0.00000000</i>
   <i name="EDIFFG">     -0.03000000</i>
   <i type="int" name="NFREE">     1</i>
   <i name="POTIM">      0.50000000</i>
   <i name="SMASS">     -3.00000000</i>
   <i name="SCALEE">      1.00000000</i>
  </separator>
  <separator name="ionic md" >
   <i name="TEBEG">      0.00010000</i>
   <i name="TEEND">      0.00010000</i>
   <i type="int" name="NBLOCK">     1</i>
   <i type="int" name="KBLOCK">   800</i>
   <i type="int" name="NPACO">   256</i>
   <i name="APACO">     10.00000000</i>
  </separator>
  <separator name="symmetry" >
   <i type="int" name="ISYM">     1</i>
   <i name="SYMPREC">      0.00001000</i>
  </separator>
  <separator name="dos" >
   <i type="int" name="LORBIT">     0</i>
   <v name="RWIGS">     -1.00000000     -1.00000000</v>
   <i type="int" name="NEDOS">   301</i>
   <i name="EMIN">     10.00000000</i>
   <i name="EMAX">    -10.00000000</i>
   <i name="EFERMI">      0.00000000</i>
  </separator>
  <separator name="writing" >
   <i type="int" name="NWRITE">     2</i>
   <i type="logical" name="LWAVE"> F  </i>
   <i type="logical" name="LDOWNSAMPLE"> F  </i>
   <i type="logical" name="LCHARG"> F  </i>
   <i type="logical" name="LPARD"> F  </i>
   <i type="logical" name="LVTOT"> F  </i>
   <i type="logical" name="LVHAR"> F  </i>
   <i type="logical" name="LELF"> F  </i>
   <i type="logical" name="LOPTICS"> F  </i>
   <v name="STM">      0.00000000      0.00000000      0.00000000      0.00000000      0.00000000      0.00000000      0.00000000</v>
  </separator>
  <separator name="performance" >
   <i type="int" name="NPAR">     4</i>
   <i type="int" name="NSIM">     4</i>
   <i type="int" name="NBLK">    -1</i>
   <i type="logical" name="LPLANE"> T  </i>
   <i type="logical" name="LSCALAPACK"> T  </i>
   <i type="logical" name="LSCAAWARE"> F  </i>
   <i type="logical" name="LSCALU"> F  </i>
   <i type="logical" name="LASYNC"> F  </i>
   <i type="logical" name="LORBITALREAL"> F  </i>
  </separator>
  <separator name="miscellaneous" >
   <i type="int" name="IDIOT">     3</i>
   <i type="int" name="PHON_NSTRUCT">    -1</i>
   <i type="logical" name="LMUSIC"> F  </i>
   <v name="POMASS">     63.54600000      1.00000000</v>
   <v name="DARWINR">      0.00000000      0.00000000</v>
   <v name="DARWINV">      1.00000000      1.00000000</v>
   <i type="logical" name="LCORR"> T  </i>
  </separator>
  <i type="logical" name="GGA_COMPAT"> T  </i>
  <i type="logical" name="LBERRY"> F  </i>
  <i type="int" name="ICORELEVEL">     0</i>
  <i type="logical" name="LDAU"> F  </i>
  <i type="int" name="I_CONSTRAINED_M">     0</i>
  <separator name="electronic exchange-correlation" >
   <i type="string" name="GGA">PE</i>
   <i type="int" name="VOSKOWN">     0</i>
   <i type="logical" name="LHFCALC"> F  </i>
   <i type="string" name="PRECFOCK"></i>
   <i type="logical" name="LSYMGRAD"> F  </i>
   <i type="logical" name="LHFONE"> F  </i>
   <i type="logical" name="LRHFCALC"> F  </i>
   <i type="logical" name="LTHOMAS"> F  </i>
   <i type="logical" name="LMODELHF"> F  </i>
   <i type="logical" name="LFOCKACE"> F  </i>
   <i name="ENCUT4O">     -1.00000000</i>
   <i type="int" name="EXXOEP">     0</i>
   <i type="int" name="FOURORBIT">     0</i>
   <i name="AEXX">      0.00000000</i>
   <i name="HFALPHA">      0.00000000</i>
   <i name="MCALPHA">      0.00000000</i>
   <i name="ALDAX">      1.00000000</i>
   <i name="AGGAX">      1.00000000</i>
   <i name="ALDAC">      1.00000000</i>
   <i name="AGGAC">      1.00000000</i>
   <i type="int" name="NKREDX">     1</i>
   <i type="int" name="NKREDY">     1</i>
   <i type="int" name="NKREDZ">     1</i>
   <i type="logical" name="SHIFTRED"> F  </i>
   <i type="logical" name="ODDONLY"> F  </i>
   <i type="logical" name="EVENONLY"> F  </i>
   <i type="int" name="LMAXFOCK">     0</i>
   <i type="int" name="NMAXFOCKAE">     0</i>
   <i type="logical" name="LFOCKAEDFT"> F  </i>
   <i name="HFSCREEN">      0.00000000</i>
   <i name="HFSCREENC">      0.00000000</i>
   <i type="int" name="NBANDSGWLOW">     0</i>
  </separator>
  <separator name="vdW DFT" >
   <i type="logical" name="LUSE_VDW"> F  </i>
   <i name="Zab_VDW">     -0.84910000</i>
   <i name="PARAM1">      0.12340000</i>
   <i name="PARAM2">      1.00000000</i>
   <i name="PARAM3">      0.00000000</i>
  </separator>
  <separator name="model GW" >
   <i type="int" name="MODEL_GW">     0</i>
   <i name="MODEL_EPS0">     13.40810411</i>
   <i name="MODEL_ALPHA">      1.00000000</i>
  </separator>
  <separator name="linear response parameters" >
   <i type="logical" name="LEPSILON"> F  </i>
   <i type="logical" name="LRPA"> F  </i>
   <i type="logical" name="LNABLA"> F  </i>
   <i type="logical" name="LVEL"> F  </i>
   <i name="CSHIFT">      0.10000000</i>
   <i name="OMEGAMAX">     -1.00000000</i>
   <i name="DEG_THRESHOLD">      0.00200000</i>
   <i name="RTIME">     -0.10000000</i>
   <i name="WPLASMAI">      0.00000000</i>
   <v name="DFIELD">      0.00000000      0.00000000      0.00000000</v>
   <v name="WPLASMA">      0.00000000      0.00000000      0.00000000      0.00000000      0.00000000      0.00000000      0.00000000      0.00000000      0.00000000</v>
  </separator>
  <separator name="orbital magnetization" >
   <i type="logical" name="NUCIND"> F  </i>
   <v name="MAGPOS">      0.00000000      0.00000000      0.00000000</v>
   <i type="logical" name="LNICSALL"> T  </i>
   <i type="logical" name="ORBITALMAG"> F  </i>
   <i type="logical" name="LMAGBLOCH"> F  </i>
   <i type="logical" name="LCHIMAG"> F  </i>
   <i type="logical" name="LGAUGE"> T  </i>
   <i type="int" name="MAGATOM">     0</i>
   <v name="MAGDIPOL">      0.00000000      0.00000000      0.00000000</v>
   <v name="AVECCONST">      0.00000000      0.00000000      0.00000000</v>
  </separator>
  <separator name="response functions" >
   <i type="logical" name="LFINITE_TEMPERATURE"> F  </i>
   <i type="logical" name="LADDER"> F  </i>
   <i type="logical" name="LRPAFORCE"> F  </i>
   <i type="logical" name="LFXC"> F  </i>
   <i type="logical" name="LHARTREE"> T  </i>
   <i type="int" name="IBSE">     0</i>
   <v type="int" name="KPOINT">    -1     0     0     0</v>
   <i type="logical" name="LTCTC"> F  </i>
   <i type="logical" name="LTCTE"> F  </i>
   <i type="logical" name="LTETE"> F  </i>
   <i type="logical" name="LTRIPLET"> F  </i>
   <i type="logical" name="LFXCEPS"> F  </i>
   <i type="logical" name="LFXHEG"> F  </i>
   <i type="int" name="NATURALO">     2</i>
   <i type="logical" name="LHOLEGF"> F  </i>
   <i type="logical" name="L2ORDER"> F  </i>
   <i type="logical" name="LDMP1"> F  </i>
   <i type="logical" name="LMP2LT"> F  </i>
   <i type="logical" name="LSMP2LT"> F  </i>
   <i type="logical" name="LGWLF"> F  </i>
   <i name="ENCUTGW">     -2.00000000</i>
   <i name="ENCUTGWSOFT">     -2.00000000</i>
   <i name="ENCUTLF">     -1.00000000</i>
   <i type="logical" name="LESF_SPLINES"> F  </i>
   <i type="int" name="LMAXMP2">    -1</i>
   <i name="SCISSOR">      0.00000000</i>
   <i type="int" name="NOMEGA">     0</i>
   <i type="int" name="NOMEGAR">     0</i>
   <i type="int" name="NBANDSGW">    -1</i>
   <i type="int" name="NBANDSO">    -1</i>
   <i type="int" name="NBANDSV">    -1</i>
   <i type="int" name="NELMGW">     1</i>
   <i type="int" name="NELMHF">     1</i>
   <i type="int" name="DIM">     3</i>
   <i type="int" name="IESPILON">     4</i>
   <i type="int" name="ANTIRES">     0</i>
   <i name="OMEGAMAX">    -30.00000000</i>
   <i name="OMEGAMIN">    -30.00000000</i>
   <i name="OMEGATL">   -200.00000000</i>
   <i type="int" name="OMEGAGRID">     0</i>
   <i name="CSHIFT">     -0.10000000</i>
   <i type="logical" name="LSELFENERGY"> F  </i>
   <i type="logical" name="LSPECTRAL"> F  </i>
   <i type="logical" name="LSPECTRALGW"> F  </i>
   <i type="logical" name="LSINGLES"> F  </i>
   <i type="logical" name="LFERMIGW"> F  </i>
   <i type="logical" name="ODDONLYGW"> F  </i>
   <i type="logical" name="EVENONLYGW"> F  </i>
   <i type="int" name="NKREDLFX">     1</i>
   <i type="int" name="NKREDLFY">     1</i>
   <i type="int" name="NKREDLFZ">     1</i>
   <i type="int" name="MAXMEM">  2800</i>
   <i type="int" name="TELESCOPE">     0</i>
   <i type="int" name="NTAUPAR">    -1</i>
   <i type="int" name="NOMEGAPAR">    -1</i>
   <i name="DAMP_NEWTON">      0.80000001</i>
   <i name="LAMBDA">      1.00000000</i>
  </separator>
  <separator name="External order field" >
   <i name="OFIELD_KAPPA">      0.00000000</i>
   <v name="OFIELD_K">      0.00000000      0.00000000      0.00000000</v>
   <i name="OFIELD_Q6_NEAR">      0.00000000</i>
   <i name="OFIELD_Q6_FAR">      0.00000000</i>
   <i name="OFIELD_A">      0.00000000</i>
  </separator>
  <separator name="optional k-points parameters" >
   <i type="int" name="KPOINTS_OPT_MODE">     1</i>
   <i type="logical" name="LKPOINTS_OPT"> F  </i>
  </separator>
 </parameters>
 <atominfo>
  <atoms>      10 </atoms>
  <types>       2 </types>
  <array name="atoms" >
   <dimension dim="1">ion</dimension>
   <field type="string">element</field>
   <field type="int">atomtype</field>
   <set>
    <rc><c>Cu</c><c>   1</c></rc>
    <rc><c>Cu</c><c>   1</c></rc>
    <rc><c>Cu</c><c>   1</c></rc>
    <rc><c>Cu</c><c>   1</c></rc>
    <rc><c>Cu</c><c>   1</c></rc>
    <rc><c>Cu</c><c>   1</c></rc>
    <rc><c>Cu</c><c>   1</c></rc>
    <rc><c>Cu</c><c>   1</c></rc>
    <rc><c>H </c><c>   2</c></rc>
    <rc><c>H </c><c>   2</c></rc>
   </set>
  </array>
  <array name="atomtypes" >
   <dimension dim="1">type</dimension>
   <field type="int">atomspertype</field>
   <field type="string">element</field>
   <field>mass</field>
   <field>valence</field>
   <field type="string">pseudopotential</field>
   <set>
    <rc><c>   8</c><c>Cu</c><c>     63.54600000</c><c>     11.00000000</c><c>  PAW_PBE Cu 22Jun2005                  </c></rc>
    <rc><c>   2</c><c>H </c><c>      1.00000000</c><c>      1.00000000</c><c>  PAW_PBE H 15Jun2001                   </c></rc>
   </set>
  </array>
 </atominfo>
 <structure name="initialpos" >
  <crystal>
   <varray name="basis" >
    <v>       3.63000011       0.00000000       0.00000000 </v>
    <v>       0.00000000       2.56679773       0.00000000 </v>
    <v>       0.00000000       0.00000000      23.98379135 </v>
   </varray>
   <i name="volume">    223.46840188 </i>
   <varray name="rec_basis" >
    <v>       0.27548208       0.00000000       0.00000000 </v>
    <v>       0.00000000       0.38959050       0.00000000 </v>
    <v>       0.00000000       0.00000000       0.04169483 </v>
   </varray>
  </crystal>
  <varray name="positions" >
   <v>       0.00000000       0.00000000       0.00000000 </v>
   <v>       0.50000000       0.50000000       0.05351109 </v>
   <v>       0.00000000       0.00000000       0.10468148 </v>
   <v>       0.50000000       0.50000000       0.15792996 </v>
   <v>       0.00000000       0.00000000       0.21070899 </v>
   <v>       0.50000000       0.50000000       0.26289048 </v>
   <v>       0.00000000       0.00000000       0.31711592 </v>
   <v>       0.50000000       0.50000000       0.36467590 </v>
   <v>       0.50000000       0.00000000       0.42690792 </v>
   <v>       0.50000000       0.29063451       0.42690792 </v>
  </varray>
 </structure>
 <calculation>
  <scstep>
   <time name="dav">    0.32    0.32</time>
   <time name="total">    0.34    0.35</time>
   <energy>
    <i name="alphaZ">    216.17040255 </i>
    <i name="ewald">  42530.71606648 </i>
    <i name="hartreedc"> -53347.76994256 </i>
    <i name="XCdc">    371.83846387 </i>
    <i name="pawpsdc">   9828.36862813 </i>
    <i name="pawaedc"> -10674.97285505 </i>
    <i name="eentropy">     -0.00623722 </i>
    <i name="bandstr">    698.28924791 </i>
    <i name="atom">  11152.61838693 </i>
    <i name="e_fr_energy">    775.25216103 </i>
    <i name="e_wo_entrp">    775.25839825 </i>
    <i name="e_0_energy">    775.25424011 </i>
   </energy>
  </scstep>
  <scstep>
   <time name="dav">    0.30    0.31</time>
   <time name="total">    0.31    0.31</time>
   <energy>
    <i name="e_fr_energy">     58.81085957 </i>
    <i name="e_wo_entrp">     58.81023378 </i>
    <i name="e_0_energy">     58.81065097 </i>
   </energy>
  </scstep>
  <scstep>
   <time name="dav">    0.31    0.32</time>
   <time name="total">    0.31    0.32</time>
   <energy>
    <i name="e_fr_energy">    -31.80670540 </i>
    <i name="e_wo_entrp">    -31.82126976 </i>
    <i name="e_0_energy">    -31.81156019 </i>
   </energy>
  </scstep>
  <scstep>
   <time name="dav">    0.35    0.35</time>
   <time name="total">    0.35    0.35</time>
   <energy>
    <i name="e_fr_energy">    -35.62191132 </i>
    <i name="e_wo_entrp">    -35.63608469 </i>
    <i name="e_0_energy">    -35.62663578 </i>
   </energy>
  </scstep>
  <scstep>
   <time name="dav">    0.35    0.36</time>
   <time name="total">    0.41    0.42</time>
   <energy>
    <i name="e_fr_energy">    -35.71479878 </i>
    <i name="e_wo_entrp">    -35.72895427 </i>
    <i name="e_0_energy">    -35.71951728 </i>
   </energy>
  </scstep>
  <scstep>
   <time name="dav">    0.33    0.34</time>
   <time name="total">    0.41    0.41</time>
   <energy>
    <i name="e_fr_energy">    -27.93726567 </i>
    <i name="e_wo_entrp">    -27.93621106 </i>
    <i name="e_0_energy">    -27.93691413 </i>
   </energy>
  </scstep>
  <scstep>
   <time name="dav">    0.35    0.35</time>
   <time name="total">    0.42    0.43</time>
   <energy>
    <i name="e_fr_energy">    -26.05466414 </i>
    <i name="e_wo_entrp">    -26.05673357 </i>
    <i name="e_0_energy">    -26.05535395 </i>
   </energy>
  </scstep>
  <scstep>
   <time name="dav">    0.39    0.39</time>
   <time name="total">    0.46    0.47</time>
   <energy>
    <i name="e_fr_energy">    -25.68719249 </i>
    <i name="e_wo_entrp">    -25.69015204 </i>
    <i name="e_0_energy">    -25.68817901 </i>
   </energy>
  </scstep>
  <scstep>
   <time name="dav">    0.45    0.45</time>
   <time name="total">    0.53    0.53</time>
   <energy>
    <i name="e_fr_energy">    -25.72235906 </i>
    <i name="e_wo_entrp">    -25.72275795 </i>
    <i name="e_0_energy">    -25.72249202 </i>
   </energy>
  </scstep>
  <scstep>
   <time name="dav">    0.39    0.39</time>
   <time name="total">    0.47    0.47</time>
   <energy>
    <i name="e_fr_energy">    -26.29764654 </i>
    <i name="e_wo_entrp">    -26.29765252 </i>
    <i name="e_0_energy">    -26.29764853 </i>
   </energy>
  </scstep>
  <scstep>
   <time name="dav">    0.39    0.40</time>
   <time name="total">    0.47    0.48</time>
   <energy>
    <i name="e_fr_energy">    -28.12834363 </i>
    <i name="e_wo_entrp">    -28.11737171 </i>
    <i name="e_0_energy">    -28.12468632 </i>
   </energy>
  </scstep>
  <scstep>
   <time name="dav">    0.36    0.36</time>
   <time name="total">    0.43    0.44</time>
   <energy>
    <i name="e_fr_energy">    -29.44331149 </i>
    <i name="e_wo_entrp">    -29.42933495 </i>
    <i name="e_0_energy">    -29.43865264 </i>
   </energy>
  </scstep>
  <scstep>
   <time name="dav">    0.40    0.40</time>
   <time name="total">    0.47    0.47</time>
   <energy>
    <i name="e_fr_energy">    -31.86658470 </i>
    <i name="e_wo_entrp">    -31.85620020 </i>
    <i name="e_0_energy">    -31.86312320 </i>
   </energy>
  </scstep>
  <scstep>
   <time name="dav">    0.34    0.35</time>
   <time name="total">    0.42    0.42</time>
   <energy>
    <i name="e_fr_energy">    -33.34056563 </i>
    <i name="e_wo_entrp">    -33.32536206 </i>
    <i name="e_0_energy">    -33.33549777 </i>
   </energy>
  </scstep>
  <scstep>
   <time name="dav">    0.35    0.35</time>
   <time name="total">    0.42    0.43</time>
   <energy>
    <i name="e_fr_energy">    -33.92876362 </i>
    <i name="e_wo_entrp">    -33.92226419 </i>
    <i name="e_0_energy">    -33.92659714 </i>
   </energy>
  </scstep>
  <scstep>
   <time name="dav">    0.33    0.33</time>
   <time name="total">    0.41    0.41</time>
   <energy>
    <i name="e_fr_energy">    -34.22875010 </i>
    <i name="e_wo_entrp">    -34.23407555 </i>
    <i name="e_0_energy">    -34.23052525 </i>
   </energy>
  </scstep>
  <scstep>
   <time name="dav">    0.34    0.35</time>
   <time name="total">    0.42    0.42</time>
   <energy>
    <i name="e_fr_energy">    -34.40909171 </i>
    <i name="e_wo_entrp">    -34.41894289 </i>
    <i name="e_0_energy">    -34.41237543 </i>
   </energy>
  </scstep>
  <scstep>
   <time name="dav">    0.34    0.34</time>
   <time name="total">    0.41    0.42</time>
   <energy>
    <i name="e_fr_energy">    -34.48434127 </i>
    <i name="e_wo_entrp">    -34.49505149 </i>
    <i name="e_0_energy">    -34.48791134 </i>
   </energy>
  </scstep>
  <scstep>
   <time name="dav">    0.33    0.33</time>
   <time name="total">    0.40    0.40</time>
   <energy>
    <i name="e_fr_energy">    -34.54308787 </i>
    <i name="e_wo_entrp">    -34.55541496 </i>
    <i name="e_0_energy">    -34.54719690 </i>
   </energy>
  </scstep>
  <scstep>
   <time name="dav">    0.34    0.35</time>
   <time name="total">    0.42    0.42</time>
   <energy>
    <i name="e_fr_energy">    -34.58622641 </i>
    <i name="e_wo_entrp">    -34.59852939 </i>
    <i name="e_0_energy">    -34.59032740 </i>
   </energy>
  </scstep>
  <scstep>
   <time name="dav">    0.34    0.34</time>
   <time name="total">    0.42    0.42</time>
   <energy>
    <i name="e_fr_energy">    -34.62321222 </i>
    <i name="e_wo_entrp">    -34.63600387 </i>
    <i name="e_0_energy">    -34.62747610 </i>
   </energy>
  </scstep>
  <scstep>
   <time name="dav">    0.34    0.34</time>
   <time name="total">    0.42    0.42</time>
   <energy>
    <i name="e_fr_energy">    -34.66625999 </i>
    <i name="e_wo_entrp">    -34.67945191 </i>
    <i name="e_0_energy">    -34.67065730 </i>
   </energy>
  </scstep>
  <scstep>
   <time name="dav">    0.29    0.29</time>
   <time name="total">    0.37    0.37</time>
   <energy>
    <i name="e_fr_energy">    -34.70075408 </i>
    <i name="e_wo_entrp">    -34.71383694 </i>
    <i name="e_0_energy">    -34.70511503 </i>
   </energy>
  </scstep>
  <scstep>
   <time name="dav">    0.28    0.28</time>
   <time name="total">    0.36    0.36</time>
   <energy>
    <i name="e_fr_energy">    -34.73176805 </i>
    <i name="e_wo_entrp">    -34.74472511 </i>
    <i name="e_0_energy">    -34.73608707 </i>
   </energy>
  </scstep>
  <scstep>
   <time name="dav">    0.29    0.29</time>
   <time name="total">    0.37    0.37</time>
   <energy>
    <i name="e_fr_energy">    -34.75289989 </i>
    <i name="e_wo_entrp">    -34.76602430 </i>
    <i name="e_0_energy">    -34.75727469 </i>
   </energy>
  </scstep>
  <scstep>
   <time name="dav">    0.27    0.28</time>
   <time name="total">    0.35    0.36</time>
   <energy>
    <i name="e_fr_energy">    -34.76050902 </i>
    <i name="e_wo_entrp">    -34.77363974 </i>
    <i name="e_0_energy">    -34.76488593 </i>
   </energy>
  </scstep>
  <scstep>
   <time name="dav">    0.25    0.25</time>
   <time name="total">    0.33    0.33</time>
   <energy>
    <i name="e_fr_energy">    -34.76143302 </i>
    <i name="e_wo_entrp">    -34.77451673 </i>
    <i name="e_0_energy">    -34.76579426 </i>
   </energy>
  </scstep>
  <scstep>
   <time name="dav">    0.24    0.25</time>
   <time name="total">    0.27    0.27</time>
   <energy>
    <i name="alphaZ">    216.17040255 </i>
    <i name="ewald">  42530.71606648 </i>
    <i name="hartreedc"> -53286.02887859 </i>
    <i name="XCdc">    362.50697259 </i>
    <i name="pawpsdc">  10540.51660451 </i>
    <i name="pawaedc"> -11402.70178162 </i>
    <i name="eentropy">      0.01305193 </i>
    <i name="bandstr">   -148.57241922 </i>
    <i name="atom">  11152.61838693 </i>
    <i name="e_fr_energy">    -34.76159445 </i>
    <i name="e_wo_entrp">    -34.77464638 </i>
    <i name="e_0_energy">    -34.76594509 </i>
   </energy>
  </scstep>
  <structure>
   <crystal>
    <varray name="basis" >
     <v>       3.63000011       0.00000000       0.00000000 </v>
     <v>       0.00000000       2.56679773       0.00000000 </v>
     <v>       0.00000000       0.00000000      23.98379135 </v>
    </varray>
    <i name="volume">    223.46840188 </i>
    <varray name="rec_basis" >
     <v>       0.27548208       0.00000000       0.00000000 </v>
     <v>       0.00000000       0.38959050       0.00000000 </v>
     <v>       0.00000000       0.00000000       0.04169483 </v>
    </varray>
   </crystal>
   <varray name="positions" >
    <v>       0.00000000       0.00000000       0.00000000 </v>
    <v>       0.50000000       0.50000000       0.05351109 </v>
    <v>       0.00000000       0.00000000       0.10468148 </v>
    <v>       0.50000000       0.50000000       0.15792996 </v>
    <v>       0.00000000       0.00000000       0.21070899 </v>
    <v>       0.50000000       0.50000000       0.26289048 </v>
    <v>       0.00000000       0.00000000       0.31711592 </v>
    <v>       0.50000000       0.50000000       0.36467590 </v>
    <v>       0.50000000       0.00000000       0.42690792 </v>
    <v>       0.50000000       0.29063451       0.42690792 </v>
   </varray>
  </structure>
  <varray name="forces" >
   <v>       0.00000000      -0.00041811       0.54110718 </v>
   <v>       0.00000000      -0.00053757      -0.51223016 </v>
   <v>       0.00000000       0.00333935       0.02915604 </v>
   <v>       0.00000000      -0.00566602       0.15445419 </v>
   <v>       0.00000000      -0.00209457      -0.32944747 </v>
   <v>       0.00000000       0.02611693       0.09323579 </v>
   <v>       0.00000000      -0.06466526      -0.17534248 </v>
   <v>       0.00000000      -0.25422626      -1.30349331 </v>
   <v>       0.00000000      -1.35571290       0.01457768 </v>
   <v>       0.00000000       1.65386442       1.48798253 </v>
  </varray>
  <varray name="stress" >
   <v>     -37.19616510       0.00000000       0.00000000 </v>
   <v>       0.00000000     -18.04324548       3.39779661 </v>
   <v>       0.00000000       3.39779658       7.11176083 </v>
  </varray>
  <energy>
   <i name="e_fr_energy">    -37.98029082 </i>
   <i name="e_wo_entrp">    -37.99334274 </i>
   <i name="e_0_energy">    -37.98464146 </i>
  </energy>
  <time name="totalsc">   11.67   11.78</time>
 </calculation>
 <calculation>
  <scstep>
   <time name="dav">    0.31    0.32</time>
   <time name="total">    0.39    0.39</time>
   <energy>
    <i name="alphaZ">    216.17040255 </i>
    <i name="ewald">  42840.78689625 </i>
    <i name="hartreedc"> -53598.58708487 </i>
    <i name="XCdc">    362.45157042 </i>
    <i name="pawpsdc">  10540.53327203 </i>
    <i name="pawaedc"> -11402.71713972 </i>
    <i name="eentropy">      0.02031741 </i>
    <i name="bandstr">   -146.10212179 </i>
    <i name="atom">  11152.61838693 </i>
    <i name="e_fr_energy">    -34.82550079 </i>
    <i name="e_wo_entrp">    -34.84581820 </i>
    <i name="e_0_energy">    -34.83227326 </i>
   </energy>
  </scstep>
  <scstep>
   <time name="dav">    0.42    0.42</time>
   <time name="total">    0.49    0.50</time>
   <energy>
    <i name="e_fr_energy">    -34.89674866 </i>
    <i name="e_wo_entrp">    -34.91283194 </i>
    <i name="e_0_energy">    -34.90210975 </i>
   </energy>
  </scstep>
  <scstep>
   <time name="dav">    0.37    0.37</time>
   <time name="total">    0.44    0.45</time>
   <energy>
    <i name="e_fr_energy">    -34.88660196 </i>
    <i name="e_wo_entrp">    -34.90752469 </i>
    <i name="e_0_energy">    -34.89357621 </i>
   </energy>
  </scstep>
  <scstep>
   <time name="dav">    0.35    0.35</time>
   <time name="total">    0.43    0.43</time>
   <energy>
    <i name="e_fr_energy">    -34.88450523 </i>
    <i name="e_wo_entrp">    -34.90264798 </i>
    <i name="e_0_energy">    -34.89055281 </i>
   </energy>
  </scstep>
  <scstep>
   <time name="dav">    0.44    0.44</time>
   <time name="total">    0.51    0.52</time>
   <energy>
    <i name="e_fr_energy">    -34.88045619 </i>
    <i name="e_wo_entrp">    -34.90079805 </i>
    <i name="e_0_energy">    -34.88723681 </i>
   </energy>
  </scstep>
  <scstep>
   <time name="dav">    0.43    0.44</time>
   <time name="total">    0.51    0.51</time>
   <energy>
    <i name="e_fr_energy">    -34.88049734 </i>
    <i name="e_wo_entrp">    -34.90050638 </i>
    <i name="e_0_energy">    -34.88716702 </i>
   </energy>
  </scstep>
  <scstep>
   <time name="dav">    0.34    0.34</time>
   <time name="total">    0.41    0.42</time>
   <energy>
    <i name="e_fr_energy">    -34.88053466 </i>
    <i name="e_wo_entrp">    -34.90057532 </i>
    <i name="e_0_energy">    -34.88721488 </i>
   </energy>
  </scstep>
  <scstep>
   <time name="dav">    0.30    0.30</time>
   <time name="total">    0.32    0.32</time>
   <energy>
    <i name="alphaZ">    216.17040255 </i>
    <i name="ewald">  42840.78689625 </i>
    <i name="hartreedc"> -53592.72093936 </i>
    <i name="XCdc">    362.26696803 </i>
    <i name="pawpsdc">  10541.68854680 </i>
    <i name="pawaedc"> -11404.06842174 </i>
    <i name="eentropy">      0.02003916 </i>
    <i name="bandstr">   -151.64247207 </i>
    <i name="atom">  11152.61838693 </i>
    <i name="e_fr_energy">    -34.88059345 </i>
    <i name="e_wo_entrp">    -34.90063261 </i>
    <i name="e_0_energy">    -34.88727317 </i>
   </energy>
  </scstep>
  <structure>
   <crystal>
    <varray name="basis" >
     <v>       3.63000011       0.00000000       0.00000000 </v>
     <v>       0.00000000       2.56679773       0.00000000 </v>
     <v>       0.00000000       0.00000000      23.98379135 </v>
    </varray>
    <i name="volume">    223.46840188 </i>
    <varray name="rec_basis" >
     <v>       0.27548208       0.00000000       0.00000000 </v>
     <v>       0.00000000       0.38959050       0.00000000 </v>
     <v>       0.00000000       0.00000000       0.04169483 </v>
    </varray>
   </crystal>
   <varray name="positions" >
    <v>       0.00000000      -0.00000786       0.00108842 </v>
    <v>       0.50000000       0.49998990       0.05248076 </v>
    <v>       0.00000000       0.00006276       0.10474012 </v>
    <v>       0.50000000       0.49989351       0.15824064 </v>
    <v>       0.00000000      -0.00003937       0.21004632 </v>
    <v>       0.50000000       0.50049086       0.26307802 </v>
    <v>       0.00000000      -0.00121538       0.31676322 </v>
    <v>       0.50000000       0.49522185       0.36205396 </v>
    <v>       0.50000000      -0.02548046       0.42693724 </v>
    <v>       0.50000000       0.32171869       0.42990095 </v>
   </varray>
  </structure>
  <varray name="forces" >
   <v>       0.00000000      -0.00081065       0.36675499 </v>
   <v>       0.00000000      -0.00043736      -0.29953073 </v>
   <v>       0.00000000       0.00196078       0.02421657 </v>
   <v>       0.00000000      -0.00459322       0.03370773 </v>
   <v>       0.00000000       0.00017557      -0.23820751 </v>
   <v>       0.00000000       0.01606850      -0.20416989 </v>
   <v>       0.00000000      -0.08000639      -0.27841461 </v>
   <v>       0.00000000      -0.36398514      -0.07640245 </v>
   <v>       0.00000000       1.27511766      -0.04083730 </v>
   <v>       0.00000000      -0.84348976       0.71288320 </v>
  </varray>
  <varray name="stress" >
   <v>     -33.08628339       0.00000000       0.00000000 </v>
   <v>       0.00000000     -34.28488586       4.83140243 </v>
   <v>       0.00000000       4.83140242       5.85064345 </v>
  </varray>
  <energy>
   <i name="e_fr_energy">    -38.12275290 </i>
   <i name="e_wo_entrp">    -38.14279206 </i>
   <i name="e_0_energy">    -38.12943262 </i>
  </energy>
  <time name="totalsc">    4.00    4.09</time>
 </calculation>
 <calculation>
  <scstep>
   <time name="dav">    0.32    0.32</time>
   <time name="total">    0.39    0.40</time>
   <energy>
    <i name="alphaZ">    216.17040255 </i>
    <i name="ewald">  42769.46273743 </i>
    <i name="hartreedc"> -53520.64926852 </i>
    <i name="XCdc">    362.27713955 </i>
    <i name="pawpsdc">  10542.18087858 </i>
    <i name="pawaedc"> -11404.57145224 </i>
    <i name="eentropy">      0.01897135 </i>
    <i name="bandstr">   -152.40433962 </i>
    <i name="atom">  11152.61838693 </i>
    <i name="e_fr_energy">    -34.89654400 </i>
    <i name="e_wo_entrp">    -34.91551534 </i>
    <i name="e_0_energy">    -34.90286778 </i>
   </energy>
  </scstep>
  <scstep>
   <time name="dav">    0.39    0.39</time>
   <time name="total">    0.46    0.47</time>
   <energy>
    <i name="e_fr_energy">    -34.89988637 </i>
    <i name="e_wo_entrp">    -34.91950120 </i>
    <i name="e_0_energy">    -34.90642465 </i>
   </energy>
  </scstep>
  <scstep>
   <time name="dav">    0.34    0.34</time>
   <time name="total">    0.41    0.42</time>
   <energy>
    <i name="e_fr_energy">    -34.90001746 </i>
    <i name="e_wo_entrp">    -34.91839746 </i>
    <i name="e_0_energy">    -34.90614413 </i>
   </energy>
  </scstep>
  <scstep>
   <time name="dav">    0.33    0.34</time>
   <time name="total">    0.41    0.41</time>
   <energy>
    <i name="e_fr_energy">    -34.89965363 </i>
    <i name="e_wo_entrp">    -34.91881325 </i>
    <i name="e_0_energy">    -34.90604017 </i>
   </energy>
  </scstep>
  <scstep>
   <time name="dav">    0.27    0.27</time>
   <time name="total">    0.29    0.30</time>
   <energy>
    <i name="alphaZ">    216.17040255 </i>
    <i name="ewald">  42769.46273743 </i>
    <i name="hartreedc"> -53521.30008631 </i>
    <i name="XCdc">    362.31373977 </i>
    <i name="pawpsdc">  10541.74273530 </i>
    <i name="pawaedc"> -11404.09157670 </i>
    <i name="eentropy">      0.01896325 </i>
    <i name="bandstr">   -151.83492367 </i>
    <i name="atom">  11152.61838693 </i>
    <i name="e_fr_energy">    -34.89962145 </i>
    <i name="e_wo_entrp">    -34.91858469 </i>
    <i name="e_0_energy">    -34.90594253 </i>
   </energy>
  </scstep>
  <structure>
   <crystal>
    <varray name="basis" >
     <v>       3.63000011       0.00000000       0.00000000 </v>
     <v>       0.00000000       2.56679773       0.00000000 </v>
     <v>       0.00000000       0.00000000      23.98379135 </v>
    </varray>
    <i name="volume">    223.46840188 </i>
    <varray name="rec_basis" >
     <v>       0.27548208       0.00000000       0.00000000 </v>
     <v>       0.00000000       0.38959050       0.00000000 </v>
     <v>       0.00000000       0.00000000       0.04169483 </v>
    </varray>
   </crystal>
   <varray name="positions" >
    <v>       0.00000000      -0.00000606       0.00083903 </v>
    <v>       0.50000000       0.49999221       0.05271684 </v>
    <v>       0.00000000       0.00004838       0.10472668 </v>
    <v>       0.50000000       0.49991791       0.15816945 </v>
    <v>       0.00000000      -0.00003035       0.21019816 </v>
    <v>       0.50000000       0.50037839       0.26303505 </v>
    <v>       0.00000000      -0.00093690       0.31684403 </v>
    <v>       0.50000000       0.49631667       0.36265473 </v>
    <v>       0.50000000      -0.01964210       0.42693052 </v>
    <v>       0.50000000       0.31459635       0.42921516 </v>
   </varray>
  </structure>
  <varray name="forces" >
   <v>       0.00000000       0.00010768       0.43714444 </v>
   <v>       0.00000000       0.00025805      -0.37291218 </v>
   <v>       0.00000000       0.00337166       0.03053450 </v>
   <v>       0.00000000      -0.00471697       0.07370730 </v>
   <v>       0.00000000       0.00039603      -0.27832586 </v>
   <v>       0.00000000       0.02049710      -0.12240982 </v>
   <v>       0.00000000      -0.07731347      -0.25999676 </v>
   <v>       0.00000000      -0.36401724      -0.32862793 </v>
   <v>       0.00000000       1.00465197      -0.06816178 </v>
   <v>       0.00000000      -0.58323480       0.88904809 </v>
  </varray>
  <varray name="stress" >
   <v>     -34.54729610       0.00000000       0.00000000 </v>
   <v>       0.00000000     -32.45621825       4.78468286 </v>
   <v>       0.00000000       4.78468293       5.74186910 </v>
  </varray>
  <energy>
   <i name="e_fr_energy">    -38.13049709 </i>
   <i name="e_wo_entrp">    -38.14946033 </i>
   <i name="e_0_energy">    -38.13681817 </i>
  </energy>
  <time name="totalsc">    2.46    2.50</time>
 </calculation>
 <calculation>
  <scstep>
   <time name="dav">    0.32    0.32</time>
   <time name="total">    0.39    0.40</time>
   <energy>
    <i name="alphaZ">    216.17040255 </i>
    <i name="ewald">  43004.65416535 </i>
    <i name="hartreedc"> -53756.62388937 </i>
    <i name="XCdc">    362.36173880 </i>
    <i name="pawpsdc">  10541.68286992 </i>
    <i name="pawaedc"> -11404.01834206 </i>
    <i name="eentropy">      0.02072737 </i>
    <i name="bandstr">   -151.83003547 </i>
    <i name="atom">  11152.61838693 </i>
    <i name="e_fr_energy">    -34.96397600 </i>
    <i name="e_wo_entrp">    -34.98470337 </i>
    <i name="e_0_energy">    -34.97088512 </i>
   </energy>
  </scstep>
  <scstep>
   <time name="dav">    0.38    0.39</time>
   <time name="total">    0.46    0.46</time>
   <energy>
    <i name="e_fr_energy">    -35.00624448 </i>
    <i name="e_wo_entrp">    -35.02656122 </i>
    <i name="e_0_energy">    -35.01301673 </i>
   </energy>
  </scstep>
  <scstep>
   <time name="dav">    0.35    0.35</time>
   <time name="total">    0.42    0.42</time>
   <energy>
    <i name="e_fr_energy">    -35.00533271 </i>
    <i name="e_wo_entrp">    -35.02607974 </i>
    <i name="e_0_energy">    -35.01224839 </i>
   </energy>
  </scstep>
  <scstep>
   <time name="dav">    0.36    0.36</time>
   <time name="total">    0.43    0.44</time>
   <energy>
    <i name="e_fr_energy">    -35.00447744 </i>
    <i name="e_wo_entrp">    -35.02509132 </i>
    <i name="e_0_energy">    -35.01134873 </i>
   </energy>
  </scstep>
  <scstep>
   <time name="dav">    0.40    0.41</time>
   <time name="total">    0.48    0.48</time>
   <energy>
    <i name="e_fr_energy">    -35.00402267 </i>
    <i name="e_wo_entrp">    -35.02484414 </i>
    <i name="e_0_energy">    -35.01096316 </i>
   </energy>
  </scstep>
  <scstep>
   <time name="dav">    0.32    0.33</time>
   <time name="total">    0.40    0.40</time>
   <energy>
    <i name="e_fr_energy">    -35.00371423 </i>
    <i name="e_wo_entrp">    -35.02436925 </i>
    <i name="e_0_energy">    -35.01059924 </i>
   </energy>
  </scstep>
  <scstep>
   <time name="dav">    0.31    0.32</time>
   <time name="total">    0.34    0.34</time>
   <energy>
    <i name="alphaZ">    216.17040255 </i>
    <i name="ewald">  43004.65416535 </i>
    <i name="hartreedc"> -53756.26529618 </i>
    <i name="XCdc">    362.38494984 </i>
    <i name="pawpsdc">  10550.28744971 </i>
    <i name="pawaedc"> -11412.79756045 </i>
    <i name="eentropy">      0.02069229 </i>
    <i name="bandstr">   -152.07695902 </i>
    <i name="atom">  11152.61838693 </i>
    <i name="e_fr_energy">    -35.00376899 </i>
    <i name="e_wo_entrp">    -35.02446128 </i>
    <i name="e_0_energy">    -35.01066642 </i>
   </energy>
  </scstep>
  <structure>
   <crystal>
    <varray name="basis" >
     <v>       3.63000011       0.00000000       0.00000000 </v>
     <v>       0.00000000       2.56679773       0.00000000 </v>
     <v>       0.00000000       0.00000000      23.98379135 </v>
    </varray>
    <i name="volume">    223.46840188 </i>
    <varray name="rec_basis" >
     <v>       0.27548208       0.00000000       0.00000000 </v>
     <v>       0.00000000       0.38959050       0.00000000 </v>
     <v>       0.00000000       0.00000000       0.04169483 </v>
    </varray>
   </crystal>
   <varray name="positions" >
    <v>       0.00000000      -0.00000639       0.00199132 </v>
    <v>       0.50000000       0.49999393       0.05170455 </v>
    <v>       0.00000000       0.00012691       0.10480217 </v>
    <v>       0.50000000       0.49980266       0.15840034 </v>
    <v>       0.00000000      -0.00003458       0.20947323 </v>
    <v>       0.50000000       0.50088727       0.26285409 </v>
    <v>       0.00000000      -0.00267323       0.31624351 </v>
    <v>       0.50000000       0.48841323       0.36126932 </v>
    <v>       0.50000000      -0.00895920       0.42680814 </v>
    <v>       0.50000000       0.31308390       0.43178299 </v>
   </varray>
  </structure>
  <varray name="forces" >
   <v>       0.00000000      -0.00066833       0.23748674 </v>
   <v>       0.00000000      -0.00014544      -0.15808512 </v>
   <v>       0.00000000       0.00082435       0.01742711 </v>
   <v>       0.00000000      -0.00266935      -0.06598469 </v>
   <v>       0.00000000       0.00151411      -0.15450110 </v>
   <v>       0.00000000       0.01218142      -0.26192420 </v>
   <v>       0.00000000      -0.11079309      -0.24197490 </v>
   <v>       0.00000000      -0.35572128       0.08667407 </v>
   <v>       0.00000000       0.88327394      -0.03345447 </v>
   <v>       0.00000000      -0.42779634       0.57433656 </v>
  </varray>
  <varray name="stress" >
   <v>     -32.27957444       0.00000000       0.00000000 </v>
   <v>       0.00000000     -30.87154163       5.40199776 </v>
   <v>       0.00000000       5.40199774       6.65580732 </v>
  </varray>
  <energy>
   <i name="e_fr_energy">    -38.23752092 </i>
   <i name="e_wo_entrp">    -38.25821321 </i>
   <i name="e_0_energy">    -38.24441835 </i>
  </energy>
  <time name="totalsc">    3.41    3.48</time>
 </calculation>
 <calculation>
  <scstep>
   <time name="dav">    0.31    0.32</time>
   <time name="total">    0.40    0.40</time>
   <energy>
    <i name="alphaZ">    216.17040255 </i>
    <i name="ewald">  43395.13999114 </i>
    <i name="hartreedc"> -54146.55164622 </i>
    <i name="XCdc">    362.49671725 </i>
    <i name="pawpsdc">  10550.33846206 </i>
    <i name="pawaedc"> -11412.85030150 </i>
    <i name="eentropy">      0.01658564 </i>
    <i name="bandstr">   -152.34494057 </i>
    <i name="atom">  11152.61838693 </i>
    <i name="e_fr_energy">    -34.96634273 </i>
    <i name="e_wo_entrp">    -34.98292836 </i>
    <i name="e_0_energy">    -34.97187127 </i>
   </energy>
  </scstep>
  <scstep>
   <time name="dav">    0.39    0.39</time>
   <time name="total">    0.47    0.47</time>
   <energy>
    <i name="e_fr_energy">    -35.08914296 </i>
    <i name="e_wo_entrp">    -35.10472896 </i>
    <i name="e_0_energy">    -35.09433829 </i>
   </energy>
  </scstep>
  <scstep>
   <time name="dav">    0.34    0.34</time>
   <time name="total">    0.41    0.42</time>
   <energy>
    <i name="e_fr_energy">    -35.08434723 </i>
    <i name="e_wo_entrp">    -35.10089904 </i>
    <i name="e_0_energy">    -35.08986450 </i>
   </energy>
  </scstep>
  <scstep>
   <time name="dav">    0.37    0.37</time>
   <time name="total">    0.44    0.44</time>
   <energy>
    <i name="e_fr_energy">    -35.08270807 </i>
    <i name="e_wo_entrp">    -35.09854693 </i>
    <i name="e_0_energy">    -35.08798769 </i>
   </energy>
  </scstep>
  <scstep>
   <time name="dav">    0.38    0.38</time>
   <time name="total">    0.45    0.46</time>
   <energy>
    <i name="e_fr_energy">    -35.08149707 </i>
    <i name="e_wo_entrp">    -35.09829970 </i>
    <i name="e_0_energy">    -35.08709795 </i>
   </energy>
  </scstep>
  <scstep>
   <time name="dav">    0.37    0.37</time>
   <time name="total">    0.44    0.45</time>
   <energy>
    <i name="e_fr_energy">    -35.08054749 </i>
    <i name="e_wo_entrp">    -35.09649922 </i>
    <i name="e_0_energy">    -35.08586473 </i>
   </energy>
  </scstep>
  <scstep>
   <time name="dav">    0.38    0.38</time>
   <time name="total">    0.46    0.46</time>
   <energy>
    <i name="e_fr_energy">    -35.08073279 </i>
    <i name="e_wo_entrp">    -35.09683084 </i>
    <i name="e_0_energy">    -35.08609881 </i>
   </energy>
  </scstep>
  <scstep>
   <time name="dav">    0.25    0.26</time>
   <time name="total">    0.28    0.28</time>
   <energy>
    <i name="alphaZ">    216.17040255 </i>
    <i name="ewald">  43395.13999114 </i>
    <i name="hartreedc"> -54144.57592667 </i>
    <i name="XCdc">    362.50425135 </i>
    <i name="pawpsdc">  10570.92602745 </i>
    <i name="pawaedc"> -11433.83312656 </i>
    <i name="eentropy">      0.01613676 </i>
    <i name="bandstr">   -154.04687848 </i>
    <i name="atom">  11152.61838693 </i>
    <i name="e_fr_energy">    -35.08073553 </i>
    <i name="e_wo_entrp">    -35.09687229 </i>
    <i name="e_0_energy">    -35.08611445 </i>
   </energy>
  </scstep>
  <structure>
   <crystal>
    <varray name="basis" >
     <v>       3.63000011       0.00000000       0.00000000 </v>
     <v>       0.00000000       2.56679773       0.00000000 </v>
     <v>       0.00000000       0.00000000      23.98379135 </v>
    </varray>
    <i name="volume">    223.46840188 </i>
    <varray name="rec_basis" >
     <v>       0.27548208       0.00000000       0.00000000 </v>
     <v>       0.00000000       0.38959050       0.00000000 </v>
     <v>       0.00000000       0.00000000       0.04169483 </v>
    </varray>
   </crystal>
   <varray name="positions" >
    <v>       0.00000000      -0.00000694       0.00389510 </v>
    <v>       0.50000000       0.49999677       0.05003207 </v>
    <v>       0.00000000       0.00025666       0.10492688 </v>
    <v>       0.50000000       0.49961226       0.15878181 </v>
    <v>       0.00000000      -0.00004156       0.20827552 </v>
    <v>       0.50000000       0.50172801       0.26255511 </v>
    <v>       0.00000000      -0.00554195       0.31525133 </v>
    <v>       0.50000000       0.47535538       0.35898038 </v>
    <v>       0.50000000       0.00869080       0.42660595 </v>
    <v>       0.50000000       0.31058507       0.43602549 </v>
   </varray>
  </structure>
  <varray name="forces" >
   <v>       0.00000000      -0.00023975      -0.07344397 </v>
   <v>       0.00000000       0.00013953       0.16171107 </v>
   <v>       0.00000000      -0.00135293       0.00608306 </v>
   <v>       0.00000000       0.00130738      -0.27015124 </v>
   <v>       0.00000000       0.00430495       0.06210711 </v>
   <v>       0.00000000       0.00771278      -0.52300289 </v>
   <v>       0.00000000      -0.16070776      -0.23468055 </v>
   <v>       0.00000000      -0.26306421       0.57161364 </v>
   <v>       0.00000000       0.61742755       0.00225429 </v>
   <v>       0.00000000      -0.20552754       0.29750949 </v>
  </varray>
  <varray name="stress" >
   <v>     -29.59905336       0.00000000       0.00000000 </v>
   <v>       0.00000000     -30.58264710       5.40117108 </v>
   <v>       0.00000000       5.40117109      10.16915925 </v>
  </varray>
  <energy>
   <i name="e_fr_energy">    -38.32179136 </i>
   <i name="e_wo_entrp">    -38.33792812 </i>
   <i name="e_0_energy">    -38.32717028 </i>
  </energy>
  <time name="totalsc">    3.84    3.91</time>
 </calculation>
 <calculation>
  <scstep>
   <time name="dav">    0.32    0.32</time>
   <time name="total">    0.39    0.40</time>
   <energy>
    <i name="alphaZ">    216.17040255 </i>
    <i name="ewald">  43520.37376987 </i>
    <i name="hartreedc"> -54269.66508379 </i>
    <i name="XCdc">    362.53944220 </i>
    <i name="pawpsdc">  10570.98824357 </i>
    <i name="pawaedc"> -11433.86832793 </i>
    <i name="eentropy">      0.01544402 </i>
    <i name="bandstr">   -154.24602854 </i>
    <i name="atom">  11152.61838693 </i>
    <i name="e_fr_energy">    -35.07375111 </i>
    <i name="e_wo_entrp">    -35.08919513 </i>
    <i name="e_0_energy">    -35.07889912 </i>
   </energy>
  </scstep>
  <scstep>
   <time name="dav">    0.38    0.38</time>
   <time name="total">    0.46    0.46</time>
   <energy>
    <i name="e_fr_energy">    -35.08445990 </i>
    <i name="e_wo_entrp">    -35.09963009 </i>
    <i name="e_0_energy">    -35.08951663 </i>
   </energy>
  </scstep>
  <scstep>
   <time name="dav">    0.33    0.33</time>
   <time name="total">    0.40    0.41</time>
   <energy>
    <i name="e_fr_energy">    -35.08417939 </i>
    <i name="e_wo_entrp">    -35.09959196 </i>
    <i name="e_0_energy">    -35.08931691 </i>
   </energy>
  </scstep>
  <scstep>
   <time name="dav">    0.31    0.32</time>
   <time name="total">    0.39    0.39</time>
   <energy>
    <i name="e_fr_energy">    -35.08401405 </i>
    <i name="e_wo_entrp">    -35.09930454 </i>
    <i name="e_0_energy">    -35.08911088 </i>
   </energy>
  </scstep>
  <scstep>
   <time name="dav">    0.31    0.32</time>
   <time name="total">    0.34    0.34</time>
   <energy>
    <i name="alphaZ">    216.17040255 </i>
    <i name="ewald">  43520.37376987 </i>
    <i name="hartreedc"> -54269.12657432 </i>
    <i name="XCdc">    362.54471551 </i>
    <i name="pawpsdc">  10577.67287087 </i>
    <i name="pawaedc"> -11440.68994212 </i>
    <i name="eentropy">      0.01548480 </i>
    <i name="bandstr">   -154.66303644 </i>
    <i name="atom">  11152.61838693 </i>
    <i name="e_fr_energy">    -35.08392235 </i>
    <i name="e_wo_entrp">    -35.09940715 </i>
    <i name="e_0_energy">    -35.08908395 </i>
   </energy>
  </scstep>
  <structure>
   <crystal>
    <varray name="basis" >
     <v>       3.63000011       0.00000000       0.00000000 </v>
     <v>       0.00000000       2.56679773       0.00000000 </v>
     <v>       0.00000000       0.00000000      23.98379135 </v>
    </varray>
    <i name="volume">    223.46840188 </i>
    <varray name="rec_basis" >
     <v>       0.27548208       0.00000000       0.00000000 </v>
     <v>       0.00000000       0.38959050       0.00000000 </v>
     <v>       0.00000000       0.00000000       0.04169483 </v>
    </varray>
   </crystal>
   <varray name="positions" >
    <v>       0.00000000      -0.00000711       0.00450361 </v>
    <v>       0.50000000       0.49999768       0.04949749 </v>
    <v>       0.00000000       0.00029813       0.10496675 </v>
    <v>       0.50000000       0.49955140       0.15890374 </v>
    <v>       0.00000000      -0.00004380       0.20789270 </v>
    <v>       0.50000000       0.50199674       0.26245955 </v>
    <v>       0.00000000      -0.00645889       0.31493420 </v>
    <v>       0.50000000       0.47118166       0.35824876 </v>
    <v>       0.50000000       0.01433233       0.42654132 </v>
    <v>       0.50000000       0.30978636       0.43738154 </v>
   </varray>
  </structure>
  <varray name="forces" >
   <v>       0.00000000      -0.00161816      -0.20625961 </v>
   <v>       0.00000000      -0.00118853       0.28619385 </v>
   <v>       0.00000000      -0.00340108       0.00639094 </v>
   <v>       0.00000000       0.00136700      -0.34334339 </v>
   <v>       0.00000000       0.00427079       0.12794894 </v>
   <v>       0.00000000       0.00680781      -0.63368073 </v>
   <v>       0.00000000      -0.18100492      -0.24254199 </v>
   <v>       0.00000000      -0.21202951       0.74408663 </v>
   <v>       0.00000000       0.55946899       0.01813017 </v>
   <v>       0.00000000      -0.17267237       0.24307518 </v>
  </varray>
  <varray name="stress" >
   <v>     -25.47797683       0.00000000       0.00000000 </v>
   <v>       0.00000000     -27.87214427       5.19244105 </v>
   <v>       0.00000000       5.19244102      14.07802394 </v>
  </varray>
  <energy>
   <i name="e_fr_energy">    -38.32778936 </i>
   <i name="e_wo_entrp">    -38.34327416 </i>
   <i name="e_0_energy">    -38.33295096 </i>
  </energy>
  <time name="totalsc">    2.47    2.54</time>
 </calculation>
 <calculation>
  <scstep>
   <time name="dav">    0.32    0.32</time>
   <time name="total">    0.39    0.40</time>
   <energy>
    <i name="alphaZ">    216.17040255 </i>
    <i name="ewald">  43547.50613788 </i>
    <i name="hartreedc"> -54295.89657032 </i>
    <i name="XCdc">    362.52073939 </i>
    <i name="pawpsdc">  10578.65627947 </i>
    <i name="pawaedc"> -11441.68325886 </i>
    <i name="eentropy">      0.01669429 </i>
    <i name="bandstr">   -155.00663168 </i>
    <i name="atom">  11152.61838693 </i>
    <i name="e_fr_energy">    -35.09782035 </i>
    <i name="e_wo_entrp">    -35.11451464 </i>
    <i name="e_0_energy">    -35.10338511 </i>
   </energy>
  </scstep>
  <scstep>
   <time name="dav">    0.39    0.39</time>
   <time name="total">    0.46    0.47</time>
   <energy>
    <i name="e_fr_energy">    -35.15536518 </i>
    <i name="e_wo_entrp">    -35.17114130 </i>
    <i name="e_0_energy">    -35.16062388 </i>
   </energy>
  </scstep>
  <scstep>
   <time name="dav">    0.34    0.34</time>
   <time name="total">    0.42    0.42</time>
   <energy>
    <i name="e_fr_energy">    -35.15416270 </i>
    <i name="e_wo_entrp">    -35.17050711 </i>
    <i name="e_0_energy">    -35.15961084 </i>
   </energy>
  </scstep>
  <scstep>
   <time name="dav">    0.34    0.34</time>
   <time name="total">    0.41    0.42</time>
   <energy>
    <i name="e_fr_energy">    -35.15304942 </i>
    <i name="e_wo_entrp">    -35.16927397 </i>
    <i name="e_0_energy">    -35.15845760 </i>
   </energy>
  </scstep>
  <scstep>
   <time name="dav">    0.45    0.46</time>
   <time name="total">    0.53    0.54</time>
   <energy>
    <i name="e_fr_energy">    -35.15180009 </i>
    <i name="e_wo_entrp">    -35.16845811 </i>
    <i name="e_0_energy">    -35.15735276 </i>
   </energy>
  </scstep>
  <scstep>
   <time name="dav">    0.35    0.35</time>
   <time name="total">    0.43    0.43</time>
   <energy>
    <i name="e_fr_energy">    -35.15191178 </i>
    <i name="e_wo_entrp">    -35.16816125 </i>
    <i name="e_0_energy">    -35.15732827 </i>
   </energy>
  </scstep>
  <scstep>
   <time name="dav">    0.25    0.25</time>
   <time name="total">    0.32    0.33</time>
   <energy>
    <i name="e_fr_energy">    -35.15159831 </i>
    <i name="e_wo_entrp">    -35.16808972 </i>
    <i name="e_0_energy">    -35.15709545 </i>
   </energy>
  </scstep>
  <scstep>
   <time name="dav">    0.25    0.25</time>
   <time name="total">    0.28    0.28</time>
   <energy>
    <i name="alphaZ">    216.17040255 </i>
    <i name="ewald">  43547.50613788 </i>
    <i name="hartreedc"> -54296.75550735 </i>
    <i name="XCdc">    362.58670891 </i>
    <i name="pawpsdc">  10572.63873497 </i>
    <i name="pawaedc"> -11435.50880884 </i>
    <i name="eentropy">      0.01651158 </i>
    <i name="bandstr">   -154.42418768 </i>
    <i name="atom">  11152.61838693 </i>
    <i name="e_fr_energy">    -35.15162104 </i>
    <i name="e_wo_entrp">    -35.16813263 </i>
    <i name="e_0_energy">    -35.15712490 </i>
   </energy>
  </scstep>
  <structure>
   <crystal>
    <varray name="basis" >
     <v>       3.63000011       0.00000000       0.00000000 </v>
     <v>       0.00000000       2.56679773       0.00000000 </v>
     <v>       0.00000000       0.00000000      23.98379135 </v>
    </varray>
    <i name="volume">    223.46840188 </i>
    <varray name="rec_basis" >
     <v>       0.27548208       0.00000000       0.00000000 </v>
     <v>       0.00000000       0.38959050       0.00000000 </v>
     <v>       0.00000000       0.00000000       0.04169483 </v>
    </varray>
   </crystal>
   <varray name="positions" >
    <v>       0.00000000      -0.00004897       0.00459139 </v>
    <v>       0.50000000       0.49996805       0.04970976 </v>
    <v>       0.00000000       0.00025527       0.10502735 </v>
    <v>       0.50000000       0.49952097       0.15808891 </v>
    <v>       0.00000000       0.00006378       0.20783248 </v>
    <v>       0.50000000       0.50246189       0.26060993 </v>
    <v>       0.00000000      -0.01210931       0.31392369 </v>
    <v>       0.50000000       0.46121987       0.35951058 </v>
    <v>       0.50000000       0.03482492       0.42652159 </v>
    <v>       0.50000000       0.30447804       0.43951397 </v>
   </varray>
  </structure>
  <varray name="forces" >
   <v>       0.00000000      -0.00117309      -0.18502666 </v>
   <v>       0.00000000      -0.00032461       0.21193614 </v>
   <v>       0.00000000      -0.00334539      -0.03422894 </v>
   <v>       0.00000000       0.00383379      -0.28627076 </v>
   <v>       0.00000000       0.00778624       0.02677312 </v>
   <v>       0.00000000      -0.03290876      -0.02511787 </v>
   <v>       0.00000000      -0.16315532      -0.13111288 </v>
   <v>       0.00000000      -0.16739175       0.15731361 </v>
   <v>       0.00000000      -0.45185109      -0.34343911 </v>
   <v>       0.00000000       0.80852997       0.60917334 </v>
  </varray>
  <varray name="stress" >
   <v>     -29.40028530       0.00000000       0.00000000 </v>
   <v>       0.00000000     -24.66423856       7.36076838 </v>
   <v>       0.00000000       7.36076856       9.50566823 </v>
  </varray>
  <energy>
   <i name="e_fr_energy">    -38.39385272 </i>
   <i name="e_wo_entrp">    -38.41036431 </i>
   <i name="e_0_energy">    -38.39935658 </i>
  </energy>
  <time name="totalsc">    3.73    3.78</time>
 </calculation>
 <calculation>
  <scstep>
   <time name="dav">    0.31    0.32</time>
   <time name="total">    0.39    0.39</time>
   <energy>
    <i name="alphaZ">    216.17040255 </i>
    <i name="ewald">  43553.29859456 </i>
    <i name="hartreedc"> -54302.53607945 </i>
    <i name="XCdc">    362.58047873 </i>
    <i name="pawpsdc">  10572.53190373 </i>
    <i name="pawaedc"> -11435.37855282 </i>
    <i name="eentropy">      0.01678303 </i>
    <i name="bandstr">   -154.45357464 </i>
    <i name="atom">  11152.61838693 </i>
    <i name="e_fr_energy">    -35.15165739 </i>
    <i name="e_wo_entrp">    -35.16844042 </i>
    <i name="e_0_energy">    -35.15725173 </i>
   </energy>
  </scstep>
  <scstep>
   <time name="dav">    0.39    0.39</time>
   <time name="total">    0.47    0.47</time>
   <energy>
    <i name="e_fr_energy">    -35.15378315 </i>
    <i name="e_wo_entrp">    -35.17032144 </i>
    <i name="e_0_energy">    -35.15929591 </i>
   </energy>
  </scstep>
  <scstep>
   <time name="dav">    0.32    0.32</time>
   <time name="total">    0.34    0.35</time>
   <energy>
    <i name="alphaZ">    216.17040255 </i>
    <i name="ewald">  43553.29859456 </i>
    <i name="hartreedc"> -54302.55414177 </i>
    <i name="XCdc">    362.58496120 </i>
    <i name="pawpsdc">  10571.69781224 </i>
    <i name="pawaedc"> -11434.48129701 </i>
    <i name="eentropy">      0.01674477 </i>
    <i name="bandstr">   -154.50522706 </i>
    <i name="atom">  11152.61838693 </i>
    <i name="e_fr_energy">    -35.15376359 </i>
    <i name="e_wo_entrp">    -35.17050836 </i>
    <i name="e_0_energy">    -35.15934518 </i>
   </energy>
  </scstep>
  <structure>
   <crystal>
    <varray name="basis" >
     <v>       3.63000011       0.00000000       0.00000000 </v>
     <v>       0.00000000       2.56679773       0.00000000 </v>
     <v>       0.00000000       0.00000000      23.98379135 </v>
    </varray>
    <i name="volume">    223.46840188 </i>
    <varray name="rec_basis" >
     <v>       0.27548208       0.00000000       0.00000000 </v>
     <v>       0.00000000       0.38959050       0.00000000 </v>
     <v>       0.00000000       0.00000000       0.04169483 </v>
    </varray>
   </crystal>
   <varray name="positions" >
    <v>       0.00000000      -0.00005767       0.00460962 </v>
    <v>       0.50000000       0.49996190       0.04975385 </v>
    <v>       0.00000000       0.00024636       0.10503994 </v>
    <v>       0.50000000       0.49951465       0.15791967 </v>
    <v>       0.00000000       0.00008613       0.20781997 </v>
    <v>       0.50000000       0.50255850       0.26022577 </v>
    <v>       0.00000000      -0.01328291       0.31371380 </v>
    <v>       0.50000000       0.45915080       0.35977266 </v>
    <v>       0.50000000       0.03908125       0.42651749 </v>
    <v>       0.50000000       0.30337549       0.43995688 </v>
   </varray>
  </structure>
  <varray name="forces" >
   <v>       0.00000000      -0.00256650      -0.18467147 </v>
   <v>       0.00000000      -0.00123289       0.19831226 </v>
   <v>       0.00000000      -0.00482343      -0.04935355 </v>
   <v>       0.00000000       0.00272835      -0.28026102 </v>
   <v>       0.00000000       0.00764124      -0.00262171 </v>
   <v>       0.00000000      -0.04342718       0.09216205 </v>
   <v>       0.00000000      -0.16073132      -0.10269330 </v>
   <v>       0.00000000      -0.14723037       0.04632880 </v>
   <v>       0.00000000      -0.66825676      -0.43680539 </v>
   <v>       0.00000000       1.01789885       0.71960333 </v>
  </varray>
  <varray name="stress" >
   <v>     -22.99962124       0.00000000       0.00000000 </v>
   <v>       0.00000000     -16.93385202       7.84861148 </v>
   <v>       0.00000000       7.84861162      16.11787827 </v>
  </varray>
  <energy>
   <i name="e_fr_energy">    -38.39601318 </i>
   <i name="e_wo_entrp">    -38.41275795 </i>
   <i name="e_0_energy">    -38.40159477 </i>
  </energy>
  <time name="totalsc">    1.69    1.74</time>
 </calculation>
 <calculation>
  <scstep>
   <time name="dav">    0.32    0.32</time>
   <time name="total">    0.39    0.40</time>
   <energy>
    <i name="alphaZ">    216.17040255 </i>
    <i name="ewald">  43552.35534443 </i>
    <i name="hartreedc"> -54302.36836811 </i>
    <i name="XCdc">    362.53935891 </i>
    <i name="pawpsdc">  10571.65367046 </i>
    <i name="pawaedc"> -11434.46013993 </i>
    <i name="eentropy">      0.01707373 </i>
    <i name="bandstr">   -153.70415986 </i>
    <i name="atom">  11152.61838693 </i>
    <i name="e_fr_energy">    -35.17843088 </i>
    <i name="e_wo_entrp">    -35.19550462 </i>
    <i name="e_0_energy">    -35.18412213 </i>
   </energy>
  </scstep>
  <scstep>
   <time name="dav">    0.39    0.40</time>
   <time name="total">    0.47    0.47</time>
   <energy>
    <i name="e_fr_energy">    -35.19466323 </i>
    <i name="e_wo_entrp">    -35.21164730 </i>
    <i name="e_0_energy">    -35.20032458 </i>
   </energy>
  </scstep>
  <scstep>
   <time name="dav">    0.34    0.34</time>
   <time name="total">    0.41    0.41</time>
   <energy>
    <i name="e_fr_energy">    -35.19395546 </i>
    <i name="e_wo_entrp">    -35.21084727 </i>
    <i name="e_0_energy">    -35.19958606 </i>
   </energy>
  </scstep>
  <scstep>
   <time name="dav">    0.34    0.34</time>
   <time name="total">    0.41    0.41</time>
   <energy>
    <i name="e_fr_energy">    -35.19362137 </i>
    <i name="e_wo_entrp">    -35.21089702 </i>
    <i name="e_0_energy">    -35.19937992 </i>
   </energy>
  </scstep>
  <scstep>
   <time name="dav">    0.41    0.42</time>
   <time name="total">    0.49    0.49</time>
   <energy>
    <i name="e_fr_energy">    -35.19320541 </i>
    <i name="e_wo_entrp">    -35.21009553 </i>
    <i name="e_0_energy">    -35.19883545 </i>
   </energy>
  </scstep>
  <scstep>
   <time name="dav">    0.25    0.25</time>
   <time name="total">    0.27    0.27</time>
   <energy>
    <i name="alphaZ">    216.17040255 </i>
    <i name="ewald">  43552.35534443 </i>
    <i name="hartreedc"> -54301.45551140 </i>
    <i name="XCdc">    362.51840938 </i>
    <i name="pawpsdc">  10565.08219655 </i>
    <i name="pawaedc"> -11427.80554941 </i>
    <i name="eentropy">      0.01711971 </i>
    <i name="bandstr">   -154.69387797 </i>
    <i name="atom">  11152.61838693 </i>
    <i name="e_fr_energy">    -35.19307923 </i>
    <i name="e_wo_entrp">    -35.21019894 </i>
    <i name="e_0_energy">    -35.19878580 </i>
   </energy>
  </scstep>
  <structure>
   <crystal>
    <varray name="basis" >
     <v>       3.63000011       0.00000000       0.00000000 </v>
     <v>       0.00000000       2.56679773       0.00000000 </v>
     <v>       0.00000000       0.00000000      23.98379135 </v>
    </varray>
    <i name="volume">    223.46840188 </i>
    <varray name="rec_basis" >
     <v>       0.27548208       0.00000000       0.00000000 </v>
     <v>       0.00000000       0.38959050       0.00000000 </v>
     <v>       0.00000000       0.00000000       0.04169483 </v>
    </varray>
   </crystal>
   <varray name="positions" >
    <v>       0.00000000      -0.00009987       0.00448282 </v>
    <v>       0.50000000       0.49993702       0.05003813 </v>
    <v>       0.00000000       0.00018436       0.10502400 </v>
    <v>       0.50000000       0.49952331       0.15726917 </v>
    <v>       0.00000000       0.00020353       0.20778848 </v>
    <v>       0.50000000       0.50241144       0.25941652 </v>
    <v>       0.00000000      -0.01738918       0.31313145 </v>
    <v>       0.50000000       0.45307696       0.36042479 </v>
    <v>       0.50000000       0.04326144       0.42610772 </v>
    <v>       0.50000000       0.30952549       0.44164658 </v>
   </varray>
  </structure>
  <varray name="forces" >
   <v>       0.00000000      -0.00276231      -0.14962407 </v>
   <v>       0.00000000      -0.00196670       0.11163196 </v>
   <v>       0.00000000      -0.00488377      -0.08538694 </v>
   <v>       0.00000000       0.00358097      -0.20126054 </v>
   <v>       0.00000000       0.00711560      -0.07034596 </v>
   <v>       0.00000000      -0.06475379       0.27848717 </v>
   <v>       0.00000000      -0.14381320      -0.02716946 </v>
   <v>       0.00000000      -0.11269101      -0.05266497 </v>
   <v>       0.00000000      -0.04564406      -0.15658619 </v>
   <v>       0.00000000       0.36581827       0.35291900 </v>
  </varray>
  <varray name="stress" >
   <v>     -26.63672616       0.00000000       0.00000000 </v>
   <v>       0.00000000     -23.12236208       6.43145181 </v>
   <v>       0.00000000       6.43145183      10.66304984 </v>
  </varray>
  <energy>
   <i name="e_fr_energy">    -38.43510018 </i>
   <i name="e_wo_entrp">    -38.45221989 </i>
   <i name="e_0_energy">    -38.44080675 </i>
  </energy>
  <time name="totalsc">    2.93    2.99</time>
 </calculation>
 <calculation>
  <scstep>
   <time name="dav">    0.31    0.32</time>
   <time name="total">    0.39    0.39</time>
   <energy>
    <i name="alphaZ">    216.17040255 </i>
    <i name="ewald">  43551.95188240 </i>
    <i name="hartreedc"> -54301.55634258 </i>
    <i name="XCdc">    362.49078739 </i>
    <i name="pawpsdc">  10565.14774756 </i>
    <i name="pawaedc"> -11427.87983633 </i>
    <i name="eentropy">      0.01700509 </i>
    <i name="bandstr">   -154.15684224 </i>
    <i name="atom">  11152.61838693 </i>
    <i name="e_fr_energy">    -35.19680924 </i>
    <i name="e_wo_entrp">    -35.21381432 </i>
    <i name="e_0_energy">    -35.20247760 </i>
   </energy>
  </scstep>
  <scstep>
   <time name="dav">    0.40    0.40</time>
   <time name="total">    0.48    0.48</time>
   <energy>
    <i name="e_fr_energy">    -35.20208938 </i>
    <i name="e_wo_entrp">    -35.21896567 </i>
    <i name="e_0_energy">    -35.20771481 </i>
   </energy>
  </scstep>
  <scstep>
   <time name="dav">    0.33    0.33</time>
   <time name="total">    0.40    0.41</time>
   <energy>
    <i name="e_fr_energy">    -35.20185822 </i>
    <i name="e_wo_entrp">    -35.21885829 </i>
    <i name="e_0_energy">    -35.20752491 </i>
   </energy>
  </scstep>
  <scstep>
   <time name="dav">    0.27    0.28</time>
   <time name="total">    0.30    0.30</time>
   <energy>
    <i name="alphaZ">    216.17040255 </i>
    <i name="ewald">  43551.95188240 </i>
    <i name="hartreedc"> -54301.00846053 </i>
    <i name="XCdc">    362.47948512 </i>
    <i name="pawpsdc">  10562.91153822 </i>
    <i name="pawaedc"> -11425.59992533 </i>
    <i name="eentropy">      0.01695736 </i>
    <i name="bandstr">   -154.74203910 </i>
    <i name="atom">  11152.61838693 </i>
    <i name="e_fr_energy">    -35.20177239 </i>
    <i name="e_wo_entrp">    -35.21872975 </i>
    <i name="e_0_energy">    -35.20742484 </i>
   </energy>
  </scstep>
  <structure>
   <crystal>
    <varray name="basis" >
     <v>       3.63000011       0.00000000       0.00000000 </v>
     <v>       0.00000000       2.56679773       0.00000000 </v>
     <v>       0.00000000       0.00000000      23.98379135 </v>
    </varray>
    <i name="volume">    223.46840188 </i>
    <varray name="rec_basis" >
     <v>       0.27548208       0.00000000       0.00000000 </v>
     <v>       0.00000000       0.38959050       0.00000000 </v>
     <v>       0.00000000       0.00000000       0.04169483 </v>
    </varray>
   </crystal>
   <varray name="positions" >
    <v>       0.00000000      -0.00012414       0.00440987 </v>
    <v>       0.50000000       0.49992272       0.05020166 </v>
    <v>       0.00000000       0.00014869       0.10501483 </v>
    <v>       0.50000000       0.49952829       0.15689496 </v>
    <v>       0.00000000       0.00027107       0.20777036 </v>
    <v>       0.50000000       0.50232684       0.25895099 </v>
    <v>       0.00000000      -0.01975135       0.31279644 </v>
    <v>       0.50000000       0.44958293       0.36079993 </v>
    <v>       0.50000000       0.04566614       0.42587199 </v>
    <v>       0.50000000       0.31306334       0.44261860 </v>
   </varray>
  </structure>
  <varray name="forces" >
   <v>       0.00000000      -0.00337167      -0.13538135 </v>
   <v>       0.00000000      -0.00255428       0.06693464 </v>
   <v>       0.00000000      -0.00569360      -0.09640625 </v>
   <v>       0.00000000       0.00340089      -0.15251359 </v>
   <v>       0.00000000       0.00691041      -0.10665773 </v>
   <v>       0.00000000      -0.07697169       0.37518052 </v>
   <v>       0.00000000      -0.13899726       0.01162111 </v>
   <v>       0.00000000      -0.08759295      -0.12288476 </v>
   <v>       0.00000000       0.24997427       0.02079482 </v>
   <v>       0.00000000       0.05489587       0.13931259 </v>
  </varray>
  <varray name="stress" >
   <v>     -28.25404767       0.00000000       0.00000000 </v>
   <v>       0.00000000     -25.98549728       5.47598484 </v>
   <v>       0.00000000       5.47598488       7.97199586 </v>
  </varray>
  <energy>
   <i name="e_fr_energy">    -38.44410191 </i>
   <i name="e_wo_entrp">    -38.46105927 </i>
   <i name="e_0_energy">    -38.44975437 </i>
  </energy>
  <time name="totalsc">    2.05    2.14</time>
 </calculation>
 <calculation>
  <scstep>
   <time name="dav">    0.32    0.32</time>
   <time name="total">    0.39    0.39</time>
   <energy>
    <i name="alphaZ">    216.17040255 </i>
    <i name="ewald">  43551.83852893 </i>
    <i name="hartreedc"> -54300.62165830 </i>
    <i name="XCdc">    362.46278737 </i>
    <i name="pawpsdc">  10562.19188601 </i>
    <i name="pawaedc"> -11424.84899747 </i>
    <i name="eentropy">      0.01690746 </i>
    <i name="bandstr">   -155.02992898 </i>
    <i name="atom">  11152.61838693 </i>
    <i name="e_fr_energy">    -35.20168551 </i>
    <i name="e_wo_entrp">    -35.21859297 </i>
    <i name="e_0_energy">    -35.20732133 </i>
   </energy>
  </scstep>
  <scstep>
   <time name="dav">    0.40    0.40</time>
   <time name="total">    0.47    0.48</time>
   <energy>
    <i name="e_fr_energy">    -35.20229777 </i>
    <i name="e_wo_entrp">    -35.21925753 </i>
    <i name="e_0_energy">    -35.20795102 </i>
   </energy>
  </scstep>
  <scstep>
   <time name="dav">    0.25    0.25</time>
   <time name="total">    0.27    0.27</time>
   <energy>
    <i name="alphaZ">    216.17040255 </i>
    <i name="ewald">  43551.83852893 </i>
    <i name="hartreedc"> -54300.57347013 </i>
    <i name="XCdc">    362.46217720 </i>
    <i name="pawpsdc">  10561.68036095 </i>
    <i name="pawaedc"> -11424.33913771 </i>
    <i name="eentropy">      0.01689248 </i>
    <i name="bandstr">   -155.07642880 </i>
    <i name="atom">  11152.61838693 </i>
    <i name="e_fr_energy">    -35.20228762 </i>
    <i name="e_wo_entrp">    -35.21918010 </i>
    <i name="e_0_energy">    -35.20791845 </i>
   </energy>
  </scstep>
  <structure>
   <crystal>
    <varray name="basis" >
     <v>       3.63000011       0.00000000       0.00000000 </v>
     <v>       0.00000000       2.56679773       0.00000000 </v>
     <v>       0.00000000       0.00000000      23.98379135 </v>
    </varray>
    <i name="volume">    223.46840188 </i>
    <varray name="rec_basis" >
     <v>       0.27548208       0.00000000       0.00000000 </v>
     <v>       0.00000000       0.38959050       0.00000000 </v>
     <v>       0.00000000       0.00000000       0.04169483 </v>
    </varray>
   </crystal>
   <varray name="positions" >
    <v>       0.00000000      -0.00013242       0.00438501 </v>
    <v>       0.50000000       0.49991784       0.05025741 </v>
    <v>       0.00000000       0.00013653       0.10501171 </v>
    <v>       0.50000000       0.49952998       0.15676740 </v>
    <v>       0.00000000       0.00029409       0.20776418 </v>
    <v>       0.50000000       0.50229800       0.25879230 </v>
    <v>       0.00000000      -0.02055661       0.31268224 </v>
    <v>       0.50000000       0.44839182       0.36092782 </v>
    <v>       0.50000000       0.04648590       0.42579164 </v>
    <v>       0.50000000       0.31426938       0.44294996 </v>
   </varray>
  </structure>
  <varray name="forces" >
   <v>       0.00000000      -0.00228585      -0.13790397 </v>
   <v>       0.00000000      -0.00155773       0.05246918 </v>
   <v>       0.00000000      -0.00445275      -0.10362291 </v>
   <v>       0.00000000       0.00472166      -0.13793578 </v>
   <v>       0.00000000       0.00814111      -0.11353085 </v>
   <v>       0.00000000      -0.07923235       0.41749275 </v>
   <v>       0.00000000      -0.13537082       0.02844193 </v>
   <v>       0.00000000      -0.08711902      -0.13808991 </v>
   <v>       0.00000000       0.33654676       0.07259635 </v>
   <v>       0.00000000      -0.03939099       0.06008321 </v>
  </varray>
  <varray name="stress" >
   <v>     -28.96716097       0.00000000       0.00000000 </v>
   <v>       0.00000000     -26.99289966       5.16452440 </v>
   <v>       0.00000000       5.16452432       7.06889035 </v>
  </varray>
  <energy>
   <i name="e_fr_energy">    -38.44485908 </i>
   <i name="e_wo_entrp">    -38.46175155 </i>
   <i name="e_0_energy">    -38.45048990 </i>
  </energy>
  <time name="totalsc">    1.62    1.65</time>
 </calculation>
 <calculation>
  <scstep>
   <time name="dav">    0.31    0.32</time>
   <time name="total">    0.39    0.39</time>
   <energy>
    <i name="alphaZ">    216.17040255 </i>
    <i name="ewald">  43525.07968972 </i>
    <i name="hartreedc"> -54273.79820814 </i>
    <i name="XCdc">    362.45063304 </i>
    <i name="pawpsdc">  10561.54874173 </i>
    <i name="pawaedc"> -11424.20600510 </i>
    <i name="eentropy">      0.01638871 </i>
    <i name="bandstr">   -155.09137923 </i>
    <i name="atom">  11152.61838693 </i>
    <i name="e_fr_energy">    -35.21134980 </i>
    <i name="e_wo_entrp">    -35.22773851 </i>
    <i name="e_0_energy">    -35.21681270 </i>
   </energy>
  </scstep>
  <scstep>
   <time name="dav">    0.39    0.39</time>
   <time name="total">    0.46    0.47</time>
   <energy>
    <i name="e_fr_energy">    -35.21358641 </i>
    <i name="e_wo_entrp">    -35.22991708 </i>
    <i name="e_0_energy">    -35.21902997 </i>
   </energy>
  </scstep>
  <scstep>
   <time name="dav">    0.32    0.33</time>
   <time name="total">    0.35    0.35</time>
   <energy>
    <i name="alphaZ">    216.17040255 </i>
    <i name="ewald">  43525.07968972 </i>
    <i name="hartreedc"> -54273.67154561 </i>
    <i name="XCdc">    362.45113378 </i>
    <i name="pawpsdc">  10560.88018736 </i>
    <i name="pawaedc"> -11423.50407104 </i>
    <i name="eentropy">      0.01639828 </i>
    <i name="bandstr">   -155.25417129 </i>
    <i name="atom">  11152.61838693 </i>
    <i name="e_fr_energy">    -35.21358934 </i>
    <i name="e_wo_entrp">    -35.22998762 </i>
[...]
       <r>     6.1506     2.4084    51.6193 </r>
       <r>     6.2231     2.4876    51.7999 </r>
       <r>     6.2957     2.1539    51.9562 </r>
       <r>     6.3683     1.5593    52.0694 </r>
       <r>     6.4409     1.3162    52.1649 </r>
       <r>     6.5135     1.7167    52.2895 </r>
       <r>     6.5860     2.2812    52.4551 </r>
       <r>     6.6586     2.4061    52.6297 </r>
       <r>     6.7312     2.0873    52.7812 </r>
       <r>     6.8038     1.6697    52.9024 </r>
       <r>     6.8764     1.3355    52.9993 </r>
       <r>     6.9489     1.1763    53.0847 </r>
       <r>     7.0215     1.3377    53.1818 </r>
       <r>     7.0941     1.7897    53.3117 </r>
       <r>     7.1667     2.3005    53.4787 </r>
       <r>     7.2393     2.7536    53.6785 </r>
       <r>     7.3118     3.0973    53.9033 </r>
       <r>     7.3844     3.0750    54.1265 </r>
       <r>     7.4570     2.4989    54.3079 </r>
       <r>     7.5296     1.6578    54.4282 </r>
       <r>     7.6022     1.0534    54.5046 </r>
       <r>     7.6747     0.9027    54.5702 </r>
       <r>     7.7473     1.1533    54.6539 </r>
       <r>     7.8199     1.6613    54.7744 </r>
       <r>     7.8925     2.1032    54.9271 </r>
       <r>     7.9651     2.2055    55.0872 </r>
       <r>     8.0376     2.2614    55.2513 </r>
       <r>     8.1102     2.7767    55.4528 </r>
       <r>     8.1828     3.5770    55.7124 </r>
       <r>     8.2554     4.0025    56.0029 </r>
       <r>     8.3280     3.8564    56.2828 </r>
       <r>     8.4005     3.4993    56.5368 </r>
       <r>     8.4731     3.2282    56.7711 </r>
       <r>     8.5457     3.0006    56.9889 </r>
       <r>     8.6183     2.6109    57.1784 </r>
       <r>     8.6909     1.9987    57.3235 </r>
       <r>     8.7634     1.4329    57.4275 </r>
       <r>     8.8360     1.2623    57.5191 </r>
       <r>     8.9086     1.4557    57.6248 </r>
       <r>     8.9812     1.6564    57.7450 </r>
       <r>     9.0538     1.7403    57.8713 </r>
       <r>     9.1263     1.9137    58.0102 </r>
       <r>     9.1989     2.1774    58.1682 </r>
       <r>     9.2715     2.2358    58.3305 </r>
       <r>     9.3441     2.0552    58.4797 </r>
       <r>     9.4167     1.9828    58.6236 </r>
       <r>     9.4892     2.2278    58.7853 </r>
       <r>     9.5618     2.6625    58.9785 </r>
       <r>     9.6344     3.1177    59.2048 </r>
       <r>     9.7070     3.4423    59.4546 </r>
       <r>     9.7796     3.3409    59.6971 </r>
       <r>     9.8521     2.5932    59.8853 </r>
       <r>     9.9247     1.4423    59.9900 </r>
       <r>     9.9973     0.4500    60.0227 </r>
       <r>    10.0699    -0.0466    60.0193 </r>
       <r>    10.1425    -0.1403    60.0091 </r>
       <r>    10.2150    -0.0848    60.0030 </r>
       <r>    10.2876    -0.0311    60.0007 </r>
       <r>    10.3602    -0.0079    60.0001 </r>
       <r>    10.4328    -0.0015    60.0000 </r>
       <r>    10.5054    -0.0002    60.0000 </r>
       <r>    10.5779    -0.0000    60.0000 </r>
       <r>    10.6505    -0.0000    60.0000 </r>
       <r>    10.7231    -0.0000    60.0000 </r>
       <r>    10.7957    -0.0000    60.0000 </r>
       <r>    10.8683    -0.0000    60.0000 </r>
       <r>    10.9408    -0.0000    60.0000 </r>
       <r>    11.0134    -0.0000    60.0000 </r>
       <r>    11.0860    -0.0000    60.0000 </r>
       <r>    11.1586     0.0000    60.0000 </r>
       <r>    11.2312     0.0000    60.0000 </r>
       <r>    11.3037     0.0000    60.0000 </r>
       <r>    11.3763     0.0000    60.0000 </r>
       <r>    11.4489     0.0000    60.0000 </r>
       <r>    11.5215     0.0000    60.0000 </r>
       <r>    11.5941     0.0000    60.0000 </r>
       <r>    11.6666     0.0000    60.0000 </r>
       <r>    11.7392     0.0000    60.0000 </r>
       <r>    11.8118     0.0000    60.0000 </r>
      </set>
      <set comment="spin 2">
       <r>    -9.9622     0.0000     0.0000 </r>
       <r>    -9.8896     0.0000     0.0000 </r>
       <r>    -9.8171     0.0000     0.0000 </r>
       <r>    -9.7445     0.0000     0.0000 </r>
       <r>    -9.6719     0.0000     0.0000 </r>
       <r>    -9.5993    -0.0000    -0.0000 </r>
       <r>    -9.5267    -0.0000    -0.0000 </r>
       <r>    -9.4542    -0.0000    -0.0000 </r>
       <r>    -9.3816    -0.0000    -0.0000 </r>
       <r>    -9.3090    -0.0000    -0.0000 </r>
       <r>    -9.2364    -0.0000    -0.0000 </r>
       <r>    -9.1638    -0.0000    -0.0000 </r>
       <r>    -9.0913    -0.0000    -0.0000 </r>
       <r>    -9.0187    -0.0000    -0.0000 </r>
       <r>    -8.9461    -0.0000    -0.0000 </r>
       <r>    -8.8735    -0.0000    -0.0000 </r>
       <r>    -8.8009    -0.0000    -0.0000 </r>
       <r>    -8.7284    -0.0000    -0.0000 </r>
       <r>    -8.6558    -0.0000    -0.0000 </r>
       <r>    -8.5832    -0.0001    -0.0000 </r>
       <r>    -8.5106    -0.0005    -0.0000 </r>
       <r>    -8.4380    -0.0024    -0.0002 </r>
       <r>    -8.3655    -0.0086    -0.0008 </r>
       <r>    -8.2929    -0.0200    -0.0023 </r>
       <r>    -8.2203    -0.0218    -0.0039 </r>
       <r>    -8.1477     0.0290    -0.0018 </r>
       <r>    -8.0751     0.1717     0.0107 </r>
       <r>    -8.0026     0.3603     0.0368 </r>
       <r>    -7.9300     0.4542     0.0698 </r>
       <r>    -7.8574     0.3622     0.0961 </r>
       <r>    -7.7848     0.1673     0.1082 </r>
       <r>    -7.7122     0.0463     0.1116 </r>
       <r>    -7.6397     0.0965     0.1186 </r>
       <r>    -7.5671     0.2641     0.1378 </r>
       <r>    -7.4945     0.4272     0.1688 </r>
       <r>    -7.4219     0.5579     0.2093 </r>
       <r>    -7.3493     0.7299     0.2622 </r>
       <r>    -7.2768     0.9017     0.3277 </r>
       <r>    -7.2042     0.8690     0.3908 </r>
       <r>    -7.1316     0.5629     0.4316 </r>
       <r>    -7.0590     0.2031     0.4464 </r>
       <r>    -6.9864     0.0483     0.4499 </r>
       <r>    -6.9139     0.1473     0.4606 </r>
       <r>    -6.8413     0.3794     0.4881 </r>
       <r>    -6.7687     0.6352     0.5342 </r>
       <r>    -6.6961     0.8718     0.5975 </r>
       <r>    -6.6235     0.9990     0.6700 </r>
       <r>    -6.5510     0.8744     0.7334 </r>
       <r>    -6.4784     0.5105     0.7705 </r>
       <r>    -6.4058     0.1263     0.7797 </r>
       <r>    -6.3332    -0.0695     0.7746 </r>
       <r>    -6.2606    -0.0061     0.7742 </r>
       <r>    -6.1881     0.2969     0.7957 </r>
       <r>    -6.1155     0.7605     0.8509 </r>
       <r>    -6.0429     1.2843     0.9441 </r>
       <r>    -5.9703     1.7830     1.0736 </r>
       <r>    -5.8977     2.1083     1.2266 </r>
       <r>    -5.8252     2.0743     1.3771 </r>
       <r>    -5.7526     1.6982     1.5004 </r>
       <r>    -5.6800     1.2501     1.5911 </r>
       <r>    -5.6074     1.0276     1.6657 </r>
       <r>    -5.5348     1.1305     1.7477 </r>
       <r>    -5.4623     1.3289     1.8442 </r>
       <r>    -5.3897     1.2398     1.9342 </r>
       <r>    -5.3171     0.7837     1.9911 </r>
       <r>    -5.2445     0.2705     2.0107 </r>
       <r>    -5.1719    -0.0209     2.0092 </r>
       <r>    -5.0994    -0.1048     2.0016 </r>
       <r>    -5.0268    -0.1374     1.9916 </r>
       <r>    -4.9542    -0.1804     1.9785 </r>
       <r>    -4.8816    -0.0701     1.9734 </r>
       <r>    -4.8090     0.5402     2.0126 </r>
       <r>    -4.7365     1.7876     2.1424 </r>
       <r>    -4.6639     3.1081     2.3680 </r>
       <r>    -4.5913     3.5071     2.6225 </r>
       <r>    -4.5187     2.6318     2.8135 </r>
       <r>    -4.4461     1.2069     2.9011 </r>
       <r>    -4.3736     0.1550     2.9124 </r>
       <r>    -4.3010    -0.2816     2.8919 </r>
       <r>    -4.2284    -0.3474     2.8667 </r>
       <r>    -4.1558    -0.1016     2.8593 </r>
       <r>    -4.0832     0.7536     2.9140 </r>
       <r>    -4.0107     2.3234     3.0827 </r>
       <r>    -3.9381     3.9201     3.3672 </r>
       <r>    -3.8655     4.4292     3.6887 </r>
       <r>    -3.7929     3.5136     3.9437 </r>
       <r>    -3.7203     2.0857     4.0951 </r>
       <r>    -3.6478     1.3178     4.1907 </r>
       <r>    -3.5752     1.5113     4.3004 </r>
       <r>    -3.5026     2.2000     4.4601 </r>
       <r>    -3.4300     3.0104     4.6786 </r>
       <r>    -3.3574     3.9246     4.9634 </r>
       <r>    -3.2849     4.8505     5.3155 </r>
       <r>    -3.2123     5.5409     5.7176 </r>
       <r>    -3.1397     6.0161     6.1543 </r>
       <r>    -3.0671     6.5911     6.6327 </r>
       <r>    -2.9945     7.3976     7.1696 </r>
       <r>    -2.9220     8.2656     7.7695 </r>
       <r>    -2.8494     9.0085     8.4233 </r>
       <r>    -2.7768     9.3892     9.1048 </r>
       <r>    -2.7042     9.0529     9.7619 </r>
       <r>    -2.6316     8.0040    10.3428 </r>
       <r>    -2.5591     6.9759    10.8491 </r>
       <r>    -2.4865     6.8854    11.3488 </r>
       <r>    -2.4139     7.8415    11.9180 </r>
       <r>    -2.3413     9.0323    12.5735 </r>
       <r>    -2.2687     9.8282    13.2869 </r>
       <r>    -2.1962    10.4556    14.0457 </r>
       <r>    -2.1236    11.1692    14.8564 </r>
       <r>    -2.0510    11.6460    15.7017 </r>
       <r>    -1.9784    11.9344    16.5679 </r>
       <r>    -1.9058    12.9833    17.5102 </r>
       <r>    -1.8333    15.1497    18.6098 </r>
       <r>    -1.7607    17.0450    19.8469 </r>
       <r>    -1.6881    17.0192    21.0821 </r>
       <r>    -1.6155    15.1668    22.1830 </r>
       <r>    -1.5429    13.0177    23.1278 </r>
       <r>    -1.4704    11.6986    23.9769 </r>
       <r>    -1.3978    10.9903    24.7745 </r>
       <r>    -1.3252    10.1996    25.5148 </r>
       <r>    -1.2526     9.5376    26.2071 </r>
       <r>    -1.1800     9.9999    26.9328 </r>
       <r>    -1.1075    11.9876    27.8029 </r>
       <r>    -1.0349    14.8485    28.8806 </r>
       <r>    -0.9623    17.6280    30.1600 </r>
       <r>    -0.8897    19.3912    31.5675 </r>
       <r>    -0.8171    19.3569    32.9724 </r>
       <r>    -0.7446    17.9257    34.2734 </r>
       <r>    -0.6720    16.8762    35.4983 </r>
       <r>    -0.5994    17.3402    36.7569 </r>
       <r>    -0.5268    18.3873    38.0914 </r>
       <r>    -0.4542    18.4300    39.4291 </r>
       <r>    -0.3816    16.9679    40.6606 </r>
       <r>    -0.3091    14.3882    41.7049 </r>
       <r>    -0.2365    11.2118    42.5186 </r>
       <r>    -0.1639     8.1007    43.1066 </r>
       <r>    -0.0913     5.7214    43.5219 </r>
       <r>    -0.0187     4.1123    43.8203 </r>
       <r>     0.0538     2.7438    44.0195 </r>
       <r>     0.1264     1.3774    44.1194 </r>
       <r>     0.1990     0.3200    44.1427 </r>
       <r>     0.2716    -0.1804    44.1296 </r>
       <r>     0.3442    -0.2582    44.1108 </r>
       <r>     0.4167    -0.1255    44.1017 </r>
       <r>     0.4893     0.1895    44.1155 </r>
       <r>     0.5619     0.7165    44.1675 </r>
       <r>     0.6345     1.3560    44.2659 </r>
       <r>     0.7071     1.9523    44.4076 </r>
       <r>     0.7796     2.4161    44.5830 </r>
       <r>     0.8522     2.6137    44.7727 </r>
       <r>     0.9248     2.3267    44.9415 </r>
       <r>     0.9974     1.5617    45.0549 </r>
       <r>     1.0700     0.7327    45.1081 </r>
       <r>     1.1425     0.3248    45.1316 </r>
       <r>     1.2151     0.4374    45.1634 </r>
       <r>     1.2877     0.7290    45.2163 </r>
       <r>     1.3603     0.8214    45.2759 </r>
       <r>     1.4329     0.7183    45.3280 </r>
       <r>     1.5054     0.6830    45.3776 </r>
       <r>     1.5780     0.7627    45.4330 </r>
       <r>     1.6506     0.7778    45.4894 </r>
       <r>     1.7232     0.7848    45.5464 </r>
       <r>     1.7958     1.0778    45.6246 </r>
       <r>     1.8683     1.5850    45.7396 </r>
       <r>     1.9409     1.7455    45.8663 </r>
       <r>     2.0135     1.2474    45.9569 </r>
       <r>     2.0861     0.5131    45.9941 </r>
       <r>     2.1587     0.2391    46.0115 </r>
       <r>     2.2312     0.6799    46.0608 </r>
       <r>     2.3038     1.4134    46.1634 </r>
       <r>     2.3764     1.7371    46.2895 </r>
       <r>     2.4490     1.4243    46.3929 </r>
       <r>     2.5216     0.9780    46.4638 </r>
       <r>     2.5941     0.9614    46.5336 </r>
       <r>     2.6667     1.3790    46.6337 </r>
       <r>     2.7393     1.8850    46.7705 </r>
       <r>     2.8119     2.1660    46.9277 </r>
       <r>     2.8845     1.9901    47.0722 </r>
       <r>     2.9570     1.3763    47.1721 </r>
       <r>     3.0296     0.8123    47.2310 </r>
       <r>     3.1022     0.8685    47.2940 </r>
       <r>     3.1748     1.5091    47.4036 </r>
       <r>     3.2474     2.0476    47.5522 </r>
       <r>     3.3199     1.8792    47.6886 </r>
       <r>     3.3925     1.1142    47.7695 </r>
       <r>     3.4651     0.3463    47.7946 </r>
       <r>     3.5377    -0.0410    47.7916 </r>
       <r>     3.6103    -0.1069    47.7839 </r>
       <r>     3.6828    -0.0683    47.7789 </r>
       <r>     3.7554    -0.0573    47.7747 </r>
       <r>     3.8280    -0.1126    47.7666 </r>
       <r>     3.9006    -0.1952    47.7524 </r>
       <r>     3.9732    -0.0938    47.7456 </r>
       <r>     4.0457     0.5841    47.7880 </r>
       <r>     4.1183     2.0006    47.9332 </r>
       <r>     4.1909     3.5481    48.1907 </r>
       <r>     4.2635     4.1678    48.4932 </r>
       <r>     4.3361     3.5054    48.7476 </r>
       <r>     4.4086     2.3187    48.9159 </r>
       <r>     4.4812     1.5476    49.0282 </r>
       <r>     4.5538     1.4186    49.1312 </r>
       <r>     4.6264     1.5193    49.2415 </r>
       <r>     4.6990     1.3782    49.3415 </r>
       <r>     4.7715     0.8932    49.4063 </r>
       <r>     4.8441     0.3751    49.4336 </r>
       <r>     4.9167     0.2725    49.4533 </r>
       <r>     4.9893     0.7694    49.5092 </r>
       <r>     5.0619     1.5067    49.6185 </r>
       <r>     5.1344     1.8078    49.7498 </r>
       <r>     5.2070     1.3701    49.8492 </r>
       <r>     5.2796     0.5704    49.8906 </r>
       <r>     5.3522    -0.0287    49.8885 </r>
       <r>     5.4248    -0.1636    49.8766 </r>
       <r>     5.4973     0.2008    49.8912 </r>
       <r>     5.5699     1.0076    49.9644 </r>
       <r>     5.6425     2.0459    50.1128 </r>
       <r>     5.7151     3.0082    50.3312 </r>
       <r>     5.7877     3.6232    50.5941 </r>
       <r>     5.8602     3.6757    50.8609 </r>
       <r>     5.9328     3.1818    51.0919 </r>
       <r>     6.0054     2.5627    51.2779 </r>
       <r>     6.0780     2.2957    51.4445 </r>
       <r>     6.1506     2.4086    51.6193 </r>
       <r>     6.2231     2.4878    51.7999 </r>
       <r>     6.2957     2.1540    51.9562 </r>
       <r>     6.3683     1.5594    52.0694 </r>
       <r>     6.4409     1.3162    52.1649 </r>
       <r>     6.5135     1.7167    52.2895 </r>
       <r>     6.5860     2.2812    52.4551 </r>
       <r>     6.6586     2.4060    52.6297 </r>
       <r>     6.7312     2.0872    52.7812 </r>
       <r>     6.8038     1.6696    52.9024 </r>
       <r>     6.8764     1.3355    52.9993 </r>
       <r>     6.9489     1.1764    53.0847 </r>
       <r>     7.0215     1.3378    53.1818 </r>
       <r>     7.0941     1.7898    53.3117 </r>
       <r>     7.1667     2.3005    53.4787 </r>
       <r>     7.2393     2.7534    53.6785 </r>
       <r>     7.3118     3.0972    53.9033 </r>
       <r>     7.3844     3.0749    54.1265 </r>
       <r>     7.4570     2.4989    54.3078 </r>
       <r>     7.5296     1.6579    54.4282 </r>
       <r>     7.6022     1.0535    54.5046 </r>
       <r>     7.6747     0.9028    54.5701 </r>
       <r>     7.7473     1.1533    54.6539 </r>
       <r>     7.8199     1.6613    54.7744 </r>
       <r>     7.8925     2.1032    54.9271 </r>
       <r>     7.9651     2.2055    55.0872 </r>
       <r>     8.0376     2.2613    55.2513 </r>
       <r>     8.1102     2.7767    55.4528 </r>
       <r>     8.1828     3.5769    55.7124 </r>
       <r>     8.2554     4.0026    56.0029 </r>
       <r>     8.3280     3.8564    56.2828 </r>
       <r>     8.4005     3.4992    56.5368 </r>
       <r>     8.4731     3.2280    56.7711 </r>
       <r>     8.5457     3.0005    56.9889 </r>
       <r>     8.6183     2.6110    57.1784 </r>
       <r>     8.6909     1.9989    57.3235 </r>
       <r>     8.7634     1.4331    57.4275 </r>
       <r>     8.8360     1.2624    57.5191 </r>
       <r>     8.9086     1.4557    57.6247 </r>
       <r>     8.9812     1.6563    57.7450 </r>
       <r>     9.0538     1.7402    57.8713 </r>
       <r>     9.1263     1.9136    58.0102 </r>
       <r>     9.1989     2.1773    58.1682 </r>
       <r>     9.2715     2.2359    58.3305 </r>
       <r>     9.3441     2.0553    58.4796 </r>
       <r>     9.4167     1.9829    58.6236 </r>
       <r>     9.4892     2.2279    58.7853 </r>
       <r>     9.5618     2.6625    58.9785 </r>
       <r>     9.6344     3.1176    59.2048 </r>
       <r>     9.7070     3.4422    59.4546 </r>
       <r>     9.7796     3.3409    59.6971 </r>
       <r>     9.8521     2.5933    59.8853 </r>
       <r>     9.9247     1.4424    59.9900 </r>
       <r>     9.9973     0.4501    60.0227 </r>
       <r>    10.0699    -0.0466    60.0193 </r>
       <r>    10.1425    -0.1403    60.0091 </r>
       <r>    10.2150    -0.0848    60.0030 </r>
       <r>    10.2876    -0.0311    60.0007 </r>
       <r>    10.3602    -0.0079    60.0001 </r>
       <r>    10.4328    -0.0015    60.0000 </r>
       <r>    10.5054    -0.0002    60.0000 </r>
       <r>    10.5779    -0.0000    60.0000 </r>
       <r>    10.6505    -0.0000    60.0000 </r>
       <r>    10.7231    -0.0000    60.0000 </r>
       <r>    10.7957    -0.0000    60.0000 </r>
       <r>    10.8683    -0.0000    60.0000 </r>
       <r>    10.9408    -0.0000    60.0000 </r>
       <r>    11.0134    -0.0000    60.0000 </r>
       <r>    11.0860    -0.0000    60.0000 </r>
       <r>    11.1586     0.0000    60.0000 </r>
       <r>    11.2312     0.0000    60.0000 </r>
       <r>    11.3037     0.0000    60.0000 </r>
       <r>    11.3763     0.0000    60.0000 </r>
       <r>    11.4489     0.0000    60.0000 </r>
       <r>    11.5215     0.0000    60.0000 </r>
       <r>    11.5941     0.0000    60.0000 </r>
       <r>    11.6666     0.0000    60.0000 </r>
       <r>    11.7392     0.0000    60.0000 </r>
       <r>    11.8118     0.0000    60.0000 </r>
      </set>
     </set>
    </array>
   </total>
  </dos>
 </calculation>
 <structure name="finalpos" >
  <crystal>
   <varray name="basis" >
    <v>       3.63000011       0.00000000       0.00000000 </v>
    <v>       0.00000000       2.56679773       0.00000000 </v>
    <v>       0.00000000       0.00000000      23.98379135 </v>
   </varray>
   <i name="volume">    223.46840188 </i>
   <varray name="rec_basis" >
    <v>       0.27548208       0.00000000       0.00000000 </v>
    <v>       0.00000000       0.38959050       0.00000000 </v>
    <v>       0.00000000       0.00000000       0.04169483 </v>
   </varray>
  </crystal>
  <varray name="positions" >
   <v>       0.00000000      -0.02117017      -0.00200093 </v>
   <v>       0.50000000       0.47222407       0.04530440 </v>
   <v>       0.00000000      -0.04140395       0.09956278 </v>
   <v>       0.50000000       0.45037130       0.15169747 </v>
   <v>       0.00000000      -0.05648509       0.20401033 </v>
   <v>       0.50000000       0.43903872       0.25665173 </v>
   <v>       0.00000000      -0.06128671       0.31052824 </v>
   <v>       0.50000000       0.44007428       0.35787848 </v>
   <v>       0.50000000       0.23173533       0.43915349 </v>
   <v>       0.50000000       0.43753673       0.46254367 </v>
  </varray>
 </structure>
</modeling>
