unknown system                          
           1
     3.630000    0.000000    0.000000
     0.000000    2.566798    0.000000
     0.000000    0.000000   23.983791
   Cu   H 
     8     2
Direct configuration=     1
   0.00000000  0.00000000  0.00000000
   0.50000000  0.50000000  0.05351109
   0.00000000  0.00000000  0.10468148
   0.50000000  0.50000000  0.15792996
   0.00000000  0.00000000  0.21070899
   0.50000000  0.50000000  0.26289048
   0.00000000  0.00000000  0.31711592
   0.50000000  0.50000000  0.36467590
   0.50000000  0.00000000  0.42690792
   0.50000000  0.29063451  0.42690792
Direct configuration=     2
   0.00000000 -0.00000786  0.00108842
   0.50000000  0.49998990  0.05248076
   0.00000000  0.00006276  0.10474012
   0.50000000  0.49989351  0.15824064
   0.00000000 -0.00003937  0.21004632
   0.50000000  0.50049086  0.26307802
   0.00000000 -0.00121538  0.31676322
   0.50000000  0.49522185  0.36205396
   0.50000000 -0.02548046  0.42693724
   0.50000000  0.32171869  0.42990095
Direct configuration=     3
   0.00000000 -0.00000606  0.00083903
   0.50000000  0.49999221  0.05271684
   0.00000000  0.00004838  0.10472668
   0.50000000  0.49991791  0.15816945
   0.00000000 -0.00003035  0.21019816
   0.50000000  0.50037839  0.26303505
   0.00000000 -0.00093690  0.31684403
   0.50000000  0.49631667  0.36265473
   0.50000000 -0.01964210  0.42693052
   0.50000000  0.31459635  0.42921516
Direct configuration=     4
   0.00000000 -0.00000639  0.00199132
   0.50000000  0.49999393  0.05170455
   0.00000000  0.00012691  0.10480217
   0.50000000  0.49980266  0.15840034
   0.00000000 -0.00003458  0.20947323
   0.50000000  0.50088727  0.26285409
   0.00000000 -0.00267323  0.31624351
   0.50000000  0.48841323  0.36126932
   0.50000000 -0.00895920  0.42680814
   0.50000000  0.31308390  0.43178299
Direct configuration=     5
   0.00000000 -0.00000694  0.00389510
   0.50000000  0.49999677  0.05003207
   0.00000000  0.00025666  0.10492688
   0.50000000  0.49961226  0.15878181
   0.00000000 -0.00004156  0.20827552
   0.50000000  0.50172801  0.26255511
   0.00000000 -0.00554195  0.31525133
   0.50000000  0.47535538  0.35898038
   0.50000000  0.00869080  0.42660595
   0.50000000  0.31058507  0.43602549
Direct configuration=     6
   0.00000000 -0.00000711  0.00450361
   0.50000000  0.49999768  0.04949749
   0.00000000  0.00029813  0.10496675
   0.50000000  0.49955140  0.15890374
   0.00000000 -0.00004380  0.20789270
   0.50000000  0.50199674  0.26245955
   0.00000000 -0.00645889  0.31493420
   0.50000000  0.47118166  0.35824876
   0.50000000  0.01433233  0.42654132
   0.50000000  0.30978636  0.43738154
Direct configuration=     7
   0.00000000 -0.00004897  0.00459139
   0.50000000  0.49996805  0.04970976
   0.00000000  0.00025527  0.10502735
   0.50000000  0.49952097  0.15808891
   0.00000000  0.00006378  0.20783248
   0.50000000  0.50246189  0.26060993
   0.00000000 -0.01210931  0.31392369
   0.50000000  0.46121987  0.35951058
   0.50000000  0.03482492  0.42652159
   0.50000000  0.30447804  0.43951397
Direct configuration=     8
   0.00000000 -0.00005767  0.00460962
   0.50000000  0.49996190  0.04975385
   0.00000000  0.00024636  0.10503994
   0.50000000  0.49951465  0.15791967
   0.00000000  0.00008613  0.20781997
   0.50000000  0.50255850  0.26022577
   0.00000000 -0.01328291  0.31371380
   0.50000000  0.45915080  0.35977266
   0.50000000  0.03908125  0.42651749
   0.50000000  0.30337549  0.43995688
Direct configuration=     9
   0.00000000 -0.00009987  0.00448282
   0.50000000  0.49993702  0.05003813
   0.00000000  0.00018436  0.10502400
   0.50000000  0.49952331  0.15726917
   0.00000000  0.00020353  0.20778848
   0.50000000  0.50241144  0.25941652
   0.00000000 -0.01738918  0.31313145
   0.50000000  0.45307696  0.36042479
   0.50000000  0.04326144  0.42610772
   0.50000000  0.30952549  0.44164658
Direct configuration=    10
   0.00000000 -0.00012414  0.00440987
   0.50000000  0.49992272  0.05020166
   0.00000000  0.00014869  0.10501483
   0.50000000  0.49952829  0.15689496
   0.00000000  0.00027107  0.20777036
   0.50000000  0.50232684  0.25895099
   0.00000000 -0.01975135  0.31279644
   0.50000000  0.44958293  0.36079993
   0.50000000  0.04566614  0.42587199
   0.50000000  0.31306334  0.44261860
Direct configuration=    11
   0.00000000 -0.00013242  0.00438501
   0.50000000  0.49991784  0.05025741
   0.00000000  0.00013653  0.10501171
   0.50000000  0.49952998  0.15676740
   0.00000000  0.00029409  0.20776418
   0.50000000  0.50229800  0.25879230
   0.00000000 -0.02055661  0.31268224
   0.50000000  0.44839182  0.36092782
   0.50000000  0.04648590  0.42579164
   0.50000000  0.31426938  0.44294996
Direct configuration=    12
   0.00000000 -0.00016551  0.00420761
   0.50000000  0.49989626  0.05038363
   0.00000000  0.00007710  0.10489815
   0.50000000  0.49957880  0.15645967
   0.00000000  0.00040375  0.20763627
   0.50000000  0.50147841  0.25903252
   0.00000000 -0.02291604  0.31256743
   0.50000000  0.44601971  0.36094402
   0.50000000  0.05085182  0.42576647
   0.50000000  0.31541021  0.44343390
Direct configuration=    13
   0.00000000 -0.00026477  0.00367541
   0.50000000  0.49983151  0.05076229
   0.00000000 -0.00010120  0.10455746
   0.50000000  0.49972524  0.15553648
   0.00000000  0.00073274  0.20725253
   0.50000000  0.49901962  0.25975317
   0.00000000 -0.02999431  0.31222301
   0.50000000  0.43890340  0.36099262
   0.50000000  0.06394960  0.42569096
   0.50000000  0.31883268  0.44488572
Direct configuration=    14
   0.00000000 -0.00046331  0.00261100
   0.50000000  0.49970202  0.05151962
   0.00000000 -0.00045779  0.10387610
   0.50000000  0.50001814  0.15369010
   0.00000000  0.00139072  0.20648507
   0.50000000  0.49410203  0.26119449
   0.00000000 -0.04415086  0.31153417
   0.50000000  0.42467078  0.36108981
   0.50000000  0.09014515  0.42553994
   0.50000000  0.32567764  0.44778936
Direct configuration=    15
   0.00000000 -0.00031434  0.00340969
   0.50000000  0.49979918  0.05095135
   0.00000000 -0.00019021  0.10438737
   0.50000000  0.49979836  0.15507555
   0.00000000  0.00089700  0.20706095
   0.50000000  0.49779202  0.26011298
   0.00000000 -0.03352828  0.31205105
   0.50000000  0.43535044  0.36101688
   0.50000000  0.07048892  0.42565326
   0.50000000  0.32054142  0.44561057
Direct configuration=    16
   0.00000000 -0.00030319  0.00320445
   0.50000000  0.49980877  0.05066933
   0.00000000 -0.00018473  0.10405405
   0.50000000  0.50000221  0.15533858
   0.00000000  0.00081470  0.20690071
   0.50000000  0.49543409  0.26020318
   0.00000000 -0.03677508  0.31220721
   0.50000000  0.43327796  0.36086890
   0.50000000  0.07788294  0.42602598
   0.50000000  0.32067684  0.44585727
Direct configuration=    17
   0.00000000 -0.00029694  0.00308934
   0.50000000  0.49981415  0.05051117
   0.00000000 -0.00018165  0.10386712
   0.50000000  0.50011653  0.15548609
   0.00000000  0.00076855  0.20681085
   0.50000000  0.49411171  0.26025376
   0.00000000 -0.03859595  0.31229479
   0.50000000  0.43211567  0.36078590
   0.50000000  0.08202967  0.42623500
   0.50000000  0.32075278  0.44599563
Direct configuration=    18
   0.00000000 -0.00029125  0.00295614
   0.50000000  0.49981413  0.05028028
   0.00000000 -0.00016460  0.10367336
   0.50000000  0.50024168  0.15569376
   0.00000000  0.00057918  0.20673828
   0.50000000  0.49244509  0.26024287
   0.00000000 -0.04062373  0.31242567
   0.50000000  0.43109368  0.36065478
   0.50000000  0.08430503  0.42636121
   0.50000000  0.32323531  0.44630329
Direct configuration=    19
   0.00000000 -0.00027638  0.00260840
   0.50000000  0.49981409  0.04967751
   0.00000000 -0.00012007  0.10316752
   0.50000000  0.50056839  0.15623593
   0.00000000  0.00008477  0.20654883
   0.50000000  0.48809404  0.26021443
   0.00000000 -0.04591770  0.31276737
   0.50000000  0.42842555  0.36031246
   0.50000000  0.09024534  0.42669069
   0.50000000  0.32971648  0.44710651
Direct configuration=    20
   0.00000000 -0.00027042  0.00246883
   0.50000000  0.49981408  0.04943558
   0.00000000 -0.00010220  0.10296449
   0.50000000  0.50069953  0.15645354
   0.00000000 -0.00011367  0.20647279
   0.50000000  0.48634769  0.26020301
   0.00000000 -0.04804250  0.31290451
   0.50000000  0.42735467  0.36017506
   0.50000000  0.09262956  0.42682294
   0.50000000  0.33231779  0.44742890
Direct configuration=    21
   0.00000000 -0.00027193  0.00250413
   0.50000000  0.49981408  0.04949677
   0.00000000 -0.00010672  0.10301583
   0.50000000  0.50066636  0.15639850
   0.00000000 -0.00006349  0.20649202
   0.50000000  0.48678934  0.26020590
   0.00000000 -0.04750514  0.31286983
   0.50000000  0.42762549  0.36020981
   0.50000000  0.09202659  0.42678949
   0.50000000  0.33165992  0.44734736
Direct configuration=    22
   0.00000000 -0.00027084  0.00247870
   0.50000000  0.49981408  0.04945269
   0.00000000 -0.00010346  0.10297884
   0.50000000  0.50069025  0.15643815
   0.00000000 -0.00009964  0.20647817
   0.50000000  0.48647117  0.26020382
   0.00000000 -0.04789226  0.31289482
   0.50000000  0.42743039  0.36018477
   0.50000000  0.09246098  0.42681359
   0.50000000  0.33213385  0.44740610
Direct configuration=    23
   0.00000000 -0.00028818  0.00232826
   0.50000000  0.49979197  0.04935422
   0.00000000 -0.00006943  0.10297944
   0.50000000  0.50067650  0.15635239
   0.00000000 -0.00067795  0.20651883
   0.50000000  0.48510027  0.26010787
   0.00000000 -0.04927791  0.31291077
   0.50000000  0.42715639  0.36017317
   0.50000000  0.09421365  0.42703769
   0.50000000  0.33400920  0.44756699
Direct configuration=    24
   0.00000000 -0.00034021  0.00187694
   0.50000000  0.49972565  0.04905883
   0.00000000  0.00003268  0.10298125
   0.50000000  0.50063525  0.15609512
   0.00000000 -0.00241288  0.20664081
   0.50000000  0.48098759  0.25982004
   0.00000000 -0.05343487  0.31295862
   0.50000000  0.42633440  0.36013837
   0.50000000  0.09947166  0.42771000
   0.50000000  0.33963524  0.44804967
Direct configuration=    25
   0.00000000 -0.00044426  0.00097429
   0.50000000  0.49959301  0.04846803
   0.00000000  0.00023689  0.10298486
   0.50000000  0.50055275  0.15558058
   0.00000000 -0.00588275  0.20688476
   0.50000000  0.47276222  0.25924438
   0.00000000 -0.06174878  0.31305433
   0.50000000  0.42469041  0.36006877
   0.50000000  0.10998769  0.42905462
   0.50000000  0.35088732  0.44901503
Direct configuration=    26
   0.00000000 -0.00065237 -0.00083101
   0.50000000  0.49932774  0.04728644
   0.00000000  0.00064532  0.10299208
   0.50000000  0.50038774  0.15455149
   0.00000000 -0.01282248  0.20737267
   0.50000000  0.45631149  0.25809306
   0.00000000 -0.07837659  0.31324574
   0.50000000  0.42140243  0.35992956
   0.50000000  0.13101975  0.43174387
   0.50000000  0.37339147  0.45094575
Direct configuration=    27
   0.00000000 -0.00052889  0.00024009
   0.50000000  0.49948513  0.04798749
   0.00000000  0.00040300  0.10298779
   0.50000000  0.50048564  0.15516205
   0.00000000 -0.00870509  0.20708319
   0.50000000  0.46607182  0.25877614
   0.00000000 -0.06851120  0.31313217
   0.50000000  0.42335321  0.36001216
   0.50000000  0.11854129  0.43014832
   0.50000000  0.36003960  0.44980024
Direct configuration=    28
   0.00000000 -0.00054683  0.00013985
   0.50000000  0.49952298  0.04783102
   0.00000000  0.00050581  0.10277362
   0.50000000  0.49992694  0.15483597
   0.00000000 -0.01076388  0.20700755
   0.50000000  0.46326545  0.25884032
   0.00000000 -0.07064467  0.31304971
   0.50000000  0.42222376  0.35994747
   0.50000000  0.12157794  0.43065035
   0.50000000  0.36556701  0.45025378
Direct configuration=    29
   0.00000000 -0.00058650 -0.00008181
   0.50000000  0.49960669  0.04748500
   0.00000000  0.00073317  0.10230001
   0.50000000  0.49869147  0.15411487
   0.00000000 -0.01531657  0.20684029
   0.50000000  0.45705961  0.25898225
   0.00000000 -0.07536253  0.31286736
   0.50000000  0.41972615  0.35980444
   0.50000000  0.12829302  0.43176051
   0.50000000  0.37779000  0.45125672
Direct configuration=    30
   0.00000000 -0.00060358 -0.00009882
   0.50000000  0.49964685  0.04738465
   0.00000000  0.00074369  0.10211354
   0.50000000  0.49807970  0.15393432
   0.00000000 -0.01689539  0.20672826
   0.50000000  0.45532681  0.25903013
   0.00000000 -0.07638446  0.31278782
   0.50000000  0.41881691  0.35978911
   0.50000000  0.13155361  0.43219126
   0.50000000  0.38035038  0.45146938
Direct configuration=    31
   0.00000000 -0.00065483 -0.00014984
   0.50000000  0.49976731  0.04708357
   0.00000000  0.00077527  0.10155415
   0.50000000  0.49624440  0.15339266
   0.00000000 -0.02163185  0.20639216
   0.50000000  0.45012839  0.25917379
   0.00000000 -0.07945026  0.31254919
   0.50000000  0.41608918  0.35974312
   0.50000000  0.14133540  0.43348352
   0.50000000  0.38803149  0.45210734
Direct configuration=    32
   0.00000000 -0.00066401 -0.00015898
   0.50000000  0.49978890  0.04702962
   0.00000000  0.00078093  0.10145391
   0.50000000  0.49591551  0.15329559
   0.00000000 -0.02248062  0.20633193
   0.50000000  0.44919684  0.25919953
   0.00000000 -0.07999965  0.31250643
   0.50000000  0.41560037  0.35973488
   0.50000000  0.14308829  0.43371509
   0.50000000  0.38940795  0.45222166
Direct configuration=    33
   0.00000000 -0.00068953 -0.00016410
   0.50000000  0.49982062  0.04692848
   0.00000000  0.00057862  0.10128091
   0.50000000  0.49487429  0.15326208
   0.00000000 -0.02423456  0.20612869
   0.50000000  0.44782322  0.25912685
   0.00000000 -0.08035005  0.31241835
   0.50000000  0.41445739  0.35975658
   0.50000000  0.14555987  0.43408359
   0.50000000  0.39279464  0.45250822
Direct configuration=    34
   0.00000000 -0.00076610 -0.00017945
   0.50000000  0.49991578  0.04662505
   0.00000000 -0.00002830  0.10076193
   0.50000000  0.49175063  0.15316156
   0.00000000 -0.02949637  0.20551895
   0.50000000  0.44370237  0.25890881
   0.00000000 -0.08140127  0.31215411
   0.50000000  0.41102844  0.35982170
   0.50000000  0.15297461  0.43518909
   0.50000000  0.40295472  0.45336789
Direct configuration=    35
   0.00000000 -0.00091923 -0.00021014
   0.50000000  0.50010610  0.04601818
   0.00000000 -0.00124215  0.09972396
   0.50000000  0.48550331  0.15296052
   0.00000000 -0.04001999  0.20429949
   0.50000000  0.43546067  0.25847274
   0.00000000 -0.08350371  0.31162562
   0.50000000  0.40417055  0.35995193
   0.50000000  0.16780409  0.43740009
   0.50000000  0.42327488  0.45508725
Direct configuration=    36
   0.00000000 -0.00080395 -0.00018703
   0.50000000  0.49996283  0.04647503
   0.00000000 -0.00032836  0.10050535
   0.50000000  0.49020634  0.15311187
   0.00000000 -0.03209773  0.20521751
   0.50000000  0.44166509  0.25880102
   0.00000000 -0.08192098  0.31202347
   0.50000000  0.40933322  0.35985389
   0.50000000  0.15664034  0.43573563
   0.50000000  0.40797770  0.45379291
Direct configuration=    37
   0.00000000 -0.00085192 -0.00019665
   0.50000000  0.50002245  0.04628492
   0.00000000 -0.00070863  0.10018018
   0.50000000  0.48824921  0.15304889
   0.00000000 -0.03539451  0.20483549
   0.50000000  0.43908317  0.25866441
   0.00000000 -0.08257962  0.31185791
   0.50000000  0.40718482  0.35989469
   0.50000000  0.16128605  0.43642828
   0.50000000  0.41434350  0.45433154
Direct configuration=    38
   0.00000000 -0.00082371 -0.00019100
   0.50000000  0.49998738  0.04639674
   0.00000000 -0.00048496  0.10037144
   0.50000000  0.48940035  0.15308593
   0.00000000 -0.03345543  0.20506019
   0.50000000  0.44060179  0.25874476
   0.00000000 -0.08219223  0.31195529
   0.50000000  0.40844846  0.35987069
   0.50000000  0.15855356  0.43602088
   0.50000000  0.41059930  0.45401473
Direct configuration=    39
   0.00000000 -0.00071184 -0.00037641
   0.50000000  0.49998391  0.04635597
   0.00000000 -0.00122019  0.10043998
   0.50000000  0.48765824  0.15315343
   0.00000000 -0.03469710  0.20492137
   0.50000000  0.43992429  0.25851898
   0.00000000 -0.08195927  0.31189493
   0.50000000  0.40772863  0.35986405
   0.50000000  0.16154242  0.43635296
   0.50000000  0.41238544  0.45420439
Direct configuration=    40
   0.00000000 -0.00061690 -0.00053378
   0.50000000  0.49998097  0.04632137
   0.00000000 -0.00184422  0.10049816
   0.50000000  0.48617961  0.15321072
   0.00000000 -0.03575098  0.20480355
   0.50000000  0.43934925  0.25832734
   0.00000000 -0.08176155  0.31184370
   0.50000000  0.40711767  0.35985841
   0.50000000  0.16407924  0.43663481
   0.50000000  0.41390143  0.45436537
Direct configuration=    41
   0.00000000 -0.00051066 -0.00073470
   0.50000000  0.49983460  0.04632386
   0.00000000 -0.00295498  0.10059789
   0.50000000  0.48415567  0.15323994
   0.00000000 -0.03674522  0.20475940
   0.50000000  0.43909565  0.25813732
   0.00000000 -0.08149020  0.31178257
   0.50000000  0.40683937  0.35974545
   0.50000000  0.16550809  0.43682126
   0.50000000  0.41690219  0.45465665
Direct configuration=    42
   0.00000000 -0.00048095 -0.00079091
   0.50000000  0.49979365  0.04632456
   0.00000000 -0.00326569  0.10062579
   0.50000000  0.48358952  0.15324812
   0.00000000 -0.03702334  0.20474705
   0.50000000  0.43902471  0.25808417
   0.00000000 -0.08141429  0.31176547
   0.50000000  0.40676153  0.35971386
   0.50000000  0.16590779  0.43687342
   0.50000000  0.41774158  0.45473813
Direct configuration=    43
   0.00000000 -0.00042151 -0.00090332
   0.50000000  0.49971176  0.04632595
   0.00000000 -0.00388711  0.10068159
   0.50000000  0.48245721  0.15326447
   0.00000000 -0.03757958  0.20472235
   0.50000000  0.43888283  0.25797786
   0.00000000 -0.08126248  0.31173127
   0.50000000  0.40660583  0.35965066
   0.50000000  0.16670717  0.43697773
   0.50000000  0.41942038  0.45490109
Direct configuration=    44
   0.00000000 -0.00045689 -0.00083641
   0.50000000  0.49976050  0.04632512
   0.00000000 -0.00351724  0.10064838
   0.50000000  0.48313116  0.15325474
   0.00000000 -0.03724851  0.20473705
   0.50000000  0.43896727  0.25804114
   0.00000000 -0.08135284  0.31175162
   0.50000000  0.40669850  0.35968827
   0.50000000  0.16623138  0.43691564
   0.50000000  0.41842116  0.45480410
Direct configuration=    45
   0.00000000 -0.00043839 -0.00087139
   0.50000000  0.49973502  0.04632556
   0.00000000 -0.00371064  0.10066574
   0.50000000  0.48277876  0.15325982
   0.00000000 -0.03742162  0.20472936
   0.50000000  0.43892312  0.25800805
   0.00000000 -0.08130559  0.31174098
   0.50000000  0.40665005  0.35966861
   0.50000000  0.16648016  0.43694811
   0.50000000  0.41894363  0.45485481
Direct configuration=    46
   0.00000000 -0.00044908 -0.00085117
   0.50000000  0.49974975  0.04632531
   0.00000000 -0.00359884  0.10065570
   0.50000000  0.48298246  0.15325688
   0.00000000 -0.03732155  0.20473381
   0.50000000  0.43894864  0.25802718
   0.00000000 -0.08133290  0.31174713
   0.50000000  0.40667806  0.35967997
   0.50000000  0.16633635  0.43692934
   0.50000000  0.41864162  0.45482550
Direct configuration=    47
   0.00000000 -0.00029774 -0.00096564
   0.50000000  0.49951088  0.04635564
   0.00000000 -0.00492653  0.10068585
   0.50000000  0.48108588  0.15321859
   0.00000000 -0.03804237  0.20479084
   0.50000000  0.43913281  0.25795012
   0.00000000 -0.08107487  0.31169215
   0.50000000  0.40696657  0.35950393
   0.50000000  0.16843159  0.43710285
   0.50000000  0.41984829  0.45499531
Direct configuration=    48
   0.00000000 -0.00018530 -0.00105068
   0.50000000  0.49933343  0.04637818
   0.00000000 -0.00591286  0.10070824
   0.50000000  0.47967692  0.15319014
   0.00000000 -0.03857787  0.20483321
   0.50000000  0.43926962  0.25789288
   0.00000000 -0.08088318  0.31165130
   0.50000000  0.40718091  0.35937315
   0.50000000  0.16998813  0.43723175
   0.50000000  0.42074472  0.45512147
Direct configuration=    49
   0.00000000  0.00003956 -0.00122075
   0.50000000  0.49897852  0.04642326
   0.00000000 -0.00788552  0.10075303
   0.50000000  0.47685899  0.15313325
   0.00000000 -0.03964885  0.20491795
   0.50000000  0.43954325  0.25777839
   0.00000000 -0.08049980  0.31156961
   0.50000000  0.40760958  0.35911158
   0.50000000  0.17310121  0.43748954
   0.50000000  0.42253757  0.45537379
Direct configuration=    50
   0.00000000  0.00011928 -0.00119122
   0.50000000  0.49833948  0.04642031
   0.00000000 -0.01013082  0.10063266
   0.50000000  0.47441331  0.15302735
   0.00000000 -0.04071718  0.20498103
   0.50000000  0.43999851  0.25776792
   0.00000000 -0.08023318  0.31149610
   0.50000000  0.40864743  0.35886028
   0.50000000  0.17522657  0.43761998
   0.50000000  0.42497110  0.45571524
Direct configuration=    51
   0.00000000  0.00015915 -0.00117645
   0.50000000  0.49801992  0.04641884
   0.00000000 -0.01125364  0.10057247
   0.50000000  0.47319028  0.15297438
   0.00000000 -0.04125143  0.20501257
   0.50000000  0.44022618  0.25776269
   0.00000000 -0.08009984  0.31145934
   0.50000000  0.40916644  0.35873461
   0.50000000  0.17628941  0.43768521
   0.50000000  0.42618805  0.45588600
Direct configuration=    52
   0.00000000  0.00005238 -0.00105928
   0.50000000  0.49716350  0.04636525
   0.00000000 -0.01367232  0.10041741
   0.50000000  0.47106524  0.15286511
   0.00000000 -0.04231356  0.20498062
   0.50000000  0.44060731  0.25773954
   0.00000000 -0.07976422  0.31139702
   0.50000000  0.41059632  0.35859173
   0.50000000  0.17987024  0.43787021
   0.50000000  0.42702962  0.45616203
Direct configuration=    53
   0.00000000  0.00002402 -0.00102816
   0.50000000  0.49693604  0.04635101
   0.00000000 -0.01431471  0.10037623
   0.50000000  0.47050085  0.15283608
   0.00000000 -0.04259566  0.20497214
   0.50000000  0.44070854  0.25773339
   0.00000000 -0.07967508  0.31138047
   0.50000000  0.41097609  0.35855379
   0.50000000  0.18082129  0.43791935
   0.50000000  0.42725313  0.45623534
Direct configuration=    54
   0.00000000 -0.00029622 -0.00094768
   0.50000000  0.49604731  0.04627551
   0.00000000 -0.01596291  0.10031773
   0.50000000  0.46945205  0.15277434
   0.00000000 -0.04331943  0.20484515
   0.50000000  0.44073591  0.25765382
   0.00000000 -0.07925084  0.31134526
   0.50000000  0.41208474  0.35857615
   0.50000000  0.18277276  0.43795891
   0.50000000  0.42837114  0.45653045
Direct configuration=    55
   0.00000000 -0.00084909 -0.00080874
   0.50000000  0.49451296  0.04614517
   0.00000000 -0.01880848  0.10021674
   0.50000000  0.46764133  0.15266774
   0.00000000 -0.04456899  0.20462592
   0.50000000  0.44078318  0.25751645
   0.00000000 -0.07851841  0.31128446
   0.50000000  0.41399879  0.35861476
   0.50000000  0.18614191  0.43802722
   0.50000000  0.43030133  0.45703993
Direct configuration=    56
   0.00000000 -0.00195484 -0.00053084
   0.50000000  0.49144425  0.04588448
   0.00000000 -0.02449960  0.10001476
   0.50000000  0.46401988  0.15245453
   0.00000000 -0.04706812  0.20418745
   0.50000000  0.44087770  0.25724171
   0.00000000 -0.07705353  0.31116287
   0.50000000  0.41782688  0.35869197
   0.50000000  0.19288019  0.43816383
   0.50000000  0.43416171  0.45805889
Direct configuration=    57
   0.00000000 -0.00102491 -0.00076455
   0.50000000  0.49402504  0.04610372
   0.00000000 -0.01971336  0.10018463
   0.50000000  0.46706552  0.15263384
   0.00000000 -0.04496635  0.20455620
   0.50000000  0.44079821  0.25747277
   0.00000000 -0.07828549  0.31126513
   0.50000000  0.41460745  0.35862703
   0.50000000  0.18721329  0.43804894
   0.50000000  0.43091512  0.45720194
Direct configuration=    58
   0.00000000 -0.00128458 -0.00074015
   0.50000000  0.49345033  0.04606144
   0.00000000 -0.02067138  0.10017007
   0.50000000  0.46649224  0.15259789
   0.00000000 -0.04538294  0.20448843
   0.50000000  0.44078073  0.25742808
   0.00000000 -0.07791357  0.31124059
   0.50000000  0.41536441  0.35864902
   0.50000000  0.18870474  0.43809063
   0.50000000  0.43109452  0.45734365
Direct configuration=    59
   0.00000000 -0.00206359 -0.00066696
   0.50000000  0.49172621  0.04593460
   0.00000000 -0.02354546  0.10012640
   0.50000000  0.46477242  0.15249005
   0.00000000 -0.04663271  0.20428512
   0.50000000  0.44072831  0.25729401
   0.00000000 -0.07679779  0.31116697
   0.50000000  0.41763529  0.35871498
   0.50000000  0.19317911  0.43821571
   0.50000000  0.43163272  0.45776877
Direct configuration=    60
   0.00000000 -0.00242880 -0.00071449
   0.50000000  0.49120434  0.04592496
   0.00000000 -0.02420178  0.10013835
   0.50000000  0.46435057  0.15245424
   0.00000000 -0.04693951  0.20427241
   0.50000000  0.44060720  0.25727944
   0.00000000 -0.07633422  0.31113940
   0.50000000  0.41826852  0.35869941
   0.50000000  0.19429412  0.43823890
   0.50000000  0.43181405  0.45789703
Direct configuration=    61
   0.00000000 -0.00284340 -0.00076844
   0.50000000  0.49061188  0.04591401
   0.00000000 -0.02494687  0.10015192
   0.50000000  0.46387167  0.15241358
   0.00000000 -0.04728780  0.20425798
   0.50000000  0.44046972  0.25726289
   0.00000000 -0.07580795  0.31110811
   0.50000000  0.41898740  0.35868173
   0.50000000  0.19555994  0.43826523
   0.50000000  0.43201991  0.45804263
Direct configuration=    62
   0.00000000 -0.00367261 -0.00087635
   0.50000000  0.48942696  0.04589212
   0.00000000 -0.02643705  0.10017907
   0.50000000  0.46291387  0.15233227
   0.00000000 -0.04798440  0.20422912
   0.50000000  0.44019476  0.25722981
   0.00000000 -0.07475540  0.31104552
   0.50000000  0.42042517  0.35864637
   0.50000000  0.19809160  0.43831790
   0.50000000  0.43243162  0.45833383
Direct configuration=    63
   0.00000000 -0.00533104 -0.00109217
   0.50000000  0.48705713  0.04584834
   0.00000000 -0.02941741  0.10023335
   0.50000000  0.46099826  0.15216964
   0.00000000 -0.04937758  0.20417141
   0.50000000  0.43964483  0.25716364
   0.00000000 -0.07265032  0.31092034
   0.50000000  0.42330069  0.35857565
   0.50000000  0.20315490  0.43842323
   0.50000000  0.43325505  0.45891624
Direct configuration=    64
   0.00000000 -0.00864789 -0.00152382
   0.50000000  0.48231746  0.04576077
   0.00000000 -0.03537812  0.10034193
   0.50000000  0.45716704  0.15184438
   0.00000000 -0.05216395  0.20405598
   0.50000000  0.43854498  0.25703130
   0.00000000 -0.06844015  0.31066998
   0.50000000  0.42905174  0.35843421
   0.50000000  0.21328150  0.43863388
   0.50000000  0.43490190  0.46008105
Direct configuration=    65
   0.00000000 -0.00926130 -0.00157665
   0.50000000  0.48155688  0.04574214
   0.00000000 -0.03620948  0.10031369
   0.50000000  0.45656394  0.15181237
   0.00000000 -0.05258303  0.20406006
   0.50000000  0.43841434  0.25700777
   0.00000000 -0.06778765  0.31063643
   0.50000000  0.42995517  0.35839924
   0.50000000  0.21458423  0.43864319
   0.50000000  0.43540143  0.46029142
Direct configuration=    66
   0.00000000 -0.00989181 -0.00163095
   0.50000000  0.48077509  0.04572300
   0.00000000 -0.03706402  0.10028466
   0.50000000  0.45594402  0.15177946
   0.00000000 -0.05301380  0.20406425
   0.50000000  0.43828005  0.25698358
   0.00000000 -0.06711695  0.31060194
   0.50000000  0.43088378  0.35836329
   0.50000000  0.21592328  0.43865275
   0.50000000  0.43591488  0.46050767
Direct configuration=    67
   0.00000000 -0.01115284 -0.00173956
   0.50000000  0.47921152  0.04568471
   0.00000000 -0.03877310  0.10022660
   0.50000000  0.45470418  0.15171365
   0.00000000 -0.05387534  0.20407264
   0.50000000  0.43801148  0.25693520
   0.00000000 -0.06577556  0.31053296
   0.50000000  0.43274101  0.35829139
   0.50000000  0.21860138  0.43867188
   0.50000000  0.43694177  0.46094016
Direct configuration=    68
   0.00000000 -0.01070727 -0.00170118
   0.50000000  0.47976399  0.04569824
   0.00000000 -0.03816922  0.10024712
   0.50000000  0.45514226  0.15173690
   0.00000000 -0.05357093  0.20406968
   0.50000000  0.43810638  0.25695229
   0.00000000 -0.06624952  0.31055733
   0.50000000  0.43208479  0.35831680
   0.50000000  0.21765511  0.43866512
   0.50000000  0.43657893  0.46078735
Direct configuration=    69
   0.00000000 -0.01107659 -0.00173299
   0.50000000  0.47930606  0.04568703
   0.00000000 -0.03866977  0.10023011
   0.50000000  0.45477914  0.15171763
   0.00000000 -0.05382325  0.20407213
   0.50000000  0.43802772  0.25693813
   0.00000000 -0.06585667  0.31053713
   0.50000000  0.43262872  0.35829574
   0.50000000  0.21843945  0.43867072
   0.50000000  0.43687968  0.46091401
Direct configuration=    70
   0.00000000 -0.01089193 -0.00171709
   0.50000000  0.47953502  0.04569264
   0.00000000 -0.03841949  0.10023862
   0.50000000  0.45496070  0.15172726
   0.00000000 -0.05369709  0.20407091
   0.50000000  0.43806705  0.25694521
   0.00000000 -0.06605309  0.31054723
   0.50000000  0.43235676  0.35830627
   0.50000000  0.21804728  0.43866792
   0.50000000  0.43672931  0.46085068
Direct configuration=    71
   0.00000000 -0.01100009 -0.00172640
   0.50000000  0.47940091  0.04568935
   0.00000000 -0.03856609  0.10023364
   0.50000000  0.45485436  0.15172162
   0.00000000 -0.05377099  0.20407163
   0.50000000  0.43804401  0.25694106
   0.00000000 -0.06593804  0.31054132
   0.50000000  0.43251606  0.35830010
   0.50000000  0.21827699  0.43866956
   0.50000000  0.43681739  0.46088777
Direct configuration=    72
   0.00000000 -0.01160184 -0.00174064
   0.50000000  0.47884094  0.04566403
   0.00000000 -0.03897039  0.10014973
   0.50000000  0.45442701  0.15172953
   0.00000000 -0.05404983  0.20409903
   0.50000000  0.43802681  0.25691827
   0.00000000 -0.06550850  0.31053047
   0.50000000  0.43316893  0.35826031
   0.50000000  0.21942848  0.43870502
   0.50000000  0.43687289  0.46101389
Direct configuration=    73
   0.00000000 -0.01249198 -0.00176169
   0.50000000  0.47801261  0.04562656
   0.00000000 -0.03956845  0.10002561
   0.50000000  0.45379486  0.15174123
   0.00000000 -0.05446231  0.20413958
   0.50000000  0.43800135  0.25688455
   0.00000000 -0.06487311  0.31051443
   0.50000000  0.43413471  0.35820144
   0.50000000  0.22113184  0.43875748
   0.50000000  0.43695498  0.46120046