  10  10   0   0
  0.2234684E+02  0.3630000E-09  0.2566798E-09  0.2398379E-08  0.5000000E-15
  1.000000000000000E-004
  CAR 
 unknown system                          
     11.80562321    -10.11565881  301      0.76572602      1.00000000
    -10.116  0.0000E+00  0.0000E+00  0.0000E+00  0.0000E+00
    -10.043  0.0000E+00  0.0000E+00  0.0000E+00  0.0000E+00
     -9.970  0.0000E+00  0.0000E+00  0.0000E+00  0.0000E+00
     -9.896  0.0000E+00  0.0000E+00  0.0000E+00  0.0000E+00
     -9.823  0.0000E+00  0.0000E+00  0.0000E+00  0.0000E+00
     -9.750 -0.4267E-31 -0.4267E-31 -0.3118E-32 -0.3118E-32
     -9.677 -0.1395E-28 -0.1395E-28 -0.1023E-29 -0.1023E-29
     -9.604 -0.3494E-26 -0.3494E-26 -0.2563E-27 -0.2563E-27
     -9.531 -0.6679E-24 -0.6679E-24 -0.4906E-25 -0.4906E-25
     -9.458 -0.9748E-22 -0.9748E-22 -0.7172E-23 -0.7172E-23
     -9.385 -0.1086E-19 -0.1086E-19 -0.8004E-21 -0.8004E-21
     -9.312 -0.9220E-18 -0.9220E-18 -0.6817E-19 -0.6817E-19
     -9.239 -0.5778E-16 -0.5778E-16 -0.4290E-17 -0.4290E-17
     -9.166 -0.2837E-14 -0.2837E-14 -0.2116E-15 -0.2116E-15
     -9.093 -0.1058E-12 -0.1058E-12 -0.7941E-14 -0.7941E-14
     -9.020 -0.2993E-11 -0.2993E-11 -0.2266E-12 -0.2266E-12
     -8.947 -0.6410E-10 -0.6410E-10 -0.4910E-11 -0.4910E-11
     -8.873 -0.1036E-08 -0.1036E-08 -0.8061E-10 -0.8061E-10
     -8.800 -0.1258E-07 -0.1258E-07 -0.9998E-09 -0.9998E-09
     -8.727 -0.1140E-06 -0.1140E-06 -0.9331E-08 -0.9331E-08
     -8.654 -0.7630E-06 -0.7630E-06 -0.6508E-07 -0.6508E-07
     -8.581 -0.3702E-05 -0.3702E-05 -0.3356E-06 -0.3356E-06
     -8.508 -0.1254E-04 -0.1254E-04 -0.1252E-05 -0.1252E-05
     -8.435 -0.2698E-04 -0.2698E-04 -0.3224E-05 -0.3224E-05
     -8.362 -0.2326E-04 -0.2326E-04 -0.4924E-05 -0.4924E-05
     -8.289  0.5772E-04  0.5772E-04 -0.7063E-06 -0.7063E-06
     -8.216  0.2558E-03  0.2558E-03  0.1798E-04  0.1798E-04
     -8.143  0.4886E-03  0.4886E-03  0.5369E-04  0.5369E-04
     -8.070  0.5749E-03  0.5749E-03  0.9569E-04  0.9569E-04
     -7.997  0.4351E-03  0.4351E-03  0.1275E-03  0.1275E-03
     -7.924  0.1951E-03  0.1951E-03  0.1417E-03  0.1417E-03
     -7.850  0.2572E-04  0.2572E-04  0.1436E-03  0.1436E-03
     -7.777 -0.2894E-04 -0.2894E-04  0.1415E-03  0.1415E-03
     -7.704 -0.2421E-04 -0.2421E-04  0.1397E-03  0.1397E-03
     -7.631 -0.1348E-04 -0.1348E-04  0.1388E-03  0.1388E-03
     -7.558 -0.1576E-04 -0.1576E-04  0.1376E-03  0.1376E-03
     -7.485 -0.2819E-04 -0.2819E-04  0.1355E-03  0.1355E-03
     -7.412 -0.2240E-04 -0.2240E-04  0.1339E-03  0.1339E-03
     -7.339  0.6091E-04  0.6091E-04  0.1384E-03  0.1384E-03
     -7.266  0.2519E-03  0.2519E-03  0.1568E-03  0.1568E-03
     -7.193  0.4554E-03  0.4554E-03  0.1900E-03  0.1900E-03
     -7.120  0.5126E-03  0.5126E-03  0.2275E-03  0.2275E-03
     -7.047  0.4476E-03  0.4476E-03  0.2602E-03  0.2602E-03
     -6.974  0.5110E-03  0.5110E-03  0.2975E-03  0.2975E-03
     -6.901  0.8141E-03  0.8141E-03  0.3570E-03  0.3570E-03
     -6.827  0.1073E-02  0.1073E-02  0.4354E-03  0.4354E-03
     -6.754  0.9612E-03  0.9612E-03  0.5057E-03  0.5057E-03
     -6.681  0.5932E-03  0.5932E-03  0.5490E-03  0.5490E-03
     -6.608  0.3862E-03  0.3862E-03  0.5772E-03  0.5772E-03
     -6.535  0.5570E-03  0.5570E-03  0.6179E-03  0.6179E-03
     -6.462  0.9653E-03  0.9653E-03  0.6885E-03  0.6885E-03
     -6.389  0.1305E-02  0.1305E-02  0.7838E-03  0.7838E-03
     -6.316  0.1303E-02  0.1303E-02  0.8791E-03  0.8791E-03
     -6.243  0.9039E-03  0.9039E-03  0.9451E-03  0.9451E-03
     -6.170  0.3531E-03  0.3531E-03  0.9709E-03  0.9709E-03
     -6.097  0.1302E-05  0.1302E-05  0.9710E-03  0.9710E-03
     -6.024  0.4279E-04  0.4279E-04  0.9741E-03  0.9741E-03
     -5.951  0.4505E-03  0.4505E-03  0.1007E-02  0.1007E-02
     -5.878  0.1021E-02  0.1021E-02  0.1082E-02  0.1082E-02
     -5.804  0.1511E-02  0.1511E-02  0.1192E-02  0.1192E-02
     -5.731  0.1795E-02  0.1795E-02  0.1323E-02  0.1323E-02
     -5.658  0.1812E-02  0.1812E-02  0.1456E-02  0.1456E-02
     -5.585  0.1493E-02  0.1493E-02  0.1565E-02  0.1565E-02
     -5.512  0.9721E-03  0.9721E-03  0.1636E-02  0.1636E-02
     -5.439  0.6584E-03  0.6584E-03  0.1684E-02  0.1684E-02
     -5.366  0.8551E-03  0.8551E-03  0.1746E-02  0.1746E-02
     -5.293  0.1471E-02  0.1471E-02  0.1854E-02  0.1854E-02
     -5.220  0.2143E-02  0.2143E-02  0.2010E-02  0.2010E-02
     -5.147  0.2440E-02  0.2440E-02  0.2189E-02  0.2189E-02
     -5.074  0.2183E-02  0.2183E-02  0.2348E-02  0.2348E-02
     -5.001  0.1901E-02  0.1901E-02  0.2487E-02  0.2487E-02
     -4.928  0.2435E-02  0.2435E-02  0.2665E-02  0.2665E-02
     -4.855  0.3661E-02  0.3661E-02  0.2933E-02  0.2933E-02
     -4.781  0.4284E-02  0.4284E-02  0.3246E-02  0.3246E-02
     -4.708  0.3420E-02  0.3420E-02  0.3495E-02  0.3495E-02
     -4.635  0.1694E-02  0.1694E-02  0.3619E-02  0.3619E-02
     -4.562  0.3004E-03  0.3004E-03  0.3641E-02  0.3641E-02
     -4.489 -0.3239E-03 -0.3239E-03  0.3618E-02  0.3618E-02
     -4.416 -0.4411E-03 -0.4411E-03  0.3585E-02  0.3585E-02
     -4.343 -0.1581E-03 -0.1581E-03  0.3574E-02  0.3574E-02
     -4.270  0.8789E-03  0.8789E-03  0.3638E-02  0.3638E-02
     -4.197  0.2825E-02  0.2825E-02  0.3844E-02  0.3844E-02
     -4.124  0.4842E-02  0.4842E-02  0.4198E-02  0.4198E-02
     -4.051  0.5519E-02  0.5519E-02  0.4602E-02  0.4602E-02
     -3.978  0.4400E-02  0.4400E-02  0.4923E-02  0.4923E-02
     -3.905  0.2616E-02  0.2616E-02  0.5114E-02  0.5114E-02
     -3.832  0.1649E-02  0.1649E-02  0.5235E-02  0.5235E-02
     -3.758  0.1895E-02  0.1895E-02  0.5373E-02  0.5373E-02
     -3.685  0.2765E-02  0.2765E-02  0.5575E-02  0.5575E-02
     -3.612  0.3753E-02  0.3753E-02  0.5850E-02  0.5850E-02
     -3.539  0.4826E-02  0.4826E-02  0.6202E-02  0.6202E-02
     -3.466  0.5920E-02  0.5920E-02  0.6635E-02  0.6635E-02
     -3.393  0.6797E-02  0.6797E-02  0.7131E-02  0.7131E-02
     -3.320  0.7477E-02  0.7477E-02  0.7678E-02  0.7678E-02
     -3.247  0.8287E-02  0.8287E-02  0.8283E-02  0.8283E-02
     -3.174  0.9352E-02  0.9352E-02  0.8967E-02  0.8967E-02
     -3.101  0.1045E-01  0.1045E-01  0.9730E-02  0.9730E-02
     -3.028  0.1133E-01  0.1133E-01  0.1056E-01  0.1056E-01
     -2.955  0.1169E-01  0.1169E-01  0.1141E-01  0.1141E-01
     -2.882  0.1108E-01  0.1108E-01  0.1222E-01  0.1222E-01
     -2.809  0.9560E-02  0.9560E-02  0.1292E-01  0.1292E-01
     -2.735  0.8258E-02  0.8258E-02  0.1352E-01  0.1352E-01
     -2.662  0.8416E-02  0.8416E-02  0.1414E-01  0.1414E-01
     -2.589  0.9855E-02  0.9855E-02  0.1486E-01  0.1486E-01
     -2.516  0.1122E-01  0.1122E-01  0.1568E-01  0.1568E-01
     -2.443  0.1201E-01  0.1201E-01  0.1656E-01  0.1656E-01
     -2.370  0.1294E-01  0.1294E-01  0.1750E-01  0.1750E-01
     -2.297  0.1417E-01  0.1417E-01  0.1854E-01  0.1854E-01
     -2.224  0.1476E-01  0.1476E-01  0.1962E-01  0.1962E-01
     -2.151  0.1482E-01  0.1482E-01  0.2070E-01  0.2070E-01
     -2.078  0.1612E-01  0.1612E-01  0.2188E-01  0.2188E-01
     -2.005  0.1915E-01  0.1915E-01  0.2328E-01  0.2328E-01
     -1.932  0.2153E-01  0.2153E-01  0.2485E-01  0.2485E-01
     -1.859  0.2095E-01  0.2095E-01  0.2638E-01  0.2638E-01
     -1.786  0.1822E-01  0.1822E-01  0.2771E-01  0.2771E-01
     -1.713  0.1591E-01  0.1591E-01  0.2887E-01  0.2887E-01
     -1.639  0.1506E-01  0.1506E-01  0.2998E-01  0.2998E-01
     -1.566  0.1444E-01  0.1444E-01  0.3103E-01  0.3103E-01
     -1.493  0.1272E-01  0.1272E-01  0.3196E-01  0.3196E-01
     -1.420  0.1061E-01  0.1061E-01  0.3274E-01  0.3274E-01
     -1.347  0.1025E-01  0.1025E-01  0.3348E-01  0.3348E-01
     -1.274  0.1295E-01  0.1295E-01  0.3443E-01  0.3443E-01
     -1.201  0.1811E-01  0.1811E-01  0.3575E-01  0.3575E-01
     -1.128  0.2356E-01  0.2356E-01  0.3747E-01  0.3747E-01
     -1.055  0.2656E-01  0.2656E-01  0.3942E-01  0.3942E-01
     -0.982  0.2551E-01  0.2551E-01  0.4128E-01  0.4128E-01
     -0.909  0.2199E-01  0.2199E-01  0.4289E-01  0.4289E-01
     -0.836  0.1970E-01  0.1970E-01  0.4433E-01  0.4433E-01
     -0.763  0.2044E-01  0.2044E-01  0.4582E-01  0.4582E-01
     -0.690  0.2244E-01  0.2244E-01  0.4746E-01  0.4746E-01
     -0.616  0.2321E-01  0.2321E-01  0.4915E-01  0.4915E-01
     -0.543  0.2194E-01  0.2194E-01  0.5076E-01  0.5076E-01
     -0.470  0.1898E-01  0.1898E-01  0.5214E-01  0.5214E-01
     -0.397  0.1484E-01  0.1484E-01  0.5323E-01  0.5323E-01
     -0.324  0.1049E-01  0.1049E-01  0.5400E-01  0.5400E-01
     -0.251  0.7015E-02  0.7015E-02  0.5451E-01  0.5451E-01
     -0.178  0.4664E-02  0.4664E-02  0.5485E-01  0.5485E-01
     -0.105  0.2880E-02  0.2880E-02  0.5506E-01  0.5506E-01
     -0.032  0.1335E-02  0.1335E-02  0.5516E-01  0.5516E-01
      0.041  0.2386E-03  0.2386E-03  0.5517E-01  0.5517E-01
      0.114 -0.2506E-03 -0.2506E-03  0.5516E-01  0.5516E-01
      0.187 -0.3145E-03 -0.3145E-03  0.5513E-01  0.5513E-01
      0.260 -0.1316E-03 -0.1316E-03  0.5512E-01  0.5512E-01
      0.333  0.3526E-03  0.3526E-03  0.5515E-01  0.5515E-01
      0.407  0.1173E-02  0.1173E-02  0.5524E-01  0.5524E-01
      0.480  0.2090E-02  0.2090E-02  0.5539E-01  0.5539E-01
      0.553  0.2817E-02  0.2817E-02  0.5559E-01  0.5559E-01
      0.626  0.3263E-02  0.3263E-02  0.5583E-01  0.5583E-01
      0.699  0.3282E-02  0.3282E-02  0.5607E-01  0.5607E-01
      0.772  0.2619E-02  0.2619E-02  0.5626E-01  0.5626E-01
      0.845  0.1467E-02  0.1467E-02  0.5637E-01  0.5637E-01
      0.918  0.5680E-03  0.5680E-03  0.5641E-01  0.5641E-01
      0.991  0.4309E-03  0.4309E-03  0.5644E-01  0.5644E-01
      1.064  0.7903E-03  0.7903E-03  0.5650E-01  0.5650E-01
      1.137  0.1005E-02  0.1005E-02  0.5657E-01  0.5657E-01
      1.210  0.8244E-03  0.8244E-03  0.5663E-01  0.5663E-01
      1.283  0.5940E-03  0.5940E-03  0.5668E-01  0.5668E-01
      1.356  0.6692E-03  0.6692E-03  0.5673E-01  0.5673E-01
      1.430  0.9120E-03  0.9120E-03  0.5679E-01  0.5679E-01
      1.503  0.1030E-02  0.1030E-02  0.5687E-01  0.5687E-01
      1.576  0.1169E-02  0.1169E-02  0.5695E-01  0.5695E-01
      1.649  0.1637E-02  0.1637E-02  0.5707E-01  0.5707E-01
      1.722  0.2152E-02  0.2152E-02  0.5723E-01  0.5723E-01
      1.795  0.2028E-02  0.2028E-02  0.5738E-01  0.5738E-01
      1.868  0.1209E-02  0.1209E-02  0.5747E-01  0.5747E-01
      1.941  0.4919E-03  0.4919E-03  0.5750E-01  0.5750E-01
      2.014  0.6154E-03  0.6154E-03  0.5755E-01  0.5755E-01
      2.087  0.1442E-02  0.1442E-02  0.5765E-01  0.5765E-01
      2.160  0.2117E-02  0.2117E-02  0.5781E-01  0.5781E-01
      2.233  0.2054E-02  0.2054E-02  0.5796E-01  0.5796E-01
      2.306  0.1601E-02  0.1601E-02  0.5808E-01  0.5808E-01
      2.379  0.1411E-02  0.1411E-02  0.5818E-01  0.5818E-01
      2.453  0.1538E-02  0.1538E-02  0.5829E-01  0.5829E-01
      2.526  0.1696E-02  0.1696E-02  0.5842E-01  0.5842E-01
      2.599  0.1902E-02  0.1902E-02  0.5855E-01  0.5855E-01
      2.672  0.2167E-02  0.2167E-02  0.5871E-01  0.5871E-01
      2.745  0.2168E-02  0.2168E-02  0.5887E-01  0.5887E-01
      2.818  0.1864E-02  0.1864E-02  0.5901E-01  0.5901E-01
      2.891  0.1762E-02  0.1762E-02  0.5914E-01  0.5914E-01
      2.964  0.2089E-02  0.2089E-02  0.5929E-01  0.5929E-01
      3.037  0.2355E-02  0.2355E-02  0.5946E-01  0.5946E-01
      3.110  0.2044E-02  0.2044E-02  0.5961E-01  0.5961E-01
      3.183  0.1252E-02  0.1252E-02  0.5970E-01  0.5970E-01
      3.256  0.4677E-03  0.4677E-03  0.5974E-01  0.5974E-01
      3.329  0.2277E-04  0.2277E-04  0.5974E-01  0.5974E-01
      3.402 -0.9736E-04 -0.9736E-04  0.5973E-01  0.5973E-01
      3.476 -0.7512E-04 -0.7512E-04  0.5972E-01  0.5972E-01
      3.549 -0.5161E-04 -0.5161E-04  0.5972E-01  0.5972E-01
      3.622 -0.8451E-04 -0.8451E-04  0.5971E-01  0.5971E-01
      3.695 -0.1701E-03 -0.1701E-03  0.5970E-01  0.5970E-01
      3.768 -0.1796E-03 -0.1796E-03  0.5969E-01  0.5969E-01
      3.841  0.2192E-03  0.2192E-03  0.5971E-01  0.5971E-01
      3.914  0.1357E-02  0.1357E-02  0.5980E-01  0.5980E-01
      3.987  0.3044E-02  0.3044E-02  0.6003E-01  0.6003E-01
      4.060  0.4407E-02  0.4407E-02  0.6035E-01  0.6035E-01
      4.133  0.4646E-02  0.4646E-02  0.6069E-01  0.6069E-01
      4.206  0.3879E-02  0.3879E-02  0.6097E-01  0.6097E-01
      4.279  0.2911E-02  0.2911E-02  0.6118E-01  0.6118E-01
      4.352  0.2271E-02  0.2271E-02  0.6135E-01  0.6135E-01
      4.425  0.1865E-02  0.1865E-02  0.6149E-01  0.6149E-01
      4.499  0.1461E-02  0.1461E-02  0.6159E-01  0.6159E-01
      4.572  0.1064E-02  0.1064E-02  0.6167E-01  0.6167E-01
      4.645  0.7616E-03  0.7615E-03  0.6173E-01  0.6173E-01
      4.718  0.5326E-03  0.5326E-03  0.6177E-01  0.6177E-01
      4.791  0.3797E-03  0.3798E-03  0.6179E-01  0.6179E-01
      4.864  0.4435E-03  0.4436E-03  0.6183E-01  0.6183E-01
      4.937  0.7568E-03  0.7569E-03  0.6188E-01  0.6188E-01
      5.010  0.1060E-02  0.1060E-02  0.6196E-01  0.6196E-01
      5.083  0.1130E-02  0.1130E-02  0.6204E-01  0.6204E-01
      5.156  0.1084E-02  0.1084E-02  0.6212E-01  0.6212E-01
      5.229  0.1065E-02  0.1065E-02  0.6220E-01  0.6220E-01
      5.302  0.9308E-03  0.9308E-03  0.6227E-01  0.6227E-01
      5.375  0.6604E-03  0.6605E-03  0.6231E-01  0.6231E-01
      5.448  0.7440E-03  0.7440E-03  0.6237E-01  0.6237E-01
      5.522  0.1669E-02  0.1669E-02  0.6249E-01  0.6249E-01
      5.595  0.3137E-02  0.3137E-02  0.6272E-01  0.6272E-01
      5.668  0.4150E-02  0.4150E-02  0.6302E-01  0.6302E-01
      5.741  0.3995E-02  0.3995E-02  0.6332E-01  0.6332E-01
      5.814  0.2993E-02  0.2993E-02  0.6353E-01  0.6353E-01
      5.887  0.2221E-02  0.2221E-02  0.6370E-01  0.6370E-01
      5.960  0.2490E-02  0.2490E-02  0.6388E-01  0.6388E-01
      6.033  0.3531E-02  0.3531E-02  0.6414E-01  0.6414E-01
      6.106  0.4173E-02  0.4173E-02  0.6444E-01  0.6444E-01
      6.179  0.3587E-02  0.3587E-02  0.6470E-01  0.6470E-01
      6.252  0.2284E-02  0.2284E-02  0.6487E-01  0.6487E-01
      6.325  0.1421E-02  0.1421E-02  0.6497E-01  0.6497E-01
      6.398  0.1400E-02  0.1400E-02  0.6508E-01  0.6508E-01
      6.471  0.1799E-02  0.1799E-02  0.6521E-01  0.6521E-01
      6.545  0.2223E-02  0.2223E-02  0.6537E-01  0.6537E-01
      6.618  0.2614E-02  0.2614E-02  0.6556E-01  0.6556E-01
      6.691  0.3058E-02  0.3058E-02  0.6578E-01  0.6578E-01
      6.764  0.3510E-02  0.3510E-02  0.6604E-01  0.6604E-01
      6.837  0.3578E-02  0.3578E-02  0.6630E-01  0.6630E-01
      6.910  0.2950E-02  0.2950E-02  0.6652E-01  0.6652E-01
      6.983  0.2178E-02  0.2178E-02  0.6668E-01  0.6668E-01
      7.056  0.2261E-02  0.2261E-02  0.6684E-01  0.6684E-01
      7.129  0.3237E-02  0.3236E-02  0.6708E-01  0.6708E-01
      7.202  0.3930E-02  0.3930E-02  0.6737E-01  0.6737E-01
      7.275  0.3369E-02  0.3369E-02  0.6761E-01  0.6761E-01
      7.348  0.1913E-02  0.1913E-02  0.6775E-01  0.6775E-01
      7.421  0.7184E-03  0.7184E-03  0.6780E-01  0.6780E-01
      7.494  0.4329E-03  0.4328E-03  0.6784E-01  0.6784E-01
      7.568  0.8025E-03  0.8023E-03  0.6789E-01  0.6789E-01
      7.641  0.1378E-02  0.1378E-02  0.6800E-01  0.6800E-01
      7.714  0.2152E-02  0.2152E-02  0.6815E-01  0.6815E-01
      7.787  0.3294E-02  0.3294E-02  0.6839E-01  0.6839E-01
      7.860  0.4516E-02  0.4516E-02  0.6872E-01  0.6872E-01
      7.933  0.5137E-02  0.5137E-02  0.6910E-01  0.6910E-01
      8.006  0.4866E-02  0.4866E-02  0.6945E-01  0.6945E-01
      8.079  0.4203E-02  0.4203E-02  0.6976E-01  0.6976E-01
      8.152  0.3776E-02  0.3776E-02  0.7004E-01  0.7004E-01
      8.225  0.3498E-02  0.3498E-02  0.7029E-01  0.7029E-01
      8.298  0.2835E-02  0.2835E-02  0.7050E-01  0.7050E-01
      8.371  0.1780E-02  0.1780E-02  0.7063E-01  0.7063E-01
      8.444  0.1063E-02  0.1063E-02  0.7071E-01  0.7071E-01
      8.517  0.1273E-02  0.1273E-02  0.7080E-01  0.7080E-01
      8.591  0.2071E-02  0.2071E-02  0.7095E-01  0.7095E-01
      8.664  0.2539E-02  0.2539E-02  0.7114E-01  0.7114E-01
      8.737  0.2281E-02  0.2281E-02  0.7130E-01  0.7130E-01
      8.810  0.1819E-02  0.1819E-02  0.7144E-01  0.7144E-01
      8.883  0.1796E-02  0.1796E-02  0.7157E-01  0.7157E-01
      8.956  0.2114E-02  0.2114E-02  0.7172E-01  0.7172E-01
      9.029  0.2222E-02  0.2222E-02  0.7189E-01  0.7189E-01
      9.102  0.2116E-02  0.2116E-02  0.7204E-01  0.7204E-01
      9.175  0.2422E-02  0.2422E-02  0.7222E-01  0.7222E-01
      9.248  0.3284E-02  0.3284E-02  0.7246E-01  0.7246E-01
      9.321  0.4003E-02  0.4003E-02  0.7275E-01  0.7275E-01
      9.394  0.4149E-02  0.4149E-02  0.7305E-01  0.7305E-01
      9.467  0.4119E-02  0.4119E-02  0.7335E-01  0.7335E-01
      9.540  0.4356E-02  0.4356E-02  0.7367E-01  0.7367E-01
      9.613  0.4725E-02  0.4725E-02  0.7402E-01  0.7402E-01
      9.687  0.4770E-02  0.4770E-02  0.7437E-01  0.7437E-01
      9.760  0.4155E-02  0.4155E-02  0.7467E-01  0.7467E-01
      9.833  0.2922E-02  0.2922E-02  0.7488E-01  0.7488E-01
      9.906  0.1510E-02  0.1510E-02  0.7499E-01  0.7499E-01
      9.979  0.4437E-03  0.4438E-03  0.7503E-01  0.7503E-01
     10.052 -0.5924E-04 -0.5922E-04  0.7502E-01  0.7502E-01
     10.125 -0.1505E-03 -0.1505E-03  0.7501E-01  0.7501E-01
     10.198 -0.9196E-04 -0.9197E-04  0.7500E-01  0.7500E-01
     10.271 -0.3475E-04 -0.3476E-04  0.7500E-01  0.7500E-01
     10.344 -0.9189E-05 -0.9190E-05  0.7500E-01  0.7500E-01
     10.417 -0.1770E-05 -0.1771E-05  0.7500E-01  0.7500E-01
     10.490 -0.2530E-06 -0.2531E-06  0.7500E-01  0.7500E-01
     10.563 -0.2709E-07 -0.2709E-07  0.7500E-01  0.7500E-01
     10.636 -0.2184E-08 -0.2185E-08  0.7500E-01  0.7500E-01
     10.710 -0.1331E-09 -0.1332E-09  0.7500E-01  0.7500E-01
     10.783 -0.6151E-11 -0.6153E-11  0.7500E-01  0.7500E-01
     10.856 -0.2158E-12 -0.2158E-12  0.7500E-01  0.7500E-01
     10.929 -0.5755E-14 -0.5756E-14  0.7500E-01  0.7500E-01
     11.002 -0.1165E-15 -0.1165E-15  0.7500E-01  0.7500E-01
     11.075 -0.1688E-17 -0.1688E-17  0.7500E-01  0.7500E-01
     11.148  0.0000E+00  0.0000E+00  0.7500E-01  0.7500E-01
     11.221  0.0000E+00  0.0000E+00  0.7500E-01  0.7500E-01
     11.294  0.0000E+00  0.0000E+00  0.7500E-01  0.7500E-01
     11.367  0.0000E+00  0.0000E+00  0.7500E-01  0.7500E-01
     11.440  0.0000E+00  0.0000E+00  0.7500E-01  0.7500E-01
     11.513  0.0000E+00  0.0000E+00  0.7500E-01  0.7500E-01
     11.586  0.0000E+00  0.0000E+00  0.7500E-01  0.7500E-01
     11.659  0.0000E+00  0.0000E+00  0.7500E-01  0.7500E-01
     11.733  0.0000E+00  0.0000E+00  0.7500E-01  0.7500E-01
     11.806  0.0000E+00  0.0000E+00  0.7500E-01  0.7500E-01
