 vasp.6.3.2 27Jun22 (build Aug 17 2022 15:43:34) complex                        
  
 executed on           tv2STDVTST date 2025.02.04  13:29:01
 running   20 mpi-ranks, with    1 threads/rank
 distrk:  each k-point on   20 cores,    1 groups
 distr:  one band on NCORE=   5 cores,    4 groups


--------------------------------------------------------------------------------------------------------


 -----------------------------------------------------------------------------
|                                                                             |
|           W    W    AA    RRRRR   N    N  II  N    N   GGGG   !!!           |
|           W    W   A  A   R    R  NN   N  II  NN   N  G    G  !!!           |
|           W    W  A    A  R    R  N N  N  II  N N  N  G       !!!           |
|           W WW W  AAAAAA  RRRRR   N  N N  II  N  N N  G  GGG   !            |
|           WW  WW  A    A  R   R   N   NN  II  N   NN  G    G                |
|           W    W  A    A  R    R  N    N  II  N    N   GGGG   !!!           |
|                                                                             |
|     Found issues when parsing the INCAR file                                |
|     In line 61: Tagname --- R W I G S contains invalid characters.          |
|     Please check if the interpretation in the OUTCAR file is correct.       |
|                                                                             |
 -----------------------------------------------------------------------------

 INCAR:
    = \=\=\=\=\=\=\=\=\=\=\=\=\=\=\=\=\=\=\=\=\=\=\=\=\=\=\=\=\=\=\=\=\=\=\=\=\=\=\=\=\=\=\=\=\=\=\=\=\=\=\=\=\=\=\=\=\=\=\=\=\=\=\=\=\=\=\=\=\=\=\=\=
    = \=\=\=\=\=\=\=\=\=\=\=\=\=\=\=\=\=\=\=\=\=\=\=\=\=\=\=\=\=\=\=\=\=\=\=\=\=\=\=\=\=\=\=\=\=\=\=\=\=\=\=\=\=\=\=\=\=\=\=\=\=\=\=\=\=\=\=\=\=\=\=\=
   ISTART = 0
   ICHARG = 2
   IPIPOL = 3
   IVDW = 11
    = \=\=\=\=\=\=\=\=\=\=\=\=\=\=\=\=\=\=\=\=\=\=\=\=\=\=\=\=\=\=\=\=\=\=\=\=\=\=\=\=\=\=\=\=\=\=\=\=\=\=\=\=\=\=\=\=\=\=\=\=\=\=\=\=\=\=\=\=\=\=\=\=
    = \=\=\=\=\=\=\=\=\=\=\=\=\=\=\=\=\=\=\=\=\=\=\=\=\=\=\=\=\=\=\=\=\=\=\=\=\=\=\=\=\=\=\=\=\=\=\=\=\=\=\=\=\=\=\=\=\=\=\=\=\=\=\=\=\=\=\=\=\=\=\=\=
   ISPIN = 2
    = \=\=\=\=\=\=\=\=\=\=\=\=\=\=\=\=\=\=\=\=\=\=\=\=\=\=\=\=\=\=\=\=\=\=\=\=\=\=\=\=\=\=\=\=\=\=\=\=\=\=\=\=\=\=\=\=\=\=\=\=\=\=\=\=\=\=\=\=\=\=\=\=
    = \=\=\=\=\=\=\=\=\=\=\=\=\=\=\=\=\=\=\=\=\=\=\=\=\=\=\=\=\=\=\=\=\=\=\=\=\=\=\=\=\=\=\=\=\=\=\=\=\=\=\=\=\=\=\=\=\=\=\=\=\=\=\=\=\=\=\=\=\=\=\=\=
   ENCUT = 400
   PREC = Normal
   EDIFF = 2E-04
   GGA = PE
   ISMEAR = 1
   SIGMA = 0.2
   LREAL = .FALSE.
    = \=\=\=\=\=\=\=\=\=\=\=\=\=\=\=\=\=\=\=\=\=\=\=\=\=\=\=\=\=\=\=\=\=\=\=\=\=\=\=\=\=\=\=\=\=\=\=\=\=\=\=\=\=\=\=\=\=\=\=\=\=\=\=\=\=\=\=\=\=\=\=\=
    = \=\=\=\=\=\=\=\=\=\=\=\=\=\=\=\=\=\=\=\=\=\=\=\=\=\=\=\=\=\=\=\=\=\=\=\=\=\=\=\=\=\=\=\=\=\=\=\=\=\=\=\=\=\=\=\=\=\=\=\=\=\=\=\=\=\=\=\=\=\=\=\=
   ISYM = 1
   NSW = 800
   IBRION = 2
   POTIM = 0.5
   ISIF = 2
   EDIFFG = -.03
    = \=\=\=\=\=\=\=\=\=\=\=\=\=\=\=\=\=\=\=\=\=\=\=\=\=\=\=\=\=\=\=\=\=\=\=\=\=\=\=\=\=\=\=\=\=\=\=\=\=\=\=\=\=\=\=\=\=\=\=\=\=\=\=\=\=\=\=\=\=\=\=\=
    = \=\=\=\=\=\=\=\=\=\=\=\=\=\=\=\=\=\=\=\=\=\=\=\=\=\=\=\=\=\=\=\=\=\=\=\=\=\=\=\=\=\=\=\=\=\=\=\=\=\=\=\=\=\=\=\=\=\=\=\=\=\=\=\=\=\=\=\=\=\=\=\=
   NPAR = 4
   LWAVE = .FALSE.
   LCHARG = .FALSE.

 POTCAR:    PAW_PBE Cu 22Jun2005                  
 POTCAR:    PAW_PBE H 15Jun2001                   
 -----------------------------------------------------------------------------
|                                                                             |
|           W    W    AA    RRRRR   N    N  II  N    N   GGGG   !!!           |
|           W    W   A  A   R    R  NN   N  II  NN   N  G    G  !!!           |
|           W    W  A    A  R    R  N N  N  II  N N  N  G       !!!           |
|           W WW W  AAAAAA  RRRRR   N  N N  II  N  N N  G  GGG   !            |
|           WW  WW  A    A  R   R   N   NN  II  N   NN  G    G                |
|           W    W  A    A  R    R  N    N  II  N    N   GGGG   !!!           |
|                                                                             |
|     You use a magnetic or noncollinear calculation, but did not specify     |
|     the initial magnetic moment with the MAGMOM tag. Note that a            |
|     default of 1 will be used for all atoms. This ferromagnetic setup       |
|     may break the symmetry of the crystal, in particular it may rule        |
|     out finding an antiferromagnetic solution. Thence, we recommend         |
|     setting the initial magnetic moment manually or verifying carefully     |
|     that this magnetic setup is desired.                                    |
|                                                                             |
 -----------------------------------------------------------------------------

 POTCAR:    PAW_PBE Cu 22Jun2005                  
   SHA256 =  0e71e558f37a4e8407882b4609ceaae59938afaad9ced71dfe8490308a0ab630 Cu/POTCAR             
   COPYR  = (c) Copyright 22Jun2005 Georg Kresse                                                    
   COPYR  = This file is part of the software VASP. Any use, copying, and all other rights are regul
   COPYR  = If you do not have a valid VASP license, you may not use, copy or distribute this file. 
   VRHFIN =Cu: d10 p1                                                                               
   LEXCH  = PE                                                                                      
   EATOM  =  1390.9808 eV,  102.2342 Ry                                                             
                                                                                                    
   TITEL  = PAW_PBE Cu 22Jun2005                                                                    
   LULTRA =        F    use ultrasoft PP ?                                                          
   IUNSCR =        1    unscreen: 0-lin 1-nonlin 2-no                                               
   RPACOR =    2.000    partial core radius                                                         
   POMASS =   63.546; ZVAL   =   11.000    mass and valenz                                          
   RCORE  =    2.300    outmost cutoff radius                                                       
   RWIGS  =    2.200; RWIGS  =    1.164    wigner-seitz radius (au A)                               
   ENMAX  =  295.446; ENMIN  =  221.585 eV                                                          
   ICORE  =        3    local potential                                                             
   LCOR   =        T    correct aug charges                                                         
   LPAW   =        T    paw PP                                                                      
   EAUG   =  586.980                                                                                
   DEXC   =    0.000                                                                                
   RMAX   =    2.344    core radius for proj-oper                                                   
   RAUG   =    1.300    factor for augmentation sphere                                              
   RDEP   =    2.302    radius for radial grids                                                     
   RDEPT  =    1.771    core radius for aug-charge                                                  
                                                                                                    
   Atomic configuration                                                                             
    9 entries                                                                                       
     n  l   j            E        occ.                                                              
     1  0  0.50     -8850.2468   2.0000                                                             
     2  0  0.50     -1062.3498   2.0000                                                             
     2  1  1.50      -916.8226   6.0000                                                             
     3  0  0.50      -114.6929   2.0000                                                             
     3  1  1.50       -72.1325   6.0000                                                             
     3  2  2.50        -5.0394  10.0000                                                             
     4  0  0.50        -4.6097   1.0000                                                             
     4  1  0.50        -4.0817   0.0000                                                             
     4  3  2.50        -1.3606   0.0000                                                             
   Description                                                                                      
     l       E           TYP  RCUT    TYP  RCUT                                                     
     2     -5.0393973     23  2.200                                                                 
     2     10.8846608     23  2.200                                                                 
     0     -4.6097109     23  2.200                                                                 
     0      8.2520465     23  2.200                                                                 
     1     -2.7211652     23  2.200                                                                 
     1     21.7055443     23  2.200                                                                 
     3      2.7211652     23  2.300                                                                 
  local pseudopotential read in
  partial core-charges read in
  partial kinetic energy density read in
  atomic valenz-charges read in
  non local Contribution for L=           2  read in
    real space projection operators read in
  non local Contribution for L=           2  read in
    real space projection operators read in
  non local Contribution for L=           0  read in
    real space projection operators read in
  non local Contribution for L=           0  read in
    real space projection operators read in
  non local Contribution for L=           1  read in
    real space projection operators read in
  non local Contribution for L=           1  read in
    real space projection operators read in
    PAW grid and wavefunctions read in
 
   number of l-projection  operators is LMAX  =           6
   number of lm-projection operators is LMMAX =          18
 
 POTCAR:    PAW_PBE H 15Jun2001                   
   SHA256 =  030f79b5d3ab3cf0e668861823c8fb652ff669f3e15e46930bd03bfd63a607b6 H/POTCAR              
   COPYR  = (c) Copyright 15Jun2001 Georg Kresse                                                    
   COPYR  = This file is part of the software VASP. Any use, copying, and all other rights are regul
   COPYR  = If you do not have a valid VASP license, you may not use, copy or distribute this file. 
   VRHFIN =H: ultrasoft test                                                                        
   LEXCH  = PE                                                                                      
   EATOM  =    12.4884 eV,    0.9179 Ry                                                             
                                                                                                    
   TITEL  = PAW_PBE H 15Jun2001                                                                     
   LULTRA =        F    use ultrasoft PP ?                                                          
   IUNSCR =        0    unscreen: 0-lin 1-nonlin 2-no                                               
   RPACOR =    0.000    partial core radius                                                         
   POMASS =    1.000; ZVAL   =    1.000    mass and valenz                                          
   RCORE  =    1.100    outmost cutoff radius                                                       
   RWIGS  =    0.700; RWIGS  =    0.370    wigner-seitz radius (au A)                               
   ENMAX  =  250.000; ENMIN  =  200.000 eV                                                          
   RCLOC  =    0.701    cutoff for local pot                                                        
   LCOR   =        T    correct aug charges                                                         
   LPAW   =        T    paw PP                                                                      
   EAUG   =  400.000                                                                                
   RMAX   =    1.123    core radius for proj-oper                                                   
   RAUG   =    1.200    factor for augmentation sphere                                              
   RDEP   =    1.112    radius for radial grids                                                     
   RDEPT  =    0.926    core radius for aug-charge                                                  
                                                                                                    
   Atomic configuration                                                                             
    2 entries                                                                                       
     n  l   j            E        occ.                                                              
     1  0  0.50        -6.4927   1.0000                                                             
     2  1  0.50        -3.4015   0.0000                                                             
   Description                                                                                      
     l       E           TYP  RCUT    TYP  RCUT                                                     
     0     -6.4927494     23  1.100                                                                 
     0      6.8029130     23  1.100                                                                 
     1     -4.0817478     23  1.100                                                                 
  local pseudopotential read in
  atomic valenz-charges read in
  non local Contribution for L=           0  read in
    real space projection operators read in
  non local Contribution for L=           0  read in
    real space projection operators read in
  non local Contribution for L=           1  read in
    real space projection operators read in
    PAW grid and wavefunctions read in
 
   number of l-projection  operators is LMAX  =           3
   number of lm-projection operators is LMMAX =           5
 
  PAW_PBE Cu 22Jun2005                  :
 energy of atom  1       EATOM=-1390.9808
 kinetic energy error for atom=    0.0232 (will be added to EATOM!!)
  PAW_PBE H 15Jun2001                   :
 energy of atom  2       EATOM=  -12.4884
 kinetic energy error for atom=    0.0098 (will be added to EATOM!!)
 
 
 POSCAR: FCC Cu
  positions in cartesian coordinates
  No initial velocities read in
 exchange correlation table for  LEXCH =        8
   RHO(1)=    0.500       N(1)  =     2000
   RHO(2)=  100.500       N(2)  =     4000

 VTST: version 4.2, (08/11/21)

 CHAIN: initializing optimizer
 
 OPT: Using VASP Conjugate-Gradient optimizer
 CHAIN: Read ICHAIN            0
 
 POSCAR: FCC Cu
  positions in cartesian coordinates
  No initial velocities read in
 


--------------------------------------------------------------------------------------------------------


 ion  position               nearest neighbor table
   1  0.000  0.000  0.000-   3 2.51   2 2.57   2 2.57   2 2.57   2 2.57
   2  0.500  0.500  0.054-   4 2.50   3 2.54   3 2.54   3 2.54   3 2.54   1 2.57   1 2.57   1 2.57
                             1 2.57
   3  0.000  0.000  0.105-   1 2.51   2 2.54   2 2.54   2 2.54   2 2.54   5 2.54   4 2.56   4 2.56
                             4 2.56   4 2.56
   4  0.500  0.500  0.158-   2 2.50   6 2.52   5 2.56   5 2.56   5 2.56   5 2.56   3 2.56   3 2.56
                             3 2.56   3 2.56
   5  0.000  0.000  0.211-   3 2.54   6 2.55   6 2.55   6 2.55   6 2.55   7 2.55   4 2.56   4 2.56
                             4 2.56   4 2.56
   6  0.500  0.500  0.263-   8 2.44   4 2.52   5 2.55   5 2.55   5 2.55   5 2.55   7 2.58   7 2.58
                             7 2.58   7 2.58
   7  0.000  0.000  0.317-   8 2.50   8 2.50   8 2.50   8 2.50   5 2.55   6 2.58   6 2.58   6 2.58
                             6 2.58
   8  0.500  0.500  0.365-   6 2.44   7 2.50   7 2.50   7 2.50   7 2.50
   9  0.500  0.000  0.427-  10 0.75
  10  0.500  0.000  0.458-   9 0.75
 
  LATTYP: Found a simple orthorhombic cell.
 ALAT       =     2.5667977333
 B/A-ratio  =     1.4142135422
 C/A-ratio  =     9.3438571494
  
  Lattice vectors:
  
 A1 = (   0.0000000000,  -2.5667977333,   0.0000000000)
 A2 = (   3.6300001144,   0.0000000000,   0.0000000000)
 A3 = (   0.0000000000,   0.0000000000,  23.9837913513)


Analysis of symmetry for initial positions (statically):
=====================================================================
 Subroutine PRICEL returns:
 Original cell was already a primitive cell.
 

 Routine SETGRP: Setting up the symmetry group for a 
 simple orthorhombic supercell.


 Subroutine GETGRP returns: Found  4 space group operations
 (whereof  4 operations were pure point group operations)
 out of a pool of  8 trial point group operations.


The static configuration has the point symmetry C_2v.


Analysis of symmetry for dynamics (positions and initial velocities):
=====================================================================
 Subroutine PRICEL returns:
 Original cell was already a primitive cell.
 

 Routine SETGRP: Setting up the symmetry group for a 
 simple orthorhombic supercell.


 Subroutine GETGRP returns: Found  4 space group operations
 (whereof  4 operations were pure point group operations)
 out of a pool of  8 trial point group operations.


The dynamic configuration has the point symmetry C_2v.


Analysis of structural, dynamic, and magnetic symmetry:
=====================================================================
 Subroutine PRICEL returns:
 Original cell was already a primitive cell.
 

 Routine SETGRP: Setting up the symmetry group for a 
 simple orthorhombic supercell.


 Subroutine GETGRP returns: Found  4 space group operations
 (whereof  4 operations were pure point group operations)
 out of a pool of  8 trial point group operations.


The overall configuration has the point symmetry C_2v.


 Subroutine INISYM returns: Found  4 space group operations
 (whereof  4 operations are pure point group operations),
 and found     1 'primitive' translations


----------------------------------------------------------------------------------------

                                     Primitive cell                                     

  volume of cell :     223.4684

  direct lattice vectors                    reciprocal lattice vectors
     3.630000114  0.000000000  0.000000000     0.275482085  0.000000000  0.000000000
     0.000000000  2.566797733  0.000000000     0.000000000  0.389590495  0.000000000
     0.000000000  0.000000000 23.983791351     0.000000000  0.000000000  0.041694826

  length of vectors
     3.630000114  2.566797733 23.983791351     0.275482085  0.389590495  0.041694826

  position of ions in fractional coordinates (direct lattice)
     0.000000000  0.000000000  0.000000000
     0.500000000  0.500000000  0.053511090
     0.000000000  0.000000000  0.104681476
     0.500000000  0.500000000  0.157929955
     0.000000000  0.000000000  0.210708991
     0.500000000  0.500000000  0.262890478
     0.000000000  0.000000000  0.317115916
     0.500000000  0.500000000  0.364675901
     0.500000000  0.000000000  0.426907920
     0.500000000  0.000000000  0.458012260

  ion indices of the primitive-cell ions
   primitive index   ion index
                 1           1
                 2           2
                 3           3
                 4           4
                 5           5
                 6           6
                 7           7
                 8           8
                 9           9
                10          10

----------------------------------------------------------------------------------------

 
 
 KPOINTS: Auto-mesh                               

Automatic generation of k-mesh.
 Grid dimensions read from file:
 generate k-points for:    3    3    1

 Generating k-lattice:

  Cartesian coordinates                     Fractional coordinates (reciprocal lattice)
     0.091827362  0.000000000  0.000000000     0.333333333  0.000000000  0.000000000
     0.000000000  0.129863498  0.000000000     0.000000000  0.333333333  0.000000000
     0.000000000  0.000000000  0.041694826     0.000000000  0.000000000  1.000000000

  Length of vectors
     0.091827362  0.129863498  0.041694826

  Shift w.r.t. Gamma in fractional coordinates (k-lattice)
     0.000000000  0.000000000  0.000000000

 
 Subroutine IBZKPT returns following result:
 ===========================================
 
 Found      4 irreducible k-points:
 
 Following reciprocal coordinates:
            Coordinates               Weight
  0.000000  0.000000  0.000000      1.000000
  0.333333  0.000000  0.000000      2.000000
  0.000000  0.333333  0.000000      2.000000
  0.333333  0.333333  0.000000      4.000000
 
 Following cartesian coordinates:
            Coordinates               Weight
  0.000000  0.000000  0.000000      1.000000
  0.091827  0.000000  0.000000      2.000000
  0.000000  0.129863  0.000000      2.000000
  0.091827  0.129863  0.000000      4.000000
 


--------------------------------------------------------------------------------------------------------




 Dimension of arrays:
   k-points           NKPTS =      4   k-points in BZ     NKDIM =      4   number of bands    NBANDS=     60
   number of dos      NEDOS =    301   number of ions     NIONS =     10
   non local maximal  LDIM  =      6   non local SUM 2l+1 LMDIM =     18
   total plane-waves  NPLWV =  30240
   max r-space proj   IRMAX =      1   max aug-charges    IRDMAX=   4119
   dimension x,y,z NGX =    18 NGY =   14 NGZ =  120
   dimension x,y,z NGXF=    36 NGYF=   28 NGZF=  240
   support grid    NGXF=    36 NGYF=   28 NGZF=  240
   ions per type =               8   2
   NGX,Y,Z   is equivalent  to a cutoff of   8.24,  9.07,  8.32 a.u.
   NGXF,Y,Z  is equivalent  to a cutoff of  16.49, 18.13, 16.64 a.u.

 SYSTEM =  unknown system                          
 POSCAR =  FCC Cu                                  

 Startparameter for this run:
   NWRITE =      2    write-flag & timer
   PREC   = normal    normal or accurate (medium, high low for compatibility)
   ISTART =      0    job   : 0-new  1-cont  2-samecut
   ICHARG =      2    charge: 1-file 2-atom 10-const
   ISPIN  =      2    spin polarized calculation?
   LNONCOLLINEAR =      F non collinear calculations
   LSORBIT =      F    spin-orbit coupling
   INIWAV =      1    electr: 0-lowe 1-rand  2-diag
   LASPH  =      F    aspherical Exc in radial PAW
 Electronic Relaxation 1
   ENCUT  =  400.0 eV  29.40 Ry    5.42 a.u.   5.92  4.19 39.11*2*pi/ulx,y,z
   ENINI  =  400.0     initial cutoff
   ENAUG  =  587.0 eV  augmentation charge cutoff
   NELM   =     60;   NELMIN=  2; NELMDL= -5     # of ELM steps 
   EDIFF  = 0.2E-03   stopping-criterion for ELM
   LREAL  =      F    real-space projection
   NLSPLINE    = F    spline interpolate recip. space projectors
   LCOMPAT=      F    compatible to vasp.4.4
   GGA_COMPAT  = T    GGA compatible to vasp.4.4-vasp.4.6
   LMAXPAW     = -100 max onsite density
   LMAXMIX     =    2 max onsite mixed and CHGCAR
   VOSKOWN=      0    Vosko Wilk Nusair interpolation
   ROPT   =    0.00000   0.00000
 Ionic relaxation
   EDIFFG = -.3E-01   stopping-criterion for IOM
   NSW    =    800    number of steps for IOM
   NBLOCK =      1;   KBLOCK =    800    inner block; outer block 
   IBRION =      2    ionic relax: 0-MD 1-quasi-New 2-CG
   NFREE  =      1    steps in history (QN), initial steepest desc. (CG)
   ISIF   =      2    stress and relaxation
   IWAVPR =     11    prediction:  0-non 1-charg 2-wave 3-comb
   ISYM   =      1    0-nonsym 1-usesym 2-fastsym
   LCORR  =      T    Harris-Foulkes like correction to forces

   POTIM  = 0.5000    time-step for ionic-motion
   TEIN   =    0.0    initial temperature
   TEBEG  =    0.0;   TEEND  =   0.0 temperature during run
   SMASS  =  -3.00    Nose mass-parameter (am)
   estimated Nose-frequenzy (Omega)   =  0.10E-29 period in steps = 0.13E+47 mass=  -0.301E-27a.u.
   SCALEE = 1.0000    scale energy and forces
   NPACO  =    256;   APACO  = 10.0  distance and # of slots for P.C.
   PSTRESS=    0.0 pullay stress

  Mass of Ions in am
   POMASS =  63.55  1.00
  Ionic Valenz
   ZVAL   =  11.00  1.00
  Atomic Wigner-Seitz radii
   RWIGS  =  -1.00 -1.00
  virtual crystal weights 
   VCA    =   1.00  1.00
   NELECT =      90.0000    total number of electrons
   NUPDOWN=      -1.0000    fix difference up-down

 DOS related values:
   EMIN   =  10.00;   EMAX   =-10.00  energy-range for DOS
   EFERMI =   0.00
   ISMEAR =     1;   SIGMA  =   0.20  broadening in eV -4-tet -1-fermi 0-gaus

 Electronic relaxation 2 (details)
   IALGO  =     38    algorithm
   LDIAG  =      T    sub-space diagonalisation (order eigenvalues)
   LSUBROT=      F    optimize rotation matrix (better conditioning)
   TURBO    =      0    0=normal 1=particle mesh
   IRESTART =      0    0=no restart 2=restart with 2 vectors
   NREBOOT  =      0    no. of reboots
   NMIN     =      0    reboot dimension
   EREF     =   0.00    reference energy to select bands
   IMIX   =      4    mixing-type and parameters
     AMIX     =   0.40;   BMIX     =  1.00
     AMIX_MAG =   1.60;   BMIX_MAG =  1.00
     AMIN     =   0.10
     WC   =   100.;   INIMIX=   1;  MIXPRE=   1;  MAXMIX= -45

 Intra band minimization:
   WEIMIN = 0.0010     energy-eigenvalue tresh-hold
   EBREAK =  0.83E-06  absolut break condition
   DEPER  =   0.30     relativ break condition  

   TIME   =   0.40     timestep for ELM

  volume/ion in A,a.u.               =      22.35       150.80
  Fermi-wavevector in a.u.,A,eV,Ry     =   1.208974  2.284630 19.886522  1.461618
  Thomas-Fermi vector in A             =   2.344566
 
 Write flags
   LWAVE        =      F    write WAVECAR
   LDOWNSAMPLE  =      F    k-point downsampling of WAVECAR
   LCHARG       =      F    write CHGCAR
   LVTOT        =      F    write LOCPOT, total local potential
   LVHAR        =      F    write LOCPOT, Hartree potential only
   LELF         =      F    write electronic localiz. function (ELF)
   LORBIT       =      0    0 simple, 1 ext, 2 COOP (PROOUT), +10 PAW based schemes


 Dipole corrections
   LMONO  =      F    monopole corrections only (constant potential shift)
   LDIPOL =      F    correct potential (dipole corrections)
   IDIPOL =      0    1-x, 2-y, 3-z, 4-all directions 
   EPSILON=  1.0000000 bulk dielectric constant

 Exchange correlation treatment:
   GGA     =    PE    GGA type
   LEXCH   =     8    internal setting for exchange type
   LIBXC   =     F    Libxc                    
   VOSKOWN =     0    Vosko Wilk Nusair interpolation
   LHFCALC =     F    Hartree Fock is set to
   LHFONE  =     F    Hartree Fock one center treatment
   AEXX    =    0.0000 exact exchange contribution

 Linear response parameters
   LEPSILON=     F    determine dielectric tensor
   LRPA    =     F    only Hartree local field effects (RPA)
   LNABLA  =     F    use nabla operator in PAW spheres
   LVEL    =     F    velocity operator in full k-point grid
   CSHIFT  =0.1000    complex shift for real part using Kramers Kronig
   OMEGAMAX=  -1.0    maximum frequency
   DEG_THRESHOLD= 0.2000000E-02 threshold for treating states as degnerate
   RTIME   =   -0.100 relaxation time in fs
  (WPLASMAI=    0.000 imaginary part of plasma frequency in eV, 0.658/RTIME)
   DFIELD  = 0.0000000 0.0000000 0.0000000 field for delta impulse in time
 
  Optional k-point grid parameters
   LKPOINTS_OPT  =     F    use optional k-point grid
   KPOINTS_OPT_MODE=     1    mode for optional k-point grid
 
 Orbital magnetization related:
   ORBITALMAG=     F  switch on orbital magnetization
   LCHIMAG   =     F  perturbation theory with respect to B field
   DQ        =  0.001000  dq finite difference perturbation B field
   LLRAUG    =     F  two centre corrections for induced B field



--------------------------------------------------------------------------------------------------------


 conjugate gradient relaxation of ions
 charge density and potential will be updated during run
 spin polarized calculation
 Variant of blocked Davidson
 Davidson routine will perform the subspace rotation
 perform sub-space diagonalisation
    after iterative eigenvector-optimisation
 modified Broyden-mixing scheme, WC =      100.0
 initial mixing is a Kerker type mixing with AMIX =  0.4000 and BMIX =      1.0000
 Hartree-type preconditioning will be used
 using additional bands           15
 reciprocal scheme for non local part
 use partial core corrections
 calculate Harris-corrections to forces 
   (improved forces if not selfconsistent)
 use gradient corrections 
 use of overlap-Matrix (Vanderbilt PP)
 Methfessel and Paxton  Order N= 1 SIGMA  =   0.20


--------------------------------------------------------------------------------------------------------


  energy-cutoff  :      400.00
  volume of cell :      223.47
      direct lattice vectors                 reciprocal lattice vectors
     3.630000114  0.000000000  0.000000000     0.275482085  0.000000000  0.000000000
     0.000000000  2.566797733  0.000000000     0.000000000  0.389590495  0.000000000
     0.000000000  0.000000000 23.983791351     0.000000000  0.000000000  0.041694826

  length of vectors
     3.630000114  2.566797733 23.983791351     0.275482085  0.389590495  0.041694826


 
 k-points in units of 2pi/SCALE and weight: Auto-mesh                               
   0.00000000  0.00000000  0.00000000       0.111
   0.09182736  0.00000000  0.00000000       0.222
   0.00000000  0.12986350  0.00000000       0.222
   0.09182736  0.12986350  0.00000000       0.444
 
 k-points in reciprocal lattice and weights: Auto-mesh                               
   0.00000000  0.00000000  0.00000000       0.111
   0.33333333  0.00000000  0.00000000       0.222
   0.00000000  0.33333333  0.00000000       0.222
   0.33333333  0.33333333  0.00000000       0.444
 
 position of ions in fractional coordinates (direct lattice) 
   0.00000000  0.00000000  0.00000000
   0.50000000  0.50000000  0.05351109
   0.00000000  0.00000000  0.10468148
   0.50000000  0.50000000  0.15792996
   0.00000000  0.00000000  0.21070899
   0.50000000  0.50000000  0.26289048
   0.00000000  0.00000000  0.31711592
   0.50000000  0.50000000  0.36467590
   0.50000000  0.00000000  0.42690792
   0.50000000  0.00000000  0.45801226
 
 position of ions in cartesian coordinates  (Angst):
   0.00000000  0.00000000  0.00000000
   1.81500006  1.28339887  1.28339883
   0.00000000  0.00000000  2.51065868
   1.81500006  1.28339887  3.78775910
   0.00000000  0.00000000  5.05360047
   1.81500006  1.28339887  6.30511038
   0.00000000  0.00000000  7.60564196
   1.81500006  1.28339887  8.74631073
   1.81500006  0.00000000 10.23887049
   1.81500006  0.00000000 10.98487049
 


--------------------------------------------------------------------------------------------------------


 k-point   1 :   0.0000 0.0000 0.0000  plane waves:    4037
 k-point   2 :   0.3333 0.0000 0.0000  plane waves:    4064
 k-point   3 :   0.0000 0.3333 0.0000  plane waves:    4032
 k-point   4 :   0.3333 0.3333 0.0000  plane waves:    4072

 maximum and minimum number of plane-waves per node :       827      778

 maximum number of plane-waves:      4072
 maximum index in each direction: 
   IXMAX=    5   IYMAX=    4   IZMAX=   39
   IXMIN=   -6   IYMIN=   -4   IZMIN=  -39


 parallel 3D FFT for wavefunctions:
    minimum data exchange during FFTs selected (reduces bandwidth)
 parallel 3D FFT for charge:
    minimum data exchange during FFTs selected (reduces bandwidth)


 total amount of memory used by VASP MPI-rank0    35069. kBytes
=======================================================================

   base      :      30000. kBytes
   nonl-proj :       1086. kBytes
   fftplans  :        642. kBytes
   grid      :       1621. kBytes
   one-center:         62. kBytes
   wavefun   :       1658. kBytes
 
     INWAV:  cpu time      0.0000: real time      0.0005
 Broyden mixing: mesh for mixing (old mesh)
   NGX = 11   NGY =  9   NGZ = 79
  (NGX  = 36   NGY  = 28   NGZ  =240)
  gives a total of   7821 points

 initial charge density was supplied:
 charge density of overlapping atoms calculated
 number of electron      90.0000000 magnetization      10.0000000
 keeping initial charge density in first step


--------------------------------------------------------------------------------------------------------


 Maximum index for augmentation-charges          309 (set IRDMAX)


--------------------------------------------------------------------------------------------------------


 First call to EWALD:  gamma=   0.292
 Maximum number of real-space cells 4x 6x 1
 Maximum number of reciprocal cells 2x 1x 9

    FEWALD:  cpu time      0.0019: real time      0.0019


--------------------------------------- Iteration      1(   1)  ---------------------------------------


    POTLOK:  cpu time      0.0190: real time      0.0193
    SETDIJ:  cpu time      0.0065: real time      0.0066
     EDDAV:  cpu time      0.3166: real time      0.3192
       DOS:  cpu time      0.0013: real time      0.0013
    --------------------------------------------
      LOOP:  cpu time      0.3434: real time      0.3463

 eigenvalue-minimisations  :   960
 total energy-change (2. order) : 0.7716598E+03  (-0.3322166E+04)
 number of electron      90.0000000 magnetization      10.0000000
 augmentation part       90.0000000 magnetization      10.0000000

 Free energy of the ion-electron system (eV)
  ---------------------------------------------------
  alpha Z        PSCENC =       216.17040255
  Ewald energy   TEWEN  =     42212.80551875
  -Hartree energ DENC   =    -53034.49787082
  -exchange      EXHF   =         0.00000000
  -V(xc)+E(xc)   XCENC  =       371.40981882
  PAW double counting   =      9828.36862813   -10674.97285505
  entropy T*S    EENTRO =         0.00061378
  eigenvalues    EBANDS =       699.75712697
  atomic energy  EATOM  =     11152.61838693
  Solvation  Ediel_sol  =         0.00000000
  ---------------------------------------------------
  free energy    TOTEN  =       771.65977005 eV

  energy without entropy =      771.65915627  energy(sigma->0) =      771.65956546


--------------------------------------------------------------------------------------------------------




--------------------------------------- Iteration      1(   2)  ---------------------------------------


     EDDAV:  cpu time      0.3047: real time      0.3093
       DOS:  cpu time      0.0009: real time      0.0009
    --------------------------------------------
      LOOP:  cpu time      0.3056: real time      0.3102

 eigenvalue-minimisations  :   960
 total energy-change (2. order) :-0.7135778E+03  (-0.6861449E+03)
 number of electron      90.0000000 magnetization      10.0000000
 augmentation part       90.0000000 magnetization      10.0000000

 Free energy of the ion-electron system (eV)
  ---------------------------------------------------
  alpha Z        PSCENC =       216.17040255
  Ewald energy   TEWEN  =     42212.80551875
  -Hartree energ DENC   =    -53034.49787082
  -exchange      EXHF   =         0.00000000
  -V(xc)+E(xc)   XCENC  =       371.40981882
  PAW double counting   =      9828.36862813   -10674.97285505
  entropy T*S    EENTRO =        -0.01477155
  eigenvalues    EBANDS =       -13.80531043
  atomic energy  EATOM  =     11152.61838693
  Solvation  Ediel_sol  =         0.00000000
  ---------------------------------------------------
  free energy    TOTEN  =        58.08194733 eV

  energy without entropy =       58.09671887  energy(sigma->0) =       58.08687118


--------------------------------------------------------------------------------------------------------




--------------------------------------- Iteration      1(   3)  ---------------------------------------


     EDDAV:  cpu time      0.3116: real time      0.3140
       DOS:  cpu time      0.0009: real time      0.0009
    --------------------------------------------
      LOOP:  cpu time      0.3125: real time      0.3150

 eigenvalue-minimisations  :  1000
 total energy-change (2. order) :-0.8961665E+02  (-0.8328881E+02)
 number of electron      90.0000000 magnetization      10.0000000
 augmentation part       90.0000000 magnetization      10.0000000

 Free energy of the ion-electron system (eV)
  ---------------------------------------------------
  alpha Z        PSCENC =       216.17040255
  Ewald energy   TEWEN  =     42212.80551875
  -Hartree energ DENC   =    -53034.49787082
  -exchange      EXHF   =         0.00000000
  -V(xc)+E(xc)   XCENC  =       371.40981882
  PAW double counting   =      9828.36862813   -10674.97285505
  entropy T*S    EENTRO =         0.00530307
  eigenvalues    EBANDS =      -103.44203453
  atomic energy  EATOM  =     11152.61838693
  Solvation  Ediel_sol  =         0.00000000
  ---------------------------------------------------
  free energy    TOTEN  =       -31.53470216 eV

  energy without entropy =      -31.54000522  energy(sigma->0) =      -31.53646985


--------------------------------------------------------------------------------------------------------




--------------------------------------- Iteration      1(   4)  ---------------------------------------


     EDDAV:  cpu time      0.3467: real time      0.3496
       DOS:  cpu time      0.0009: real time      0.0009
    --------------------------------------------
      LOOP:  cpu time      0.3476: real time      0.3505

 eigenvalue-minimisations  :  1096
 total energy-change (2. order) :-0.3763439E+01  (-0.3734090E+01)
 number of electron      90.0000000 magnetization      10.0000000
 augmentation part       90.0000000 magnetization      10.0000000

 Free energy of the ion-electron system (eV)
  ---------------------------------------------------
  alpha Z        PSCENC =       216.17040255
  Ewald energy   TEWEN  =     42212.80551875
  -Hartree energ DENC   =    -53034.49787082
  -exchange      EXHF   =         0.00000000
  -V(xc)+E(xc)   XCENC  =       371.40981882
  PAW double counting   =      9828.36862813   -10674.97285505
  entropy T*S    EENTRO =         0.00548633
  eigenvalues    EBANDS =      -107.20565651
  atomic energy  EATOM  =     11152.61838693
  Solvation  Ediel_sol  =         0.00000000
  ---------------------------------------------------
  free energy    TOTEN  =       -35.29814088 eV

  energy without entropy =      -35.30362721  energy(sigma->0) =      -35.29996965


--------------------------------------------------------------------------------------------------------




--------------------------------------- Iteration      1(   5)  ---------------------------------------


     EDDAV:  cpu time      0.3406: real time      0.3437
       DOS:  cpu time      0.0009: real time      0.0010
    CHARGE:  cpu time      0.0565: real time      0.0567
    MIXING:  cpu time      0.0006: real time      0.0006
    --------------------------------------------
      LOOP:  cpu time      0.3986: real time      0.4021

 eigenvalue-minimisations  :  1124
 total energy-change (2. order) :-0.8693353E-01  (-0.8686583E-01)
 number of electron      90.0000817 magnetization       9.1020065
 augmentation part       52.2354412 magnetization       8.7850315

 Broyden mixing:
  rms(total) = 0.27204E+01    rms(broyden)= 0.27202E+01
  rms(prec ) = 0.28021E+01
  weight for this iteration     100.00

 Free energy of the ion-electron system (eV)
  ---------------------------------------------------
  alpha Z        PSCENC =       216.17040255
  Ewald energy   TEWEN  =     42212.80551875
  -Hartree energ DENC   =    -53034.49787082
  -exchange      EXHF   =         0.00000000
  -V(xc)+E(xc)   XCENC  =       371.40981882
  PAW double counting   =      9828.36862813   -10674.97285505
  entropy T*S    EENTRO =         0.00547710
  eigenvalues    EBANDS =      -107.29258081
  atomic energy  EATOM  =     11152.61838693
  Solvation  Ediel_sol  =         0.00000000
  ---------------------------------------------------
  free energy    TOTEN  =       -35.38507440 eV

  energy without entropy =      -35.39055150  energy(sigma->0) =      -35.38690010


--------------------------------------------------------------------------------------------------------




--------------------------------------- Iteration      1(   6)  ---------------------------------------


    POTLOK:  cpu time      0.0173: real time      0.0175
    SETDIJ:  cpu time      0.0059: real time      0.0059
     EDDAV:  cpu time      0.3332: real time      0.3358
       DOS:  cpu time      0.0010: real time      0.0010
    CHARGE:  cpu time      0.0536: real time      0.0539
    MIXING:  cpu time      0.0007: real time      0.0007
    --------------------------------------------
      LOOP:  cpu time      0.4118: real time      0.4148

 eigenvalue-minimisations  :  1100
 total energy-change (2. order) : 0.6936006E+01  (-0.9381047E+01)
 number of electron      90.0000911 magnetization       8.5374298
 augmentation part       58.5839319 magnetization       6.4409773

 Broyden mixing:
  rms(total) = 0.13736E+01    rms(broyden)= 0.13733E+01
  rms(prec ) = 0.14488E+01
  weight for this iteration     100.00

 eigenvalues of (default mixing * dielectric matrix)
  average eigenvalue GAMMA=   0.7991
  0.7991

 Free energy of the ion-electron system (eV)
  ---------------------------------------------------
  alpha Z        PSCENC =       216.17040255
  Ewald energy   TEWEN  =     42212.80551875
  -Hartree energ DENC   =    -52838.60102337
  -exchange      EXHF   =         0.00000000
  -V(xc)+E(xc)   XCENC  =       365.62513569
  PAW double counting   =      9979.36473140   -10784.17515034
  entropy T*S    EENTRO =        -0.00119440
  eigenvalues    EBANDS =      -332.25587584
  atomic energy  EATOM  =     11152.61838693
  Solvation  Ediel_sol  =         0.00000000
  ---------------------------------------------------
  free energy    TOTEN  =       -28.44906864 eV

  energy without entropy =      -28.44787424  energy(sigma->0) =      -28.44867051


--------------------------------------------------------------------------------------------------------




--------------------------------------- Iteration      1(   7)  ---------------------------------------


    POTLOK:  cpu time      0.0162: real time      0.0165
    SETDIJ:  cpu time      0.0056: real time      0.0057
     EDDAV:  cpu time      0.3400: real time      0.3433
       DOS:  cpu time      0.0009: real time      0.0009
    CHARGE:  cpu time      0.0504: real time      0.0506
    MIXING:  cpu time      0.0007: real time      0.0007
    --------------------------------------------
      LOOP:  cpu time      0.4139: real time      0.4177

 eigenvalue-minimisations  :  1124
 total energy-change (2. order) : 0.2528614E+01  (-0.2477212E+01)
 number of electron      90.0000885 magnetization       8.0601640
 augmentation part       56.4812510 magnetization       5.9348017

 Broyden mixing:
  rms(total) = 0.81664E+00    rms(broyden)= 0.81650E+00
  rms(prec ) = 0.88196E+00
  weight for this iteration     100.00

 eigenvalues of (default mixing * dielectric matrix)
  average eigenvalue GAMMA=   0.7852
  0.9537  0.6166

 Free energy of the ion-electron system (eV)
  ---------------------------------------------------
  alpha Z        PSCENC =       216.17040255
  Ewald energy   TEWEN  =     42212.80551875
  -Hartree energ DENC   =    -52957.86426660
  -exchange      EXHF   =         0.00000000
  -V(xc)+E(xc)   XCENC  =       369.32693693
  PAW double counting   =     10199.00328569   -11042.81244094
  entropy T*S    EENTRO =        -0.00492875
  eigenvalues    EBANDS =      -175.16334929
  atomic energy  EATOM  =     11152.61838693
  Solvation  Ediel_sol  =         0.00000000
  ---------------------------------------------------
  free energy    TOTEN  =       -25.92045473 eV

  energy without entropy =      -25.91552598  energy(sigma->0) =      -25.91881182


--------------------------------------------------------------------------------------------------------




--------------------------------------- Iteration      1(   8)  ---------------------------------------


    POTLOK:  cpu time      0.0162: real time      0.0165
    SETDIJ:  cpu time      0.0057: real time      0.0057
     EDDAV:  cpu time      0.3730: real time      0.3759
       DOS:  cpu time      0.0009: real time      0.0009
    CHARGE:  cpu time      0.0505: real time      0.0507
    MIXING:  cpu time      0.0007: real time      0.0007
    --------------------------------------------
      LOOP:  cpu time      0.4470: real time      0.4503

 eigenvalue-minimisations  :  1272
 total energy-change (2. order) : 0.3790311E+00  (-0.9545638E+00)
 number of electron      90.0000877 magnetization       7.3098554
 augmentation part       56.1282492 magnetization       5.1114534

 Broyden mixing:
  rms(total) = 0.72967E+00    rms(broyden)= 0.72956E+00
  rms(prec ) = 0.80835E+00
  weight for this iteration     100.00

 eigenvalues of (default mixing * dielectric matrix)
  average eigenvalue GAMMA=   0.7277
  1.1373  0.6677  0.3781

 Free energy of the ion-electron system (eV)
  ---------------------------------------------------
  alpha Z        PSCENC =       216.17040255
  Ewald energy   TEWEN  =     42212.80551875
  -Hartree energ DENC   =    -52958.44043104
  -exchange      EXHF   =         0.00000000
  -V(xc)+E(xc)   XCENC  =       369.66427214
  PAW double counting   =     10297.59399743   -11149.73002334
  entropy T*S    EENTRO =        -0.01217868
  eigenvalues    EBANDS =      -166.21136835
  atomic energy  EATOM  =     11152.61838693
  Solvation  Ediel_sol  =         0.00000000
  ---------------------------------------------------
  free energy    TOTEN  =       -25.54142362 eV

  energy without entropy =      -25.52924494  energy(sigma->0) =      -25.53736406


--------------------------------------------------------------------------------------------------------




--------------------------------------- Iteration      1(   9)  ---------------------------------------


    POTLOK:  cpu time      0.0162: real time      0.0164
    SETDIJ:  cpu time      0.0056: real time      0.0056
     EDDAV:  cpu time      0.4398: real time      0.4436
       DOS:  cpu time      0.0009: real time      0.0009
    CHARGE:  cpu time      0.0507: real time      0.0509
    MIXING:  cpu time      0.0008: real time      0.0008
    --------------------------------------------
      LOOP:  cpu time      0.5139: real time      0.5182

 eigenvalue-minimisations  :  1548
 total energy-change (2. order) : 0.1599503E+00  (-0.4628388E+00)
 number of electron      90.0000876 magnetization       6.3857179
 augmentation part       56.0881566 magnetization       4.2951729

 Broyden mixing:
  rms(total) = 0.59716E+00    rms(broyden)= 0.59709E+00
  rms(prec ) = 0.62018E+00
  weight for this iteration     100.00

 eigenvalues of (default mixing * dielectric matrix)
  average eigenvalue GAMMA=   0.7846
  1.3029  0.7609  0.7609  0.3139

 Free energy of the ion-electron system (eV)
  ---------------------------------------------------
  alpha Z        PSCENC =       216.17040255
  Ewald energy   TEWEN  =     42212.80551875
  -Hartree energ DENC   =    -52969.13277506
  -exchange      EXHF   =         0.00000000
  -V(xc)+E(xc)   XCENC  =       369.28842733
  PAW double counting   =     10427.45388004   -11287.26297677
  entropy T*S    EENTRO =         0.00055374
  eigenvalues    EBANDS =      -147.32289083
  atomic energy  EATOM  =     11152.61838693
  Solvation  Ediel_sol  =         0.00000000
  ---------------------------------------------------
  free energy    TOTEN  =       -25.38147333 eV

  energy without entropy =      -25.38202707  energy(sigma->0) =      -25.38165791


--------------------------------------------------------------------------------------------------------




--------------------------------------- Iteration      1(  10)  ---------------------------------------


    POTLOK:  cpu time      0.0161: real time      0.0163
    SETDIJ:  cpu time      0.0056: real time      0.0056
     EDDAV:  cpu time      0.4046: real time      0.4080
       DOS:  cpu time      0.0009: real time      0.0009
    CHARGE:  cpu time      0.0516: real time      0.0518
    MIXING:  cpu time      0.0009: real time      0.0009
    --------------------------------------------
      LOOP:  cpu time      0.4796: real time      0.4836

 eigenvalue-minimisations  :  1344
 total energy-change (2. order) :-0.7884796E+00  (-0.1829421E+00)
 number of electron      90.0000877 magnetization       5.0374884
 augmentation part       56.1639574 magnetization       3.0687481

 Broyden mixing:
  rms(total) = 0.50366E+00    rms(broyden)= 0.50363E+00
  rms(prec ) = 0.50702E+00
  weight for this iteration     100.00

 eigenvalues of (default mixing * dielectric matrix)
  average eigenvalue GAMMA=   0.9413
  1.9219  1.2321  0.7155  0.5350  0.3021

 Free energy of the ion-electron system (eV)
  ---------------------------------------------------
  alpha Z        PSCENC =       216.17040255
  Ewald energy   TEWEN  =     42212.80551875
  -Hartree energ DENC   =    -52980.91610321
  -exchange      EXHF   =         0.00000000
  -V(xc)+E(xc)   XCENC  =       368.26304134
  PAW double counting   =     10533.05106469   -11396.50323649
  entropy T*S    EENTRO =         0.00116103
  eigenvalues    EBANDS =      -131.66018850
  atomic energy  EATOM  =     11152.61838693
  Solvation  Ediel_sol  =         0.00000000
  ---------------------------------------------------
  free energy    TOTEN  =       -26.16995292 eV

  energy without entropy =      -26.17111395  energy(sigma->0) =      -26.17033993


--------------------------------------------------------------------------------------------------------




--------------------------------------- Iteration      1(  11)  ---------------------------------------


    POTLOK:  cpu time      0.0169: real time      0.0171
    SETDIJ:  cpu time      0.0059: real time      0.0059
     EDDAV:  cpu time      0.3721: real time      0.3750
       DOS:  cpu time      0.0009: real time      0.0009
    CHARGE:  cpu time      0.0512: real time      0.0517
    MIXING:  cpu time      0.0008: real time      0.0008
    --------------------------------------------
      LOOP:  cpu time      0.4478: real time      0.4515

 eigenvalue-minimisations  :  1268
 total energy-change (2. order) :-0.1632457E+01  (-0.1147128E+00)
 number of electron      90.0000879 magnetization       3.8295536
 augmentation part       56.3699885 magnetization       2.0968254

 Broyden mixing:
  rms(total) = 0.40435E+00    rms(broyden)= 0.40433E+00
  rms(prec ) = 0.40813E+00
  weight for this iteration     100.00

 eigenvalues of (default mixing * dielectric matrix)
  average eigenvalue GAMMA=   1.0772
  2.9736  1.2355  0.7348  0.7348  0.4821  0.3027

 Free energy of the ion-electron system (eV)
  ---------------------------------------------------
  alpha Z        PSCENC =       216.17040255
  Ewald energy   TEWEN  =     42212.80551875
  -Hartree energ DENC   =    -52986.81678856
  -exchange      EXHF   =         0.00000000
  -V(xc)+E(xc)   XCENC  =       366.88601815
  PAW double counting   =     10615.24450042   -11479.91662794
  entropy T*S    EENTRO =        -0.00713702
  eigenvalues    EBANDS =      -124.78668364
  atomic energy  EATOM  =     11152.61838693
  Solvation  Ediel_sol  =         0.00000000
  ---------------------------------------------------
  free energy    TOTEN  =       -27.80241036 eV

  energy without entropy =      -27.79527334  energy(sigma->0) =      -27.80003136


--------------------------------------------------------------------------------------------------------




--------------------------------------- Iteration      1(  12)  ---------------------------------------


    POTLOK:  cpu time      0.0160: real time      0.0163
    SETDIJ:  cpu time      0.0056: real time      0.0057
     EDDAV:  cpu time      0.3592: real time      0.3622
       DOS:  cpu time      0.0009: real time      0.0009
    CHARGE:  cpu time      0.0522: real time      0.0525
    MIXING:  cpu time      0.0010: real time      0.0010
    --------------------------------------------
      LOOP:  cpu time      0.4351: real time      0.4385

 eigenvalue-minimisations  :  1216
 total energy-change (2. order) :-0.1533130E+01  (-0.8157198E-01)
 number of electron      90.0000877 magnetization       1.9275660
 augmentation part       56.2669964 magnetization       0.4808406

 Broyden mixing:
  rms(total) = 0.31276E+00    rms(broyden)= 0.31274E+00
  rms(prec ) = 0.31902E+00
  weight for this iteration     100.00

 eigenvalues of (default mixing * dielectric matrix)
  average eigenvalue GAMMA=   1.4430
  5.2315  1.6955  0.9806  0.3050  0.7528  0.6592  0.4761

 Free energy of the ion-electron system (eV)
  ---------------------------------------------------
  alpha Z        PSCENC =       216.17040255
  Ewald energy   TEWEN  =     42212.80551875
  -Hartree energ DENC   =    -53001.16556101
  -exchange      EXHF   =         0.00000000
  -V(xc)+E(xc)   XCENC  =       366.10127475
  PAW double counting   =     10638.79110761   -11505.35518373
  entropy T*S    EENTRO =        -0.01732346
  eigenvalues    EBANDS =      -109.28416238
  atomic energy  EATOM  =     11152.61838693
  Solvation  Ediel_sol  =         0.00000000
  ---------------------------------------------------
  free energy    TOTEN  =       -29.33554000 eV

  energy without entropy =      -29.31821654  energy(sigma->0) =      -29.32976551


--------------------------------------------------------------------------------------------------------




--------------------------------------- Iteration      1(  13)  ---------------------------------------


    POTLOK:  cpu time      0.0162: real time      0.0164
    SETDIJ:  cpu time      0.0057: real time      0.0057
     EDDAV:  cpu time      0.4014: real time      0.4044
       DOS:  cpu time      0.0009: real time      0.0009
    CHARGE:  cpu time      0.0512: real time      0.0514
    MIXING:  cpu time      0.0010: real time      0.0010
    --------------------------------------------
      LOOP:  cpu time      0.4764: real time      0.4799

 eigenvalue-minimisations  :  1388
 total energy-change (2. order) :-0.2870377E+01  (-0.2163164E+00)
 number of electron      90.0000875 magnetization       1.0253056
 augmentation part       56.0861172 magnetization       0.0028956

 Broyden mixing:
  rms(total) = 0.19816E+00    rms(broyden)= 0.19810E+00
  rms(prec ) = 0.22987E+00
  weight for this iteration     100.00

 eigenvalues of (default mixing * dielectric matrix)
  average eigenvalue GAMMA=   1.7439
  8.1404  2.0735  0.9888  0.7384  0.7384  0.3046  0.5278  0.4392

 Free energy of the ion-electron system (eV)
  ---------------------------------------------------
  alpha Z        PSCENC =       216.17040255
  Ewald energy   TEWEN  =     42212.80551875
  -Hartree energ DENC   =    -53004.26851285
  -exchange      EXHF   =         0.00000000
  -V(xc)+E(xc)   XCENC  =       364.51599277
  PAW double counting   =     10594.95185328   -11460.79789157
  entropy T*S    EENTRO =        -0.00721103
  eigenvalues    EBANDS =      -108.19445624
  atomic energy  EATOM  =     11152.61838693
  Solvation  Ediel_sol  =         0.00000000
  ---------------------------------------------------
  free energy    TOTEN  =       -32.20591742 eV

  energy without entropy =      -32.19870639  energy(sigma->0) =      -32.20351375


--------------------------------------------------------------------------------------------------------




--------------------------------------- Iteration      1(  14)  ---------------------------------------


    POTLOK:  cpu time      0.0160: real time      0.0163
    SETDIJ:  cpu time      0.0056: real time      0.0056
     EDDAV:  cpu time      0.3523: real time      0.3554
       DOS:  cpu time      0.0009: real time      0.0009
    CHARGE:  cpu time      0.0511: real time      0.0514
    MIXING:  cpu time      0.0010: real time      0.0010
    --------------------------------------------
      LOOP:  cpu time      0.4271: real time      0.4306

 eigenvalue-minimisations  :  1184
 total energy-change (2. order) :-0.1502334E+01  (-0.1749478E+00)
 number of electron      90.0000874 magnetization       0.6920527
 augmentation part       56.1048543 magnetization       0.0969601

 Broyden mixing:
  rms(total) = 0.11087E+00    rms(broyden)= 0.11082E+00
  rms(prec ) = 0.11709E+00
  weight for this iteration     100.00

 eigenvalues of (default mixing * dielectric matrix)
  average eigenvalue GAMMA=   1.7446
  9.0674  2.1648  0.9660  0.7826  0.7826  0.7375  0.3040  0.4669  0.4291

 Free energy of the ion-electron system (eV)
  ---------------------------------------------------
  alpha Z        PSCENC =       216.17040255
  Ewald energy   TEWEN  =     42212.80551875
  -Hartree energ DENC   =    -52999.34583426
  -exchange      EXHF   =         0.00000000
  -V(xc)+E(xc)   XCENC  =       363.45516693
  PAW double counting   =     10550.22346959   -11413.37509412
  entropy T*S    EENTRO =        -0.01197195
  eigenvalues    EBANDS =      -116.24829534
  atomic energy  EATOM  =     11152.61838693
  Solvation  Ediel_sol  =         0.00000000
  ---------------------------------------------------
  free energy    TOTEN  =       -33.70825094 eV

  energy without entropy =      -33.69627898  energy(sigma->0) =      -33.70426028


--------------------------------------------------------------------------------------------------------




--------------------------------------- Iteration      1(  15)  ---------------------------------------


    POTLOK:  cpu time      0.0161: real time      0.0163
    SETDIJ:  cpu time      0.0055: real time      0.0056
     EDDAV:  cpu time      0.3354: real time      0.3380
       DOS:  cpu time      0.0009: real time      0.0009
    CHARGE:  cpu time      0.0503: real time      0.0505
    MIXING:  cpu time      0.0012: real time      0.0012
    --------------------------------------------
      LOOP:  cpu time      0.4093: real time      0.4126

 eigenvalue-minimisations  :  1108
 total energy-change (2. order) :-0.6239258E+00  (-0.8035332E-01)
 number of electron      90.0000875 magnetization       0.4959483
 augmentation part       56.1917453 magnetization       0.1733120

 Broyden mixing:
  rms(total) = 0.75091E-01    rms(broyden)= 0.75053E-01
  rms(prec ) = 0.80578E-01
  weight for this iteration     100.00

 eigenvalues of (default mixing * dielectric matrix)
  average eigenvalue GAMMA=   1.7428
  9.7585  2.2659  0.9225  0.9225  0.8674  0.8674  0.6182  0.3043  0.4506  0.4506

 Free energy of the ion-electron system (eV)
  ---------------------------------------------------
  alpha Z        PSCENC =       216.17040255
  Ewald energy   TEWEN  =     42212.80551875
  -Hartree energ DENC   =    -52990.45758884
  -exchange      EXHF   =         0.00000000
  -V(xc)+E(xc)   XCENC  =       362.96908708
  PAW double counting   =     10531.58770059   -11393.15732334
  entropy T*S    EENTRO =        -0.00562909
  eigenvalues    EBANDS =      -126.86273137
  atomic energy  EATOM  =     11152.61838693
  Solvation  Ediel_sol  =         0.00000000
  ---------------------------------------------------
  free energy    TOTEN  =       -34.33217675 eV

  energy without entropy =      -34.32654766  energy(sigma->0) =      -34.33030038


--------------------------------------------------------------------------------------------------------




--------------------------------------- Iteration      1(  16)  ---------------------------------------


    POTLOK:  cpu time      0.0160: real time      0.0163
    SETDIJ:  cpu time      0.0056: real time      0.0056
     EDDAV:  cpu time      0.3435: real time      0.3466
       DOS:  cpu time      0.0009: real time      0.0009
    CHARGE:  cpu time      0.0554: real time      0.0556
    MIXING:  cpu time      0.0013: real time      0.0014
    --------------------------------------------
      LOOP:  cpu time      0.4227: real time      0.4264

 eigenvalue-minimisations  :  1148
 total energy-change (2. order) :-0.2710627E+00  (-0.2019849E-01)
 number of electron      90.0000875 magnetization       0.3392233
 augmentation part       56.2154730 magnetization       0.1423807

 Broyden mixing:
  rms(total) = 0.55549E-01    rms(broyden)= 0.55515E-01
  rms(prec ) = 0.59447E-01
  weight for this iteration     100.00

 eigenvalues of (default mixing * dielectric matrix)
  average eigenvalue GAMMA=   1.7602
 10.4754  2.2254  1.1724  1.1077  1.1077  0.7558  0.7558  0.3043  0.5785  0.4533
  0.4257

 Free energy of the ion-electron system (eV)
  ---------------------------------------------------
  alpha Z        PSCENC =       216.17040255
  Ewald energy   TEWEN  =     42212.80551875
  -Hartree energ DENC   =    -52984.55075194
  -exchange      EXHF   =         0.00000000
  -V(xc)+E(xc)   XCENC  =       362.76979646
  PAW double counting   =     10521.15454747   -11382.30989012
  entropy T*S    EENTRO =        -0.00012435
  eigenvalues    EBANDS =      -133.26112521
  atomic energy  EATOM  =     11152.61838693
  Solvation  Ediel_sol  =         0.00000000
  ---------------------------------------------------
  free energy    TOTEN  =       -34.60323946 eV

  energy without entropy =      -34.60311511  energy(sigma->0) =      -34.60319801


--------------------------------------------------------------------------------------------------------




--------------------------------------- Iteration      1(  17)  ---------------------------------------


    POTLOK:  cpu time      0.0181: real time      0.0184
    SETDIJ:  cpu time      0.0060: real time      0.0060
     EDDAV:  cpu time      0.3685: real time      0.3713
       DOS:  cpu time      0.0009: real time      0.0009
    CHARGE:  cpu time      0.0494: real time      0.0496
    MIXING:  cpu time      0.0014: real time      0.0015
    --------------------------------------------
      LOOP:  cpu time      0.4444: real time      0.4477

 eigenvalue-minimisations  :  1244
 total energy-change (2. order) :-0.1855955E+00  (-0.1052094E-01)
 number of electron      90.0000874 magnetization       0.2434104
 augmentation part       56.2031121 magnetization       0.1209803

 Broyden mixing:
  rms(total) = 0.40268E-01    rms(broyden)= 0.40247E-01
  rms(prec ) = 0.43353E-01
  weight for this iteration     100.00

 eigenvalues of (default mixing * dielectric matrix)
  average eigenvalue GAMMA=   1.7703
 10.9480  2.1472  2.1472  1.0879  1.0879  0.7568  0.7568  0.6908  0.3043  0.4684
  0.4424  0.4064

 Free energy of the ion-electron system (eV)
  ---------------------------------------------------
  alpha Z        PSCENC =       216.17040255
  Ewald energy   TEWEN  =     42212.80551875
  -Hartree energ DENC   =    -52978.78334367
  -exchange      EXHF   =         0.00000000
  -V(xc)+E(xc)   XCENC  =       362.65487123
  PAW double counting   =     10516.49900149   -11377.98796720
  entropy T*S    EENTRO =         0.00182311
  eigenvalues    EBANDS =      -138.76752820
  atomic energy  EATOM  =     11152.61838693
  Solvation  Ediel_sol  =         0.00000000
  ---------------------------------------------------
  free energy    TOTEN  =       -34.78883501 eV

  energy without entropy =      -34.79065812  energy(sigma->0) =      -34.78944271


--------------------------------------------------------------------------------------------------------




--------------------------------------- Iteration      1(  18)  ---------------------------------------


    POTLOK:  cpu time      0.0160: real time      0.0162
    SETDIJ:  cpu time      0.0056: real time      0.0057
     EDDAV:  cpu time      0.3491: real time      0.3523
       DOS:  cpu time      0.0009: real time      0.0009
    CHARGE:  cpu time      0.0484: real time      0.0486
    MIXING:  cpu time      0.0014: real time      0.0014
    --------------------------------------------
      LOOP:  cpu time      0.4214: real time      0.4251

 eigenvalue-minimisations  :  1172
 total energy-change (2. order) :-0.6797901E-01  (-0.5734741E-02)
 number of electron      90.0000874 magnetization       0.2130575
 augmentation part       56.1898377 magnetization       0.1326724

 Broyden mixing:
  rms(total) = 0.23545E-01    rms(broyden)= 0.23534E-01
  rms(prec ) = 0.25377E-01
  weight for this iteration     100.00

 eigenvalues of (default mixing * dielectric matrix)
  average eigenvalue GAMMA=   1.7799
 11.2404  2.5016  2.3935  1.2785  0.8864  0.8864  0.8347  0.8347  0.6656  0.3043
  0.4735  0.4389  0.4010

 Free energy of the ion-electron system (eV)
  ---------------------------------------------------
  alpha Z        PSCENC =       216.17040255
  Ewald energy   TEWEN  =     42212.80551875
  -Hartree energ DENC   =    -52973.45237640
  -exchange      EXHF   =         0.00000000
  -V(xc)+E(xc)   XCENC  =       362.61229166
  PAW double counting   =     10515.98038531   -11377.90894117
  entropy T*S    EENTRO =         0.00117110
  eigenvalues    EBANDS =      -143.68365274
  atomic energy  EATOM  =     11152.61838693
  Solvation  Ediel_sol  =         0.00000000
  ---------------------------------------------------
  free energy    TOTEN  =       -34.85681402 eV

  energy without entropy =      -34.85798511  energy(sigma->0) =      -34.85720438


--------------------------------------------------------------------------------------------------------




--------------------------------------- Iteration      1(  19)  ---------------------------------------


    POTLOK:  cpu time      0.0160: real time      0.0163
    SETDIJ:  cpu time      0.0056: real time      0.0056
     EDDAV:  cpu time      0.3399: real time      0.3425
       DOS:  cpu time      0.0009: real time      0.0009
    CHARGE:  cpu time      0.0491: real time      0.0493
    MIXING:  cpu time      0.0014: real time      0.0014
    --------------------------------------------
      LOOP:  cpu time      0.4129: real time      0.4160

 eigenvalue-minimisations  :  1132
 total energy-change (2. order) :-0.6180632E-01  (-0.2227536E-02)
 number of electron      90.0000874 magnetization       0.1873794
 augmentation part       56.1986987 magnetization       0.1349531

 Broyden mixing:
  rms(total) = 0.18546E-01    rms(broyden)= 0.18541E-01
  rms(prec ) = 0.19633E-01
  weight for this iteration     100.00

 eigenvalues of (default mixing * dielectric matrix)
  average eigenvalue GAMMA=   1.7457
 11.3543  2.9074  2.3680  1.2034  1.2034  0.8568  0.8568  0.7358  0.7358  0.3043
  0.5974  0.4764  0.4405  0.3988

 Free energy of the ion-electron system (eV)
  ---------------------------------------------------
  alpha Z        PSCENC =       216.17040255
  Ewald energy   TEWEN  =     42212.80551875
  -Hartree energ DENC   =    -52968.43504583
  -exchange      EXHF   =         0.00000000
  -V(xc)+E(xc)   XCENC  =       362.53360254
  PAW double counting   =     10510.21840835   -11371.85256362
  entropy T*S    EENTRO =         0.00050873
  eigenvalues    EBANDS =      -148.97783874
  atomic energy  EATOM  =     11152.61838693
  Solvation  Ediel_sol  =         0.00000000
  ---------------------------------------------------
  free energy    TOTEN  =       -34.91862034 eV

  energy without entropy =      -34.91912907  energy(sigma->0) =      -34.91878992


--------------------------------------------------------------------------------------------------------




--------------------------------------- Iteration      1(  20)  ---------------------------------------


    POTLOK:  cpu time      0.0161: real time      0.0163
    SETDIJ:  cpu time      0.0056: real time      0.0056
     EDDAV:  cpu time      0.3511: real time      0.3538
       DOS:  cpu time      0.0009: real time      0.0009
    CHARGE:  cpu time      0.0489: real time      0.0491
    MIXING:  cpu time      0.0016: real time      0.0016
    --------------------------------------------
      LOOP:  cpu time      0.4241: real time      0.4273

 eigenvalue-minimisations  :  1180
 total energy-change (2. order) :-0.3124978E-01  (-0.4388253E-03)
 number of electron      90.0000874 magnetization       0.1467314
 augmentation part       56.1977948 magnetization       0.1015715

 Broyden mixing:
  rms(total) = 0.14442E-01    rms(broyden)= 0.14440E-01
  rms(prec ) = 0.15443E-01
  weight for this iteration     100.00

 eigenvalues of (default mixing * dielectric matrix)
  average eigenvalue GAMMA=   1.7241
 11.4329  2.8173  2.8173  1.3511  1.3511  0.9239  0.9239  0.7563  0.7563  0.6485
  0.3043  0.4786  0.4632  0.4399  0.3975

 Free energy of the ion-electron system (eV)
  ---------------------------------------------------
  alpha Z        PSCENC =       216.17040255
  Ewald energy   TEWEN  =     42212.80551875
  -Hartree energ DENC   =    -52967.12236040
  -exchange      EXHF   =         0.00000000
  -V(xc)+E(xc)   XCENC  =       362.49716099
  PAW double counting   =     10510.88358763   -11372.55827013
  entropy T*S    EENTRO =        -0.00033043
  eigenvalues    EBANDS =      -150.24396601
  atomic energy  EATOM  =     11152.61838693
  Solvation  Ediel_sol  =         0.00000000
  ---------------------------------------------------
  free energy    TOTEN  =       -34.94987012 eV

  energy without entropy =      -34.94953969  energy(sigma->0) =      -34.94975998


--------------------------------------------------------------------------------------------------------




--------------------------------------- Iteration      1(  21)  ---------------------------------------


    POTLOK:  cpu time      0.0160: real time      0.0162
    SETDIJ:  cpu time      0.0057: real time      0.0058
     EDDAV:  cpu time      0.3390: real time      0.3421
       DOS:  cpu time      0.0009: real time      0.0009
    CHARGE:  cpu time      0.0485: real time      0.0487
    MIXING:  cpu time      0.0016: real time      0.0017
    --------------------------------------------
      LOOP:  cpu time      0.4118: real time      0.4153

 eigenvalue-minimisations  :  1128
 total energy-change (2. order) :-0.4467437E-01  (-0.3895903E-03)
 number of electron      90.0000874 magnetization       0.0863027
 augmentation part       56.2003214 magnetization       0.0516851

 Broyden mixing:
  rms(total) = 0.11249E-01    rms(broyden)= 0.11248E-01
  rms(prec ) = 0.11888E-01
  weight for this iteration     100.00

 eigenvalues of (default mixing * dielectric matrix)
  average eigenvalue GAMMA=   1.7362
 11.5112  3.5900  2.4970  2.0203  1.0050  1.0050  0.9372  0.9372  0.8000  0.8000
  0.6398  0.3043  0.4795  0.4310  0.4310  0.3915

 Free energy of the ion-electron system (eV)
  ---------------------------------------------------
  alpha Z        PSCENC =       216.17040255
  Ewald energy   TEWEN  =     42212.80551875
  -Hartree energ DENC   =    -52964.77451896
  -exchange      EXHF   =         0.00000000
  -V(xc)+E(xc)   XCENC  =       362.44435987
  PAW double counting   =     10512.97754755   -11374.73831927
  entropy T*S    EENTRO =        -0.00064626
  eigenvalues    EBANDS =      -152.49727565
  atomic energy  EATOM  =     11152.61838693
  Solvation  Ediel_sol  =         0.00000000
  ---------------------------------------------------
  free energy    TOTEN  =       -34.99454449 eV

  energy without entropy =      -34.99389823  energy(sigma->0) =      -34.99432907


--------------------------------------------------------------------------------------------------------




--------------------------------------- Iteration      1(  22)  ---------------------------------------


    POTLOK:  cpu time      0.0159: real time      0.0162
    SETDIJ:  cpu time      0.0056: real time      0.0056
     EDDAV:  cpu time      0.3298: real time      0.3324
       DOS:  cpu time      0.0009: real time      0.0009
    CHARGE:  cpu time      0.0503: real time      0.0505
    MIXING:  cpu time      0.0018: real time      0.0018
    --------------------------------------------
      LOOP:  cpu time      0.4043: real time      0.4074

 eigenvalue-minimisations  :  1092
 total energy-change (2. order) :-0.5126623E-01  (-0.5357024E-03)
 number of electron      90.0000874 magnetization       0.0689300
 augmentation part       56.2067695 magnetization       0.0552591

 Broyden mixing:
  rms(total) = 0.92597E-02    rms(broyden)= 0.92573E-02
  rms(prec ) = 0.97585E-02
  weight for this iteration     100.00

 eigenvalues of (default mixing * dielectric matrix)
  average eigenvalue GAMMA=   1.7569
 11.5501  3.5515  3.5515  1.8728  1.5466  0.9183  0.9183  0.8756  0.8756  0.8304
  0.7191  0.6253  0.3043  0.4765  0.4371  0.4225  0.3917

 Free energy of the ion-electron system (eV)
  ---------------------------------------------------
  alpha Z        PSCENC =       216.17040255
  Ewald energy   TEWEN  =     42212.80551875
  -Hartree energ DENC   =    -52960.69421561
  -exchange      EXHF   =         0.00000000
  -V(xc)+E(xc)   XCENC  =       362.37839805
  PAW double counting   =     10511.56301052   -11373.20027328
  entropy T*S    EENTRO =        -0.00095928
  eigenvalues    EBANDS =      -156.68607934
  atomic energy  EATOM  =     11152.61838693
  Solvation  Ediel_sol  =         0.00000000
  ---------------------------------------------------
  free energy    TOTEN  =       -35.04581072 eV

  energy without entropy =      -35.04485144  energy(sigma->0) =      -35.04549096


--------------------------------------------------------------------------------------------------------




--------------------------------------- Iteration      1(  23)  ---------------------------------------


    POTLOK:  cpu time      0.0159: real time      0.0161
    SETDIJ:  cpu time      0.0056: real time      0.0056
     EDDAV:  cpu time      0.3155: real time      0.3182
       DOS:  cpu time      0.0009: real time      0.0009
    CHARGE:  cpu time      0.0507: real time      0.0509
    MIXING:  cpu time      0.0017: real time      0.0018
    --------------------------------------------
      LOOP:  cpu time      0.3903: real time      0.3936

 eigenvalue-minimisations  :  1024
 total energy-change (2. order) :-0.3824705E-01  (-0.1300363E-03)
 number of electron      90.0000874 magnetization       0.0443494
 augmentation part       56.2009710 magnetization       0.0299922

 Broyden mixing:
  rms(total) = 0.67734E-02    rms(broyden)= 0.67726E-02
  rms(prec ) = 0.70757E-02
  weight for this iteration     100.00

 eigenvalues of (default mixing * dielectric matrix)
  average eigenvalue GAMMA=   1.7958
 11.5997  5.1033  3.2550  2.1868  1.5056  1.1276  0.9068  0.9068  0.9307  0.7827
  0.7827  0.6541  0.3043  0.5491  0.4728  0.4414  0.3923  0.4222

 Free energy of the ion-electron system (eV)
  ---------------------------------------------------
  alpha Z        PSCENC =       216.17040255
  Ewald energy   TEWEN  =     42212.80551875
  -Hartree energ DENC   =    -52960.36208338
  -exchange      EXHF   =         0.00000000
  -V(xc)+E(xc)   XCENC  =       362.35014118
  PAW double counting   =     10513.81551905   -11375.57709793
  entropy T*S    EENTRO =        -0.00130637
  eigenvalues    EBANDS =      -156.90353856
  atomic energy  EATOM  =     11152.61838693
  Solvation  Ediel_sol  =         0.00000000
  ---------------------------------------------------
  free energy    TOTEN  =       -35.08405778 eV

  energy without entropy =      -35.08275140  energy(sigma->0) =      -35.08362232


--------------------------------------------------------------------------------------------------------




--------------------------------------- Iteration      1(  24)  ---------------------------------------


    POTLOK:  cpu time      0.0159: real time      0.0161
    SETDIJ:  cpu time      0.0056: real time      0.0056
     EDDAV:  cpu time      0.2948: real time      0.2970
       DOS:  cpu time      0.0009: real time      0.0010
    CHARGE:  cpu time      0.0505: real time      0.0508
    MIXING:  cpu time      0.0018: real time      0.0018
    --------------------------------------------
      LOOP:  cpu time      0.3695: real time      0.3723

 eigenvalue-minimisations  :   928
 total energy-change (2. order) :-0.3707079E-01  (-0.1204300E-03)
 number of electron      90.0000874 magnetization       0.0244369
 augmentation part       56.1998197 magnetization       0.0148858

 Broyden mixing:
  rms(total) = 0.47804E-02    rms(broyden)= 0.47796E-02
  rms(prec ) = 0.50200E-02
  weight for this iteration     100.00

 eigenvalues of (default mixing * dielectric matrix)
  average eigenvalue GAMMA=   1.8479
 11.6893  6.6790  2.9461  2.6238  1.6051  1.3698  0.9148  0.9148  0.8561  0.8561
  0.7643  0.7643  0.6264  0.3043  0.4846  0.3922  0.4489  0.4489  0.4206

 Free energy of the ion-electron system (eV)
  ---------------------------------------------------
  alpha Z        PSCENC =       216.17040255
  Ewald energy   TEWEN  =     42212.80551875
  -Hartree energ DENC   =    -52958.64703605
  -exchange      EXHF   =         0.00000000
  -V(xc)+E(xc)   XCENC  =       362.31386814
  PAW double counting   =     10513.12725906   -11374.86157884
  entropy T*S    EENTRO =        -0.00151532
  eigenvalues    EBANDS =      -158.64643378
  atomic energy  EATOM  =     11152.61838693
  Solvation  Ediel_sol  =         0.00000000
  ---------------------------------------------------
  free energy    TOTEN  =       -35.12112856 eV

  energy without entropy =      -35.11961325  energy(sigma->0) =      -35.12062346


--------------------------------------------------------------------------------------------------------




--------------------------------------- Iteration      1(  25)  ---------------------------------------


    POTLOK:  cpu time      0.0159: real time      0.0161
    SETDIJ:  cpu time      0.0055: real time      0.0056
     EDDAV:  cpu time      0.2822: real time      0.2843
       DOS:  cpu time      0.0009: real time      0.0009
    CHARGE:  cpu time      0.0501: real time      0.0503
    MIXING:  cpu time      0.0022: real time      0.0022
    --------------------------------------------
      LOOP:  cpu time      0.3568: real time      0.3595

 eigenvalue-minimisations  :   868
 total energy-change (2. order) :-0.1825753E-01  (-0.6711863E-04)
 number of electron      90.0000874 magnetization       0.0133600
 augmentation part       56.2031874 magnetization       0.0091011

 Broyden mixing:
  rms(total) = 0.30270E-02    rms(broyden)= 0.30263E-02
  rms(prec ) = 0.33349E-02
  weight for this iteration     100.00

 eigenvalues of (default mixing * dielectric matrix)
  average eigenvalue GAMMA=   1.9459
 11.8612  8.6280  3.4015  2.3762  2.2116  1.2565  1.2565  0.8967  0.8967  0.7963
  0.7963  0.7776  0.7067  0.3043  0.6000  0.4772  0.3927  0.4329  0.4329  0.4169

 Free energy of the ion-electron system (eV)
  ---------------------------------------------------
  alpha Z        PSCENC =       216.17040255
  Ewald energy   TEWEN  =     42212.80551875
  -Hartree energ DENC   =    -52957.13297065
  -exchange      EXHF   =         0.00000000
  -V(xc)+E(xc)   XCENC  =       362.28892936
  PAW double counting   =     10511.62454595   -11373.26774140
  entropy T*S    EENTRO =        -0.00152217
  eigenvalues    EBANDS =      -160.24493541
[...]
      2      -5.3208      1.00000
      3      -4.8721      1.00000
      4      -4.1347      1.00000
      5      -3.6729      1.00000
      6      -3.3213      1.00000
      7      -3.2218      1.00000
      8      -3.2082      1.00000
      9      -3.0880      1.00000
     10      -2.9174      1.00000
     11      -2.9055      1.00000
     12      -2.8944      1.00000
     13      -2.6305      1.00000
     14      -2.6132      1.00000
     15      -2.6040      1.00000
     16      -2.5083      1.00000
     17      -2.3267      1.00000
     18      -2.0735      1.00000
     19      -2.0044      1.00000
     20      -1.9354      1.00000
     21      -1.7927      1.00000
     22      -1.6466      1.00000
     23      -1.4095      1.00000
     24      -1.3176      1.00000
     25      -1.3025      1.00000
     26      -1.2203      1.00000
     27      -1.1891      1.00000
     28      -1.1055      1.00000
     29      -1.0781      1.00000
     30      -1.0315      1.00000
     31      -0.9926      1.00000
     32      -0.9804      1.00000
     33      -0.8644      1.00000
     34      -0.8212      1.00000
     35      -0.7854      1.00000
     36      -0.7522      1.00000
     37      -0.7220      1.00000
     38      -0.6608      1.00000
     39      -0.5885      1.00000
     40      -0.5358      1.00000
     41      -0.5066      1.00000
     42      -0.4649      1.00000
     43      -0.4455      1.00000
     44      -0.4349      1.00000
     45       0.5170      1.03540
     46       2.4209     -0.00000
     47       4.2616     -0.00000
     48       4.3772     -0.00000
     49       4.9918     -0.00000
     50       6.3712      0.00000
     51       6.5805      0.00000
     52       6.6401      0.00000
     53       7.0864      0.00000
     54       7.7424      0.00000
     55       8.0744      0.00000
     56       8.6012      0.00000
     57       9.3920      0.00000
     58       9.4984      0.00000
     59       9.5001      0.00000
     60       9.8056      0.00000

 k-point     4 :       0.3333    0.3333    0.0000
  band No.  band energies     occupation 
      1      -5.1421      1.00000
      2      -4.8207      1.00000
      3      -4.0908      1.00000
      4      -3.5464      1.00000
      5      -3.4631      1.00000
      6      -3.1815      1.00000
      7      -3.1235      1.00000
      8      -3.0071      1.00000
      9      -2.9859      1.00000
     10      -2.8187      1.00000
     11      -2.7978      1.00000
     12      -2.5706      1.00000
     13      -2.5033      1.00000
     14      -2.3806      1.00000
     15      -2.3132      1.00000
     16      -2.2771      1.00000
     17      -2.2276      1.00000
     18      -2.1666      1.00000
     19      -2.0318      1.00000
     20      -1.9621      1.00000
     21      -1.9502      1.00000
     22      -1.9286      1.00000
     23      -1.8875      1.00000
     24      -1.7535      1.00000
     25      -1.6662      1.00000
     26      -1.5394      1.00000
     27      -1.5254      1.00000
     28      -1.2641      1.00000
     29      -1.2109      1.00000
     30      -1.1494      1.00000
     31      -1.1043      1.00000
     32      -1.0719      1.00000
     33      -0.9950      1.00000
     34      -0.9821      1.00000
     35      -0.8570      1.00000
     36      -0.7637      1.00000
     37      -0.7420      1.00000
     38      -0.6841      1.00000
     39      -0.6605      1.00000
     40      -0.6094      1.00000
     41      -0.5654      1.00000
     42      -0.5201      1.00000
     43      -0.1690      1.00000
     44       0.6827      0.82004
     45       1.7202     -0.00000
     46       2.1421     -0.00000
     47       2.6877     -0.00000
     48       3.9974     -0.00000
     49       4.0957     -0.00000
     50       5.5872     -0.00000
     51       5.6983     -0.00000
     52       6.0877     -0.00000
     53       6.8340      0.00000
     54       7.1759      0.00000
     55       7.8457      0.00000
     56       7.9494      0.00000
     57       8.2212      0.00000
     58       8.9835      0.00000
     59       9.2572      0.00000
     60       9.6243      0.00000


--------------------------------------------------------------------------------------------------------


 soft charge-density along one line, spin component           1
         0         1         2         3         4         5         6         7         8         9
 total charge-density along one line
 
 soft charge-density along one line, spin component           2
         0         1         2         3         4         5         6         7         8         9
 total charge-density along one line
 
 pseudopotential strength for first ion, spin component:           1
 -7.257  -0.000  -0.000   0.000  -0.000  -1.438   0.000   0.000
 -0.000  -7.241   0.000  -0.000  -0.000   0.000  -1.452  -0.000
 -0.000   0.000  -7.262  -0.000   0.003   0.000  -0.000  -1.438
  0.000  -0.000  -0.000  -7.254  -0.000  -0.000   0.000   0.000
 -0.000  -0.000   0.003  -0.000  -7.252   0.000   0.000  -0.002
 -1.438   0.000   0.000  -0.000   0.000   8.002  -0.000  -0.000
  0.000  -1.452  -0.000   0.000   0.000  -0.000   8.014   0.000
  0.000  -0.000  -1.438   0.000  -0.002  -0.000   0.000   8.006
 -0.000   0.000   0.000  -1.444   0.000   0.000  -0.000  -0.000
  0.000   0.000  -0.002   0.000  -1.442  -0.000  -0.000   0.000
 -0.000  -0.000  -0.004   0.000  -0.000  -0.000  -0.000   0.004
 -0.000  -0.000  -0.007   0.000  -0.001  -0.000  -0.000   0.008
  0.000  -0.016   0.000  -0.000   0.000  -0.000   0.013  -0.000
 -0.000  -0.000  -0.017   0.000   0.001  -0.000   0.000   0.012
 -0.000  -0.000  -0.000  -0.014   0.000  -0.000  -0.000   0.000
  0.000  -0.018   0.000   0.000   0.000   0.000   0.015   0.000
  0.000  -0.000  -0.018   0.000   0.001  -0.000  -0.000   0.013
 -0.000   0.000  -0.000  -0.015   0.000  -0.000  -0.000  -0.000
 pseudopotential strength for first ion, spin component:           2
 -7.257  -0.000  -0.000   0.000  -0.000  -1.438   0.000   0.000
 -0.000  -7.241   0.000  -0.000  -0.000   0.000  -1.452  -0.000
 -0.000   0.000  -7.262  -0.000   0.003   0.000  -0.000  -1.438
  0.000  -0.000  -0.000  -7.254  -0.000  -0.000   0.000   0.000
 -0.000  -0.000   0.003  -0.000  -7.252   0.000   0.000  -0.002
 -1.438   0.000   0.000  -0.000   0.000   8.002  -0.000  -0.000
  0.000  -1.452  -0.000   0.000   0.000  -0.000   8.014   0.000
  0.000  -0.000  -1.438   0.000  -0.002  -0.000   0.000   8.006
 -0.000   0.000   0.000  -1.444   0.000   0.000   0.000  -0.000
  0.000   0.000  -0.002   0.000  -1.442  -0.000  -0.000   0.000
 -0.000  -0.000  -0.004   0.000  -0.000  -0.000  -0.000   0.004
 -0.000  -0.000  -0.007   0.000  -0.001  -0.000  -0.000   0.008
  0.000  -0.016   0.000  -0.000   0.000  -0.000   0.013  -0.000
 -0.000  -0.000  -0.017   0.000   0.001  -0.000   0.000   0.012
 -0.000  -0.000  -0.000  -0.014   0.000  -0.000  -0.000   0.000
  0.000  -0.018   0.000   0.000   0.000   0.000   0.015   0.000
  0.000  -0.000  -0.018   0.000   0.001  -0.000  -0.000   0.013
 -0.000   0.000  -0.000  -0.015   0.000  -0.000  -0.000  -0.000
 total augmentation occupancy for first ion, spin component:           1
  1.921   0.000   0.000   0.000   0.000  -0.012   0.000   0.000   0.000   0.000   0.000   0.000   0.000   0.000   0.000   0.000
  0.000   1.946   0.000   0.000   0.000   0.000  -0.028   0.000   0.000   0.000   0.000   0.000   0.023   0.000   0.000  -0.022
  0.000   0.000   1.928   0.000   0.002   0.000   0.000  -0.014   0.000   0.005  -0.015   0.015   0.000   0.069   0.000   0.000
  0.000   0.000   0.000   1.942   0.000   0.000   0.000   0.000  -0.025   0.000   0.000   0.000   0.000   0.000   0.066   0.000
  0.000   0.000   0.002   0.000   1.926   0.000   0.000   0.005   0.000  -0.017  -0.050   0.010   0.000   0.022   0.000   0.000
 -0.012   0.000   0.000   0.000   0.000   0.010   0.000   0.000   0.000   0.000   0.000   0.000   0.000   0.000   0.000   0.000
  0.000  -0.028   0.000   0.000   0.000   0.000   0.010   0.000   0.000   0.000   0.000   0.000   0.021   0.000   0.000  -0.001
  0.000   0.000  -0.014   0.000   0.005   0.000   0.000   0.011   0.000   0.001  -0.015  -0.000   0.000   0.020   0.000   0.000
  0.000   0.000   0.000  -0.025   0.000   0.000   0.000   0.000   0.012   0.000   0.000   0.000   0.000   0.000   0.031   0.000
  0.000   0.000   0.005   0.000  -0.017   0.000   0.000   0.001   0.000   0.010  -0.006   0.001   0.000   0.003   0.000   0.000
  0.000   0.000  -0.015   0.000  -0.050   0.000   0.000  -0.015   0.000  -0.006   1.697  -0.128   0.000   0.228   0.000   0.000
  0.000   0.000   0.015   0.000   0.010   0.000   0.000  -0.000   0.000   0.001  -0.128   0.016   0.000  -0.028   0.000   0.000
  0.000   0.023   0.000   0.000   0.000   0.000   0.021   0.000   0.000   0.000   0.000   0.000   0.213   0.000   0.000  -0.013
  0.000   0.000   0.069   0.000   0.022   0.000   0.000   0.020   0.000   0.003   0.228  -0.028   0.000   0.110   0.000   0.000
  0.000   0.000   0.000   0.066   0.000   0.000   0.000   0.000   0.031   0.000   0.000   0.000   0.000   0.000   0.151   0.000
  0.000  -0.022   0.000   0.000   0.000   0.000  -0.001   0.000   0.000   0.000   0.000   0.000  -0.013   0.000   0.000   0.001
  0.000   0.000  -0.027   0.000  -0.001   0.000   0.000  -0.001   0.000  -0.000  -0.029   0.003   0.000  -0.010   0.000   0.000
  0.000   0.000   0.000  -0.025   0.000   0.000   0.000   0.000  -0.002   0.000   0.000   0.000   0.000   0.000  -0.010   0.000
 total augmentation occupancy for first ion, spin component:           2
  0.000   0.000   0.000   0.000   0.000   0.000   0.000   0.000   0.000   0.000   0.000   0.000   0.000   0.000   0.000   0.000
  0.000  -0.000   0.000   0.000   0.000   0.000  -0.000   0.000   0.000   0.000   0.000   0.000   0.000   0.000   0.000  -0.000
  0.000   0.000   0.000   0.000  -0.000   0.000   0.000   0.000   0.000  -0.000   0.000   0.000   0.000  -0.000   0.000   0.000
  0.000   0.000   0.000  -0.000   0.000   0.000   0.000   0.000  -0.000   0.000   0.000   0.000   0.000   0.000   0.000   0.000
  0.000   0.000  -0.000   0.000  -0.000   0.000   0.000  -0.000   0.000   0.000   0.000   0.000   0.000  -0.000   0.000   0.000
  0.000   0.000   0.000   0.000   0.000   0.000   0.000   0.000   0.000   0.000   0.000   0.000   0.000   0.000   0.000   0.000
  0.000  -0.000   0.000   0.000   0.000   0.000   0.000   0.000   0.000   0.000   0.000   0.000  -0.000   0.000   0.000   0.000
  0.000   0.000   0.000   0.000  -0.000   0.000   0.000  -0.000   0.000   0.000  -0.000   0.000   0.000   0.000   0.000   0.000
  0.000   0.000   0.000  -0.000   0.000   0.000   0.000   0.000   0.000   0.000   0.000   0.000   0.000   0.000  -0.000   0.000
  0.000   0.000  -0.000   0.000   0.000   0.000   0.000   0.000   0.000  -0.000  -0.000  -0.000   0.000  -0.000   0.000   0.000
  0.000   0.000   0.000   0.000   0.000   0.000   0.000  -0.000   0.000  -0.000  -0.000   0.000   0.000  -0.000   0.000   0.000
  0.000   0.000   0.000   0.000   0.000   0.000   0.000   0.000   0.000  -0.000   0.000  -0.000   0.000   0.000   0.000   0.000
  0.000   0.000   0.000   0.000   0.000   0.000  -0.000   0.000   0.000   0.000   0.000   0.000   0.000   0.000   0.000  -0.000
  0.000   0.000  -0.000   0.000  -0.000   0.000   0.000   0.000   0.000  -0.000  -0.000   0.000   0.000  -0.000   0.000   0.000
  0.000   0.000   0.000   0.000   0.000   0.000   0.000   0.000  -0.000   0.000   0.000   0.000   0.000   0.000  -0.000   0.000
  0.000  -0.000   0.000   0.000   0.000   0.000   0.000   0.000   0.000   0.000   0.000   0.000  -0.000   0.000   0.000   0.000
  0.000   0.000   0.000   0.000   0.000   0.000   0.000  -0.000   0.000   0.000   0.000  -0.000   0.000   0.000   0.000   0.000
  0.000   0.000   0.000  -0.000   0.000   0.000   0.000   0.000   0.000   0.000   0.000   0.000   0.000   0.000   0.000   0.000


------------------------ aborting loop because EDIFF is reached ----------------------------------------


    CHARGE:  cpu time      0.0520: real time      0.0525
    FORLOC:  cpu time      0.0013: real time      0.0014
    FORNL :  cpu time      0.1428: real time      0.1434
    STRESS:  cpu time      0.1621: real time      0.1628
    FORCOR:  cpu time      0.0160: real time      0.0161
    FORHAR:  cpu time      0.0028: real time      0.0028
    MIXING:  cpu time      0.0005: real time      0.0005
    OFIELD:  cpu time      0.0000: real time      0.0000

 ---------------------------------------------------------------------------------------------

         DFTD3 V3.0 Rev 1        
 Edisp (eV)   -3.17846

 E6    (eV) :    -1.2947
 E8    (eV) :    -1.8838
 % E8        : 59.27
    FORVDW:  cpu time      0.0495: real time      0.0497

  FORCE on cell =-STRESS in cart. coord.  units (eV):
  Direction    XX          YY          ZZ          XY          YZ          ZX
  --------------------------------------------------------------------------------------
  Alpha Z   216.17040   216.17040   216.17040
  Ewald   47940.33546 48102.46999-53794.30058     0.00000    -0.00000     0.00000
  Hartree 51018.10279 51138.76645-49181.51463    -0.00000    -0.00000    -0.00000
  E(xc)    -520.43981  -520.22546  -520.59129     0.00000     0.00000    -0.00000
  Local  -99969.85574************101970.12070     0.00000     0.00000    -0.00000
  n-local  -179.47823  -175.15564  -180.36897     6.78867    -0.00000     0.00000
  augment   755.37530   758.51817   757.77459    -0.00000     0.00000    -0.00000
  Kinetic   738.71917   739.68145   735.20253     6.59028     0.00000    -0.00000
  Fock        0.00000     0.00000     0.00000     0.00000     0.00000     0.00000
  vdW        -3.87974    -3.82518    -2.76024     0.00000     0.00000    -0.00000
  -------------------------------------------------------------------------------------
  Total      -4.95039    -4.51620    -0.26748     0.00000     0.00000     0.00000
  in kB     -35.49227   -32.37930    -1.91773     0.00000     0.00000     0.00000
  external pressure =      -23.26 kB  Pullay stress =        0.00 kB


 VOLUME and BASIS-vectors are now :
 -----------------------------------------------------------------------------
  energy-cutoff  :      400.00
  volume of cell :      223.47
      direct lattice vectors                 reciprocal lattice vectors
     3.630000114  0.000000000  0.000000000     0.275482085  0.000000000  0.000000000
     0.000000000  2.566797733  0.000000000     0.000000000  0.389590495  0.000000000
     0.000000000  0.000000000 23.983791351     0.000000000  0.000000000  0.041694826

  length of vectors
     3.630000114  2.566797733 23.983791351     0.275482085  0.389590495  0.041694826


 FORCES acting on ions
    electron-ion (+dipol)            ewald-force                    non-local-force                 convergence-correction
 -----------------------------------------------------------------------------------------------
   -.383E-13 -.107E-11 0.460E+04   -.746E-07 0.322E-07 -.459E+04   0.000E+00 0.000E+00 -.611E+01   0.101E-09 -.477E-10 -.390E-01
   0.737E-06 -.131E-05 0.352E+04   0.134E-06 -.571E-07 -.352E+04   0.000E+00 0.000E+00 0.155E+01   -.622E-10 0.107E-09 -.171E-01
   -.618E-13 0.298E-13 0.208E+04   -.125E-06 0.522E-07 -.208E+04   0.000E+00 0.000E+00 -.991E+00   -.772E-10 0.348E-10 0.113E+00
   0.753E-06 -.132E-05 0.771E+03   0.129E-06 -.539E-07 -.771E+03   0.000E+00 0.000E+00 0.258E+00   0.415E-10 -.374E-10 0.232E+00
   -.755E-13 -.215E-12 -.586E+03   -.129E-06 0.538E-07 0.586E+03   0.000E+00 0.000E+00 -.116E+00   -.264E-10 0.128E-10 0.105E+00
   0.760E-06 -.132E-05 -.190E+04   0.125E-06 -.521E-07 0.189E+04   0.000E+00 0.000E+00 0.109E+01   0.205E-10 -.713E-10 0.206E+00
   -.587E-13 0.877E-12 -.334E+04   -.136E-06 0.573E-07 0.334E+04   0.000E+00 0.000E+00 -.154E+01   0.120E-09 -.608E-10 0.474E-01
   0.804E-06 -.134E-05 -.441E+04   0.799E-07 -.332E-07 0.440E+04   0.000E+00 0.000E+00 0.684E+01   0.714E-10 -.595E-10 -.144E+00
   0.536E-07 -.143E-07 -.378E+03   -.292E-08 0.720E-09 0.373E+03   0.000E+00 0.000E+00 0.471E+01   0.123E-10 0.153E-11 -.200E-01
   0.503E-07 -.150E-07 -.367E+03   -.808E-09 0.997E-10 0.372E+03   0.000E+00 0.000E+00 -.480E+01   -.390E-11 0.201E-11 -.191E-01
 -----------------------------------------------------------------------------------------------
   0.316E-05 -.532E-05 -.128E+01   0.318E-13 0.674E-13 0.171E-12   0.000E+00 0.000E+00 0.887E+00   0.197E-09 -.118E-09 0.465E+00
 
 
 POSITION                                       TOTAL-FORCE (eV/Angst)
 -----------------------------------------------------------------------------------
      0.00000      0.00000     -0.01909         0.000000      0.000000     -0.019293
      1.81500      1.28340      1.11299         0.000000      0.000000     -0.005097
      0.00000      0.00000      2.41467         0.000000      0.000000     -0.010762
      1.81500      1.28340      3.66239         0.000000      0.000000     -0.014940
      0.00000      0.00000      4.92369         0.000000      0.000000      0.013228
      1.81500      1.28340      6.17396         0.000000      0.000000      0.002563
      0.00000      0.00000      7.47531         0.000000      0.000000     -0.005659
      1.81500      1.28340      8.60107         0.000000      0.000000      0.014176
      1.81500      0.00000     10.70463         0.000000      0.000000      0.002736
      1.81500      0.00000     11.46659         0.000000      0.000000      0.023047
 -----------------------------------------------------------------------------------
    total drift:                                0.000003     -0.000005      0.066598


--------------------------------------------------------------------------------------------------------



  FREE ENERGIE OF THE ION-ELECTRON SYSTEM (eV)
  ---------------------------------------------------
  free  energy   TOTEN  =       -38.53245109 eV

  energy  without entropy=      -38.52644686  energy(sigma->0) =      -38.53044968
 
 d Force = 0.1383871E-03[ 0.109E-03, 0.168E-03]  d Energy = 0.2620124E-03-0.124E-03
 d Force = 0.4633832E+01[ 0.463E+01, 0.464E+01]  d Ewald  = 0.4633832E+01 0.206E-06


--------------------------------------------------------------------------------------------------------


    POTLOK:  cpu time      0.0246: real time      0.0248


--------------------------------------------------------------------------------------------------------


 stress matrix after NEB project (eV)
     -4.95039      0.00000      0.00000
      0.00000     -4.51620      0.00000
      0.00000      0.00000     -0.26748
  FORCES: max atom, RMS     0.023047    0.013001
  FORCE total and by dimension    0.041114    0.023047
  Stress total and by dimension    6.706262    4.950389


--------------------------------------------------------------------------------------------------------


  
 reached required accuracy - stopping structural energy minimisation
     LOOP+:  cpu time      1.5249: real time      1.5463
    4ORBIT:  cpu time      0.0000: real time      0.0000

 total amount of memory used by VASP MPI-rank0    35069. kBytes
=======================================================================

   base      :      30000. kBytes
   nonl-proj :       1086. kBytes
   fftplans  :        642. kBytes
   grid      :       1621. kBytes
   one-center:         62. kBytes
   wavefun   :       1658. kBytes
 
  
  
 General timing and accounting informations for this job:
 ========================================================
  
                  Total CPU time used (sec):      162.433
                            User time (sec):      161.905
                          System time (sec):        0.528
                         Elapsed time (sec):      167.187
  
                   Maximum memory used (kb):      230544.
                   Average memory used (kb):          N/A
  
                          Minor page faults:       130580
                          Major page faults:         6632
                 Voluntary context switches:         5020
