<?xml version="1.0" encoding="ISO-8859-1"?>
<modeling>
 <generator>
  <i name="program" type="string">vasp </i>
  <i name="version" type="string">6.3.2  </i>
  <i name="subversion" type="string">27Jun22 (build Aug 17 2022 15:43:34) complex                          parallel </i>
  <i name="platform" type="string">tv2STDVTST </i>
  <i name="date" type="string">2025 02 04 </i>
  <i name="time" type="string">13:29:01 </i>
 </generator>
 <incar>
  <i type="int" name="ISTART">     0</i>
  <i type="string" name="PREC">Normal</i>
  <i type="int" name="ISPIN">     2</i>
  <i type="int" name="ICHARG">     2</i>
  <i type="int" name="IBRION">     2</i>
  <i name="EDIFF">      0.00020000</i>
  <i name="EDIFFG">     -0.03000000</i>
  <i type="int" name="NSW">   800</i>
  <i type="int" name="ISIF">     2</i>
  <i type="int" name="ISYM">     1</i>
  <i name="ENCUT">    400.00000000</i>
  <i name="POTIM">      0.50000000</i>
  <i type="logical" name="LREAL"> F  </i>
  <i type="int" name="ISMEAR">     1</i>
  <i name="SIGMA">      0.20000000</i>
  <i type="logical" name="LWAVE"> F  </i>
  <i type="logical" name="LCHARG"> F  </i>
  <i type="string" name="GGA">PE</i>
  <i type="int" name="IVDW">    11</i>
 </incar>
 <primitive_cell>
  <structure name="primitive_cell" >
   <crystal>
    <varray name="basis" >
     <v>       3.63000011       0.00000000       0.00000000 </v>
     <v>       0.00000000       2.56679773       0.00000000 </v>
     <v>       0.00000000       0.00000000      23.98379135 </v>
    </varray>
    <i name="volume">    223.46840188 </i>
    <varray name="rec_basis" >
     <v>       0.27548208       0.00000000       0.00000000 </v>
     <v>       0.00000000       0.38959050       0.00000000 </v>
     <v>       0.00000000       0.00000000       0.04169483 </v>
    </varray>
   </crystal>
   <varray name="positions" >
    <v>       0.00000000       0.00000000       0.00000000 </v>
    <v>       0.50000000       0.50000000       0.05351109 </v>
    <v>       0.00000000       0.00000000       0.10468148 </v>
    <v>       0.50000000       0.50000000       0.15792996 </v>
    <v>       0.00000000       0.00000000       0.21070899 </v>
    <v>       0.50000000       0.50000000       0.26289048 </v>
    <v>       0.00000000       0.00000000       0.31711592 </v>
    <v>       0.50000000       0.50000000       0.36467590 </v>
    <v>       0.50000000       0.00000000       0.42690792 </v>
    <v>       0.50000000       0.00000000       0.45801226 </v>
   </varray>
  </structure>
  <varray name="primitive_index" >
   <v type="int" >        1 </v>
   <v type="int" >        2 </v>
   <v type="int" >        3 </v>
   <v type="int" >        4 </v>
   <v type="int" >        5 </v>
   <v type="int" >        6 </v>
   <v type="int" >        7 </v>
   <v type="int" >        8 </v>
   <v type="int" >        9 </v>
   <v type="int" >       10 </v>
  </varray>
 </primitive_cell>
 <kpoints>
  <generation param="Monkhorst-Pack">
   <v type="int" name="divisions">       3        3        1 </v>
   <v name="usershift">      0.00000000       0.00000000       0.00000000 </v>
   <v name="genvec1">      0.33333333       0.00000000       0.00000000 </v>
   <v name="genvec2">      0.00000000       0.33333333       0.00000000 </v>
   <v name="genvec3">      0.00000000       0.00000000       1.00000000 </v>
   <v name="shift">      0.00000000       0.00000000       0.00000000 </v>
  </generation>
  <varray name="kpointlist" >
   <v>       0.00000000       0.00000000       0.00000000 </v>
   <v>       0.33333333       0.00000000       0.00000000 </v>
   <v>       0.00000000       0.33333333       0.00000000 </v>
   <v>       0.33333333       0.33333333       0.00000000 </v>
  </varray>
  <varray name="weights" >
   <v>       0.11111111 </v>
   <v>       0.22222222 </v>
   <v>       0.22222222 </v>
   <v>       0.44444444 </v>
  </varray>
 </kpoints>
 <parameters>
  <separator name="general" >
   <i type="string" name="SYSTEM">unknown system</i>
   <i type="logical" name="LCOMPAT"> F  </i>
  </separator>
  <separator name="electronic" >
   <i type="string" name="PREC">normal</i>
   <i name="ENMAX">    400.00000000</i>
   <i name="ENAUG">    586.98000000</i>
   <i name="EDIFF">      0.00020000</i>
   <i type="int" name="IALGO">    38</i>
   <i type="int" name="IWAVPR">    11</i>
   <i type="int" name="NBANDS">    60</i>
   <i type="int" name="NBANDSLOW">    -1</i>
   <i type="int" name="NBANDSHIGH">    -1</i>
   <i name="NELECT">     90.00000000</i>
   <i type="int" name="TURBO">     0</i>
   <i type="int" name="IRESTART">     0</i>
   <i type="int" name="NREBOOT">     0</i>
   <i type="int" name="NMIN">     0</i>
   <i name="EREF">      0.00000000</i>
   <separator name="electronic smearing" >
    <i type="int" name="ISMEAR">     1</i>
    <i name="SIGMA">      0.20000000</i>
    <i name="KSPACING">      0.50000000</i>
    <i type="logical" name="KGAMMA"> T  </i>
    <i type="logical" name="KBLOWUP"> T  </i>
   </separator>
   <separator name="electronic projectors" >
    <i type="logical" name="LREAL"> F  </i>
    <v name="ROPT">      0.00000000      0.00000000</v>
    <i type="int" name="LMAXPAW">  -100</i>
    <i type="int" name="LMAXMIX">     2</i>
    <i type="logical" name="NLSPLINE"> F  </i>
   </separator>
   <separator name="electronic startup" >
    <i type="int" name="ISTART">     0</i>
    <i type="int" name="ICHARG">     2</i>
    <i type="int" name="INIWAV">     1</i>
   </separator>
   <separator name="electronic spin" >
    <i type="int" name="ISPIN">     2</i>
    <i type="logical" name="LNONCOLLINEAR"> F  </i>
    <v name="MAGMOM">      1.00000000      1.00000000      1.00000000      1.00000000      1.00000000      1.00000000      1.00000000      1.00000000      1.00000000      1.00000000</v>
    <i name="NUPDOWN">     -1.00000000</i>
    <i type="logical" name="LSORBIT"> F  </i>
    <v name="SAXIS">      0.00000000      0.00000000      1.00000000</v>
    <i type="logical" name="LSPIRAL"> F  </i>
    <v name="QSPIRAL">      0.00000000      0.00000000      0.00000000</v>
    <i type="logical" name="LZEROZ"> F  </i>
   </separator>
   <separator name="electronic exchange-correlation" >
    <i type="logical" name="LASPH"> F  </i>
    <i type="logical" name="LMETAGGA"> F  </i>
   </separator>
   <separator name="electronic convergence" >
    <i type="int" name="NELM">    60</i>
    <i type="int" name="NELMDL">    -5</i>
    <i type="int" name="NELMIN">     2</i>
    <i name="ENINI">    400.00000000</i>
    <separator name="electronic convergence detail" >
     <i type="logical" name="LDIAG"> T  </i>
     <i type="logical" name="LSUBROT"> F  </i>
     <i name="WEIMIN">      0.00100000</i>
     <i name="EBREAK">      0.00000083</i>
     <i name="DEPER">      0.30000000</i>
     <i type="int" name="NRMM">     4</i>
     <i name="TIME">      0.40000000</i>
    </separator>
   </separator>
   <separator name="electronic mixer" >
    <i name="AMIX">      0.40000000</i>
    <i name="BMIX">      1.00000000</i>
    <i name="AMIN">      0.10000000</i>
    <i name="AMIX_MAG">      1.60000000</i>
    <i name="BMIX_MAG">      1.00000000</i>
    <separator name="electronic mixer details" >
     <i type="int" name="IMIX">     4</i>
     <i type="logical" name="MIXFIRST"> F  </i>
     <i type="int" name="MAXMIX">   -45</i>
     <i name="WC">    100.00000000</i>
     <i type="int" name="INIMIX">     1</i>
     <i type="int" name="MIXPRE">     1</i>
     <i type="int" name="MREMOVE">     5</i>
    </separator>
   </separator>
   <separator name="electronic dipolcorrection" >
    <i type="logical" name="LDIPOL"> F  </i>
    <i type="logical" name="LMONO"> F  </i>
    <i type="int" name="IDIPOL">     0</i>
    <i name="EPSILON">      1.00000000</i>
    <v name="DIPOL">   -100.00000000   -100.00000000   -100.00000000</v>
    <i name="EFIELD">      0.00000000</i>
   </separator>
  </separator>
  <separator name="grids" >
   <i type="int" name="NGX">    18</i>
   <i type="int" name="NGY">    14</i>
   <i type="int" name="NGZ">   120</i>
   <i type="int" name="NGXF">    36</i>
   <i type="int" name="NGYF">    28</i>
   <i type="int" name="NGZF">   240</i>
   <i type="logical" name="ADDGRID"> F  </i>
  </separator>
  <separator name="ionic" >
   <i type="int" name="NSW">   800</i>
   <i type="int" name="IBRION">     2</i>
   <i type="int" name="MDALGO">     0</i>
   <i type="int" name="ISIF">     2</i>
   <i name="PSTRESS">      0.00000000</i>
   <i name="EDIFFG">     -0.03000000</i>
   <i type="int" name="NFREE">     1</i>
   <i name="POTIM">      0.50000000</i>
   <i name="SMASS">     -3.00000000</i>
   <i name="SCALEE">      1.00000000</i>
  </separator>
  <separator name="ionic md" >
   <i name="TEBEG">      0.00010000</i>
   <i name="TEEND">      0.00010000</i>
   <i type="int" name="NBLOCK">     1</i>
   <i type="int" name="KBLOCK">   800</i>
   <i type="int" name="NPACO">   256</i>
   <i name="APACO">     10.00000000</i>
  </separator>
  <separator name="symmetry" >
   <i type="int" name="ISYM">     1</i>
   <i name="SYMPREC">      0.00001000</i>
  </separator>
  <separator name="dos" >
   <i type="int" name="LORBIT">     0</i>
   <v name="RWIGS">     -1.00000000     -1.00000000</v>
   <i type="int" name="NEDOS">   301</i>
   <i name="EMIN">     10.00000000</i>
   <i name="EMAX">    -10.00000000</i>
   <i name="EFERMI">      0.00000000</i>
  </separator>
  <separator name="writing" >
   <i type="int" name="NWRITE">     2</i>
   <i type="logical" name="LWAVE"> F  </i>
   <i type="logical" name="LDOWNSAMPLE"> F  </i>
   <i type="logical" name="LCHARG"> F  </i>
   <i type="logical" name="LPARD"> F  </i>
   <i type="logical" name="LVTOT"> F  </i>
   <i type="logical" name="LVHAR"> F  </i>
   <i type="logical" name="LELF"> F  </i>
   <i type="logical" name="LOPTICS"> F  </i>
   <v name="STM">      0.00000000      0.00000000      0.00000000      0.00000000      0.00000000      0.00000000      0.00000000</v>
  </separator>
  <separator name="performance" >
   <i type="int" name="NPAR">     4</i>
   <i type="int" name="NSIM">     4</i>
   <i type="int" name="NBLK">    -1</i>
   <i type="logical" name="LPLANE"> T  </i>
   <i type="logical" name="LSCALAPACK"> T  </i>
   <i type="logical" name="LSCAAWARE"> F  </i>
   <i type="logical" name="LSCALU"> F  </i>
   <i type="logical" name="LASYNC"> F  </i>
   <i type="logical" name="LORBITALREAL"> F  </i>
  </separator>
  <separator name="miscellaneous" >
   <i type="int" name="IDIOT">     3</i>
   <i type="int" name="PHON_NSTRUCT">    -1</i>
   <i type="logical" name="LMUSIC"> F  </i>
   <v name="POMASS">     63.54600000      1.00000000</v>
   <v name="DARWINR">      0.00000000      0.00000000</v>
   <v name="DARWINV">      1.00000000      1.00000000</v>
   <i type="logical" name="LCORR"> T  </i>
  </separator>
  <i type="logical" name="GGA_COMPAT"> T  </i>
  <i type="logical" name="LBERRY"> F  </i>
  <i type="int" name="ICORELEVEL">     0</i>
  <i type="logical" name="LDAU"> F  </i>
  <i type="int" name="I_CONSTRAINED_M">     0</i>
  <separator name="electronic exchange-correlation" >
   <i type="string" name="GGA">PE</i>
   <i type="int" name="VOSKOWN">     0</i>
   <i type="logical" name="LHFCALC"> F  </i>
   <i type="string" name="PRECFOCK"></i>
   <i type="logical" name="LSYMGRAD"> F  </i>
   <i type="logical" name="LHFONE"> F  </i>
   <i type="logical" name="LRHFCALC"> F  </i>
   <i type="logical" name="LTHOMAS"> F  </i>
   <i type="logical" name="LMODELHF"> F  </i>
   <i type="logical" name="LFOCKACE"> F  </i>
   <i name="ENCUT4O">     -1.00000000</i>
   <i type="int" name="EXXOEP">     0</i>
   <i type="int" name="FOURORBIT">     0</i>
   <i name="AEXX">      0.00000000</i>
   <i name="HFALPHA">      0.00000000</i>
   <i name="MCALPHA">      0.00000000</i>
   <i name="ALDAX">      1.00000000</i>
   <i name="AGGAX">      1.00000000</i>
   <i name="ALDAC">      1.00000000</i>
   <i name="AGGAC">      1.00000000</i>
   <i type="int" name="NKREDX">     1</i>
   <i type="int" name="NKREDY">     1</i>
   <i type="int" name="NKREDZ">     1</i>
   <i type="logical" name="SHIFTRED"> F  </i>
   <i type="logical" name="ODDONLY"> F  </i>
   <i type="logical" name="EVENONLY"> F  </i>
   <i type="int" name="LMAXFOCK">     0</i>
   <i type="int" name="NMAXFOCKAE">     0</i>
   <i type="logical" name="LFOCKAEDFT"> F  </i>
   <i name="HFSCREEN">      0.00000000</i>
   <i name="HFSCREENC">      0.00000000</i>
   <i type="int" name="NBANDSGWLOW">     0</i>
  </separator>
  <separator name="vdW DFT" >
   <i type="logical" name="LUSE_VDW"> F  </i>
   <i name="Zab_VDW">     -0.84910000</i>
   <i name="PARAM1">      0.12340000</i>
   <i name="PARAM2">      1.00000000</i>
   <i name="PARAM3">      0.00000000</i>
  </separator>
  <separator name="model GW" >
   <i type="int" name="MODEL_GW">     0</i>
   <i name="MODEL_EPS0">     13.40810411</i>
   <i name="MODEL_ALPHA">      1.00000000</i>
  </separator>
  <separator name="linear response parameters" >
   <i type="logical" name="LEPSILON"> F  </i>
   <i type="logical" name="LRPA"> F  </i>
   <i type="logical" name="LNABLA"> F  </i>
   <i type="logical" name="LVEL"> F  </i>
   <i name="CSHIFT">      0.10000000</i>
   <i name="OMEGAMAX">     -1.00000000</i>
   <i name="DEG_THRESHOLD">      0.00200000</i>
   <i name="RTIME">     -0.10000000</i>
   <i name="WPLASMAI">      0.00000000</i>
   <v name="DFIELD">      0.00000000      0.00000000      0.00000000</v>
   <v name="WPLASMA">      0.00000000      0.00000000      0.00000000      0.00000000      0.00000000      0.00000000      0.00000000      0.00000000      0.00000000</v>
  </separator>
  <separator name="orbital magnetization" >
   <i type="logical" name="NUCIND"> F  </i>
   <v name="MAGPOS">      0.00000000      0.00000000      0.00000000</v>
   <i type="logical" name="LNICSALL"> T  </i>
   <i type="logical" name="ORBITALMAG"> F  </i>
   <i type="logical" name="LMAGBLOCH"> F  </i>
   <i type="logical" name="LCHIMAG"> F  </i>
   <i type="logical" name="LGAUGE"> T  </i>
   <i type="int" name="MAGATOM">     0</i>
   <v name="MAGDIPOL">      0.00000000      0.00000000      0.00000000</v>
   <v name="AVECCONST">      0.00000000      0.00000000      0.00000000</v>
  </separator>
  <separator name="response functions" >
   <i type="logical" name="LFINITE_TEMPERATURE"> F  </i>
   <i type="logical" name="LADDER"> F  </i>
   <i type="logical" name="LRPAFORCE"> F  </i>
   <i type="logical" name="LFXC"> F  </i>
   <i type="logical" name="LHARTREE"> T  </i>
   <i type="int" name="IBSE">     0</i>
   <v type="int" name="KPOINT">    -1     0     0     0</v>
   <i type="logical" name="LTCTC"> F  </i>
   <i type="logical" name="LTCTE"> F  </i>
   <i type="logical" name="LTETE"> F  </i>
   <i type="logical" name="LTRIPLET"> F  </i>
   <i type="logical" name="LFXCEPS"> F  </i>
   <i type="logical" name="LFXHEG"> F  </i>
   <i type="int" name="NATURALO">     2</i>
   <i type="logical" name="LHOLEGF"> F  </i>
   <i type="logical" name="L2ORDER"> F  </i>
   <i type="logical" name="LDMP1"> F  </i>
   <i type="logical" name="LMP2LT"> F  </i>
   <i type="logical" name="LSMP2LT"> F  </i>
   <i type="logical" name="LGWLF"> F  </i>
   <i name="ENCUTGW">     -2.00000000</i>
   <i name="ENCUTGWSOFT">     -2.00000000</i>
   <i name="ENCUTLF">     -1.00000000</i>
   <i type="logical" name="LESF_SPLINES"> F  </i>
   <i type="int" name="LMAXMP2">    -1</i>
   <i name="SCISSOR">      0.00000000</i>
   <i type="int" name="NOMEGA">     0</i>
   <i type="int" name="NOMEGAR">     0</i>
   <i type="int" name="NBANDSGW">    -1</i>
   <i type="int" name="NBANDSO">    -1</i>
   <i type="int" name="NBANDSV">    -1</i>
   <i type="int" name="NELMGW">     1</i>
   <i type="int" name="NELMHF">     1</i>
   <i type="int" name="DIM">     3</i>
   <i type="int" name="IESPILON">     4</i>
   <i type="int" name="ANTIRES">     0</i>
   <i name="OMEGAMAX">    -30.00000000</i>
   <i name="OMEGAMIN">    -30.00000000</i>
   <i name="OMEGATL">   -200.00000000</i>
   <i type="int" name="OMEGAGRID">     0</i>
   <i name="CSHIFT">     -0.10000000</i>
   <i type="logical" name="LSELFENERGY"> F  </i>
   <i type="logical" name="LSPECTRAL"> F  </i>
   <i type="logical" name="LSPECTRALGW"> F  </i>
   <i type="logical" name="LSINGLES"> F  </i>
   <i type="logical" name="LFERMIGW"> F  </i>
   <i type="logical" name="ODDONLYGW"> F  </i>
   <i type="logical" name="EVENONLYGW"> F  </i>
   <i type="int" name="NKREDLFX">     1</i>
   <i type="int" name="NKREDLFY">     1</i>
   <i type="int" name="NKREDLFZ">     1</i>
   <i type="int" name="MAXMEM">  2800</i>
   <i type="int" name="TELESCOPE">     0</i>
   <i type="int" name="NTAUPAR">    -1</i>
   <i type="int" name="NOMEGAPAR">    -1</i>
   <i name="DAMP_NEWTON">      0.80000001</i>
   <i name="LAMBDA">      1.00000000</i>
  </separator>
  <separator name="External order field" >
   <i name="OFIELD_KAPPA">      0.00000000</i>
   <v name="OFIELD_K">      0.00000000      0.00000000      0.00000000</v>
   <i name="OFIELD_Q6_NEAR">      0.00000000</i>
   <i name="OFIELD_Q6_FAR">      0.00000000</i>
   <i name="OFIELD_A">      0.00000000</i>
  </separator>
  <separator name="optional k-points parameters" >
   <i type="int" name="KPOINTS_OPT_MODE">     1</i>
   <i type="logical" name="LKPOINTS_OPT"> F  </i>
  </separator>
 </parameters>
 <atominfo>
  <atoms>      10 </atoms>
  <types>       2 </types>
  <array name="atoms" >
   <dimension dim="1">ion</dimension>
   <field type="string">element</field>
   <field type="int">atomtype</field>
   <set>
    <rc><c>Cu</c><c>   1</c></rc>
    <rc><c>Cu</c><c>   1</c></rc>
    <rc><c>Cu</c><c>   1</c></rc>
    <rc><c>Cu</c><c>   1</c></rc>
    <rc><c>Cu</c><c>   1</c></rc>
    <rc><c>Cu</c><c>   1</c></rc>
    <rc><c>Cu</c><c>   1</c></rc>
    <rc><c>Cu</c><c>   1</c></rc>
    <rc><c>H </c><c>   2</c></rc>
    <rc><c>H </c><c>   2</c></rc>
   </set>
  </array>
  <array name="atomtypes" >
   <dimension dim="1">type</dimension>
   <field type="int">atomspertype</field>
   <field type="string">element</field>
   <field>mass</field>
   <field>valence</field>
   <field type="string">pseudopotential</field>
   <set>
    <rc><c>   8</c><c>Cu</c><c>     63.54600000</c><c>     11.00000000</c><c>  PAW_PBE Cu 22Jun2005                  </c></rc>
    <rc><c>   2</c><c>H </c><c>      1.00000000</c><c>      1.00000000</c><c>  PAW_PBE H 15Jun2001                   </c></rc>
   </set>
  </array>
 </atominfo>
 <structure name="initialpos" >
  <crystal>
   <varray name="basis" >
    <v>       3.63000011       0.00000000       0.00000000 </v>
    <v>       0.00000000       2.56679773       0.00000000 </v>
    <v>       0.00000000       0.00000000      23.98379135 </v>
   </varray>
   <i name="volume">    223.46840188 </i>
   <varray name="rec_basis" >
    <v>       0.27548208       0.00000000       0.00000000 </v>
    <v>       0.00000000       0.38959050       0.00000000 </v>
    <v>       0.00000000       0.00000000       0.04169483 </v>
   </varray>
  </crystal>
  <varray name="positions" >
   <v>       0.00000000       0.00000000       0.00000000 </v>
   <v>       0.50000000       0.50000000       0.05351109 </v>
   <v>       0.00000000       0.00000000       0.10468148 </v>
   <v>       0.50000000       0.50000000       0.15792996 </v>
   <v>       0.00000000       0.00000000       0.21070899 </v>
   <v>       0.50000000       0.50000000       0.26289048 </v>
   <v>       0.00000000       0.00000000       0.31711592 </v>
   <v>       0.50000000       0.50000000       0.36467590 </v>
   <v>       0.50000000       0.00000000       0.42690792 </v>
   <v>       0.50000000       0.00000000       0.45801226 </v>
  </varray>
 </structure>
 <calculation>
  <scstep>
   <time name="dav">    0.32    0.32</time>
   <time name="total">    0.34    0.35</time>
   <energy>
    <i name="alphaZ">    216.17040255 </i>
    <i name="ewald">  42212.80551875 </i>
    <i name="hartreedc"> -53034.49787082 </i>
    <i name="XCdc">    371.40981882 </i>
    <i name="pawpsdc">   9828.36862813 </i>
    <i name="pawaedc"> -10674.97285505 </i>
    <i name="eentropy">      0.00061378 </i>
    <i name="bandstr">    699.75712697 </i>
    <i name="atom">  11152.61838693 </i>
    <i name="e_fr_energy">    771.65977005 </i>
    <i name="e_wo_entrp">    771.65915627 </i>
    <i name="e_0_energy">    771.65956546 </i>
   </energy>
  </scstep>
  <scstep>
   <time name="dav">    0.30    0.31</time>
   <time name="total">    0.31    0.31</time>
   <energy>
    <i name="e_fr_energy">     58.08194733 </i>
    <i name="e_wo_entrp">     58.09671887 </i>
    <i name="e_0_energy">     58.08687118 </i>
   </energy>
  </scstep>
  <scstep>
   <time name="dav">    0.31    0.31</time>
   <time name="total">    0.31    0.31</time>
   <energy>
    <i name="e_fr_energy">    -31.53470216 </i>
    <i name="e_wo_entrp">    -31.54000522 </i>
    <i name="e_0_energy">    -31.53646985 </i>
   </energy>
  </scstep>
  <scstep>
   <time name="dav">    0.35    0.35</time>
   <time name="total">    0.35    0.35</time>
   <energy>
    <i name="e_fr_energy">    -35.29814088 </i>
    <i name="e_wo_entrp">    -35.30362721 </i>
    <i name="e_0_energy">    -35.29996965 </i>
   </energy>
  </scstep>
  <scstep>
   <time name="dav">    0.34    0.34</time>
   <time name="total">    0.40    0.40</time>
   <energy>
    <i name="e_fr_energy">    -35.38507440 </i>
    <i name="e_wo_entrp">    -35.39055150 </i>
    <i name="e_0_energy">    -35.38690010 </i>
   </energy>
  </scstep>
  <scstep>
   <time name="dav">    0.33    0.34</time>
   <time name="total">    0.41    0.41</time>
   <energy>
    <i name="e_fr_energy">    -28.44906864 </i>
    <i name="e_wo_entrp">    -28.44787424 </i>
    <i name="e_0_energy">    -28.44867051 </i>
   </energy>
  </scstep>
  <scstep>
   <time name="dav">    0.34    0.34</time>
   <time name="total">    0.41    0.42</time>
   <energy>
    <i name="e_fr_energy">    -25.92045473 </i>
    <i name="e_wo_entrp">    -25.91552598 </i>
    <i name="e_0_energy">    -25.91881182 </i>
   </energy>
  </scstep>
  <scstep>
   <time name="dav">    0.37    0.38</time>
   <time name="total">    0.45    0.45</time>
   <energy>
    <i name="e_fr_energy">    -25.54142362 </i>
    <i name="e_wo_entrp">    -25.52924494 </i>
    <i name="e_0_energy">    -25.53736406 </i>
   </energy>
  </scstep>
  <scstep>
   <time name="dav">    0.44    0.44</time>
   <time name="total">    0.51    0.52</time>
   <energy>
    <i name="e_fr_energy">    -25.38147333 </i>
    <i name="e_wo_entrp">    -25.38202707 </i>
    <i name="e_0_energy">    -25.38165791 </i>
   </energy>
  </scstep>
  <scstep>
   <time name="dav">    0.40    0.41</time>
   <time name="total">    0.48    0.48</time>
   <energy>
    <i name="e_fr_energy">    -26.16995292 </i>
    <i name="e_wo_entrp">    -26.17111395 </i>
    <i name="e_0_energy">    -26.17033993 </i>
   </energy>
  </scstep>
  <scstep>
   <time name="dav">    0.37    0.38</time>
   <time name="total">    0.45    0.45</time>
   <energy>
    <i name="e_fr_energy">    -27.80241036 </i>
    <i name="e_wo_entrp">    -27.79527334 </i>
    <i name="e_0_energy">    -27.80003136 </i>
   </energy>
  </scstep>
  <scstep>
   <time name="dav">    0.36    0.36</time>
   <time name="total">    0.44    0.44</time>
   <energy>
    <i name="e_fr_energy">    -29.33554000 </i>
    <i name="e_wo_entrp">    -29.31821654 </i>
    <i name="e_0_energy">    -29.32976551 </i>
   </energy>
  </scstep>
  <scstep>
   <time name="dav">    0.40    0.40</time>
   <time name="total">    0.48    0.48</time>
   <energy>
    <i name="e_fr_energy">    -32.20591742 </i>
    <i name="e_wo_entrp">    -32.19870639 </i>
    <i name="e_0_energy">    -32.20351375 </i>
   </energy>
  </scstep>
  <scstep>
   <time name="dav">    0.35    0.36</time>
   <time name="total">    0.43    0.43</time>
   <energy>
    <i name="e_fr_energy">    -33.70825094 </i>
    <i name="e_wo_entrp">    -33.69627898 </i>
    <i name="e_0_energy">    -33.70426028 </i>
   </energy>
  </scstep>
  <scstep>
   <time name="dav">    0.34    0.34</time>
   <time name="total">    0.41    0.41</time>
   <energy>
    <i name="e_fr_energy">    -34.33217675 </i>
    <i name="e_wo_entrp">    -34.32654766 </i>
    <i name="e_0_energy">    -34.33030038 </i>
   </energy>
  </scstep>
  <scstep>
   <time name="dav">    0.34    0.35</time>
   <time name="total">    0.42    0.43</time>
   <energy>
    <i name="e_fr_energy">    -34.60323946 </i>
    <i name="e_wo_entrp">    -34.60311511 </i>
    <i name="e_0_energy">    -34.60319801 </i>
   </energy>
  </scstep>
  <scstep>
   <time name="dav">    0.37    0.37</time>
   <time name="total">    0.44    0.45</time>
   <energy>
    <i name="e_fr_energy">    -34.78883501 </i>
    <i name="e_wo_entrp">    -34.79065812 </i>
    <i name="e_0_energy">    -34.78944271 </i>
   </energy>
  </scstep>
  <scstep>
   <time name="dav">    0.35    0.35</time>
   <time name="total">    0.42    0.43</time>
   <energy>
    <i name="e_fr_energy">    -34.85681402 </i>
    <i name="e_wo_entrp">    -34.85798511 </i>
    <i name="e_0_energy">    -34.85720438 </i>
   </energy>
  </scstep>
  <scstep>
   <time name="dav">    0.34    0.34</time>
   <time name="total">    0.41    0.42</time>
   <energy>
    <i name="e_fr_energy">    -34.91862034 </i>
    <i name="e_wo_entrp">    -34.91912907 </i>
    <i name="e_0_energy">    -34.91878992 </i>
   </energy>
  </scstep>
  <scstep>
   <time name="dav">    0.35    0.35</time>
   <time name="total">    0.42    0.43</time>
   <energy>
    <i name="e_fr_energy">    -34.94987012 </i>
    <i name="e_wo_entrp">    -34.94953969 </i>
    <i name="e_0_energy">    -34.94975998 </i>
   </energy>
  </scstep>
  <scstep>
   <time name="dav">    0.34    0.34</time>
   <time name="total">    0.41    0.42</time>
   <energy>
    <i name="e_fr_energy">    -34.99454449 </i>
    <i name="e_wo_entrp">    -34.99389823 </i>
    <i name="e_0_energy">    -34.99432907 </i>
   </energy>
  </scstep>
  <scstep>
   <time name="dav">    0.33    0.33</time>
   <time name="total">    0.40    0.41</time>
   <energy>
    <i name="e_fr_energy">    -35.04581072 </i>
    <i name="e_wo_entrp">    -35.04485144 </i>
    <i name="e_0_energy">    -35.04549096 </i>
   </energy>
  </scstep>
  <scstep>
   <time name="dav">    0.32    0.32</time>
   <time name="total">    0.39    0.39</time>
   <energy>
    <i name="e_fr_energy">    -35.08405778 </i>
    <i name="e_wo_entrp">    -35.08275140 </i>
    <i name="e_0_energy">    -35.08362232 </i>
   </energy>
  </scstep>
  <scstep>
   <time name="dav">    0.29    0.30</time>
   <time name="total">    0.37    0.37</time>
   <energy>
    <i name="e_fr_energy">    -35.12112856 </i>
    <i name="e_wo_entrp">    -35.11961325 </i>
    <i name="e_0_energy">    -35.12062346 </i>
   </energy>
  </scstep>
  <scstep>
   <time name="dav">    0.28    0.28</time>
   <time name="total">    0.36    0.36</time>
   <energy>
    <i name="e_fr_energy">    -35.13938609 </i>
    <i name="e_wo_entrp">    -35.13786392 </i>
    <i name="e_0_energy">    -35.13887870 </i>
   </energy>
  </scstep>
  <scstep>
   <time name="dav">    0.28    0.28</time>
   <time name="total">    0.36    0.36</time>
   <energy>
    <i name="e_fr_energy">    -35.14831056 </i>
    <i name="e_wo_entrp">    -35.14650813 </i>
    <i name="e_0_energy">    -35.14770975 </i>
   </energy>
  </scstep>
  <scstep>
   <time name="dav">    0.25    0.26</time>
   <time name="total">    0.33    0.33</time>
   <energy>
    <i name="e_fr_energy">    -35.14911431 </i>
    <i name="e_wo_entrp">    -35.14735788 </i>
    <i name="e_0_energy">    -35.14852884 </i>
   </energy>
  </scstep>
  <scstep>
   <time name="dav">    0.25    0.25</time>
   <time name="total">    0.27    0.27</time>
   <energy>
    <i name="alphaZ">    216.17040255 </i>
    <i name="ewald">  42212.80551875 </i>
    <i name="hartreedc"> -52956.64071332 </i>
    <i name="XCdc">    362.28032498 </i>
    <i name="pawpsdc">  10512.11435468 </i>
    <i name="pawaedc"> -11373.80778529 </i>
    <i name="eentropy">     -0.00177227 </i>
    <i name="bandstr">   -160.68799557 </i>
    <i name="atom">  11152.61838693 </i>
    <i name="e_fr_energy">    -35.14927856 </i>
    <i name="e_wo_entrp">    -35.14750629 </i>
    <i name="e_0_energy">    -35.14868780 </i>
   </energy>
  </scstep>
  <structure>
   <crystal>
    <varray name="basis" >
     <v>       3.63000011       0.00000000       0.00000000 </v>
     <v>       0.00000000       2.56679773       0.00000000 </v>
     <v>       0.00000000       0.00000000      23.98379135 </v>
    </varray>
    <i name="volume">    223.46840188 </i>
    <varray name="rec_basis" >
     <v>       0.27548208       0.00000000       0.00000000 </v>
     <v>       0.00000000       0.38959050       0.00000000 </v>
     <v>       0.00000000       0.00000000       0.04169483 </v>
    </varray>
   </crystal>
   <varray name="positions" >
    <v>       0.00000000       0.00000000       0.00000000 </v>
    <v>       0.50000000       0.50000000       0.05351109 </v>
    <v>       0.00000000       0.00000000       0.10468148 </v>
    <v>       0.50000000       0.50000000       0.15792996 </v>
    <v>       0.00000000       0.00000000       0.21070899 </v>
    <v>       0.50000000       0.50000000       0.26289048 </v>
    <v>       0.00000000       0.00000000       0.31711592 </v>
    <v>       0.50000000       0.50000000       0.36467590 </v>
    <v>       0.50000000       0.00000000       0.42690792 </v>
    <v>       0.50000000       0.00000000       0.45801226 </v>
   </varray>
  </structure>
  <varray name="forces" >
   <v>       0.00000000       0.00000000       0.53248226 </v>
   <v>       0.00000000       0.00000000      -0.50517724 </v>
   <v>       0.00000000       0.00000000       0.01568014 </v>
   <v>       0.00000000       0.00000000       0.08371584 </v>
   <v>       0.00000000       0.00000000      -0.17165765 </v>
   <v>       0.00000000       0.00000000       0.07985924 </v>
   <v>       0.00000000       0.00000000      -0.06176776 </v>
   <v>       0.00000000       0.00000000      -0.54260766 </v>
   <v>       0.00000000       0.00000000      -0.81472773 </v>
   <v>       0.00000000       0.00000000       1.38420056 </v>
  </varray>
  <varray name="stress" >
   <v>     -39.82944000       0.00000000       0.00000000 </v>
   <v>       0.00000000     -32.07919007       0.00000000 </v>
   <v>       0.00000000       0.00000000       2.30923110 </v>
  </varray>
  <energy>
   <i name="e_fr_energy">    -38.34481553 </i>
   <i name="e_wo_entrp">    -38.34304326 </i>
   <i name="e_0_energy">    -38.34422477 </i>
  </energy>
  <time name="totalsc">   11.67   11.81</time>
 </calculation>
 <calculation>
  <scstep>
   <time name="dav">    0.31    0.32</time>
   <time name="total">    0.39    0.39</time>
   <energy>
    <i name="alphaZ">    216.17040255 </i>
    <i name="ewald">  42360.99615051 </i>
    <i name="hartreedc"> -53105.97076657 </i>
    <i name="XCdc">    362.26817270 </i>
    <i name="pawpsdc">  10512.04035932 </i>
    <i name="pawaedc"> -11373.72895768 </i>
    <i name="eentropy">     -0.00398201 </i>
    <i name="bandstr">   -159.52153729 </i>
    <i name="atom">  11152.61838693 </i>
    <i name="e_fr_energy">    -35.13177152 </i>
    <i name="e_wo_entrp">    -35.12778951 </i>
    <i name="e_0_energy">    -35.13044418 </i>
   </energy>
  </scstep>
  <scstep>
   <time name="dav">    0.39    0.40</time>
   <time name="total">    0.47    0.47</time>
   <energy>
    <i name="e_fr_energy">    -35.15388142 </i>
    <i name="e_wo_entrp">    -35.15010379 </i>
    <i name="e_0_energy">    -35.15262221 </i>
   </energy>
  </scstep>
  <scstep>
   <time name="dav">    0.34    0.35</time>
   <time name="total">    0.42    0.42</time>
   <energy>
    <i name="e_fr_energy">    -35.15033630 </i>
    <i name="e_wo_entrp">    -35.14747673 </i>
    <i name="e_0_energy">    -35.14938311 </i>
   </energy>
  </scstep>
  <scstep>
   <time name="dav">    0.36    0.37</time>
   <time name="total">    0.44    0.44</time>
   <energy>
    <i name="e_fr_energy">    -35.14916688 </i>
    <i name="e_wo_entrp">    -35.14596846 </i>
    <i name="e_0_energy">    -35.14810074 </i>
   </energy>
  </scstep>
  <scstep>
   <time name="dav">    0.44    0.44</time>
   <time name="total">    0.51    0.51</time>
   <energy>
    <i name="e_fr_energy">    -35.14825298 </i>
    <i name="e_wo_entrp">    -35.14553127 </i>
    <i name="e_0_energy">    -35.14734574 </i>
   </energy>
  </scstep>
  <scstep>
   <time name="dav">    0.41    0.42</time>
   <time name="total">    0.49    0.49</time>
   <energy>
    <i name="e_fr_energy">    -35.14785702 </i>
    <i name="e_wo_entrp">    -35.14543260 </i>
    <i name="e_0_energy">    -35.14704888 </i>
   </energy>
  </scstep>
  <scstep>
   <time name="dav">    0.29    0.30</time>
   <time name="total">    0.32    0.32</time>
   <energy>
    <i name="alphaZ">    216.17040255 </i>
    <i name="ewald">  42360.99615051 </i>
    <i name="hartreedc"> -53097.11698916 </i>
    <i name="XCdc">    362.10648684 </i>
    <i name="pawpsdc">  10515.07549652 </i>
    <i name="pawaedc"> -11376.89586356 </i>
    <i name="eentropy">     -0.00261776 </i>
    <i name="bandstr">   -168.09934121 </i>
    <i name="atom">  11152.61838693 </i>
    <i name="e_fr_energy">    -35.14788833 </i>
    <i name="e_wo_entrp">    -35.14527057 </i>
    <i name="e_0_energy">    -35.14701575 </i>
   </energy>
  </scstep>
  <structure>
   <crystal>
    <varray name="basis" >
     <v>       3.63000011       0.00000000       0.00000000 </v>
     <v>       0.00000000       2.56679773       0.00000000 </v>
     <v>       0.00000000       0.00000000      23.98379135 </v>
    </varray>
    <i name="volume">    223.46840188 </i>
    <varray name="rec_basis" >
     <v>       0.27548208       0.00000000       0.00000000 </v>
     <v>       0.00000000       0.38959050       0.00000000 </v>
     <v>       0.00000000       0.00000000       0.04169483 </v>
    </varray>
   </crystal>
   <varray name="positions" >
    <v>       0.00000000       0.00000000       0.00107107 </v>
    <v>       0.50000000       0.50000000       0.05249494 </v>
    <v>       0.00000000       0.00000000       0.10471302 </v>
    <v>       0.50000000       0.50000000       0.15809835 </v>
    <v>       0.00000000       0.00000000       0.21036371 </v>
    <v>       0.50000000       0.50000000       0.26305111 </v>
    <v>       0.00000000       0.00000000       0.31699167 </v>
    <v>       0.50000000       0.50000000       0.36358446 </v>
    <v>       0.50000000       0.00000000       0.42526912 </v>
    <v>       0.50000000       0.00000000       0.46079654 </v>
   </varray>
  </structure>
  <varray name="forces" >
   <v>       0.00000000       0.00000000       0.34769434 </v>
   <v>       0.00000000       0.00000000      -0.28581463 </v>
   <v>       0.00000000       0.00000000       0.02452707 </v>
   <v>       0.00000000       0.00000000      -0.01471949 </v>
   <v>       0.00000000       0.00000000      -0.09774748 </v>
   <v>       0.00000000       0.00000000      -0.07583641 </v>
   <v>       0.00000000       0.00000000      -0.12484378 </v>
   <v>       0.00000000       0.00000000      -0.17226466 </v>
   <v>       0.00000000       0.00000000       1.14667620 </v>
   <v>       0.00000000       0.00000000      -0.74767116 </v>
  </varray>
  <varray name="stress" >
   <v>     -37.66989070       0.00000000       0.00000000 </v>
   <v>       0.00000000     -31.69335521       0.00000000 </v>
   <v>       0.00000000       0.00000000      -7.51841546 </v>
  </varray>
  <energy>
   <i name="e_fr_energy">    -38.36921699 </i>
   <i name="e_wo_entrp">    -38.36659923 </i>
   <i name="e_0_energy">    -38.36834440 </i>
  </energy>
  <time name="totalsc">    3.51    3.61</time>
 </calculation>
 <calculation>
  <scstep>
   <time name="dav">    0.33    0.33</time>
   <time name="total">    0.40    0.41</time>
   <energy>
    <i name="alphaZ">    216.17040255 </i>
    <i name="ewald">  42295.21527703 </i>
    <i name="hartreedc"> -53030.78824249 </i>
    <i name="XCdc">    362.11149452 </i>
    <i name="pawpsdc">  10515.41212562 </i>
    <i name="pawaedc"> -11377.24211291 </i>
    <i name="eentropy">     -0.00139916 </i>
    <i name="bandstr">   -168.67522668 </i>
    <i name="atom">  11152.61838693 </i>
    <i name="e_fr_energy">    -35.17929458 </i>
    <i name="e_wo_entrp">    -35.17789543 </i>
    <i name="e_0_energy">    -35.17882820 </i>
   </energy>
  </scstep>
  <scstep>
   <time name="dav">    0.38    0.39</time>
   <time name="total">    0.46    0.46</time>
   <energy>
    <i name="e_fr_energy">    -35.18408814 </i>
    <i name="e_wo_entrp">    -35.18235163 </i>
    <i name="e_0_energy">    -35.18350930 </i>
   </energy>
  </scstep>
  <scstep>
   <time name="dav">    0.33    0.33</time>
   <time name="total">    0.40    0.41</time>
   <energy>
    <i name="e_fr_energy">    -35.18369128 </i>
    <i name="e_wo_entrp">    -35.18181483 </i>
    <i name="e_0_energy">    -35.18306579 </i>
   </energy>
  </scstep>
  <scstep>
   <time name="dav">    0.33    0.33</time>
   <time name="total">    0.40    0.41</time>
   <energy>
    <i name="e_fr_energy">    -35.18337035 </i>
    <i name="e_wo_entrp">    -35.18122339 </i>
    <i name="e_0_energy">    -35.18265470 </i>
   </energy>
  </scstep>
  <scstep>
   <time name="dav">    0.24    0.25</time>
   <time name="total">    0.27    0.27</time>
   <energy>
    <i name="alphaZ">    216.17040255 </i>
    <i name="ewald">  42295.21527703 </i>
    <i name="hartreedc"> -53034.17676781 </i>
    <i name="XCdc">    362.17656123 </i>
    <i name="pawpsdc">  10514.04404139 </i>
    <i name="pawaedc"> -11375.82087320 </i>
    <i name="eentropy">     -0.00209032 </i>
    <i name="bandstr">   -165.40827538 </i>
    <i name="atom">  11152.61838693 </i>
    <i name="e_fr_energy">    -35.18333758 </i>
    <i name="e_wo_entrp">    -35.18124726 </i>
    <i name="e_0_energy">    -35.18264080 </i>
   </energy>
  </scstep>
  <structure>
   <crystal>
    <varray name="basis" >
     <v>       3.63000011       0.00000000       0.00000000 </v>
     <v>       0.00000000       2.56679773       0.00000000 </v>
     <v>       0.00000000       0.00000000      23.98379135 </v>
    </varray>
    <i name="volume">    223.46840188 </i>
    <varray name="rec_basis" >
     <v>       0.27548208       0.00000000       0.00000000 </v>
     <v>       0.00000000       0.38959050       0.00000000 </v>
     <v>       0.00000000       0.00000000       0.04169483 </v>
    </varray>
   </crystal>
   <varray name="positions" >
    <v>       0.00000000       0.00000000       0.00059670 </v>
    <v>       0.50000000       0.50000000       0.05294499 </v>
    <v>       0.00000000       0.00000000       0.10469905 </v>
    <v>       0.50000000       0.50000000       0.15802377 </v>
    <v>       0.00000000       0.00000000       0.21051663 </v>
    <v>       0.50000000       0.50000000       0.26297997 </v>
    <v>       0.00000000       0.00000000       0.31704670 </v>
    <v>       0.50000000       0.50000000       0.36406785 </v>
    <v>       0.50000000       0.00000000       0.42599493 </v>
    <v>       0.50000000       0.00000000       0.45956341 </v>
   </varray>
  </structure>
  <varray name="forces" >
   <v>       0.00000000       0.00000000       0.46897462 </v>
   <v>       0.00000000       0.00000000      -0.43764049 </v>
   <v>       0.00000000       0.00000000       0.02737670 </v>
   <v>       0.00000000       0.00000000       0.05279186 </v>
   <v>       0.00000000       0.00000000      -0.13757995 </v>
   <v>       0.00000000       0.00000000       0.02532343 </v>
   <v>       0.00000000       0.00000000      -0.08866394 </v>
   <v>       0.00000000       0.00000000      -0.37754075 </v>
   <v>       0.00000000       0.00000000       0.60563135 </v>
   <v>       0.00000000       0.00000000      -0.13867284 </v>
  </varray>
  <varray name="stress" >
   <v>     -37.41512301       0.00000000       0.00000000 </v>
   <v>       0.00000000     -30.63721513       0.00000000 </v>
   <v>       0.00000000       0.00000000      -3.43305567 </v>
  </varray>
  <energy>
   <i name="e_fr_energy">    -38.38674450 </i>
   <i name="e_wo_entrp">    -38.38465418 </i>
   <i name="e_0_energy">    -38.38604773 </i>
  </energy>
  <time name="totalsc">    2.42    2.50</time>
 </calculation>
 <calculation>
  <scstep>
   <time name="dav">    0.32    0.32</time>
   <time name="total">    0.39    0.39</time>
   <energy>
    <i name="alphaZ">    216.17040255 </i>
    <i name="ewald">  42442.00933860 </i>
    <i name="hartreedc"> -53180.80338617 </i>
    <i name="XCdc">    362.24112217 </i>
    <i name="pawpsdc">  10514.02701618 </i>
    <i name="pawaedc"> -11375.80590736 </i>
    <i name="eentropy">     -0.00131856 </i>
    <i name="bandstr">   -165.64879107 </i>
    <i name="atom">  11152.61838693 </i>
    <i name="e_fr_energy">    -35.19313673 </i>
    <i name="e_wo_entrp">    -35.19181817 </i>
    <i name="e_0_energy">    -35.19269721 </i>
   </energy>
  </scstep>
  <scstep>
   <time name="dav">    0.40    0.40</time>
   <time name="total">    0.47    0.48</time>
   <energy>
    <i name="e_fr_energy">    -35.21493075 </i>
    <i name="e_wo_entrp">    -35.21338195 </i>
    <i name="e_0_energy">    -35.21441448 </i>
   </energy>
  </scstep>
  <scstep>
   <time name="dav">    0.34    0.34</time>
   <time name="total">    0.41    0.41</time>
   <energy>
    <i name="e_fr_energy">    -35.21337725 </i>
    <i name="e_wo_entrp">    -35.21226783 </i>
    <i name="e_0_energy">    -35.21300744 </i>
   </energy>
  </scstep>
  <scstep>
   <time name="dav">    0.34    0.34</time>
   <time name="total">    0.41    0.42</time>
   <energy>
    <i name="e_fr_energy">    -35.21321741 </i>
    <i name="e_wo_entrp">    -35.21207124 </i>
    <i name="e_0_energy">    -35.21283535 </i>
   </energy>
  </scstep>
  <scstep>
   <time name="dav">    0.32    0.32</time>
   <time name="total">    0.39    0.39</time>
   <energy>
    <i name="e_fr_energy">    -35.21295672 </i>
    <i name="e_wo_entrp">    -35.21173384 </i>
    <i name="e_0_energy">    -35.21254909 </i>
   </energy>
  </scstep>
  <scstep>
   <time name="dav">    0.34    0.34</time>
   <time name="total">    0.41    0.41</time>
   <energy>
    <i name="e_fr_energy">    -35.21272985 </i>
    <i name="e_wo_entrp">    -35.21186651 </i>
    <i name="e_0_energy">    -35.21244207 </i>
   </energy>
  </scstep>
  <scstep>
   <time name="dav">    0.25    0.25</time>
   <time name="total">    0.27    0.28</time>
   <energy>
    <i name="alphaZ">    216.17040255 </i>
    <i name="ewald">  42442.00933860 </i>
    <i name="hartreedc"> -53180.04246347 </i>
    <i name="XCdc">    362.22531518 </i>
    <i name="pawpsdc">  10523.31652298 </i>
    <i name="pawaedc"> -11385.29607194 </i>
    <i name="eentropy">     -0.00099412 </i>
    <i name="bandstr">   -166.21316688 </i>
    <i name="atom">  11152.61838693 </i>
    <i name="e_fr_energy">    -35.21273019 </i>
    <i name="e_wo_entrp">    -35.21173606 </i>
    <i name="e_0_energy">    -35.21239881 </i>
   </energy>
  </scstep>
  <structure>
   <crystal>
    <varray name="basis" >
     <v>       3.63000011       0.00000000       0.00000000 </v>
     <v>       0.00000000       2.56679773       0.00000000 </v>
     <v>       0.00000000       0.00000000      23.98379135 </v>
    </varray>
    <i name="volume">    223.46840188 </i>
    <varray name="rec_basis" >
     <v>       0.27548208       0.00000000       0.00000000 </v>
     <v>       0.00000000       0.38959050       0.00000000 </v>
     <v>       0.00000000       0.00000000       0.04169483 </v>
    </varray>
   </crystal>
   <varray name="positions" >
    <v>       0.00000000       0.00000000       0.00172303 </v>
    <v>       0.50000000       0.50000000       0.05188977 </v>
    <v>       0.00000000       0.00000000       0.10475709 </v>
    <v>       0.50000000       0.50000000       0.15816246 </v>
    <v>       0.00000000       0.00000000       0.21017847 </v>
    <v>       0.50000000       0.50000000       0.26306637 </v>
    <v>       0.00000000       0.00000000       0.31685323 </v>
    <v>       0.50000000       0.50000000       0.36310408 </v>
    <v>       0.50000000       0.00000000       0.42669739 </v>
    <v>       0.50000000       0.00000000       0.46000210 </v>
   </varray>
  </structure>
  <varray name="forces" >
   <v>       0.00000000       0.00000000       0.27075433 </v>
   <v>       0.00000000       0.00000000      -0.18733983 </v>
   <v>       0.00000000       0.00000000       0.03382643 </v>
   <v>       0.00000000       0.00000000      -0.04495937 </v>
   <v>       0.00000000       0.00000000      -0.08819104 </v>
   <v>       0.00000000       0.00000000      -0.12830510 </v>
   <v>       0.00000000       0.00000000      -0.11164935 </v>
   <v>       0.00000000       0.00000000      -0.16891999 </v>
   <v>       0.00000000       0.00000000       0.52399538 </v>
   <v>       0.00000000       0.00000000      -0.09921146 </v>
  </varray>
  <varray name="stress" >
   <v>     -36.63435523       0.00000000       0.00000000 </v>
   <v>       0.00000000     -31.31089473       0.00000000 </v>
   <v>       0.00000000       0.00000000      -2.15637468 </v>
  </varray>
  <energy>
   <i name="e_fr_energy">    -38.41922915 </i>
   <i name="e_wo_entrp">    -38.41823502 </i>
   <i name="e_0_energy">    -38.41889777 </i>
  </energy>
  <time name="totalsc">    3.24    3.33</time>
 </calculation>
 <calculation>
  <scstep>
   <time name="dav">    0.32    0.32</time>
   <time name="total">    0.39    0.39</time>
   <energy>
    <i name="alphaZ">    216.17040255 </i>
    <i name="ewald">  42638.42777423 </i>
    <i name="hartreedc"> -53376.05788335 </i>
    <i name="XCdc">    362.32068974 </i>
    <i name="pawpsdc">  10523.37294767 </i>
    <i name="pawaedc"> -11385.35080848 </i>
    <i name="eentropy">     -0.00034320 </i>
    <i name="bandstr">   -166.69150704 </i>
    <i name="atom">  11152.61838693 </i>
    <i name="e_fr_energy">    -35.19034097 </i>
    <i name="e_wo_entrp">    -35.18999777 </i>
    <i name="e_0_energy">    -35.19022657 </i>
   </energy>
  </scstep>
  <scstep>
   <time name="dav">    0.39    0.40</time>
   <time name="total">    0.47    0.47</time>
   <energy>
    <i name="e_fr_energy">    -35.23153073 </i>
    <i name="e_wo_entrp">    -35.23078470 </i>
    <i name="e_0_energy">    -35.23128205 </i>
   </energy>
  </scstep>
  <scstep>
   <time name="dav">    0.35    0.35</time>
   <time name="total">    0.42    0.42</time>
   <energy>
    <i name="e_fr_energy">    -35.22858164 </i>
    <i name="e_wo_entrp">    -35.22851459 </i>
    <i name="e_0_energy">    -35.22855929 </i>
   </energy>
  </scstep>
  <scstep>
   <time name="dav">    0.35    0.36</time>
   <time name="total">    0.43    0.43</time>
   <energy>
    <i name="e_fr_energy">    -35.22831452 </i>
    <i name="e_wo_entrp">    -35.22820391 </i>
    <i name="e_0_energy">    -35.22827765 </i>
   </energy>
  </scstep>
  <scstep>
   <time name="dav">    0.34    0.34</time>
   <time name="total">    0.41    0.41</time>
   <energy>
    <i name="e_fr_energy">    -35.22794927 </i>
    <i name="e_wo_entrp">    -35.22773941 </i>
    <i name="e_0_energy">    -35.22787932 </i>
   </energy>
  </scstep>
  <scstep>
   <time name="dav">    0.41    0.42</time>
   <time name="total">    0.49    0.49</time>
   <energy>
    <i name="e_fr_energy">    -35.22755303 </i>
    <i name="e_wo_entrp">    -35.22787636 </i>
    <i name="e_0_energy">    -35.22766081 </i>
   </energy>
  </scstep>
  <scstep>
   <time name="dav">    0.27    0.27</time>
   <time name="total">    0.29    0.29</time>
   <energy>
    <i name="alphaZ">    216.17040255 </i>
    <i name="ewald">  42638.42777423 </i>
    <i name="hartreedc"> -53374.90606986 </i>
    <i name="XCdc">    362.29506671 </i>
    <i name="pawpsdc">  10538.14162080 </i>
    <i name="pawaedc"> -11400.38852549 </i>
    <i name="eentropy">      0.00010396 </i>
    <i name="bandstr">   -167.58630129 </i>
    <i name="atom">  11152.61838693 </i>
    <i name="e_fr_energy">    -35.22754149 </i>
    <i name="e_wo_entrp">    -35.22764545 </i>
    <i name="e_0_energy">    -35.22757614 </i>
   </energy>
  </scstep>
  <structure>
   <crystal>
    <varray name="basis" >
     <v>       3.63000011       0.00000000       0.00000000 </v>
     <v>       0.00000000       2.56679773       0.00000000 </v>
     <v>       0.00000000       0.00000000      23.98379135 </v>
    </varray>
    <i name="volume">    223.46840188 </i>
    <varray name="rec_basis" >
     <v>       0.27548208       0.00000000       0.00000000 </v>
     <v>       0.00000000       0.38959050       0.00000000 </v>
     <v>       0.00000000       0.00000000       0.04169483 </v>
    </varray>
   </crystal>
   <varray name="positions" >
    <v>       0.00000000       0.00000000       0.00322942 </v>
    <v>       0.50000000       0.50000000       0.05047849 </v>
    <v>       0.00000000       0.00000000       0.10483471 </v>
    <v>       0.50000000       0.50000000       0.15834795 </v>
    <v>       0.00000000       0.00000000       0.20972621 </v>
    <v>       0.50000000       0.50000000       0.26318193 </v>
    <v>       0.00000000       0.00000000       0.31659448 </v>
    <v>       0.50000000       0.50000000       0.36181510 </v>
    <v>       0.50000000       0.00000000       0.42763688 </v>
    <v>       0.50000000       0.00000000       0.46058882 </v>
   </varray>
  </structure>
  <varray name="forces" >
   <v>       0.00000000       0.00000000       0.02566764 </v>
   <v>       0.00000000       0.00000000       0.07090064 </v>
   <v>       0.00000000       0.00000000       0.05855484 </v>
   <v>       0.00000000       0.00000000      -0.13670867 </v>
   <v>       0.00000000       0.00000000      -0.02279710 </v>
   <v>       0.00000000       0.00000000      -0.31198062 </v>
   <v>       0.00000000       0.00000000      -0.13548336 </v>
   <v>       0.00000000       0.00000000       0.08855200 </v>
   <v>       0.00000000       0.00000000       0.39935958 </v>
   <v>       0.00000000       0.00000000      -0.03606494 </v>
  </varray>
  <varray name="stress" >
   <v>     -32.90041312       0.00000000       0.00000000 </v>
   <v>       0.00000000     -29.77622971       0.00000000 </v>
   <v>       0.00000000       0.00000000       2.67694446 </v>
  </varray>
  <energy>
   <i name="e_fr_energy">    -38.43833885 </i>
   <i name="e_wo_entrp">    -38.43844281 </i>
   <i name="e_0_energy">    -38.43837350 </i>
  </energy>
  <time name="totalsc">    3.38    3.43</time>
 </calculation>
 <calculation>
  <scstep>
   <time name="dav">    0.32    0.32</time>
   <time name="total">    0.39    0.40</time>
   <energy>
    <i name="alphaZ">    216.17040255 </i>
    <i name="ewald">  42665.64256238 </i>
    <i name="hartreedc"> -53402.07647583 </i>
    <i name="XCdc">    362.30867478 </i>
    <i name="pawpsdc">  10538.24883729 </i>
    <i name="pawaedc"> -11400.49933425 </i>
    <i name="eentropy">      0.00013803 </i>
    <i name="bandstr">   -167.63983073 </i>
    <i name="atom">  11152.61838693 </i>
    <i name="e_fr_energy">    -35.22663885 </i>
    <i name="e_wo_entrp">    -35.22677688 </i>
    <i name="e_0_energy">    -35.22668486 </i>
   </energy>
  </scstep>
  <scstep>
   <time name="dav">    0.39    0.40</time>
   <time name="total">    0.46    0.47</time>
   <energy>
    <i name="e_fr_energy">    -35.22733213 </i>
    <i name="e_wo_entrp">    -35.22740847 </i>
    <i name="e_0_energy">    -35.22735758 </i>
   </energy>
  </scstep>
  <scstep>
   <time name="dav">    0.28    0.28</time>
   <time name="total">    0.30    0.30</time>
   <energy>
    <i name="alphaZ">    216.17040255 </i>
    <i name="ewald">  42665.64256238 </i>
    <i name="hartreedc"> -53401.95270775 </i>
    <i name="XCdc">    362.30284683 </i>
    <i name="pawpsdc">  10539.27616681 </i>
    <i name="pawaedc"> -11401.50857191 </i>
    <i name="eentropy">      0.00012907 </i>
    <i name="bandstr">   -167.77653670 </i>
    <i name="atom">  11152.61838693 </i>
    <i name="e_fr_energy">    -35.22732178 </i>
    <i name="e_wo_entrp">    -35.22745086 </i>
    <i name="e_0_energy">    -35.22736481 </i>
   </energy>
  </scstep>
  <structure>
   <crystal>
    <varray name="basis" >
     <v>       3.63000011       0.00000000       0.00000000 </v>
     <v>       0.00000000       2.56679773       0.00000000 </v>
     <v>       0.00000000       0.00000000      23.98379135 </v>
    </varray>
    <i name="volume">    223.46840188 </i>
    <varray name="rec_basis" >
     <v>       0.27548208       0.00000000       0.00000000 </v>
     <v>       0.00000000       0.38959050       0.00000000 </v>
     <v>       0.00000000       0.00000000       0.04169483 </v>
    </varray>
   </crystal>
   <varray name="positions" >
    <v>       0.00000000       0.00000000       0.00343814 </v>
    <v>       0.50000000       0.50000000       0.05028295 </v>
    <v>       0.00000000       0.00000000       0.10484546 </v>
    <v>       0.50000000       0.50000000       0.15837365 </v>
    <v>       0.00000000       0.00000000       0.20966355 </v>
    <v>       0.50000000       0.50000000       0.26319794 </v>
    <v>       0.00000000       0.00000000       0.31655863 </v>
    <v>       0.50000000       0.50000000       0.36163651 </v>
    <v>       0.50000000       0.00000000       0.42776705 </v>
    <v>       0.50000000       0.00000000       0.46067011 </v>
   </varray>
  </structure>
  <varray name="forces" >
   <v>       0.00000000       0.00000000      -0.03500413 </v>
   <v>       0.00000000       0.00000000       0.11522346 </v>
   <v>       0.00000000       0.00000000       0.05755617 </v>
   <v>       0.00000000       0.00000000      -0.15101028 </v>
   <v>       0.00000000       0.00000000      -0.00685495 </v>
   <v>       0.00000000       0.00000000      -0.33130557 </v>
   <v>       0.00000000       0.00000000      -0.13466909 </v>
   <v>       0.00000000       0.00000000       0.12677683 </v>
   <v>       0.00000000       0.00000000       0.38397944 </v>
   <v>       0.00000000       0.00000000      -0.02469188 </v>
  </varray>
  <varray name="stress" >
   <v>     -30.34421888       0.00000000       0.00000000 </v>
   <v>       0.00000000     -27.50389059       0.00000000 </v>
   <v>       0.00000000       0.00000000       5.26999614 </v>
  </varray>
  <energy>
   <i name="e_fr_energy">    -38.43872528 </i>
   <i name="e_wo_entrp">    -38.43885435 </i>
   <i name="e_0_energy">    -38.43876830 </i>
  </energy>
  <time name="totalsc">    1.64    1.68</time>
 </calculation>
 <calculation>
  <scstep>
   <time name="dav">    0.31    0.31</time>
   <time name="total">    0.38    0.38</time>
   <energy>
    <i name="alphaZ">    216.17040255 </i>
    <i name="ewald">  42743.12165433 </i>
    <i name="hartreedc"> -53479.21060039 </i>
    <i name="XCdc">    362.32002266 </i>
    <i name="pawpsdc">  10539.51012492 </i>
    <i name="pawaedc"> -11401.75704387 </i>
    <i name="eentropy">      0.00013360 </i>
    <i name="bandstr">   -168.00412272 </i>
    <i name="atom">  11152.61838693 </i>
    <i name="e_fr_energy">    -35.23104200 </i>
    <i name="e_wo_entrp">    -35.23117560 </i>
    <i name="e_0_energy">    -35.23108653 </i>
   </energy>
  </scstep>
  <scstep>
   <time name="dav">    0.38    0.38</time>
   <time name="total">    0.45    0.46</time>
   <energy>
    <i name="e_fr_energy">    -35.23739924 </i>
    <i name="e_wo_entrp">    -35.23793392 </i>
    <i name="e_0_energy">    -35.23757747 </i>
   </energy>
  </scstep>
  <scstep>
   <time name="dav">    0.34    0.34</time>
   <time name="total">    0.41    0.41</time>
   <energy>
    <i name="e_fr_energy">    -35.23704189 </i>
    <i name="e_wo_entrp">    -35.23740782 </i>
    <i name="e_0_energy">    -35.23716386 </i>
   </energy>
  </scstep>
  <scstep>
   <time name="dav">    0.32    0.32</time>
   <time name="total">    0.39    0.39</time>
   <energy>
    <i name="e_fr_energy">    -35.23676977 </i>
    <i name="e_wo_entrp">    -35.23742589 </i>
    <i name="e_0_energy">    -35.23698848 </i>
   </energy>
  </scstep>
  <scstep>
   <time name="dav">    0.27    0.27</time>
   <time name="total">    0.34    0.34</time>
   <energy>
    <i name="e_fr_energy">    -35.23678551 </i>
    <i name="e_wo_entrp">    -35.23720773 </i>
    <i name="e_0_energy">    -35.23692625 </i>
   </energy>
  </scstep>
  <scstep>
   <time name="dav">    0.24    0.24</time>
   <time name="total">    0.26    0.26</time>
   <energy>
    <i name="alphaZ">    216.17040255 </i>
    <i name="ewald">  42743.12165433 </i>
    <i name="hartreedc"> -53479.90159131 </i>
    <i name="XCdc">    362.35253590 </i>
    <i name="pawpsdc">  10542.02378096 </i>
    <i name="pawaedc"> -11404.29764650 </i>
    <i name="eentropy">      0.00046696 </i>
    <i name="bandstr">   -167.32464632 </i>
    <i name="atom">  11152.61838693 </i>
    <i name="e_fr_energy">    -35.23665650 </i>
    <i name="e_wo_entrp">    -35.23712346 </i>
    <i name="e_0_energy">    -35.23681215 </i>
   </energy>
  </scstep>
  <structure>
   <crystal>
    <varray name="basis" >
     <v>       3.63000011       0.00000000       0.00000000 </v>
     <v>       0.00000000       2.56679773       0.00000000 </v>
     <v>       0.00000000       0.00000000      23.98379135 </v>
    </varray>
    <i name="volume">    223.46840188 </i>
    <varray name="rec_basis" >
     <v>       0.27548208       0.00000000       0.00000000 </v>
     <v>       0.00000000       0.38959050       0.00000000 </v>
     <v>       0.00000000       0.00000000       0.04169483 </v>
    </varray>
   </crystal>
   <varray name="positions" >
    <v>       0.00000000       0.00000000       0.00367723 </v>
    <v>       0.50000000       0.50000000       0.05025610 </v>
    <v>       0.00000000       0.00000000       0.10499975 </v>
    <v>       0.50000000       0.50000000       0.15805224 </v>
    <v>       0.00000000       0.00000000       0.20955024 </v>
    <v>       0.50000000       0.50000000       0.26243034 </v>
    <v>       0.00000000       0.00000000       0.31618110 </v>
    <v>       0.50000000       0.50000000       0.36166349 </v>
    <v>       0.50000000       0.00000000       0.42888671 </v>
    <v>       0.50000000       0.00000000       0.46073679 </v>
   </varray>
  </structure>
  <varray name="forces" >
   <v>       0.00000000       0.00000000      -0.04266420 </v>
   <v>       0.00000000       0.00000000       0.10376065 </v>
   <v>       0.00000000       0.00000000       0.01812997 </v>
   <v>       0.00000000       0.00000000      -0.11860806 </v>
   <v>       0.00000000       0.00000000      -0.03217890 </v>
   <v>       0.00000000       0.00000000      -0.15526356 </v>
   <v>       0.00000000       0.00000000      -0.10492424 </v>
   <v>       0.00000000       0.00000000      -0.03166840 </v>
   <v>       0.00000000       0.00000000      -0.20932264 </v>
   <v>       0.00000000       0.00000000       0.57273937 </v>
  </varray>
  <varray name="stress" >
   <v>     -31.41804511       0.00000000       0.00000000 </v>
   <v>       0.00000000     -28.63261916       0.00000000 </v>
   <v>       0.00000000       0.00000000       7.60678286 </v>
  </varray>
  <energy>
   <i name="e_fr_energy">    -38.44856680 </i>
   <i name="e_wo_entrp">    -38.44903377 </i>
   <i name="e_0_energy">    -38.44872246 </i>
  </energy>
  <time name="totalsc">    2.72    2.77</time>
 </calculation>
 <calculation>
  <scstep>
   <time name="dav">    0.26    0.26</time>
   <time name="total">    0.33    0.33</time>
   <energy>
    <i name="alphaZ">    216.17040255 </i>
    <i name="ewald">  42742.46696987 </i>
    <i name="hartreedc"> -53479.39729092 </i>
    <i name="XCdc">    362.35338496 </i>
    <i name="pawpsdc">  10542.10918905 </i>
    <i name="pawaedc"> -11404.38695996 </i>
    <i name="eentropy">      0.00044411 </i>
    <i name="bandstr">   -167.17119518 </i>
    <i name="atom">  11152.61838693 </i>
    <i name="e_fr_energy">    -35.23666860 </i>
    <i name="e_wo_entrp">    -35.23711271 </i>
    <i name="e_0_energy">    -35.23681664 </i>
   </energy>
  </scstep>
  <scstep>
   <time name="dav">    0.23    0.23</time>
   <time name="total">    0.25    0.25</time>
   <energy>
    <i name="alphaZ">    216.17040255 </i>
    <i name="ewald">  42742.46696987 </i>
    <i name="hartreedc"> -53479.55877207 </i>
    <i name="XCdc">    362.35454619 </i>
    <i name="pawpsdc">  10542.13418729 </i>
    <i name="pawaedc"> -11404.42433216 </i>
    <i name="eentropy">      0.00038306 </i>
    <i name="bandstr">   -166.99845779 </i>
    <i name="atom">  11152.61838693 </i>
    <i name="e_fr_energy">    -35.23668613 </i>
    <i name="e_wo_entrp">    -35.23706919 </i>
    <i name="e_0_energy">    -35.23681382 </i>
   </energy>
  </scstep>
  <structure>
   <crystal>
    <varray name="basis" >
     <v>       3.63000011       0.00000000       0.00000000 </v>
     <v>       0.00000000       2.56679773       0.00000000 </v>
     <v>       0.00000000       0.00000000      23.98379135 </v>
    </varray>
    <i name="volume">    223.46840188 </i>
    <varray name="rec_basis" >
     <v>       0.27548208       0.00000000       0.00000000 </v>
     <v>       0.00000000       0.38959050       0.00000000 </v>
     <v>       0.00000000       0.00000000       0.04169483 </v>
    </varray>
   </crystal>
   <varray name="positions" >
    <v>       0.00000000       0.00000000       0.00367521 </v>
    <v>       0.50000000       0.50000000       0.05025633 </v>
    <v>       0.00000000       0.00000000       0.10499845 </v>
    <v>       0.50000000       0.50000000       0.15805495 </v>
    <v>       0.00000000       0.00000000       0.20955120 </v>
    <v>       0.50000000       0.50000000       0.26243682 </v>
    <v>       0.00000000       0.00000000       0.31618429 </v>
    <v>       0.50000000       0.50000000       0.36166326 </v>
    <v>       0.50000000       0.00000000       0.42887726 </v>
    <v>       0.50000000       0.00000000       0.46073623 </v>
   </varray>
  </structure>
  <varray name="forces" >
   <v>       0.00000000       0.00000000       0.00981940 </v>
   <v>       0.00000000       0.00000000       0.11308472 </v>
   <v>       0.00000000       0.00000000       0.05756294 </v>
   <v>       0.00000000       0.00000000      -0.15481403 </v>
   <v>       0.00000000       0.00000000      -0.03448413 </v>
   <v>       0.00000000       0.00000000      -0.24114118 </v>
   <v>       0.00000000       0.00000000      -0.14042318 </v>
   <v>       0.00000000       0.00000000      -0.00081704 </v>
   <v>       0.00000000       0.00000000      -0.19081878 </v>
   <v>       0.00000000       0.00000000       0.58203129 </v>
  </varray>
  <varray name="stress" >
   <v>     -33.22299640       0.00000000       0.00000000 </v>
   <v>       0.00000000     -30.43426842       0.00000000 </v>
   <v>       0.00000000       0.00000000       5.65944536 </v>
  </varray>
  <energy>
   <i name="e_fr_energy">    -38.44858586 </i>
   <i name="e_wo_entrp">    -38.44896892 </i>
   <i name="e_0_energy">    -38.44871355 </i>
  </energy>
  <time name="totalsc">    1.07    1.11</time>
 </calculation>
 <calculation>
  <scstep>
   <time name="dav">    0.31    0.31</time>
   <time name="total">    0.38    0.39</time>
   <energy>
    <i name="alphaZ">    216.17040255 </i>
    <i name="ewald">  42793.05630420 </i>
    <i name="hartreedc"> -53530.19740047 </i>
    <i name="XCdc">    362.34992080 </i>
    <i name="pawpsdc">  10542.11446873 </i>
    <i name="pawaedc"> -11404.39779428 </i>
    <i name="eentropy">     -0.00022802 </i>
    <i name="bandstr">   -166.95378228 </i>
    <i name="atom">  11152.61838693 </i>
    <i name="e_fr_energy">    -35.23972185 </i>
    <i name="e_wo_entrp">    -35.23949383 </i>
    <i name="e_0_energy">    -35.23964584 </i>
   </energy>
  </scstep>
  <scstep>
   <time name="dav">    0.40    0.40</time>
   <time name="total">    0.47    0.47</time>
   <energy>
    <i name="e_fr_energy">    -35.24184146 </i>
    <i name="e_wo_entrp">    -35.24190101 </i>
    <i name="e_0_energy">    -35.24186131 </i>
   </energy>
  </scstep>
  <scstep>
   <time name="dav">    0.31    0.31</time>
   <time name="total">    0.33    0.34</time>
   <energy>
    <i name="alphaZ">    216.17040255 </i>
    <i name="ewald">  42793.05630420 </i>
    <i name="hartreedc"> -53529.77605889 </i>
    <i name="XCdc">    362.34499729 </i>
    <i name="pawpsdc">  10541.83828013 </i>
    <i name="pawaedc"> -11404.08822781 </i>
    <i name="eentropy">     -0.00005304 </i>
    <i name="bandstr">   -167.40581260 </i>
    <i name="atom">  11152.61838693 </i>
    <i name="e_fr_energy">    -35.24178127 </i>
    <i name="e_wo_entrp">    -35.24172822 </i>
    <i name="e_0_energy">    -35.24176359 </i>
   </energy>
  </scstep>
  <structure>
   <crystal>
    <varray name="basis" >
     <v>       3.63000011       0.00000000       0.00000000 </v>
     <v>       0.00000000       2.56679773       0.00000000 </v>
     <v>       0.00000000       0.00000000      23.98379135 </v>
    </varray>
    <i name="volume">    223.46840188 </i>
    <varray name="rec_basis" >
     <v>       0.27548208       0.00000000       0.00000000 </v>
     <v>       0.00000000       0.38959050       0.00000000 </v>
     <v>       0.00000000       0.00000000       0.04169483 </v>
    </varray>
   </crystal>
   <varray name="positions" >
    <v>       0.00000000       0.00000000       0.00377469 </v>
    <v>       0.50000000       0.50000000       0.05032450 </v>
    <v>       0.00000000       0.00000000       0.10509824 </v>
    <v>       0.50000000       0.50000000       0.15782281 </v>
    <v>       0.00000000       0.00000000       0.20948332 </v>
    <v>       0.50000000       0.50000000       0.26197178 </v>
    <v>       0.00000000       0.00000000       0.31594040 </v>
    <v>       0.50000000       0.50000000       0.36167315 </v>
    <v>       0.50000000       0.00000000       0.42917856 </v>
    <v>       0.50000000       0.00000000       0.46116652 </v>
   </varray>
  </structure>
  <varray name="forces" >
   <v>       0.00000000       0.00000000      -0.04476463 </v>
   <v>       0.00000000       0.00000000       0.08278948 </v>
   <v>       0.00000000       0.00000000      -0.01317638 </v>
   <v>       0.00000000       0.00000000      -0.10743903 </v>
   <v>       0.00000000       0.00000000      -0.04966385 </v>
   <v>       0.00000000       0.00000000      -0.06803552 </v>
   <v>       0.00000000       0.00000000      -0.08885111 </v>
   <v>       0.00000000       0.00000000      -0.06929168 </v>
   <v>       0.00000000       0.00000000      -0.11955033 </v>
   <v>       0.00000000       0.00000000       0.47798306 </v>
  </varray>
  <varray name="stress" >
   <v>     -29.35877173       0.00000000       0.00000000 </v>
   <v>       0.00000000     -26.56021993       0.00000000 </v>
   <v>       0.00000000       0.00000000       8.99483218 </v>
  </varray>
  <energy>
   <i name="e_fr_energy">    -38.45566910 </i>
   <i name="e_wo_entrp">    -38.45561606 </i>
   <i name="e_0_energy">    -38.45565142 </i>
  </energy>
  <time name="totalsc">    1.67    1.70</time>
 </calculation>
 <calculation>
  <scstep>
   <time name="dav">    0.31    0.31</time>
   <time name="total">    0.38    0.39</time>
   <energy>
    <i name="alphaZ">    216.17040255 </i>
    <i name="ewald">  42882.74260568 </i>
    <i name="hartreedc"> -53619.51909622 </i>
    <i name="XCdc">    362.34237760 </i>
    <i name="pawpsdc">  10541.85031358 </i>
    <i name="pawaedc"> -11404.11467292 </i>
    <i name="eentropy">     -0.00100887 </i>
    <i name="bandstr">   -167.33000034 </i>
    <i name="atom">  11152.61838693 </i>
    <i name="e_fr_energy">    -35.24069202 </i>
    <i name="e_wo_entrp">    -35.23968315 </i>
    <i name="e_0_energy">    -35.24035573 </i>
   </energy>
  </scstep>
  <scstep>
   <time name="dav">    0.38    0.38</time>
   <time name="total">    0.45    0.46</time>
   <energy>
    <i name="e_fr_energy">    -35.24724057 </i>
    <i name="e_wo_entrp">    -35.24662739 </i>
    <i name="e_0_energy">    -35.24703618 </i>
   </energy>
  </scstep>
  <scstep>
   <time name="dav">    0.34    0.35</time>
   <time name="total">    0.42    0.42</time>
   <energy>
    <i name="e_fr_energy">    -35.24687916 </i>
    <i name="e_wo_entrp">    -35.24622561 </i>
    <i name="e_0_energy">    -35.24666131 </i>
   </energy>
  </scstep>
  <scstep>
   <time name="dav">    0.32    0.32</time>
   <time name="total">    0.39    0.39</time>
   <energy>
    <i name="e_fr_energy">    -35.24662522 </i>
    <i name="e_wo_entrp">    -35.24614613 </i>
    <i name="e_0_energy">    -35.24646552 </i>
   </energy>
  </scstep>
  <scstep>
   <time name="dav">    0.26    0.26</time>
   <time name="total">    0.28    0.28</time>
   <energy>
    <i name="alphaZ">    216.17040255 </i>
    <i name="ewald">  42882.74260568 </i>
    <i name="hartreedc"> -53618.10335462 </i>
    <i name="XCdc">    362.33400717 </i>
    <i name="pawpsdc">  10541.93343725 </i>
    <i name="pawaedc"> -11404.21914381 </i>
    <i name="eentropy">     -0.00035360 </i>
    <i name="bandstr">   -168.72250923 </i>
    <i name="atom">  11152.61838693 </i>
    <i name="e_fr_energy">    -35.24652169 </i>
    <i name="e_wo_entrp">    -35.24616809 </i>
    <i name="e_0_energy">    -35.24640382 </i>
   </energy>
  </scstep>
  <structure>
   <crystal>
    <varray name="basis" >
     <v>       3.63000011       0.00000000       0.00000000 </v>
     <v>       0.00000000       2.56679773       0.00000000 </v>
     <v>       0.00000000       0.00000000      23.98379135 </v>
    </varray>
    <i name="volume">    223.46840188 </i>
    <varray name="rec_basis" >
     <v>       0.27548208       0.00000000       0.00000000 </v>
     <v>       0.00000000       0.38959050       0.00000000 </v>
     <v>       0.00000000       0.00000000       0.04169483 </v>
    </varray>
   </crystal>
   <varray name="positions" >
    <v>       0.00000000       0.00000000       0.00395068 </v>
    <v>       0.50000000       0.50000000       0.05044511 </v>
    <v>       0.00000000       0.00000000       0.10527479 </v>
    <v>       0.50000000       0.50000000       0.15741213 </v>
    <v>       0.00000000       0.00000000       0.20936324 </v>
    <v>       0.50000000       0.50000000       0.26114907 </v>
    <v>       0.00000000       0.00000000       0.31550894 </v>
    <v>       0.50000000       0.50000000       0.36169065 </v>
    <v>       0.50000000       0.00000000       0.42971161 </v>
    <v>       0.50000000       0.00000000       0.46192777 </v>
   </varray>
  </structure>
  <varray name="forces" >
   <v>       0.00000000       0.00000000      -0.05906011 </v>
   <v>       0.00000000       0.00000000       0.06310252 </v>
   <v>       0.00000000       0.00000000      -0.05328758 </v>
   <v>       0.00000000       0.00000000      -0.06950684 </v>
   <v>       0.00000000       0.00000000      -0.06195229 </v>
   <v>       0.00000000       0.00000000       0.08421630 </v>
   <v>       0.00000000       0.00000000      -0.06823707 </v>
   <v>       0.00000000       0.00000000      -0.14967442 </v>
   <v>       0.00000000       0.00000000       0.01188401 </v>
   <v>       0.00000000       0.00000000       0.30251550 </v>
  </varray>
  <varray name="stress" >
   <v>     -30.45854771       0.00000000       0.00000000 </v>
   <v>       0.00000000     -27.72528476       0.00000000 </v>
   <v>       0.00000000       0.00000000       7.37035401 </v>
  </varray>
  <energy>
   <i name="e_fr_energy">    -38.46401516 </i>
   <i name="e_wo_entrp">    -38.46366156 </i>
   <i name="e_0_energy">    -38.46389730 </i>
  </energy>
  <time name="totalsc">    2.40    2.47</time>
 </calculation>
 <calculation>
  <scstep>
   <time name="dav">    0.31    0.32</time>
   <time name="total">    0.38    0.39</time>
   <energy>
    <i name="alphaZ">    216.17040255 </i>
    <i name="ewald">  43062.82139622 </i>
    <i name="hartreedc"> -53798.43621911 </i>
    <i name="XCdc">    362.33112329 </i>
    <i name="pawpsdc">  10542.00189245 </i>
    <i name="pawaedc"> -11404.28671041 </i>
    <i name="eentropy">     -0.00235992 </i>
    <i name="bandstr">   -168.43315679 </i>
    <i name="atom">  11152.61838693 </i>
    <i name="e_fr_energy">    -35.21524481 </i>
    <i name="e_wo_entrp">    -35.21288489 </i>
    <i name="e_0_energy">    -35.21445817 </i>
   </energy>
  </scstep>
  <scstep>
   <time name="dav">    0.39    0.39</time>
   <time name="total">    0.46    0.46</time>
   <energy>
    <i name="e_fr_energy">    -35.24378876 </i>
    <i name="e_wo_entrp">    -35.24214184 </i>
    <i name="e_0_energy">    -35.24323978 </i>
   </energy>
  </scstep>
  <scstep>
   <time name="dav">    0.32    0.33</time>
   <time name="total">    0.40    0.40</time>
   <energy>
    <i name="e_fr_energy">    -35.24280801 </i>
    <i name="e_wo_entrp">    -35.24098589 </i>
    <i name="e_0_energy">    -35.24220063 </i>
   </energy>
  </scstep>
  <scstep>
   <time name="dav">    0.35    0.35</time>
   <time name="total">    0.42    0.43</time>
   <energy>
    <i name="e_fr_energy">    -35.24232079 </i>
    <i name="e_wo_entrp">    -35.24075612 </i>
    <i name="e_0_energy">    -35.24179923 </i>
   </energy>
  </scstep>
  <scstep>
   <time name="dav">    0.38    0.38</time>
   <time name="total">    0.45    0.45</time>
   <energy>
    <i name="e_fr_energy">    -35.24209861 </i>
    <i name="e_wo_entrp">    -35.24061253 </i>
    <i name="e_0_energy">    -35.24160325 </i>
   </energy>
  </scstep>
  <scstep>
   <time name="dav">    0.38    0.38</time>
   <time name="total">    0.45    0.45</time>
   <energy>
    <i name="e_fr_energy">    -35.24155044 </i>
    <i name="e_wo_entrp">    -35.24009970 </i>
    <i name="e_0_energy">    -35.24106686 </i>
   </energy>
  </scstep>
  <scstep>
   <time name="dav">    0.25    0.25</time>
   <time name="total">    0.27    0.28</time>
   <energy>
    <i name="alphaZ">    216.17040255 </i>
    <i name="ewald">  43062.82139622 </i>
    <i name="hartreedc"> -53796.01884958 </i>
    <i name="XCdc">    362.31748888 </i>
    <i name="pawpsdc">  10543.44170612 </i>
    <i name="pawaedc"> -11405.77808861 </i>
    <i name="eentropy">     -0.00146416 </i>
    <i name="bandstr">   -170.81253031 </i>
    <i name="atom">  11152.61838693 </i>
    <i name="e_fr_energy">    -35.24155197 </i>
    <i name="e_wo_entrp">    -35.24008781 </i>
    <i name="e_0_energy">    -35.24106391 </i>
   </energy>
  </scstep>
  <structure>
   <crystal>
    <varray name="basis" >
     <v>       3.63000011       0.00000000       0.00000000 </v>
     <v>       0.00000000       2.56679773       0.00000000 </v>
     <v>       0.00000000       0.00000000      23.98379135 </v>
    </varray>
    <i name="volume">    223.46840188 </i>
    <varray name="rec_basis" >
     <v>       0.27548208       0.00000000       0.00000000 </v>
     <v>       0.00000000       0.38959050       0.00000000 </v>
     <v>       0.00000000       0.00000000       0.04169483 </v>
    </varray>
   </crystal>
   <varray name="positions" >
    <v>       0.00000000       0.00000000       0.00430266 </v>
    <v>       0.50000000       0.50000000       0.05068633 </v>
    <v>       0.00000000       0.00000000       0.10562787 </v>
    <v>       0.50000000       0.50000000       0.15659077 </v>
    <v>       0.00000000       0.00000000       0.20912308 </v>
    <v>       0.50000000       0.50000000       0.25950365 </v>
    <v>       0.00000000       0.00000000       0.31464602 </v>
    <v>       0.50000000       0.50000000       0.36172564 </v>
    <v>       0.50000000       0.00000000       0.43077770 </v>
    <v>       0.50000000       0.00000000       0.46345026 </v>
   </varray>
  </structure>
  <varray name="forces" >
   <v>       0.00000000       0.00000000      -0.06524311 </v>
   <v>       0.00000000       0.00000000       0.02016512 </v>
   <v>       0.00000000       0.00000000      -0.15283104 </v>
   <v>       0.00000000       0.00000000      -0.02045219 </v>
   <v>       0.00000000       0.00000000      -0.11006186 </v>
   <v>       0.00000000       0.00000000       0.33508123 </v>
   <v>       0.00000000       0.00000000      -0.02420353 </v>
   <v>       0.00000000       0.00000000      -0.26415235 </v>
   <v>       0.00000000       0.00000000       0.27903698 </v>
   <v>       0.00000000       0.00000000       0.00266076 </v>
  </varray>
  <varray name="stress" >
   <v>     -31.03641002       0.00000000       0.00000000 </v>
   <v>       0.00000000     -28.66529568       0.00000000 </v>
   <v>       0.00000000       0.00000000       6.06169167 </v>
  </varray>
  <energy>
   <i name="e_fr_energy">    -38.46664114 </i>
   <i name="e_wo_entrp">    -38.46517699 </i>
   <i name="e_0_energy">    -38.46615309 </i>
  </energy>
  <time name="totalsc">    3.32    3.42</time>
 </calculation>
 <calculation>
  <scstep>
   <time name="dav">    0.31    0.31</time>
   <time name="total">    0.38    0.39</time>
   <energy>
    <i name="alphaZ">    216.17040255 </i>
    <i name="ewald">  42994.30731878 </i>
    <i name="hartreedc"> -53727.52083455 </i>
    <i name="XCdc">    362.32068012 </i>
    <i name="pawpsdc">  10543.45979491 </i>
    <i name="pawaedc"> -11405.80125444 </i>
    <i name="eentropy">     -0.00073411 </i>
    <i name="bandstr">   -170.79593328 </i>
    <i name="atom">  11152.61838693 </i>
    <i name="e_fr_energy">    -35.24217310 </i>
    <i name="e_wo_entrp">    -35.24143899 </i>
    <i name="e_0_energy">    -35.24192840 </i>
   </energy>
  </scstep>
  <scstep>
   <time name="dav">    0.38    0.39</time>
   <time name="total">    0.46    0.46</time>
   <energy>
    <i name="e_fr_energy">    -35.24596471 </i>
    <i name="e_wo_entrp">    -35.24490743 </i>
    <i name="e_0_energy">    -35.24561228 </i>
   </energy>
  </scstep>
  <scstep>
   <time name="dav">    0.32    0.32</time>
   <time name="total">    0.39    0.39</time>
   <energy>
    <i name="e_fr_energy">    -35.24585269 </i>
    <i name="e_wo_entrp">    -35.24485200 </i>
    <i name="e_0_energy">    -35.24551913 </i>
   </energy>
  </scstep>
  <scstep>
   <time name="dav">    0.24    0.24</time>
   <time name="total">    0.26    0.26</time>
   <energy>
    <i name="alphaZ">    216.17040255 </i>
    <i name="ewald">  42994.30731878 </i>
    <i name="hartreedc"> -53728.27647611 </i>
    <i name="XCdc">    362.31982219 </i>
    <i name="pawpsdc">  10543.34618588 </i>
    <i name="pawaedc"> -11405.64979248 </i>
    <i name="eentropy">     -0.00107503 </i>
    <i name="bandstr">   -170.08053711 </i>
    <i name="atom">  11152.61838693 </i>
    <i name="e_fr_energy">    -35.24576442 </i>
    <i name="e_wo_entrp">    -35.24468938 </i>
    <i name="e_0_energy">    -35.24540607 </i>
   </energy>
  </scstep>
  <structure>
   <crystal>
    <varray name="basis" >
     <v>       3.63000011       0.00000000       0.00000000 </v>
     <v>       0.00000000       2.56679773       0.00000000 </v>
     <v>       0.00000000       0.00000000      23.98379135 </v>
    </varray>
    <i name="volume">    223.46840188 </i>
    <varray name="rec_basis" >
     <v>       0.27548208       0.00000000       0.00000000 </v>
     <v>       0.00000000       0.38959050       0.00000000 </v>
     <v>       0.00000000       0.00000000       0.04169483 </v>
    </varray>
   </crystal>
   <varray name="positions" >
    <v>       0.00000000       0.00000000       0.00416896 </v>
    <v>       0.50000000       0.50000000       0.05059470 </v>
    <v>       0.00000000       0.00000000       0.10549375 </v>
    <v>       0.50000000       0.50000000       0.15690277 </v>
    <v>       0.00000000       0.00000000       0.20921431 </v>
    <v>       0.50000000       0.50000000       0.26012868 </v>
    <v>       0.00000000       0.00000000       0.31497381 </v>
[...]
       <r>     6.1061     3.3384    51.5528 </r>
       <r>     6.1792     2.8694    51.7625 </r>
       <r>     6.2522     1.8273    51.8960 </r>
       <r>     6.3253     1.1364    51.9790 </r>
       <r>     6.3984     1.1199    52.0608 </r>
       <r>     6.4714     1.4395    52.1660 </r>
       <r>     6.5445     1.7782    52.2960 </r>
       <r>     6.6176     2.0912    52.4488 </r>
       <r>     6.6907     2.4463    52.6275 </r>
       <r>     6.7637     2.8079    52.8327 </r>
       <r>     6.8368     2.8624    53.0419 </r>
       <r>     6.9099     2.3597    53.2143 </r>
       <r>     6.9829     1.7422    53.3416 </r>
       <r>     7.0560     1.8091    53.4738 </r>
       <r>     7.1291     2.5892    53.6630 </r>
       <r>     7.2022     3.1442    53.8927 </r>
       <r>     7.2752     2.6948    54.0896 </r>
       <r>     7.3483     1.5304    54.2015 </r>
       <r>     7.4214     0.5747    54.2434 </r>
       <r>     7.4944     0.3463    54.2688 </r>
       <r>     7.5675     0.6420    54.3157 </r>
       <r>     7.6406     1.1023    54.3962 </r>
       <r>     7.7137     1.7216    54.5220 </r>
       <r>     7.7867     2.6352    54.7146 </r>
       <r>     7.8598     3.6129    54.9786 </r>
       <r>     7.9329     4.1095    55.2789 </r>
       <r>     8.0059     3.8925    55.5633 </r>
       <r>     8.0790     3.3625    55.8090 </r>
       <r>     8.1521     3.0209    56.0297 </r>
       <r>     8.2251     2.7986    56.2342 </r>
       <r>     8.2982     2.2679    56.3999 </r>
       <r>     8.3713     1.4240    56.5040 </r>
       <r>     8.4444     0.8506    56.5661 </r>
       <r>     8.5174     1.0188    56.6406 </r>
       <r>     8.5905     1.6568    56.7616 </r>
       <r>     8.6636     2.0312    56.9101 </r>
       <r>     8.7366     1.8244    57.0434 </r>
       <r>     8.8097     1.4554    57.1497 </r>
       <r>     8.8828     1.4368    57.2547 </r>
       <r>     8.9559     1.6914    57.3783 </r>
       <r>     9.0289     1.7777    57.5082 </r>
       <r>     9.1020     1.6925    57.6319 </r>
       <r>     9.1751     1.9377    57.7735 </r>
       <r>     9.2481     2.6269    57.9654 </r>
       <r>     9.3212     3.2025    58.1994 </r>
       <r>     9.3943     3.3188    58.4419 </r>
       <r>     9.4674     3.2951    58.6827 </r>
       <r>     9.5404     3.4846    58.9373 </r>
       <r>     9.6135     3.7802    59.2136 </r>
       <r>     9.6866     3.8162    59.4924 </r>
       <r>     9.7596     3.3239    59.7353 </r>
       <r>     9.8327     2.3377    59.9061 </r>
       <r>     9.9058     1.2081    59.9944 </r>
       <r>     9.9788     0.3549    60.0203 </r>
       <r>    10.0519    -0.0474    60.0169 </r>
       <r>    10.1250    -0.1204    60.0081 </r>
       <r>    10.1981    -0.0736    60.0027 </r>
       <r>    10.2711    -0.0278    60.0007 </r>
       <r>    10.3442    -0.0074    60.0001 </r>
       <r>    10.4173    -0.0014    60.0000 </r>
       <r>    10.4903    -0.0002    60.0000 </r>
       <r>    10.5634    -0.0000    60.0000 </r>
       <r>    10.6365    -0.0000    60.0000 </r>
       <r>    10.7096    -0.0000    60.0000 </r>
       <r>    10.7826    -0.0000    60.0000 </r>
       <r>    10.8557    -0.0000    60.0000 </r>
       <r>    10.9288    -0.0000    60.0000 </r>
       <r>    11.0018    -0.0000    60.0000 </r>
       <r>    11.0749    -0.0000    60.0000 </r>
       <r>    11.1480     0.0000    60.0000 </r>
       <r>    11.2211     0.0000    60.0000 </r>
       <r>    11.2941     0.0000    60.0000 </r>
       <r>    11.3672     0.0000    60.0000 </r>
       <r>    11.4403     0.0000    60.0000 </r>
       <r>    11.5133     0.0000    60.0000 </r>
       <r>    11.5864     0.0000    60.0000 </r>
       <r>    11.6595     0.0000    60.0000 </r>
       <r>    11.7326     0.0000    60.0000 </r>
       <r>    11.8056     0.0000    60.0000 </r>
      </set>
      <set comment="spin 2">
       <r>   -10.1157     0.0000     0.0000 </r>
       <r>   -10.0426     0.0000     0.0000 </r>
       <r>    -9.9695     0.0000     0.0000 </r>
       <r>    -9.8964     0.0000     0.0000 </r>
       <r>    -9.8234     0.0000     0.0000 </r>
       <r>    -9.7503    -0.0000    -0.0000 </r>
       <r>    -9.6772    -0.0000    -0.0000 </r>
       <r>    -9.6042    -0.0000    -0.0000 </r>
       <r>    -9.5311    -0.0000    -0.0000 </r>
       <r>    -9.4580    -0.0000    -0.0000 </r>
       <r>    -9.3849    -0.0000    -0.0000 </r>
       <r>    -9.3119    -0.0000    -0.0000 </r>
       <r>    -9.2388    -0.0000    -0.0000 </r>
       <r>    -9.1657    -0.0000    -0.0000 </r>
       <r>    -9.0927    -0.0000    -0.0000 </r>
       <r>    -9.0196    -0.0000    -0.0000 </r>
       <r>    -8.9465    -0.0000    -0.0000 </r>
       <r>    -8.8735    -0.0000    -0.0000 </r>
       <r>    -8.8004    -0.0000    -0.0000 </r>
       <r>    -8.7273    -0.0001    -0.0000 </r>
       <r>    -8.6542    -0.0006    -0.0001 </r>
       <r>    -8.5812    -0.0030    -0.0003 </r>
       <r>    -8.5081    -0.0100    -0.0010 </r>
       <r>    -8.4350    -0.0216    -0.0026 </r>
       <r>    -8.3620    -0.0186    -0.0039 </r>
       <r>    -8.2889     0.0462    -0.0006 </r>
       <r>    -8.2158     0.2046     0.0144 </r>
       <r>    -8.1427     0.3909     0.0430 </r>
       <r>    -8.0697     0.4599     0.0766 </r>
       <r>    -7.9966     0.3480     0.1020 </r>
       <r>    -7.9235     0.1561     0.1134 </r>
       <r>    -7.8505     0.0206     0.1149 </r>
       <r>    -7.7774    -0.0232     0.1132 </r>
       <r>    -7.7043    -0.0194     0.1118 </r>
       <r>    -7.6312    -0.0108     0.1110 </r>
       <r>    -7.5582    -0.0126     0.1101 </r>
       <r>    -7.4851    -0.0225     0.1084 </r>
       <r>    -7.4120    -0.0179     0.1071 </r>
       <r>    -7.3390     0.0487     0.1107 </r>
       <r>    -7.2659     0.2016     0.1254 </r>
       <r>    -7.1928     0.3643     0.1520 </r>
       <r>    -7.1198     0.4101     0.1820 </r>
       <r>    -7.0467     0.3581     0.2082 </r>
       <r>    -6.9736     0.4088     0.2380 </r>
       <r>    -6.9005     0.6513     0.2856 </r>
       <r>    -6.8275     0.8582     0.3483 </r>
       <r>    -6.7544     0.7689     0.4045 </r>
       <r>    -6.6813     0.4746     0.4392 </r>
       <r>    -6.6083     0.3090     0.4618 </r>
       <r>    -6.5352     0.4456     0.4943 </r>
       <r>    -6.4621     0.7722     0.5508 </r>
       <r>    -6.3890     1.0441     0.6271 </r>
       <r>    -6.3160     1.0428     0.7033 </r>
       <r>    -6.2429     0.7231     0.7561 </r>
       <r>    -6.1698     0.2825     0.7767 </r>
       <r>    -6.0968     0.0010     0.7768 </r>
       <r>    -6.0237     0.0342     0.7793 </r>
       <r>    -5.9506     0.3604     0.8057 </r>
       <r>    -5.8775     0.8168     0.8653 </r>
       <r>    -5.8045     1.2084     0.9536 </r>
       <r>    -5.7314     1.4357     1.0586 </r>
       <r>    -5.6583     1.4496     1.1645 </r>
       <r>    -5.5853     1.1944     1.2518 </r>
       <r>    -5.5122     0.7777     1.3086 </r>
       <r>    -5.4391     0.5267     1.3471 </r>
       <r>    -5.3660     0.6841     1.3971 </r>
       <r>    -5.2930     1.1767     1.4830 </r>
       <r>    -5.2199     1.7145     1.6083 </r>
       <r>    -5.1468     1.9519     1.7509 </r>
       <r>    -5.0738     1.7468     1.8786 </r>
       <r>    -5.0007     1.5207     1.9897 </r>
       <r>    -4.9276     1.9480     2.1320 </r>
       <r>    -4.8546     2.9291     2.3461 </r>
       <r>    -4.7815     3.4269     2.5965 </r>
       <r>    -4.7084     2.7357     2.7964 </r>
       <r>    -4.6353     1.3555     2.8954 </r>
       <r>    -4.5623     0.2403     2.9130 </r>
       <r>    -4.4892    -0.2591     2.8941 </r>
       <r>    -4.4161    -0.3529     2.8683 </r>
       <r>    -4.3431    -0.1265     2.8590 </r>
       <r>    -4.2700     0.7031     2.9104 </r>
       <r>    -4.1969     2.2601     3.0756 </r>
       <r>    -4.1238     3.8739     3.3586 </r>
       <r>    -4.0508     4.4155     3.6813 </r>
       <r>    -3.9777     3.5203     3.9385 </r>
       <r>    -3.9046     2.0927     4.0914 </r>
       <r>    -3.8316     1.3191     4.1878 </r>
       <r>    -3.7585     1.5164     4.2986 </r>
       <r>    -3.6854     2.2117     4.4602 </r>
       <r>    -3.6123     3.0028     4.6796 </r>
       <r>    -3.5393     3.8606     4.9617 </r>
       <r>    -3.4662     4.7357     5.3078 </r>
       <r>    -3.3931     5.4376     5.7051 </r>
       <r>    -3.3201     5.9818     6.1422 </r>
       <r>    -3.2470     6.6298     6.6267 </r>
       <r>    -3.1739     7.4815     7.1733 </r>
       <r>    -3.1008     8.3597     7.7842 </r>
       <r>    -3.0278     9.0669     8.4467 </r>
       <r>    -2.9547     9.3554     9.1303 </r>
       <r>    -2.8816     8.8637     9.7780 </r>
       <r>    -2.8086     7.6481    10.3369 </r>
       <r>    -2.7355     6.6061    10.8196 </r>
       <r>    -2.6624     6.7332    11.3116 </r>
       <r>    -2.5894     7.8841    11.8877 </r>
       <r>    -2.5163     8.9791    12.5438 </r>
       <r>    -2.4432     9.6046    13.2456 </r>
       <r>    -2.3701    10.3559    14.0023 </r>
       <r>    -2.2971    11.3397    14.8309 </r>
       <r>    -2.2240    11.8064    15.6936 </r>
       <r>    -2.1509    11.8553    16.5599 </r>
       <r>    -2.0779    12.8925    17.5020 </r>
       <r>    -2.0048    15.3180    18.6213 </r>
       <r>    -1.9317    17.2249    19.8799 </r>
       <r>    -1.8586    16.7595    21.1045 </r>
       <r>    -1.7856    14.5751    22.1696 </r>
       <r>    -1.7125    12.7292    23.0997 </r>
       <r>    -1.6394    12.0488    23.9801 </r>
       <r>    -1.5664    11.5490    24.8240 </r>
       <r>    -1.4933    10.1778    25.5677 </r>
       <r>    -1.4202     8.4900    26.1881 </r>
       <r>    -1.3471     8.1971    26.7870 </r>
       <r>    -1.2741    10.3612    27.5442 </r>
       <r>    -1.2010    14.4845    28.6025 </r>
       <r>    -1.1279    18.8475    29.9797 </r>
       <r>    -1.0549    21.2467    31.5323 </r>
       <r>    -0.9818    20.4090    33.0236 </r>
       <r>    -0.9087    17.5914    34.3090 </r>
       <r>    -0.8356    15.7604    35.4606 </r>
       <r>    -0.7626    16.3507    36.6554 </r>
       <r>    -0.6895    17.9534    37.9672 </r>
       <r>    -0.6164    18.5649    39.3238 </r>
       <r>    -0.5434    17.5545    40.6065 </r>
       <r>    -0.4703    15.1825    41.7159 </r>
       <r>    -0.3972    11.8717    42.5834 </r>
       <r>    -0.3242     8.3907    43.1965 </r>
       <r>    -0.2511     5.6122    43.6066 </r>
       <r>    -0.1780     3.7310    43.8792 </r>
       <r>    -0.1049     2.3042    44.0476 </r>
       <r>    -0.0319     1.0679    44.1256 </r>
       <r>     0.0412     0.1908    44.1396 </r>
       <r>     0.1143    -0.2005    44.1249 </r>
       <r>     0.1873    -0.2516    44.1065 </r>
       <r>     0.2604    -0.1053    44.0989 </r>
       <r>     0.3335     0.2821    44.1195 </r>
       <r>     0.4066     0.9383    44.1880 </r>
       <r>     0.4796     1.6721    44.3102 </r>
       <r>     0.5527     2.2534    44.4749 </r>
       <r>     0.6258     2.6100    44.6656 </r>
       <r>     0.6988     2.6254    44.8574 </r>
       <r>     0.7719     2.0950    45.0105 </r>
       <r>     0.8450     1.1735    45.0963 </r>
       <r>     0.9181     0.4544    45.1295 </r>
       <r>     0.9911     0.3447    45.1546 </r>
       <r>     1.0642     0.6323    45.2008 </r>
       <r>     1.1373     0.8036    45.2596 </r>
       <r>     1.2103     0.6595    45.3078 </r>
       <r>     1.2834     0.4752    45.3425 </r>
       <r>     1.3565     0.5353    45.3816 </r>
       <r>     1.4295     0.7296    45.4349 </r>
       <r>     1.5026     0.8241    45.4951 </r>
       <r>     1.5757     0.9349    45.5634 </r>
       <r>     1.6488     1.3100    45.6592 </r>
       <r>     1.7218     1.7214    45.7850 </r>
       <r>     1.7949     1.6222    45.9035 </r>
       <r>     1.8680     0.9672    45.9742 </r>
       <r>     1.9410     0.3935    46.0029 </r>
       <r>     2.0141     0.4923    46.0389 </r>
       <r>     2.0872     1.1538    46.1232 </r>
       <r>     2.1603     1.6939    46.2470 </r>
       <r>     2.2333     1.6435    46.3671 </r>
       <r>     2.3064     1.2806    46.4606 </r>
       <r>     2.3795     1.1290    46.5431 </r>
       <r>     2.4525     1.2301    46.6330 </r>
       <r>     2.5256     1.3566    46.7322 </r>
       <r>     2.5987     1.5215    46.8433 </r>
       <r>     2.6718     1.7333    46.9700 </r>
       <r>     2.7448     1.7345    47.0967 </r>
       <r>     2.8179     1.4915    47.2057 </r>
       <r>     2.8910     1.4094    47.3087 </r>
       <r>     2.9640     1.6710    47.4308 </r>
       <r>     3.0371     1.8836    47.5684 </r>
       <r>     3.1102     1.6348    47.6879 </r>
       <r>     3.1833     1.0019    47.7611 </r>
       <r>     3.2563     0.3742    47.7884 </r>
       <r>     3.3294     0.0182    47.7898 </r>
       <r>     3.4025    -0.0779    47.7841 </r>
       <r>     3.4755    -0.0601    47.7797 </r>
       <r>     3.5486    -0.0413    47.7767 </r>
       <r>     3.6217    -0.0676    47.7717 </r>
       <r>     3.6947    -0.1360    47.7618 </r>
       <r>     3.7678    -0.1437    47.7513 </r>
       <r>     3.8409     0.1754    47.7641 </r>
       <r>     3.9140     1.0859    47.8435 </r>
       <r>     3.9870     2.4348    48.0214 </r>
       <r>     4.0601     3.5258    48.2790 </r>
       <r>     4.1332     3.7170    48.5506 </r>
       <r>     4.2062     3.1031    48.7773 </r>
       <r>     4.2793     2.3286    48.9475 </r>
       <r>     4.3524     1.8165    49.0802 </r>
       <r>     4.4255     1.4916    49.1892 </r>
       <r>     4.4985     1.1685    49.2746 </r>
       <r>     4.5716     0.8510    49.3368 </r>
       <r>     4.6447     0.6092    49.3813 </r>
       <r>     4.7177     0.4261    49.4124 </r>
       <r>     4.7908     0.3038    49.4346 </r>
       <r>     4.8639     0.3548    49.4606 </r>
       <r>     4.9370     0.6055    49.5048 </r>
       <r>     5.0100     0.8482    49.5668 </r>
       <r>     5.0831     0.9036    49.6328 </r>
       <r>     5.1562     0.8670    49.6962 </r>
       <r>     5.2292     0.8523    49.7585 </r>
       <r>     5.3023     0.7447    49.8129 </r>
       <r>     5.3754     0.5284    49.8515 </r>
       <r>     5.4485     0.5952    49.8950 </r>
       <r>     5.5215     1.3356    49.9926 </r>
       <r>     5.5946     2.5093    50.1759 </r>
       <r>     5.6677     3.3203    50.4185 </r>
       <r>     5.7407     3.1963    50.6521 </r>
       <r>     5.8138     2.3947    50.8271 </r>
       <r>     5.8869     1.7769    50.9569 </r>
       <r>     5.9599     1.9917    51.1024 </r>
       <r>     6.0330     2.8244    51.3088 </r>
       <r>     6.1061     3.3385    51.5528 </r>
       <r>     6.1792     2.8694    51.7624 </r>
       <r>     6.2522     1.8274    51.8960 </r>
       <r>     6.3253     1.1365    51.9790 </r>
       <r>     6.3984     1.1199    52.0608 </r>
       <r>     6.4714     1.4395    52.1660 </r>
       <r>     6.5445     1.7782    52.2960 </r>
       <r>     6.6176     2.0912    52.4488 </r>
       <r>     6.6907     2.4462    52.6275 </r>
       <r>     6.7637     2.8078    52.8327 </r>
       <r>     6.8368     2.8624    53.0418 </r>
       <r>     6.9099     2.3597    53.2143 </r>
       <r>     6.9829     1.7422    53.3416 </r>
       <r>     7.0560     1.8091    53.4738 </r>
       <r>     7.1291     2.5891    53.6630 </r>
       <r>     7.2022     3.1441    53.8927 </r>
       <r>     7.2752     2.6949    54.0896 </r>
       <r>     7.3483     1.5304    54.2014 </r>
       <r>     7.4214     0.5747    54.2434 </r>
       <r>     7.4944     0.3462    54.2687 </r>
       <r>     7.5675     0.6419    54.3156 </r>
       <r>     7.6406     1.1022    54.3962 </r>
       <r>     7.7137     1.7215    54.5220 </r>
       <r>     7.7867     2.6353    54.7145 </r>
       <r>     7.8598     3.6131    54.9785 </r>
       <r>     7.9329     4.1096    55.2788 </r>
       <r>     8.0059     3.8925    55.5633 </r>
       <r>     8.0790     3.3625    55.8090 </r>
       <r>     8.1521     3.0208    56.0297 </r>
       <r>     8.2251     2.7986    56.2342 </r>
       <r>     8.2982     2.2679    56.3999 </r>
       <r>     8.3713     1.4241    56.5040 </r>
       <r>     8.4444     0.8506    56.5661 </r>
       <r>     8.5174     1.0186    56.6406 </r>
       <r>     8.5905     1.6567    56.7616 </r>
       <r>     8.6636     2.0313    56.9100 </r>
       <r>     8.7366     1.8245    57.0434 </r>
       <r>     8.8097     1.4554    57.1497 </r>
       <r>     8.8828     1.4365    57.2547 </r>
       <r>     8.9559     1.6911    57.3783 </r>
       <r>     9.0289     1.7777    57.5082 </r>
       <r>     9.1020     1.6927    57.6318 </r>
       <r>     9.1751     1.9379    57.7735 </r>
       <r>     9.2481     2.6270    57.9654 </r>
       <r>     9.3212     3.2025    58.1994 </r>
       <r>     9.3943     3.3189    58.4419 </r>
       <r>     9.4674     3.2951    58.6827 </r>
       <r>     9.5404     3.4845    58.9373 </r>
       <r>     9.6135     3.7800    59.2135 </r>
       <r>     9.6866     3.8161    59.4924 </r>
       <r>     9.7596     3.3240    59.7353 </r>
       <r>     9.8327     2.3379    59.9061 </r>
       <r>     9.9058     1.2083    59.9944 </r>
       <r>     9.9788     0.3550    60.0203 </r>
       <r>    10.0519    -0.0474    60.0169 </r>
       <r>    10.1250    -0.1204    60.0081 </r>
       <r>    10.1981    -0.0736    60.0027 </r>
       <r>    10.2711    -0.0278    60.0007 </r>
       <r>    10.3442    -0.0074    60.0001 </r>
       <r>    10.4173    -0.0014    60.0000 </r>
       <r>    10.4903    -0.0002    60.0000 </r>
       <r>    10.5634    -0.0000    60.0000 </r>
       <r>    10.6365    -0.0000    60.0000 </r>
       <r>    10.7096    -0.0000    60.0000 </r>
       <r>    10.7826    -0.0000    60.0000 </r>
       <r>    10.8557    -0.0000    60.0000 </r>
       <r>    10.9288    -0.0000    60.0000 </r>
       <r>    11.0018    -0.0000    60.0000 </r>
       <r>    11.0749    -0.0000    60.0000 </r>
       <r>    11.1480     0.0000    60.0000 </r>
       <r>    11.2211     0.0000    60.0000 </r>
       <r>    11.2941     0.0000    60.0000 </r>
       <r>    11.3672     0.0000    60.0000 </r>
       <r>    11.4403     0.0000    60.0000 </r>
       <r>    11.5133     0.0000    60.0000 </r>
       <r>    11.5864     0.0000    60.0000 </r>
       <r>    11.6595     0.0000    60.0000 </r>
       <r>    11.7326     0.0000    60.0000 </r>
       <r>    11.8056     0.0000    60.0000 </r>
      </set>
     </set>
    </array>
   </total>
  </dos>
 </calculation>
 <structure name="finalpos" >
  <crystal>
   <varray name="basis" >
    <v>       3.63000011       0.00000000       0.00000000 </v>
    <v>       0.00000000       2.56679773       0.00000000 </v>
    <v>       0.00000000       0.00000000      23.98379135 </v>
   </varray>
   <i name="volume">    223.46840188 </i>
   <varray name="rec_basis" >
    <v>       0.27548208       0.00000000       0.00000000 </v>
    <v>       0.00000000       0.38959050       0.00000000 </v>
    <v>       0.00000000       0.00000000       0.04169483 </v>
   </varray>
  </crystal>
  <varray name="positions" >
   <v>       0.00000000       0.00000000      -0.00079607 </v>
   <v>       0.50000000       0.50000000       0.04640609 </v>
   <v>       0.00000000       0.00000000       0.10067923 </v>
   <v>       0.50000000       0.50000000       0.15270287 </v>
   <v>       0.00000000       0.00000000       0.20529255 </v>
   <v>       0.50000000       0.50000000       0.25742236 </v>
   <v>       0.00000000       0.00000000       0.31168155 </v>
   <v>       0.50000000       0.50000000       0.35862007 </v>
   <v>       0.50000000       0.00000000       0.44632770 </v>
   <v>       0.50000000       0.00000000       0.47809763 </v>
  </varray>
 </structure>
</modeling>
