unknown system                          
           1
     3.630000    0.000000    0.000000
     0.000000    2.566798    0.000000
     0.000000    0.000000   23.983791
   Cu   H 
     8     2
Direct configuration=     1
   0.00000000  0.00000000  0.00000000
   0.50000000  0.50000000  0.05351109
   0.00000000  0.00000000  0.10468148
   0.50000000  0.50000000  0.15792996
   0.00000000  0.00000000  0.21070899
   0.50000000  0.50000000  0.26289048
   0.00000000  0.00000000  0.31711592
   0.50000000  0.50000000  0.36467590
   0.50000000  0.00000000  0.42690792
   0.50000000  0.00000000  0.45801226
Direct configuration=     2
   0.00000000  0.00000000  0.00107107
   0.50000000  0.50000000  0.05249494
   0.00000000  0.00000000  0.10471302
   0.50000000  0.50000000  0.15809835
   0.00000000  0.00000000  0.21036371
   0.50000000  0.50000000  0.26305111
   0.00000000  0.00000000  0.31699167
   0.50000000  0.50000000  0.36358446
   0.50000000  0.00000000  0.42526912
   0.50000000  0.00000000  0.46079654
Direct configuration=     3
   0.00000000  0.00000000  0.00059670
   0.50000000  0.50000000  0.05294499
   0.00000000  0.00000000  0.10469905
   0.50000000  0.50000000  0.15802377
   0.00000000  0.00000000  0.21051663
   0.50000000  0.50000000  0.26297997
   0.00000000  0.00000000  0.31704670
   0.50000000  0.50000000  0.36406785
   0.50000000  0.00000000  0.42599493
   0.50000000  0.00000000  0.45956341
Direct configuration=     4
   0.00000000  0.00000000  0.00172303
   0.50000000  0.50000000  0.05188977
   0.00000000  0.00000000  0.10475709
   0.50000000  0.50000000  0.15816246
   0.00000000  0.00000000  0.21017847
   0.50000000  0.50000000  0.26306637
   0.00000000  0.00000000  0.31685323
   0.50000000  0.50000000  0.36310408
   0.50000000  0.00000000  0.42669739
   0.50000000  0.00000000  0.46000210
Direct configuration=     5
   0.00000000  0.00000000  0.00322942
   0.50000000  0.50000000  0.05047849
   0.00000000  0.00000000  0.10483471
   0.50000000  0.50000000  0.15834795
   0.00000000  0.00000000  0.20972621
   0.50000000  0.50000000  0.26318193
   0.00000000  0.00000000  0.31659448
   0.50000000  0.50000000  0.36181510
   0.50000000  0.00000000  0.42763688
   0.50000000  0.00000000  0.46058882
Direct configuration=     6
   0.00000000  0.00000000  0.00343814
   0.50000000  0.50000000  0.05028295
   0.00000000  0.00000000  0.10484546
   0.50000000  0.50000000  0.15837365
   0.00000000  0.00000000  0.20966355
   0.50000000  0.50000000  0.26319794
   0.00000000  0.00000000  0.31655863
   0.50000000  0.50000000  0.36163651
   0.50000000  0.00000000  0.42776705
   0.50000000  0.00000000  0.46067011
Direct configuration=     7
   0.00000000  0.00000000  0.00367723
   0.50000000  0.50000000  0.05025610
   0.00000000  0.00000000  0.10499975
   0.50000000  0.50000000  0.15805224
   0.00000000  0.00000000  0.20955024
   0.50000000  0.50000000  0.26243034
   0.00000000  0.00000000  0.31618110
   0.50000000  0.50000000  0.36166349
   0.50000000  0.00000000  0.42888671
   0.50000000  0.00000000  0.46073679
Direct configuration=     8
   0.00000000  0.00000000  0.00367521
   0.50000000  0.50000000  0.05025633
   0.00000000  0.00000000  0.10499845
   0.50000000  0.50000000  0.15805495
   0.00000000  0.00000000  0.20955120
   0.50000000  0.50000000  0.26243682
   0.00000000  0.00000000  0.31618429
   0.50000000  0.50000000  0.36166326
   0.50000000  0.00000000  0.42887726
   0.50000000  0.00000000  0.46073623
Direct configuration=     9
   0.00000000  0.00000000  0.00377469
   0.50000000  0.50000000  0.05032450
   0.00000000  0.00000000  0.10509824
   0.50000000  0.50000000  0.15782281
   0.00000000  0.00000000  0.20948332
   0.50000000  0.50000000  0.26197178
   0.00000000  0.00000000  0.31594040
   0.50000000  0.50000000  0.36167315
   0.50000000  0.00000000  0.42917856
   0.50000000  0.00000000  0.46116652
Direct configuration=    10
   0.00000000  0.00000000  0.00395068
   0.50000000  0.50000000  0.05044511
   0.00000000  0.00000000  0.10527479
   0.50000000  0.50000000  0.15741213
   0.00000000  0.00000000  0.20936324
   0.50000000  0.50000000  0.26114907
   0.00000000  0.00000000  0.31550894
   0.50000000  0.50000000  0.36169065
   0.50000000  0.00000000  0.42971161
   0.50000000  0.00000000  0.46192777
Direct configuration=    11
   0.00000000  0.00000000  0.00430266
   0.50000000  0.50000000  0.05068633
   0.00000000  0.00000000  0.10562787
   0.50000000  0.50000000  0.15659077
   0.00000000  0.00000000  0.20912308
   0.50000000  0.50000000  0.25950365
   0.00000000  0.00000000  0.31464602
   0.50000000  0.50000000  0.36172564
   0.50000000  0.00000000  0.43077770
   0.50000000  0.00000000  0.46345026
Direct configuration=    12
   0.00000000  0.00000000  0.00416896
   0.50000000  0.50000000  0.05059470
   0.00000000  0.00000000  0.10549375
   0.50000000  0.50000000  0.15690277
   0.00000000  0.00000000  0.20921431
   0.50000000  0.50000000  0.26012868
   0.00000000  0.00000000  0.31497381
   0.50000000  0.50000000  0.36171235
   0.50000000  0.00000000  0.43037274
   0.50000000  0.00000000  0.46287193
Direct configuration=    13
   0.00000000  0.00000000  0.00416724
   0.50000000  0.50000000  0.05069526
   0.00000000  0.00000000  0.10543104
   0.50000000  0.50000000  0.15669621
   0.00000000  0.00000000  0.20906145
   0.50000000  0.50000000  0.26011462
   0.00000000  0.00000000  0.31477070
   0.50000000  0.50000000  0.36146377
   0.50000000  0.00000000  0.43077627
   0.50000000  0.00000000  0.46325743
Direct configuration=    14
   0.00000000  0.00000000  0.00416206
   0.50000000  0.50000000  0.05099694
   0.00000000  0.00000000  0.10524292
   0.50000000  0.50000000  0.15607651
   0.00000000  0.00000000  0.20860287
   0.50000000  0.50000000  0.26007246
   0.00000000  0.00000000  0.31416137
   0.50000000  0.50000000  0.36071802
   0.50000000  0.00000000  0.43198688
   0.50000000  0.00000000  0.46441396
Direct configuration=    15
   0.00000000  0.00000000  0.00415172
   0.50000000  0.50000000  0.05160029
   0.00000000  0.00000000  0.10486666
   0.50000000  0.50000000  0.15483712
   0.00000000  0.00000000  0.20768572
   0.50000000  0.50000000  0.25998814
   0.00000000  0.00000000  0.31294271
   0.50000000  0.50000000  0.35922653
   0.50000000  0.00000000  0.43440808
   0.50000000  0.00000000  0.46672702
Direct configuration=    16
   0.00000000  0.00000000  0.00415619
   0.50000000  0.50000000  0.05133951
   0.00000000  0.00000000  0.10502928
   0.50000000  0.50000000  0.15537280
   0.00000000  0.00000000  0.20808212
   0.50000000  0.50000000  0.26002458
   0.00000000  0.00000000  0.31346943
   0.50000000  0.50000000  0.35987117
   0.50000000  0.00000000  0.43336161
   0.50000000  0.00000000  0.46572728
Direct configuration=    17
   0.00000000  0.00000000  0.00394526
   0.50000000  0.50000000  0.05109663
   0.00000000  0.00000000  0.10460561
   0.50000000  0.50000000  0.15561064
   0.00000000  0.00000000  0.20779176
   0.50000000  0.50000000  0.25976373
   0.00000000  0.00000000  0.31313457
   0.50000000  0.50000000  0.35954173
   0.50000000  0.00000000  0.43453936
   0.50000000  0.00000000  0.46640470
Direct configuration=    18
   0.00000000  0.00000000  0.00379239
   0.50000000  0.50000000  0.05092059
   0.00000000  0.00000000  0.10429853
   0.50000000  0.50000000  0.15578302
   0.00000000  0.00000000  0.20758131
   0.50000000  0.50000000  0.25957468
   0.00000000  0.00000000  0.31289187
   0.50000000  0.50000000  0.35930295
   0.50000000  0.00000000  0.43539297
   0.50000000  0.00000000  0.46689568
Direct configuration=    19
   0.00000000  0.00000000  0.00369866
   0.50000000  0.50000000  0.05080885
   0.00000000  0.00000000  0.10416210
   0.50000000  0.50000000  0.15586671
   0.00000000  0.00000000  0.20749194
   0.50000000  0.50000000  0.25947387
   0.00000000  0.00000000  0.31279519
   0.50000000  0.50000000  0.35921443
   0.50000000  0.00000000  0.43567609
   0.50000000  0.00000000  0.46724615
Direct configuration=    20
   0.00000000  0.00000000  0.00341748
   0.50000000  0.50000000  0.05047364
   0.00000000  0.00000000  0.10375281
   0.50000000  0.50000000  0.15611780
   0.00000000  0.00000000  0.20722381
   0.50000000  0.50000000  0.25917145
   0.00000000  0.00000000  0.31250516
   0.50000000  0.50000000  0.35894888
   0.50000000  0.00000000  0.43652542
   0.50000000  0.00000000  0.46829753
Direct configuration=    21
   0.00000000  0.00000000  0.00285511
   0.50000000  0.50000000  0.04980321
   0.00000000  0.00000000  0.10293422
   0.50000000  0.50000000  0.15661997
   0.00000000  0.00000000  0.20668757
   0.50000000  0.50000000  0.25856661
   0.00000000  0.00000000  0.31192510
   0.50000000  0.50000000  0.35841779
   0.50000000  0.00000000  0.43822410
   0.50000000  0.00000000  0.47040031
Direct configuration=    22
   0.00000000  0.00000000  0.00315401
   0.50000000  0.50000000  0.05015954
   0.00000000  0.00000000  0.10336930
   0.50000000  0.50000000  0.15635307
   0.00000000  0.00000000  0.20697258
   0.50000000  0.50000000  0.25888809
   0.00000000  0.00000000  0.31223340
   0.50000000  0.50000000  0.35870007
   0.50000000  0.00000000  0.43732125
   0.50000000  0.00000000  0.46928268
Direct configuration=    23
   0.00000000  0.00000000  0.00305886
   0.50000000  0.50000000  0.05004611
   0.00000000  0.00000000  0.10323080
   0.50000000  0.50000000  0.15643803
   0.00000000  0.00000000  0.20688185
   0.50000000  0.50000000  0.25878575
   0.00000000  0.00000000  0.31213526
   0.50000000  0.50000000  0.35861021
   0.50000000  0.00000000  0.43760865
   0.50000000  0.00000000  0.46963845
Direct configuration=    24
   0.00000000  0.00000000  0.00311175
   0.50000000  0.50000000  0.05010916
   0.00000000  0.00000000  0.10330779
   0.50000000  0.50000000  0.15639080
   0.00000000  0.00000000  0.20693228
   0.50000000  0.50000000  0.25884263
   0.00000000  0.00000000  0.31218981
   0.50000000  0.50000000  0.35866015
   0.50000000  0.00000000  0.43744890
   0.50000000  0.00000000  0.46944070
Direct configuration=    25
   0.00000000  0.00000000  0.00308531
   0.50000000  0.50000000  0.05007764
   0.00000000  0.00000000  0.10326930
   0.50000000  0.50000000  0.15641442
   0.00000000  0.00000000  0.20690707
   0.50000000  0.50000000  0.25881419
   0.00000000  0.00000000  0.31216254
   0.50000000  0.50000000  0.35863518
   0.50000000  0.00000000  0.43752878
   0.50000000  0.00000000  0.46953958
Direct configuration=    26
   0.00000000  0.00000000  0.00310205
   0.50000000  0.50000000  0.05009760
   0.00000000  0.00000000  0.10329367
   0.50000000  0.50000000  0.15639946
   0.00000000  0.00000000  0.20692304
   0.50000000  0.50000000  0.25883220
   0.00000000  0.00000000  0.31217981
   0.50000000  0.50000000  0.35865100
   0.50000000  0.00000000  0.43747819
   0.50000000  0.00000000  0.46947696
Direct configuration=    27
   0.00000000  0.00000000  0.00310586
   0.50000000  0.50000000  0.05010214
   0.00000000  0.00000000  0.10329922
   0.50000000  0.50000000  0.15639606
   0.00000000  0.00000000  0.20692667
   0.50000000  0.50000000  0.25883630
   0.00000000  0.00000000  0.31218374
   0.50000000  0.50000000  0.35865460
   0.50000000  0.00000000  0.43746668
   0.50000000  0.00000000  0.46946271
Direct configuration=    28
   0.00000000  0.00000000  0.00310246
   0.50000000  0.50000000  0.05009809
   0.00000000  0.00000000  0.10329427
   0.50000000  0.50000000  0.15639910
   0.00000000  0.00000000  0.20692343
   0.50000000  0.50000000  0.25883264
   0.00000000  0.00000000  0.31218023
   0.50000000  0.50000000  0.35865138
   0.50000000  0.00000000  0.43747696
   0.50000000  0.00000000  0.46947543
Direct configuration=    29
   0.00000000  0.00000000  0.00310416
   0.50000000  0.50000000  0.05010012
   0.00000000  0.00000000  0.10329674
   0.50000000  0.50000000  0.15639758
   0.00000000  0.00000000  0.20692505
   0.50000000  0.50000000  0.25883447
   0.00000000  0.00000000  0.31218199
   0.50000000  0.50000000  0.35865299
   0.50000000  0.00000000  0.43747182
   0.50000000  0.00000000  0.46946907
Direct configuration=    30
   0.00000000  0.00000000  0.00310358
   0.50000000  0.50000000  0.05009942
   0.00000000  0.00000000  0.10329589
   0.50000000  0.50000000  0.15639810
   0.00000000  0.00000000  0.20692449
   0.50000000  0.50000000  0.25883384
   0.00000000  0.00000000  0.31218138
   0.50000000  0.50000000  0.35865244
   0.50000000  0.00000000  0.43747359
   0.50000000  0.00000000  0.46947126
Direct configuration=    31
   0.00000000  0.00000000  0.00299015
   0.50000000  0.50000000  0.05002777
   0.00000000  0.00000000  0.10330565
   0.50000000  0.50000000  0.15627935
   0.00000000  0.00000000  0.20690296
   0.50000000  0.50000000  0.25881045
   0.00000000  0.00000000  0.31217960
   0.50000000  0.50000000  0.35867672
   0.50000000  0.00000000  0.43760692
   0.50000000  0.00000000  0.46965442
Direct configuration=    32
   0.00000000  0.00000000  0.00264985
   0.50000000  0.50000000  0.04981283
   0.00000000  0.00000000  0.10333492
   0.50000000  0.50000000  0.15592308
   0.00000000  0.00000000  0.20683838
   0.50000000  0.50000000  0.25874027
   0.00000000  0.00000000  0.31217425
   0.50000000  0.50000000  0.35874957
   0.50000000  0.00000000  0.43800692
   0.50000000  0.00000000  0.47020392
Direct configuration=    33
   0.00000000  0.00000000  0.00196925
   0.50000000  0.50000000  0.04938295
   0.00000000  0.00000000  0.10339346
   0.50000000  0.50000000  0.15521055
   0.00000000  0.00000000  0.20670921
   0.50000000  0.50000000  0.25859991
   0.00000000  0.00000000  0.31216354
   0.50000000  0.50000000  0.35889528
   0.50000000  0.00000000  0.43880692
   0.50000000  0.00000000  0.47130290
Direct configuration=    34
   0.00000000  0.00000000  0.00184219
   0.50000000  0.50000000  0.04928716
   0.00000000  0.00000000  0.10336596
   0.50000000  0.50000000  0.15504318
   0.00000000  0.00000000  0.20669981
   0.50000000  0.50000000  0.25858036
   0.00000000  0.00000000  0.31217904
   0.50000000  0.50000000  0.35894326
   0.50000000  0.00000000  0.43908524
   0.50000000  0.00000000  0.47140780
Direct configuration=    35
   0.00000000  0.00000000  0.00147056
   0.50000000  0.50000000  0.04900699
   0.00000000  0.00000000  0.10328552
   0.50000000  0.50000000  0.15455362
   0.00000000  0.00000000  0.20667230
   0.50000000  0.50000000  0.25852315
   0.00000000  0.00000000  0.31222438
   0.50000000  0.50000000  0.35908359
   0.50000000  0.00000000  0.43989927
   0.50000000  0.00000000  0.47171462
Direct configuration=    36
   0.00000000  0.00000000  0.00141343
   0.50000000  0.50000000  0.04891685
   0.00000000  0.00000000  0.10317972
   0.50000000  0.50000000  0.15445644
   0.00000000  0.00000000  0.20667631
   0.50000000  0.50000000  0.25851466
   0.00000000  0.00000000  0.31225622
   0.50000000  0.50000000  0.35911367
   0.50000000  0.00000000  0.44004350
   0.50000000  0.00000000  0.47186318
Direct configuration=    37
   0.00000000  0.00000000  0.00124202
   0.50000000  0.50000000  0.04864645
   0.00000000  0.00000000  0.10286234
   0.50000000  0.50000000  0.15416490
   0.00000000  0.00000000  0.20668836
   0.50000000  0.50000000  0.25848921
   0.00000000  0.00000000  0.31235175
   0.50000000  0.50000000  0.35920393
   0.50000000  0.00000000  0.44047617
   0.50000000  0.00000000  0.47230886
Direct configuration=    38
   0.00000000  0.00000000  0.00089922
   0.50000000  0.50000000  0.04810565
   0.00000000  0.00000000  0.10222756
   0.50000000  0.50000000  0.15358183
   0.00000000  0.00000000  0.20671244
   0.50000000  0.50000000  0.25843831
   0.00000000  0.00000000  0.31254281
   0.50000000  0.50000000  0.35938444
   0.50000000  0.00000000  0.44134151
   0.50000000  0.00000000  0.47320023
Direct configuration=    39
   0.00000000  0.00000000  0.00073789
   0.50000000  0.50000000  0.04785114
   0.00000000  0.00000000  0.10192884
   0.50000000  0.50000000  0.15330744
   0.00000000  0.00000000  0.20672378
   0.50000000  0.50000000  0.25841435
   0.00000000  0.00000000  0.31263272
   0.50000000  0.50000000  0.35946938
   0.50000000  0.00000000  0.44174873
   0.50000000  0.00000000  0.47361970
Direct configuration=    40
   0.00000000  0.00000000  0.00050088
   0.50000000  0.50000000  0.04758183
   0.00000000  0.00000000  0.10174564
   0.50000000  0.50000000  0.15336394
   0.00000000  0.00000000  0.20654887
   0.50000000  0.50000000  0.25836455
   0.00000000  0.00000000  0.31266216
   0.50000000  0.50000000  0.35949350
   0.50000000  0.00000000  0.44207018
   0.50000000  0.00000000  0.47410244
Direct configuration=    41
   0.00000000  0.00000000  0.00022461
   0.50000000  0.50000000  0.04726791
   0.00000000  0.00000000  0.10153209
   0.50000000  0.50000000  0.15342979
   0.00000000  0.00000000  0.20634499
   0.50000000  0.50000000  0.25830649
   0.00000000  0.00000000  0.31269647
   0.50000000  0.50000000  0.35952160
   0.50000000  0.00000000  0.44244489
   0.50000000  0.00000000  0.47466516
Direct configuration=    42
   0.00000000  0.00000000 -0.00032795
   0.50000000  0.50000000  0.04664005
   0.00000000  0.00000000  0.10110498
   0.50000000  0.50000000  0.15356151
   0.00000000  0.00000000  0.20593722
   0.50000000  0.50000000  0.25819037
   0.00000000  0.00000000  0.31276510
   0.50000000  0.50000000  0.35957782
   0.50000000  0.00000000  0.44319430
   0.50000000  0.00000000  0.47579059
Direct configuration=    43
   0.00000000  0.00000000  0.00011657
   0.50000000  0.50000000  0.04714514
   0.00000000  0.00000000  0.10144858
   0.50000000  0.50000000  0.15345555
   0.00000000  0.00000000  0.20626526
   0.50000000  0.50000000  0.25828378
   0.00000000  0.00000000  0.31270989
   0.50000000  0.50000000  0.35953259
   0.50000000  0.00000000  0.44259142
   0.50000000  0.00000000  0.47488521
Direct configuration=    44
   0.00000000  0.00000000  0.00016827
   0.50000000  0.50000000  0.04720390
   0.00000000  0.00000000  0.10148854
   0.50000000  0.50000000  0.15344322
   0.00000000  0.00000000  0.20630341
   0.50000000  0.50000000  0.25829465
   0.00000000  0.00000000  0.31270347
   0.50000000  0.50000000  0.35952733
   0.50000000  0.00000000  0.44252129
   0.50000000  0.00000000  0.47477990
Direct configuration=    45
   0.00000000  0.00000000  0.00006449
   0.50000000  0.50000000  0.04709636
   0.00000000  0.00000000  0.10141838
   0.50000000  0.50000000  0.15347154
   0.00000000  0.00000000  0.20622756
   0.50000000  0.50000000  0.25828059
   0.00000000  0.00000000  0.31270808
   0.50000000  0.50000000  0.35953770
   0.50000000  0.00000000  0.44271332
   0.50000000  0.00000000  0.47491595
Direct configuration=    46
   0.00000000  0.00000000 -0.00022786
   0.50000000  0.50000000  0.04679342
   0.00000000  0.00000000  0.10122072
   0.50000000  0.50000000  0.15355130
   0.00000000  0.00000000  0.20601389
   0.50000000  0.50000000  0.25824100
   0.00000000  0.00000000  0.31272109
   0.50000000  0.50000000  0.35956692
   0.50000000  0.00000000  0.44325427
   0.50000000  0.00000000  0.47529923
Direct configuration=    47
   0.00000000  0.00000000 -0.00081256
   0.50000000  0.50000000  0.04618755
   0.00000000  0.00000000  0.10082541
   0.50000000  0.50000000  0.15371083
   0.00000000  0.00000000  0.20558655
   0.50000000  0.50000000  0.25816181
   0.00000000  0.00000000  0.31274709
   0.50000000  0.50000000  0.35962535
   0.50000000  0.00000000  0.44433616
   0.50000000  0.00000000  0.47606579
Direct configuration=    48
   0.00000000  0.00000000 -0.00043785
   0.50000000  0.50000000  0.04657583
   0.00000000  0.00000000  0.10107875
   0.50000000  0.50000000  0.15360860
   0.00000000  0.00000000  0.20586042
   0.50000000  0.50000000  0.25821256
   0.00000000  0.00000000  0.31273042
   0.50000000  0.50000000  0.35958790
   0.50000000  0.00000000  0.44364282
   0.50000000  0.00000000  0.47557454
Direct configuration=    49
   0.00000000  0.00000000 -0.00049417
   0.50000000  0.50000000  0.04651747
   0.00000000  0.00000000  0.10104067
   0.50000000  0.50000000  0.15362396
   0.00000000  0.00000000  0.20581926
   0.50000000  0.50000000  0.25820494
   0.00000000  0.00000000  0.31273293
   0.50000000  0.50000000  0.35959353
   0.50000000  0.00000000  0.44374702
   0.50000000  0.00000000  0.47564837
Direct configuration=    50
   0.00000000  0.00000000 -0.00045711
   0.50000000  0.50000000  0.04655587
   0.00000000  0.00000000  0.10106573
   0.50000000  0.50000000  0.15361385
   0.00000000  0.00000000  0.20584634
   0.50000000  0.50000000  0.25820995
   0.00000000  0.00000000  0.31273128
   0.50000000  0.50000000  0.35958983
   0.50000000  0.00000000  0.44367846
   0.50000000  0.00000000  0.47559979
Direct configuration=    51
   0.00000000  0.00000000 -0.00047627
   0.50000000  0.50000000  0.04653602
   0.00000000  0.00000000  0.10105278
   0.50000000  0.50000000  0.15361908
   0.00000000  0.00000000  0.20583234
   0.50000000  0.50000000  0.25820736
   0.00000000  0.00000000  0.31273213
   0.50000000  0.50000000  0.35959174
   0.50000000  0.00000000  0.44371390
   0.50000000  0.00000000  0.47562491
Direct configuration=    52
   0.00000000  0.00000000 -0.00046839
   0.50000000  0.50000000  0.04654418
   0.00000000  0.00000000  0.10105810
   0.50000000  0.50000000  0.15361693
   0.00000000  0.00000000  0.20583809
   0.50000000  0.50000000  0.25820843
   0.00000000  0.00000000  0.31273178
   0.50000000  0.50000000  0.35959096
   0.50000000  0.00000000  0.44369933
   0.50000000  0.00000000  0.47561458
Direct configuration=    53
   0.00000000  0.00000000 -0.00047577
   0.50000000  0.50000000  0.04653654
   0.00000000  0.00000000  0.10105311
   0.50000000  0.50000000  0.15361894
   0.00000000  0.00000000  0.20583270
   0.50000000  0.50000000  0.25820743
   0.00000000  0.00000000  0.31273211
   0.50000000  0.50000000  0.35959169
   0.50000000  0.00000000  0.44371298
   0.50000000  0.00000000  0.47562425
Direct configuration=    54
   0.00000000  0.00000000 -0.00047208
   0.50000000  0.50000000  0.04654036
   0.00000000  0.00000000  0.10105561
   0.50000000  0.50000000  0.15361794
   0.00000000  0.00000000  0.20583540
   0.50000000  0.50000000  0.25820793
   0.00000000  0.00000000  0.31273195
   0.50000000  0.50000000  0.35959133
   0.50000000  0.00000000  0.44370615
   0.50000000  0.00000000  0.47561941
Direct configuration=    55
   0.00000000  0.00000000 -0.00047371
   0.50000000  0.50000000  0.04653867
   0.00000000  0.00000000  0.10105450
   0.50000000  0.50000000  0.15361838
   0.00000000  0.00000000  0.20583420
   0.50000000  0.50000000  0.25820770
   0.00000000  0.00000000  0.31273202
   0.50000000  0.50000000  0.35959149
   0.50000000  0.00000000  0.44370918
   0.50000000  0.00000000  0.47562156
Direct configuration=    56
   0.00000000  0.00000000 -0.00047347
   0.50000000  0.50000000  0.04653892
   0.00000000  0.00000000  0.10105467
   0.50000000  0.50000000  0.15361832
   0.00000000  0.00000000  0.20583438
   0.50000000  0.50000000  0.25820774
   0.00000000  0.00000000  0.31273201
   0.50000000  0.50000000  0.35959146
   0.50000000  0.00000000  0.44370872
   0.50000000  0.00000000  0.47562123
Direct configuration=    57
   0.00000000  0.00000000 -0.00049105
   0.50000000  0.50000000  0.04655054
   0.00000000  0.00000000  0.10104927
   0.50000000  0.50000000  0.15357624
   0.00000000  0.00000000  0.20584353
   0.50000000  0.50000000  0.25822402
   0.00000000  0.00000000  0.31270310
   0.50000000  0.50000000  0.35957968
   0.50000000  0.00000000  0.44375967
   0.50000000  0.00000000  0.47563899
Direct configuration=    58
   0.00000000  0.00000000 -0.00053888
   0.50000000  0.50000000  0.04658212
   0.00000000  0.00000000  0.10103458
   0.50000000  0.50000000  0.15346182
   0.00000000  0.00000000  0.20586840
   0.50000000  0.50000000  0.25826831
   0.00000000  0.00000000  0.31262452
   0.50000000  0.50000000  0.35954764
   0.50000000  0.00000000  0.44389822
   0.50000000  0.00000000  0.47568726
Direct configuration=    59
   0.00000000  0.00000000 -0.00055697
   0.50000000  0.50000000  0.04659406
   0.00000000  0.00000000  0.10102903
   0.50000000  0.50000000  0.15341853
   0.00000000  0.00000000  0.20587781
   0.50000000  0.50000000  0.25828506
   0.00000000  0.00000000  0.31259478
   0.50000000  0.50000000  0.35953551
   0.50000000  0.00000000  0.44395063
   0.50000000  0.00000000  0.47570553
Direct configuration=    60
   0.00000000  0.00000000 -0.00059315
   0.50000000  0.50000000  0.04661796
   0.00000000  0.00000000  0.10101792
   0.50000000  0.50000000  0.15333196
   0.00000000  0.00000000  0.20589663
   0.50000000  0.50000000  0.25831857
   0.00000000  0.00000000  0.31253532
   0.50000000  0.50000000  0.35951127
   0.50000000  0.00000000  0.44405547
   0.50000000  0.00000000  0.47574206
Direct configuration=    61
   0.00000000  0.00000000 -0.00057281
   0.50000000  0.50000000  0.04660453
   0.00000000  0.00000000  0.10102416
   0.50000000  0.50000000  0.15338063
   0.00000000  0.00000000  0.20588605
   0.50000000  0.50000000  0.25829973
   0.00000000  0.00000000  0.31256875
   0.50000000  0.50000000  0.35952490
   0.50000000  0.00000000  0.44399653
   0.50000000  0.00000000  0.47572152
Direct configuration=    62
   0.00000000  0.00000000 -0.00058461
   0.50000000  0.50000000  0.04661231
   0.00000000  0.00000000  0.10102054
   0.50000000  0.50000000  0.15335241
   0.00000000  0.00000000  0.20589219
   0.50000000  0.50000000  0.25831065
   0.00000000  0.00000000  0.31254937
   0.50000000  0.50000000  0.35951699
   0.50000000  0.00000000  0.44403070
   0.50000000  0.00000000  0.47573343
Direct configuration=    63
   0.00000000  0.00000000 -0.00059849
   0.50000000  0.50000000  0.04662681
   0.00000000  0.00000000  0.10101621
   0.50000000  0.50000000  0.15330872
   0.00000000  0.00000000  0.20590201
   0.50000000  0.50000000  0.25831936
   0.00000000  0.00000000  0.31251744
   0.50000000  0.50000000  0.35950273
   0.50000000  0.00000000  0.44405006
   0.50000000  0.00000000  0.47578915
Direct configuration=    64
   0.00000000  0.00000000 -0.00062891
   0.50000000  0.50000000  0.04665857
   0.00000000  0.00000000  0.10100673
   0.50000000  0.50000000  0.15321298
   0.00000000  0.00000000  0.20592353
   0.50000000  0.50000000  0.25833843
   0.00000000  0.00000000  0.31244748
   0.50000000  0.50000000  0.35947146
   0.50000000  0.00000000  0.44409249
   0.50000000  0.00000000  0.47591123
Direct configuration=    65
   0.00000000  0.00000000 -0.00063493
   0.50000000  0.50000000  0.04666485
   0.00000000  0.00000000  0.10100485
   0.50000000  0.50000000  0.15319405
   0.00000000  0.00000000  0.20592778
   0.50000000  0.50000000  0.25834220
   0.00000000  0.00000000  0.31243365
   0.50000000  0.50000000  0.35946528
   0.50000000  0.00000000  0.44410088
   0.50000000  0.00000000  0.47593537
Direct configuration=    66
   0.00000000  0.00000000 -0.00064696
   0.50000000  0.50000000  0.04667741
   0.00000000  0.00000000  0.10100110
   0.50000000  0.50000000  0.15315619
   0.00000000  0.00000000  0.20593629
   0.50000000  0.50000000  0.25834975
   0.00000000  0.00000000  0.31240598
   0.50000000  0.50000000  0.35945292
   0.50000000  0.00000000  0.44411766
   0.50000000  0.00000000  0.47598365
Direct configuration=    67
   0.00000000  0.00000000 -0.00067103
   0.50000000  0.50000000  0.04670253
   0.00000000  0.00000000  0.10099360
   0.50000000  0.50000000  0.15308046
   0.00000000  0.00000000  0.20595332
   0.50000000  0.50000000  0.25836483
   0.00000000  0.00000000  0.31235064
   0.50000000  0.50000000  0.35942819
   0.50000000  0.00000000  0.44415122
   0.50000000  0.00000000  0.47608022
Direct configuration=    68
   0.00000000  0.00000000 -0.00065142
   0.50000000  0.50000000  0.04668206
   0.00000000  0.00000000  0.10099972
   0.50000000  0.50000000  0.15314217
   0.00000000  0.00000000  0.20593944
   0.50000000  0.50000000  0.25835254
   0.00000000  0.00000000  0.31239574
   0.50000000  0.50000000  0.35944834
   0.50000000  0.00000000  0.44412387
   0.50000000  0.00000000  0.47600152
Direct configuration=    69
   0.00000000  0.00000000 -0.00066122
   0.50000000  0.50000000  0.04669230
   0.00000000  0.00000000  0.10099666
   0.50000000  0.50000000  0.15311131
   0.00000000  0.00000000  0.20594638
   0.50000000  0.50000000  0.25835868
   0.00000000  0.00000000  0.31237319
   0.50000000  0.50000000  0.35943827
   0.50000000  0.00000000  0.44413755
   0.50000000  0.00000000  0.47604087
Direct configuration=    70
   0.00000000  0.00000000 -0.00065787
   0.50000000  0.50000000  0.04668880
   0.00000000  0.00000000  0.10099770
   0.50000000  0.50000000  0.15312185
   0.00000000  0.00000000  0.20594401
   0.50000000  0.50000000  0.25835659
   0.00000000  0.00000000  0.31238089
   0.50000000  0.50000000  0.35944171
   0.50000000  0.00000000  0.44413288
   0.50000000  0.00000000  0.47602744
Direct configuration=    71
   0.00000000  0.00000000 -0.00066071
   0.50000000  0.50000000  0.04669177
   0.00000000  0.00000000  0.10099682
   0.50000000  0.50000000  0.15311291
   0.00000000  0.00000000  0.20594602
   0.50000000  0.50000000  0.25835837
   0.00000000  0.00000000  0.31237435
   0.50000000  0.50000000  0.35943879
   0.50000000  0.00000000  0.44413684
   0.50000000  0.00000000  0.47603884
Direct configuration=    72
   0.00000000  0.00000000 -0.00065907
   0.50000000  0.50000000  0.04669005
   0.00000000  0.00000000  0.10099733
   0.50000000  0.50000000  0.15311809
   0.00000000  0.00000000  0.20594486
   0.50000000  0.50000000  0.25835734
   0.00000000  0.00000000  0.31237814
   0.50000000  0.50000000  0.35944048
   0.50000000  0.00000000  0.44413455
   0.50000000  0.00000000  0.47603224
Direct configuration=    73
   0.00000000  0.00000000 -0.00065927
   0.50000000  0.50000000  0.04669026
   0.00000000  0.00000000  0.10099727
   0.50000000  0.50000000  0.15311746
   0.00000000  0.00000000  0.20594500
   0.50000000  0.50000000  0.25835746
   0.00000000  0.00000000  0.31237768
   0.50000000  0.50000000  0.35944027
   0.50000000  0.00000000  0.44413483
   0.50000000  0.00000000  0.47603304