  34  34   0   0
  0.1991679E+02  0.5133596E-09  0.5133596E-09  0.2967047E-08  0.5000000E-15
  1.000000000000000E-004
  CAR 
 unknown system                          
     14.99174445     -8.92206064  301      2.38133296      1.00000000
     -8.922  0.0000E+00  0.0000E+00  0.0000E+00  0.0000E+00
     -8.842  0.0000E+00  0.0000E+00  0.0000E+00  0.0000E+00
     -8.763  0.0000E+00  0.0000E+00  0.0000E+00  0.0000E+00
     -8.683  0.0000E+00  0.0000E+00  0.0000E+00  0.0000E+00
     -8.603  0.0000E+00  0.0000E+00  0.0000E+00  0.0000E+00
     -8.523 -0.5626E-30 -0.5626E-30 -0.4485E-31 -0.4485E-31
     -8.444 -0.2692E-27 -0.2692E-27 -0.2151E-28 -0.2151E-28
     -8.364 -0.9364E-25 -0.9364E-25 -0.7486E-26 -0.7486E-26
     -8.284 -0.2362E-22 -0.2362E-22 -0.1891E-23 -0.1891E-23
     -8.205 -0.4321E-20 -0.4321E-20 -0.3463E-21 -0.3463E-21
     -8.125 -0.5726E-18 -0.5726E-18 -0.4599E-19 -0.4599E-19
     -8.045 -0.5321E-16 -0.5321E-16 -0.4287E-17 -0.4287E-17
     -7.966 -0.3676E-14 -0.3676E-14 -0.2973E-15 -0.2973E-15
     -7.886 -0.1832E-12 -0.1832E-12 -0.1490E-13 -0.1490E-13
     -7.806 -0.6570E-11 -0.6570E-11 -0.5386E-12 -0.5386E-12
     -7.726 -0.1691E-09 -0.1691E-09 -0.1402E-10 -0.1402E-10
     -7.647 -0.3112E-08 -0.3112E-08 -0.2621E-09 -0.2621E-09
     -7.567 -0.4064E-07 -0.4064E-07 -0.3501E-08 -0.3501E-08
     -7.487 -0.3728E-06 -0.3728E-06 -0.3322E-07 -0.3322E-07
     -7.408 -0.2358E-05 -0.2358E-05 -0.2212E-06 -0.2212E-06
     -7.328 -0.9906E-05 -0.9906E-05 -0.1011E-05 -0.1011E-05
     -7.248 -0.2510E-04 -0.2510E-04 -0.3012E-05 -0.3012E-05
     -7.168 -0.2412E-04 -0.2412E-04 -0.4934E-05 -0.4934E-05
     -7.089  0.6430E-04  0.6430E-04  0.1912E-06  0.1912E-06
     -7.009  0.2844E-03  0.2844E-03  0.2286E-04  0.2286E-04
     -6.929  0.5092E-03  0.5092E-03  0.6346E-04  0.6346E-04
     -6.850  0.5207E-03  0.5207E-03  0.1050E-03  0.1050E-03
     -6.770  0.3385E-03  0.3385E-03  0.1319E-03  0.1319E-03
     -6.690  0.2498E-03  0.2498E-03  0.1519E-03  0.1519E-03
     -6.610  0.3893E-03  0.3893E-03  0.1829E-03  0.1829E-03
     -6.531  0.5190E-03  0.5190E-03  0.2243E-03  0.2243E-03
     -6.451  0.3638E-03  0.3638E-03  0.2533E-03  0.2533E-03
     -6.371  0.6456E-05  0.6456E-05  0.2538E-03  0.2538E-03
     -6.292 -0.8505E-04 -0.8505E-04  0.2470E-03  0.2470E-03
     -6.212  0.6796E-03  0.6796E-03  0.3012E-03  0.3012E-03
     -6.132  0.2338E-02  0.2338E-02  0.4875E-03  0.4875E-03
     -6.052  0.3887E-02  0.3887E-02  0.7973E-03  0.7973E-03
     -5.973  0.4384E-02  0.4384E-02  0.1147E-02  0.1147E-02
     -5.893  0.4177E-02  0.4177E-02  0.1480E-02  0.1480E-02
     -5.813  0.3943E-02  0.3943E-02  0.1794E-02  0.1794E-02
     -5.734  0.3851E-02  0.3851E-02  0.2101E-02  0.2101E-02
     -5.654  0.4125E-02  0.4125E-02  0.2430E-02  0.2430E-02
     -5.574  0.4558E-02  0.4558E-02  0.2793E-02  0.2793E-02
     -5.494  0.4089E-02  0.4089E-02  0.3119E-02  0.3119E-02
     -5.415  0.2389E-02  0.2389E-02  0.3309E-02  0.3309E-02
     -5.335  0.5714E-03  0.5714E-03  0.3355E-02  0.3355E-02
     -5.255 -0.3183E-03 -0.3183E-03  0.3330E-02  0.3330E-02
     -5.176 -0.5726E-04 -0.5726E-04  0.3325E-02  0.3325E-02
     -5.096  0.1283E-02  0.1283E-02  0.3427E-02  0.3427E-02
     -5.016  0.3082E-02  0.3082E-02  0.3673E-02  0.3673E-02
     -4.936  0.3897E-02  0.3897E-02  0.3984E-02  0.3984E-02
     -4.857  0.2926E-02  0.2926E-02  0.4217E-02  0.4217E-02
     -4.777  0.1121E-02  0.1121E-02  0.4306E-02  0.4306E-02
     -4.697 -0.3352E-04 -0.3352E-04  0.4304E-02  0.4304E-02
     -4.618  0.1266E-03  0.1266E-03  0.4314E-02  0.4314E-02
     -4.538  0.1387E-02  0.1387E-02  0.4424E-02  0.4424E-02
     -4.458  0.2802E-02  0.2802E-02  0.4648E-02  0.4648E-02
     -4.378  0.3504E-02  0.3504E-02  0.4927E-02  0.4927E-02
     -4.299  0.4028E-02  0.4028E-02  0.5248E-02  0.5248E-02
     -4.219  0.5273E-02  0.5273E-02  0.5668E-02  0.5668E-02
     -4.139  0.6294E-02  0.6294E-02  0.6170E-02  0.6170E-02
     -4.060  0.5518E-02  0.5518E-02  0.6610E-02  0.6610E-02
     -3.980  0.3578E-02  0.3578E-02  0.6895E-02  0.6895E-02
     -3.900  0.2544E-02  0.2544E-02  0.7098E-02  0.7098E-02
     -3.820  0.3058E-02  0.3058E-02  0.7342E-02  0.7342E-02
     -3.741  0.4280E-02  0.4280E-02  0.7683E-02  0.7683E-02
     -3.661  0.5642E-02  0.5642E-02  0.8132E-02  0.8132E-02
     -3.581  0.6613E-02  0.6613E-02  0.8660E-02  0.8660E-02
     -3.502  0.6386E-02  0.6386E-02  0.9169E-02  0.9169E-02
     -3.422  0.5350E-02  0.5350E-02  0.9595E-02  0.9595E-02
     -3.342  0.4806E-02  0.4806E-02  0.9978E-02  0.9978E-02
     -3.262  0.5013E-02  0.5013E-02  0.1038E-01  0.1038E-01
     -3.183  0.5262E-02  0.5262E-02  0.1080E-01  0.1080E-01
     -3.103  0.5080E-02  0.5080E-02  0.1120E-01  0.1120E-01
     -3.023  0.4455E-02  0.4455E-02  0.1156E-01  0.1156E-01
     -2.944  0.3748E-02  0.3748E-02  0.1186E-01  0.1186E-01
     -2.864  0.3799E-02  0.3799E-02  0.1216E-01  0.1216E-01
     -2.784  0.5185E-02  0.5185E-02  0.1257E-01  0.1257E-01
     -2.704  0.7236E-02  0.7236E-02  0.1315E-01  0.1315E-01
     -2.625  0.9339E-02  0.9339E-02  0.1389E-01  0.1389E-01
     -2.545  0.1260E-01  0.1260E-01  0.1490E-01  0.1490E-01
     -2.465  0.1813E-01  0.1813E-01  0.1634E-01  0.1634E-01
     -2.386  0.2482E-01  0.2482E-01  0.1832E-01  0.1832E-01
     -2.306  0.3047E-01  0.3047E-01  0.2075E-01  0.2075E-01
     -2.226  0.3296E-01  0.3296E-01  0.2338E-01  0.2338E-01
     -2.146  0.3098E-01  0.3098E-01  0.2585E-01  0.2585E-01
     -2.067  0.2607E-01  0.2607E-01  0.2793E-01  0.2793E-01
     -1.987  0.2273E-01  0.2273E-01  0.2974E-01  0.2974E-01
     -1.907  0.2438E-01  0.2438E-01  0.3168E-01  0.3168E-01
     -1.828  0.3088E-01  0.3088E-01  0.3414E-01  0.3414E-01
     -1.748  0.3944E-01  0.3944E-01  0.3729E-01  0.3729E-01
     -1.668  0.4626E-01  0.4626E-01  0.4097E-01  0.4097E-01
     -1.588  0.4881E-01  0.4881E-01  0.4486E-01  0.4486E-01
     -1.509  0.4725E-01  0.4725E-01  0.4863E-01  0.4863E-01
     -1.429  0.4304E-01  0.4304E-01  0.5206E-01  0.5206E-01
     -1.349  0.3830E-01  0.3830E-01  0.5512E-01  0.5512E-01
     -1.270  0.3541E-01  0.3541E-01  0.5794E-01  0.5794E-01
     -1.190  0.3570E-01  0.3570E-01  0.6078E-01  0.6078E-01
     -1.110  0.4020E-01  0.4020E-01  0.6399E-01  0.6399E-01
     -1.031  0.4903E-01  0.4903E-01  0.6790E-01  0.6790E-01
     -0.951  0.5841E-01  0.5841E-01  0.7255E-01  0.7255E-01
     -0.871  0.6273E-01  0.6273E-01  0.7755E-01  0.7755E-01
     -0.791  0.6269E-01  0.6269E-01  0.8255E-01  0.8255E-01
     -0.712  0.6581E-01  0.6581E-01  0.8779E-01  0.8779E-01
     -0.632  0.7440E-01  0.7440E-01  0.9373E-01  0.9373E-01
     -0.552  0.8117E-01  0.8117E-01  0.1002E+00  0.1002E+00
     -0.473  0.8043E-01  0.8043E-01  0.1066E+00  0.1066E+00
     -0.393  0.7534E-01  0.7534E-01  0.1126E+00  0.1126E+00
     -0.313  0.7132E-01  0.7132E-01  0.1183E+00  0.1183E+00
     -0.233  0.6947E-01  0.6947E-01  0.1238E+00  0.1238E+00
     -0.154  0.6841E-01  0.6841E-01  0.1293E+00  0.1293E+00
     -0.074  0.6674E-01  0.6674E-01  0.1346E+00  0.1346E+00
      0.006  0.6352E-01  0.6352E-01  0.1397E+00  0.1397E+00
      0.085  0.6047E-01  0.6047E-01  0.1445E+00  0.1445E+00
      0.165  0.5992E-01  0.5992E-01  0.1493E+00  0.1493E+00
      0.245  0.6104E-01  0.6104E-01  0.1541E+00  0.1541E+00
      0.325  0.6445E-01  0.6445E-01  0.1593E+00  0.1593E+00
      0.404  0.7369E-01  0.7369E-01  0.1651E+00  0.1651E+00
      0.484  0.8575E-01  0.8575E-01  0.1720E+00  0.1720E+00
      0.564  0.9189E-01  0.9189E-01  0.1793E+00  0.1793E+00
      0.643  0.9118E-01  0.9118E-01  0.1866E+00  0.1866E+00
      0.723  0.9025E-01  0.9025E-01  0.1938E+00  0.1938E+00
      0.803  0.8879E-01  0.8879E-01  0.2008E+00  0.2008E+00
      0.883  0.7747E-01  0.7747E-01  0.2070E+00  0.2070E+00
      0.962  0.5260E-01  0.5260E-01  0.2112E+00  0.2112E+00
      1.042  0.2404E-01  0.2404E-01  0.2131E+00  0.2131E+00
      1.122  0.4682E-02  0.4682E-02  0.2135E+00  0.2135E+00
      1.201 -0.1907E-02 -0.1907E-02  0.2134E+00  0.2134E+00
      1.281 -0.7155E-03 -0.7155E-03  0.2133E+00  0.2133E+00
      1.361  0.2286E-02  0.2286E-02  0.2135E+00  0.2135E+00
      1.441  0.4200E-02  0.4200E-02  0.2138E+00  0.2138E+00
      1.520  0.5128E-02  0.5128E-02  0.2142E+00  0.2142E+00
      1.600  0.6059E-02  0.6059E-02  0.2147E+00  0.2147E+00
      1.680  0.6579E-02  0.6579E-02  0.2152E+00  0.2152E+00
      1.759  0.5383E-02  0.5383E-02  0.2157E+00  0.2157E+00
      1.839  0.3011E-02  0.3011E-02  0.2159E+00  0.2159E+00
      1.919  0.2142E-02  0.2142E-02  0.2161E+00  0.2161E+00
      1.999  0.4542E-02  0.4542E-02  0.2164E+00  0.2164E+00
      2.078  0.9141E-02  0.9141E-02  0.2172E+00  0.2172E+00
      2.158  0.1326E-01  0.1326E-01  0.2182E+00  0.2182E+00
      2.238  0.1477E-01  0.1477E-01  0.2194E+00  0.2194E+00
      2.317  0.1367E-01  0.1367E-01  0.2205E+00  0.2205E+00
      2.397  0.1186E-01  0.1186E-01  0.2214E+00  0.2214E+00
      2.477  0.1022E-01  0.1022E-01  0.2222E+00  0.2222E+00
      2.557  0.7745E-02  0.7745E-02  0.2229E+00  0.2229E+00
      2.636  0.4795E-02  0.4795E-02  0.2232E+00  0.2232E+00
      2.716  0.3693E-02  0.3693E-02  0.2235E+00  0.2235E+00
      2.796  0.5286E-02  0.5286E-02  0.2240E+00  0.2240E+00
      2.875  0.7818E-02  0.7818E-02  0.2246E+00  0.2246E+00
      2.955  0.8919E-02  0.8919E-02  0.2253E+00  0.2253E+00
      3.035  0.7459E-02  0.7459E-02  0.2259E+00  0.2259E+00
      3.115  0.4539E-02  0.4539E-02  0.2262E+00  0.2262E+00
      3.194  0.2614E-02  0.2614E-02  0.2265E+00  0.2265E+00
      3.274  0.2845E-02  0.2845E-02  0.2267E+00  0.2267E+00
      3.354  0.4213E-02  0.4213E-02  0.2270E+00  0.2270E+00
      3.433  0.5193E-02  0.5193E-02  0.2274E+00  0.2274E+00
      3.513  0.5421E-02  0.5421E-02  0.2279E+00  0.2279E+00
      3.593  0.5890E-02  0.5890E-02  0.2283E+00  0.2283E+00
      3.673  0.7650E-02  0.7650E-02  0.2289E+00  0.2289E+00
      3.752  0.1016E-01  0.1016E-01  0.2298E+00  0.2298E+00
      3.832  0.1153E-01  0.1153E-01  0.2307E+00  0.2307E+00
      3.912  0.1055E-01  0.1055E-01  0.2315E+00  0.2315E+00
      3.991  0.7570E-02  0.7570E-02  0.2321E+00  0.2321E+00
      4.071  0.3997E-02  0.3997E-02  0.2324E+00  0.2324E+00
      4.151  0.1740E-02  0.1740E-02  0.2326E+00  0.2326E+00
      4.231  0.1786E-02  0.1786E-02  0.2327E+00  0.2327E+00
      4.310  0.2859E-02  0.2859E-02  0.2329E+00  0.2329E+00
      4.390  0.2848E-02  0.2848E-02  0.2332E+00  0.2332E+00
      4.470  0.1482E-02  0.1482E-02  0.2333E+00  0.2333E+00
      4.549  0.4175E-03  0.4175E-03  0.2333E+00  0.2333E+00
      4.629  0.1112E-02  0.1112E-02  0.2334E+00  0.2334E+00
      4.709  0.3511E-02  0.3511E-02  0.2337E+00  0.2337E+00
      4.789  0.6182E-02  0.6182E-02  0.2342E+00  0.2342E+00
      4.868  0.7283E-02  0.7283E-02  0.2348E+00  0.2348E+00
      4.948  0.6001E-02  0.6001E-02  0.2352E+00  0.2352E+00
      5.028  0.3302E-02  0.3302E-02  0.2355E+00  0.2355E+00
      5.107  0.9737E-03  0.9737E-03  0.2356E+00  0.2356E+00
      5.187  0.2787E-05  0.2788E-05  0.2356E+00  0.2356E+00
      5.267  0.1181E-03  0.1181E-03  0.2356E+00  0.2356E+00
      5.347  0.5370E-03  0.5370E-03  0.2356E+00  0.2356E+00
      5.426  0.1056E-02  0.1056E-02  0.2357E+00  0.2357E+00
      5.506  0.2435E-02  0.2435E-02  0.2359E+00  0.2359E+00
      5.586  0.5091E-02  0.5091E-02  0.2363E+00  0.2363E+00
      5.665  0.7938E-02  0.7938E-02  0.2370E+00  0.2370E+00
      5.745  0.9766E-02  0.9766E-02  0.2377E+00  0.2377E+00
      5.825  0.1058E-01  0.1058E-01  0.2386E+00  0.2386E+00
      5.904  0.1050E-01  0.1050E-01  0.2394E+00  0.2394E+00
      5.984  0.9043E-02  0.9043E-02  0.2401E+00  0.2401E+00
      6.064  0.6265E-02  0.6265E-02  0.2406E+00  0.2406E+00
      6.144  0.3242E-02  0.3242E-02  0.2409E+00  0.2409E+00
      6.223  0.1264E-02  0.1264E-02  0.2410E+00  0.2410E+00
      6.303  0.1094E-02  0.1093E-02  0.2411E+00  0.2411E+00
      6.383  0.3064E-02  0.3064E-02  0.2413E+00  0.2413E+00
      6.462  0.7069E-02  0.7069E-02  0.2419E+00  0.2419E+00
      6.542  0.1144E-01  0.1144E-01  0.2428E+00  0.2428E+00
      6.622  0.1305E-01  0.1305E-01  0.2438E+00  0.2438E+00
      6.702  0.1039E-01  0.1039E-01  0.2447E+00  0.2447E+00
      6.781  0.5519E-02  0.5519E-02  0.2451E+00  0.2451E+00
      6.861  0.2057E-02  0.2057E-02  0.2453E+00  0.2453E+00
      6.941  0.2059E-02  0.2059E-02  0.2454E+00  0.2454E+00
      7.020  0.4995E-02  0.4995E-02  0.2458E+00  0.2458E+00
      7.100  0.8484E-02  0.8484E-02  0.2465E+00  0.2465E+00
      7.180  0.1018E-01  0.1018E-01  0.2473E+00  0.2473E+00
      7.260  0.9683E-02  0.9683E-02  0.2481E+00  0.2481E+00
      7.339  0.8474E-02  0.8474E-02  0.2488E+00  0.2488E+00
      7.419  0.7938E-02  0.7939E-02  0.2494E+00  0.2494E+00
      7.499  0.8174E-02  0.8174E-02  0.2501E+00  0.2501E+00
      7.578  0.8434E-02  0.8434E-02  0.2507E+00  0.2507E+00
      7.658  0.7888E-02  0.7888E-02  0.2514E+00  0.2514E+00
      7.738  0.6343E-02  0.6343E-02  0.2519E+00  0.2519E+00
      7.818  0.4974E-02  0.4974E-02  0.2523E+00  0.2523E+00
      7.897  0.5377E-02  0.5377E-02  0.2527E+00  0.2527E+00
      7.977  0.7543E-02  0.7542E-02  0.2533E+00  0.2533E+00
      8.057  0.9922E-02  0.9921E-02  0.2541E+00  0.2541E+00
      8.136  0.1110E-01  0.1110E-01  0.2550E+00  0.2550E+00
      8.216  0.1049E-01  0.1049E-01  0.2558E+00  0.2558E+00
      8.296  0.8406E-02  0.8407E-02  0.2565E+00  0.2565E+00
      8.376  0.6266E-02  0.6267E-02  0.2570E+00  0.2570E+00
      8.455  0.5593E-02  0.5593E-02  0.2574E+00  0.2574E+00
      8.535  0.6293E-02  0.6293E-02  0.2579E+00  0.2579E+00
      8.615  0.7235E-02  0.7235E-02  0.2585E+00  0.2585E+00
      8.694  0.7980E-02  0.7980E-02  0.2591E+00  0.2591E+00
      8.774  0.8405E-02  0.8405E-02  0.2598E+00  0.2598E+00
      8.854  0.7966E-02  0.7966E-02  0.2604E+00  0.2604E+00
      8.934  0.6632E-02  0.6632E-02  0.2610E+00  0.2610E+00
      9.013  0.5362E-02  0.5362E-02  0.2614E+00  0.2614E+00
      9.093  0.5099E-02  0.5099E-02  0.2618E+00  0.2618E+00
      9.173  0.5874E-02  0.5874E-02  0.2623E+00  0.2623E+00
      9.252  0.6766E-02  0.6766E-02  0.2628E+00  0.2628E+00
      9.332  0.6719E-02  0.6719E-02  0.2633E+00  0.2633E+00
      9.412  0.5879E-02  0.5878E-02  0.2638E+00  0.2638E+00
      9.492  0.5864E-02  0.5863E-02  0.2643E+00  0.2643E+00
      9.571  0.8036E-02  0.8035E-02  0.2649E+00  0.2649E+00
      9.651  0.1147E-01  0.1147E-01  0.2658E+00  0.2658E+00
      9.731  0.1326E-01  0.1326E-01  0.2669E+00  0.2669E+00
      9.810  0.1177E-01  0.1177E-01  0.2678E+00  0.2678E+00
      9.890  0.8717E-02  0.8718E-02  0.2685E+00  0.2685E+00
      9.970  0.6589E-02  0.6589E-02  0.2690E+00  0.2690E+00
     10.050  0.6126E-02  0.6126E-02  0.2695E+00  0.2695E+00
     10.129  0.6953E-02  0.6954E-02  0.2701E+00  0.2701E+00
     10.209  0.8115E-02  0.8115E-02  0.2707E+00  0.2707E+00
     10.289  0.8292E-02  0.8291E-02  0.2714E+00  0.2714E+00
     10.368  0.7241E-02  0.7240E-02  0.2720E+00  0.2720E+00
     10.448  0.6001E-02  0.6001E-02  0.2724E+00  0.2724E+00
     10.528  0.5632E-02  0.5632E-02  0.2729E+00  0.2729E+00
     10.608  0.6572E-02  0.6572E-02  0.2734E+00  0.2734E+00
     10.687  0.8378E-02  0.8378E-02  0.2741E+00  0.2741E+00
     10.767  0.9877E-02  0.9877E-02  0.2749E+00  0.2749E+00
     10.847  0.1009E-01  0.1009E-01  0.2757E+00  0.2757E+00
     10.926  0.9107E-02  0.9107E-02  0.2764E+00  0.2764E+00
     11.006  0.8243E-02  0.8243E-02  0.2771E+00  0.2771E+00
     11.086  0.8908E-02  0.8907E-02  0.2778E+00  0.2778E+00
     11.166  0.1071E-01  0.1071E-01  0.2786E+00  0.2786E+00
     11.245  0.1172E-01  0.1172E-01  0.2796E+00  0.2796E+00
     11.325  0.1151E-01  0.1151E-01  0.2805E+00  0.2805E+00
     11.405  0.1206E-01  0.1206E-01  0.2814E+00  0.2814E+00
     11.484  0.1414E-01  0.1414E-01  0.2826E+00  0.2826E+00
     11.564  0.1508E-01  0.1508E-01  0.2838E+00  0.2838E+00
     11.644  0.1246E-01  0.1246E-01  0.2848E+00  0.2848E+00
     11.724  0.7913E-02  0.7913E-02  0.2854E+00  0.2854E+00
     11.803  0.5201E-02  0.5201E-02  0.2858E+00  0.2858E+00
     11.883  0.5861E-02  0.5861E-02  0.2863E+00  0.2863E+00
     11.963  0.8203E-02  0.8203E-02  0.2869E+00  0.2869E+00
     12.042  0.9365E-02  0.9365E-02  0.2877E+00  0.2877E+00
     12.122  0.7887E-02  0.7887E-02  0.2883E+00  0.2883E+00
     12.202  0.4802E-02  0.4802E-02  0.2887E+00  0.2887E+00
     12.282  0.2089E-02  0.2089E-02  0.2889E+00  0.2889E+00
     12.361  0.5759E-03  0.5761E-03  0.2889E+00  0.2889E+00
     12.441 -0.9371E-05 -0.9269E-05  0.2889E+00  0.2889E+00
     12.521  0.2413E-04  0.2415E-04  0.2889E+00  0.2889E+00
     12.600  0.4928E-03  0.4928E-03  0.2889E+00  0.2889E+00
     12.680  0.1120E-02  0.1120E-02  0.2890E+00  0.2890E+00
     12.760  0.1762E-02  0.1762E-02  0.2892E+00  0.2892E+00
     12.840  0.2474E-02  0.2474E-02  0.2894E+00  0.2894E+00
     12.919  0.2992E-02  0.2992E-02  0.2896E+00  0.2896E+00
     12.999  0.2758E-02  0.2758E-02  0.2898E+00  0.2898E+00
     13.079  0.1747E-02  0.1747E-02  0.2900E+00  0.2900E+00
     13.158  0.6405E-03  0.6404E-03  0.2900E+00  0.2900E+00
     13.238  0.2008E-04  0.2002E-04  0.2900E+00  0.2900E+00
     13.318 -0.1216E-03 -0.1216E-03  0.2900E+00  0.2900E+00
     13.397 -0.7510E-04 -0.7510E-04  0.2900E+00  0.2900E+00
     13.477 -0.2520E-04 -0.2519E-04  0.2900E+00  0.2900E+00
     13.557 -0.5508E-05 -0.5506E-05  0.2900E+00  0.2900E+00
     13.637 -0.8270E-06 -0.8267E-06  0.2900E+00  0.2900E+00
     13.716 -0.8722E-07 -0.8718E-07  0.2900E+00  0.2900E+00
     13.796 -0.6533E-08 -0.6529E-08  0.2900E+00  0.2900E+00
     13.876 -0.3499E-09 -0.3497E-09  0.2900E+00  0.2900E+00
     13.955 -0.1345E-10 -0.1344E-10  0.2900E+00  0.2900E+00
     14.035 -0.3724E-12 -0.3721E-12  0.2900E+00  0.2900E+00
     14.115 -0.7439E-14 -0.7432E-14  0.2900E+00  0.2900E+00
     14.195 -0.1076E-15 -0.1076E-15  0.2900E+00  0.2900E+00
     14.274 -0.7738E-18 -0.7738E-18  0.2900E+00  0.2900E+00
     14.354  0.0000E+00  0.0000E+00  0.2900E+00  0.2900E+00
     14.434  0.0000E+00  0.0000E+00  0.2900E+00  0.2900E+00
     14.513  0.0000E+00  0.0000E+00  0.2900E+00  0.2900E+00
     14.593  0.0000E+00  0.0000E+00  0.2900E+00  0.2900E+00
     14.673  0.0000E+00  0.0000E+00  0.2900E+00  0.2900E+00
     14.753  0.0000E+00  0.0000E+00  0.2900E+00  0.2900E+00
     14.832  0.0000E+00  0.0000E+00  0.2900E+00  0.2900E+00
     14.912  0.0000E+00  0.0000E+00  0.2900E+00  0.2900E+00
     14.992  0.0000E+00  0.0000E+00  0.2900E+00  0.2900E+00
