<?xml version="1.0" encoding="ISO-8859-1"?>
<modeling>
 <generator>
  <i name="program" type="string">vasp </i>
  <i name="version" type="string">6.3.2  </i>
  <i name="subversion" type="string">27Jun22 (build Aug 17 2022 15:43:34) complex                          parallel </i>
  <i name="platform" type="string">tv2STDVTST </i>
  <i name="date" type="string">2025 02 17 </i>
  <i name="time" type="string">22:27:26 </i>
 </generator>
 <incar>
  <i type="int" name="ISTART">     0</i>
  <i type="string" name="PREC">Normal</i>
  <i type="int" name="ISPIN">     2</i>
  <i type="int" name="ICHARG">     2</i>
  <i type="int" name="IBRION">     2</i>
  <i name="EDIFF">      0.00020000</i>
  <i name="EDIFFG">     -0.03000000</i>
  <i type="int" name="NSW">   800</i>
  <i type="int" name="ISIF">     2</i>
  <i type="int" name="ISYM">     1</i>
  <i name="ENCUT">    400.00000000</i>
  <i name="POTIM">      0.50000000</i>
  <i type="logical" name="LREAL"> F  </i>
  <i type="int" name="ISMEAR">     1</i>
  <i name="SIGMA">      0.20000000</i>
  <i type="logical" name="LWAVE"> F  </i>
  <i type="logical" name="LCHARG"> F  </i>
  <i type="string" name="GGA">PE</i>
  <i type="int" name="IVDW">    11</i>
 </incar>
 <primitive_cell>
  <structure name="primitive_cell" >
   <crystal>
    <varray name="basis" >
     <v>       5.13359547       0.00000000       0.00000000 </v>
     <v>       2.56679773       4.44582409       0.00000000 </v>
     <v>       0.00000000       0.00000000      29.67047119 </v>
    </varray>
    <i name="volume">    677.17101477 </i>
    <varray name="rec_basis" >
     <v>       0.19479525      -0.11246509       0.00000000 </v>
     <v>       0.00000000       0.22493018       0.00000000 </v>
     <v>       0.00000000       0.00000000       0.03370354 </v>
    </varray>
   </crystal>
   <varray name="positions" >
    <v>       0.00000000       0.00000000       0.00000000 </v>
    <v>       1.00000000       0.50000000       0.00000000 </v>
    <v>       0.50000000       0.00000000       0.00000000 </v>
    <v>       0.50000000       0.50000000       0.00000000 </v>
    <v>       0.16666667       0.16666667       0.07063526 </v>
    <v>       0.16666667       0.66666667       0.07063526 </v>
    <v>       0.66666667       0.16666667       0.07063526 </v>
    <v>       0.66666667       0.66666667       0.07063526 </v>
    <v>       0.33333333       0.33333333       0.13847021 </v>
    <v>       0.33333333       0.83333333       0.13847021 </v>
    <v>       0.83333333       0.33333333       0.13847021 </v>
    <v>       0.83333333       0.83333333       0.13847021 </v>
    <v>       0.00000000       0.00000000       0.20667428 </v>
    <v>       1.00000000       0.50000000       0.20667428 </v>
    <v>       0.50000000       0.00000000       0.20667428 </v>
    <v>       0.50000000       0.50000000       0.20667428 </v>
    <v>       0.16666667       0.16666667       0.27488859 </v>
    <v>       0.16666667       0.66666667       0.27488859 </v>
    <v>       0.66666667       0.16666667       0.27488859 </v>
    <v>       0.66666667       0.66666667       0.27488859 </v>
    <v>       0.33333333       0.33333333       0.34319917 </v>
    <v>       0.33333333       0.83333333       0.34319917 </v>
    <v>       0.83333333       0.33333333       0.34319917 </v>
    <v>       0.83333333       0.83333333       0.34319917 </v>
    <v>       0.00000000       0.00000000       0.41105828 </v>
    <v>       1.00000000       0.50000000       0.41105828 </v>
    <v>       0.50000000       0.00000000       0.41105828 </v>
    <v>       0.50000000       0.50000000       0.41105828 </v>
    <v>       0.16666667       0.16666667       0.48054462 </v>
    <v>       0.16666667       0.66666667       0.48054462 </v>
    <v>       0.66666667       0.16666667       0.48054462 </v>
    <v>       0.66666667       0.66666667       0.48054462 </v>
    <v>       0.66666667       0.66666667       0.53425930 </v>
    <v>       0.58276771       0.83446458       0.53425930 </v>
   </varray>
  </structure>
  <varray name="primitive_index" >
   <v type="int" >        1 </v>
   <v type="int" >        2 </v>
   <v type="int" >        3 </v>
   <v type="int" >        4 </v>
   <v type="int" >        5 </v>
   <v type="int" >        6 </v>
   <v type="int" >        7 </v>
   <v type="int" >        8 </v>
   <v type="int" >        9 </v>
   <v type="int" >       10 </v>
   <v type="int" >       11 </v>
   <v type="int" >       12 </v>
   <v type="int" >       13 </v>
   <v type="int" >       14 </v>
   <v type="int" >       15 </v>
   <v type="int" >       16 </v>
   <v type="int" >       17 </v>
   <v type="int" >       18 </v>
   <v type="int" >       19 </v>
   <v type="int" >       20 </v>
   <v type="int" >       21 </v>
   <v type="int" >       22 </v>
   <v type="int" >       23 </v>
   <v type="int" >       24 </v>
   <v type="int" >       25 </v>
   <v type="int" >       26 </v>
   <v type="int" >       27 </v>
   <v type="int" >       28 </v>
   <v type="int" >       29 </v>
   <v type="int" >       30 </v>
   <v type="int" >       31 </v>
   <v type="int" >       32 </v>
   <v type="int" >       33 </v>
   <v type="int" >       34 </v>
  </varray>
 </primitive_cell>
 <kpoints>
  <generation param="Monkhorst-Pack">
   <v type="int" name="divisions">       3        3        1 </v>
   <v name="usershift">      0.00000000       0.00000000       0.00000000 </v>
   <v name="genvec1">      0.33333333       0.00000000       0.00000000 </v>
   <v name="genvec2">      0.00000000       0.33333333       0.00000000 </v>
   <v name="genvec3">      0.00000000       0.00000000       1.00000000 </v>
   <v name="shift">      0.00000000       0.00000000       0.00000000 </v>
  </generation>
  <varray name="kpointlist" >
   <v>       0.00000000       0.00000000       0.00000000 </v>
   <v>       0.33333333       0.00000000       0.00000000 </v>
   <v>       0.00000000       0.33333333       0.00000000 </v>
   <v>      -0.33333333       0.33333333       0.00000000 </v>
  </varray>
  <varray name="weights" >
   <v>       0.11111111 </v>
   <v>       0.44444444 </v>
   <v>       0.22222222 </v>
   <v>       0.22222222 </v>
  </varray>
 </kpoints>
 <parameters>
  <separator name="general" >
   <i type="string" name="SYSTEM">unknown system</i>
   <i type="logical" name="LCOMPAT"> F  </i>
  </separator>
  <separator name="electronic" >
   <i type="string" name="PREC">normal</i>
   <i name="ENMAX">    400.00000000</i>
   <i name="ENAUG">    586.98000000</i>
   <i name="EDIFF">      0.00020000</i>
   <i type="int" name="IALGO">    38</i>
   <i type="int" name="IWAVPR">    11</i>
   <i type="int" name="NBANDS">   232</i>
   <i type="int" name="NBANDSLOW">    -1</i>
   <i type="int" name="NBANDSHIGH">    -1</i>
   <i name="NELECT">    354.00000000</i>
   <i type="int" name="TURBO">     0</i>
   <i type="int" name="IRESTART">     0</i>
   <i type="int" name="NREBOOT">     0</i>
   <i type="int" name="NMIN">     0</i>
   <i name="EREF">      0.00000000</i>
   <separator name="electronic smearing" >
    <i type="int" name="ISMEAR">     1</i>
    <i name="SIGMA">      0.20000000</i>
    <i name="KSPACING">      0.50000000</i>
    <i type="logical" name="KGAMMA"> T  </i>
    <i type="logical" name="KBLOWUP"> T  </i>
   </separator>
   <separator name="electronic projectors" >
    <i type="logical" name="LREAL"> F  </i>
    <v name="ROPT">      0.00000000      0.00000000</v>
    <i type="int" name="LMAXPAW">  -100</i>
    <i type="int" name="LMAXMIX">     2</i>
    <i type="logical" name="NLSPLINE"> F  </i>
   </separator>
   <separator name="electronic startup" >
    <i type="int" name="ISTART">     0</i>
    <i type="int" name="ICHARG">     2</i>
    <i type="int" name="INIWAV">     1</i>
   </separator>
   <separator name="electronic spin" >
    <i type="int" name="ISPIN">     2</i>
    <i type="logical" name="LNONCOLLINEAR"> F  </i>
    <v name="MAGMOM">      1.00000000      1.00000000      1.00000000      1.00000000      1.00000000      1.00000000      1.00000000      1.00000000      1.00000000      1.00000000      1.00000000      1.00000000      1.00000000      1.00000000      1.00000000      1.00000000      1.00000000      1.00000000      1.00000000      1.00000000
      1.00000000      1.00000000      1.00000000      1.00000000      1.00000000      1.00000000      1.00000000      1.00000000      1.00000000      1.00000000      1.00000000      1.00000000      1.00000000      1.00000000</v>
    <i name="NUPDOWN">     -1.00000000</i>
    <i type="logical" name="LSORBIT"> F  </i>
    <v name="SAXIS">      0.00000000      0.00000000      1.00000000</v>
    <i type="logical" name="LSPIRAL"> F  </i>
    <v name="QSPIRAL">      0.00000000      0.00000000      0.00000000</v>
    <i type="logical" name="LZEROZ"> F  </i>
   </separator>
   <separator name="electronic exchange-correlation" >
    <i type="logical" name="LASPH"> F  </i>
    <i type="logical" name="LMETAGGA"> F  </i>
   </separator>
   <separator name="electronic convergence" >
    <i type="int" name="NELM">    60</i>
    <i type="int" name="NELMDL">    -5</i>
    <i type="int" name="NELMIN">     2</i>
    <i name="ENINI">    400.00000000</i>
    <separator name="electronic convergence detail" >
     <i type="logical" name="LDIAG"> T  </i>
     <i type="logical" name="LSUBROT"> F  </i>
     <i name="WEIMIN">      0.00100000</i>
     <i name="EBREAK">      0.00000022</i>
     <i name="DEPER">      0.30000000</i>
     <i type="int" name="NRMM">     4</i>
     <i name="TIME">      0.40000000</i>
    </separator>
   </separator>
   <separator name="electronic mixer" >
    <i name="AMIX">      0.40000000</i>
    <i name="BMIX">      1.00000000</i>
    <i name="AMIN">      0.10000000</i>
    <i name="AMIX_MAG">      1.60000000</i>
    <i name="BMIX_MAG">      1.00000000</i>
    <separator name="electronic mixer details" >
     <i type="int" name="IMIX">     4</i>
     <i type="logical" name="MIXFIRST"> F  </i>
     <i type="int" name="MAXMIX">   -45</i>
     <i name="WC">    100.00000000</i>
     <i type="int" name="INIMIX">     1</i>
     <i type="int" name="MIXPRE">     1</i>
     <i type="int" name="MREMOVE">     5</i>
    </separator>
   </separator>
   <separator name="electronic dipolcorrection" >
    <i type="logical" name="LDIPOL"> F  </i>
    <i type="logical" name="LMONO"> F  </i>
    <i type="int" name="IDIPOL">     0</i>
    <i name="EPSILON">      1.00000000</i>
    <v name="DIPOL">   -100.00000000   -100.00000000   -100.00000000</v>
    <i name="EFIELD">      0.00000000</i>
   </separator>
  </separator>
  <separator name="grids" >
   <i type="int" name="NGX">    28</i>
   <i type="int" name="NGY">    28</i>
   <i type="int" name="NGZ">   150</i>
   <i type="int" name="NGXF">    56</i>
   <i type="int" name="NGYF">    56</i>
   <i type="int" name="NGZF">   300</i>
   <i type="logical" name="ADDGRID"> F  </i>
  </separator>
  <separator name="ionic" >
   <i type="int" name="NSW">   800</i>
   <i type="int" name="IBRION">     2</i>
   <i type="int" name="MDALGO">     0</i>
   <i type="int" name="ISIF">     2</i>
   <i name="PSTRESS">      0.00000000</i>
   <i name="EDIFFG">     -0.03000000</i>
   <i type="int" name="NFREE">     1</i>
   <i name="POTIM">      0.50000000</i>
   <i name="SMASS">     -3.00000000</i>
   <i name="SCALEE">      1.00000000</i>
  </separator>
  <separator name="ionic md" >
   <i name="TEBEG">      0.00010000</i>
   <i name="TEEND">      0.00010000</i>
   <i type="int" name="NBLOCK">     1</i>
   <i type="int" name="KBLOCK">   800</i>
   <i type="int" name="NPACO">   256</i>
   <i name="APACO">     10.00000000</i>
  </separator>
  <separator name="symmetry" >
   <i type="int" name="ISYM">     1</i>
   <i name="SYMPREC">      0.00001000</i>
  </separator>
  <separator name="dos" >
   <i type="int" name="LORBIT">     0</i>
   <v name="RWIGS">     -1.00000000     -1.00000000</v>
   <i type="int" name="NEDOS">   301</i>
   <i name="EMIN">     10.00000000</i>
   <i name="EMAX">    -10.00000000</i>
   <i name="EFERMI">      0.00000000</i>
  </separator>
  <separator name="writing" >
   <i type="int" name="NWRITE">     2</i>
   <i type="logical" name="LWAVE"> F  </i>
   <i type="logical" name="LDOWNSAMPLE"> F  </i>
   <i type="logical" name="LCHARG"> F  </i>
   <i type="logical" name="LPARD"> F  </i>
   <i type="logical" name="LVTOT"> F  </i>
   <i type="logical" name="LVHAR"> F  </i>
   <i type="logical" name="LELF"> F  </i>
   <i type="logical" name="LOPTICS"> F  </i>
   <v name="STM">      0.00000000      0.00000000      0.00000000      0.00000000      0.00000000      0.00000000      0.00000000</v>
  </separator>
  <separator name="performance" >
   <i type="int" name="NPAR">     4</i>
   <i type="int" name="NSIM">     4</i>
   <i type="int" name="NBLK">    -1</i>
   <i type="logical" name="LPLANE"> T  </i>
   <i type="logical" name="LSCALAPACK"> T  </i>
   <i type="logical" name="LSCAAWARE"> F  </i>
   <i type="logical" name="LSCALU"> F  </i>
   <i type="logical" name="LASYNC"> F  </i>
   <i type="logical" name="LORBITALREAL"> F  </i>
  </separator>
  <separator name="miscellaneous" >
   <i type="int" name="IDIOT">     3</i>
   <i type="int" name="PHON_NSTRUCT">    -1</i>
   <i type="logical" name="LMUSIC"> F  </i>
   <v name="POMASS">     63.54600000      1.00000000</v>
   <v name="DARWINR">      0.00000000      0.00000000</v>
   <v name="DARWINV">      1.00000000      1.00000000</v>
   <i type="logical" name="LCORR"> T  </i>
  </separator>
  <i type="logical" name="GGA_COMPAT"> T  </i>
  <i type="logical" name="LBERRY"> F  </i>
  <i type="int" name="ICORELEVEL">     0</i>
  <i type="logical" name="LDAU"> F  </i>
  <i type="int" name="I_CONSTRAINED_M">     0</i>
  <separator name="electronic exchange-correlation" >
   <i type="string" name="GGA">PE</i>
   <i type="int" name="VOSKOWN">     0</i>
   <i type="logical" name="LHFCALC"> F  </i>
   <i type="string" name="PRECFOCK"></i>
   <i type="logical" name="LSYMGRAD"> F  </i>
   <i type="logical" name="LHFONE"> F  </i>
   <i type="logical" name="LRHFCALC"> F  </i>
   <i type="logical" name="LTHOMAS"> F  </i>
   <i type="logical" name="LMODELHF"> F  </i>
   <i type="logical" name="LFOCKACE"> F  </i>
   <i name="ENCUT4O">     -1.00000000</i>
   <i type="int" name="EXXOEP">     0</i>
   <i type="int" name="FOURORBIT">     0</i>
   <i name="AEXX">      0.00000000</i>
   <i name="HFALPHA">      0.00000000</i>
   <i name="MCALPHA">      0.00000000</i>
   <i name="ALDAX">      1.00000000</i>
   <i name="AGGAX">      1.00000000</i>
   <i name="ALDAC">      1.00000000</i>
   <i name="AGGAC">      1.00000000</i>
   <i type="int" name="NKREDX">     1</i>
   <i type="int" name="NKREDY">     1</i>
   <i type="int" name="NKREDZ">     1</i>
   <i type="logical" name="SHIFTRED"> F  </i>
   <i type="logical" name="ODDONLY"> F  </i>
   <i type="logical" name="EVENONLY"> F  </i>
   <i type="int" name="LMAXFOCK">     0</i>
   <i type="int" name="NMAXFOCKAE">     0</i>
   <i type="logical" name="LFOCKAEDFT"> F  </i>
   <i name="HFSCREEN">      0.00000000</i>
   <i name="HFSCREENC">      0.00000000</i>
   <i type="int" name="NBANDSGWLOW">     0</i>
  </separator>
  <separator name="vdW DFT" >
   <i type="logical" name="LUSE_VDW"> F  </i>
   <i name="Zab_VDW">     -0.84910000</i>
   <i name="PARAM1">      0.12340000</i>
   <i name="PARAM2">      1.00000000</i>
   <i name="PARAM3">      0.00000000</i>
  </separator>
  <separator name="model GW" >
   <i type="int" name="MODEL_GW">     0</i>
   <i name="MODEL_EPS0">     11.95007673</i>
   <i name="MODEL_ALPHA">      1.00000000</i>
  </separator>
  <separator name="linear response parameters" >
   <i type="logical" name="LEPSILON"> F  </i>
   <i type="logical" name="LRPA"> F  </i>
   <i type="logical" name="LNABLA"> F  </i>
   <i type="logical" name="LVEL"> F  </i>
   <i name="CSHIFT">      0.10000000</i>
   <i name="OMEGAMAX">     -1.00000000</i>
   <i name="DEG_THRESHOLD">      0.00200000</i>
   <i name="RTIME">     -0.10000000</i>
   <i name="WPLASMAI">      0.00000000</i>
   <v name="DFIELD">      0.00000000      0.00000000      0.00000000</v>
   <v name="WPLASMA">      0.00000000      0.00000000      0.00000000      0.00000000      0.00000000      0.00000000      0.00000000      0.00000000      0.00000000</v>
  </separator>
  <separator name="orbital magnetization" >
   <i type="logical" name="NUCIND"> F  </i>
   <v name="MAGPOS">      0.00000000      0.00000000      0.00000000</v>
   <i type="logical" name="LNICSALL"> T  </i>
   <i type="logical" name="ORBITALMAG"> F  </i>
   <i type="logical" name="LMAGBLOCH"> F  </i>
   <i type="logical" name="LCHIMAG"> F  </i>
   <i type="logical" name="LGAUGE"> T  </i>
   <i type="int" name="MAGATOM">     0</i>
   <v name="MAGDIPOL">      0.00000000      0.00000000      0.00000000</v>
   <v name="AVECCONST">      0.00000000      0.00000000      0.00000000</v>
  </separator>
  <separator name="response functions" >
   <i type="logical" name="LFINITE_TEMPERATURE"> F  </i>
   <i type="logical" name="LADDER"> F  </i>
   <i type="logical" name="LRPAFORCE"> F  </i>
   <i type="logical" name="LFXC"> F  </i>
   <i type="logical" name="LHARTREE"> T  </i>
   <i type="int" name="IBSE">     0</i>
   <v type="int" name="KPOINT">    -1     0     0     0</v>
   <i type="logical" name="LTCTC"> F  </i>
   <i type="logical" name="LTCTE"> F  </i>
   <i type="logical" name="LTETE"> F  </i>
   <i type="logical" name="LTRIPLET"> F  </i>
   <i type="logical" name="LFXCEPS"> F  </i>
   <i type="logical" name="LFXHEG"> F  </i>
   <i type="int" name="NATURALO">     2</i>
   <i type="logical" name="LHOLEGF"> F  </i>
   <i type="logical" name="L2ORDER"> F  </i>
   <i type="logical" name="LDMP1"> F  </i>
   <i type="logical" name="LMP2LT"> F  </i>
   <i type="logical" name="LSMP2LT"> F  </i>
   <i type="logical" name="LGWLF"> F  </i>
   <i name="ENCUTGW">     -2.00000000</i>
   <i name="ENCUTGWSOFT">     -2.00000000</i>
   <i name="ENCUTLF">     -1.00000000</i>
   <i type="logical" name="LESF_SPLINES"> F  </i>
   <i type="int" name="LMAXMP2">    -1</i>
   <i name="SCISSOR">      0.00000000</i>
   <i type="int" name="NOMEGA">     0</i>
   <i type="int" name="NOMEGAR">     0</i>
   <i type="int" name="NBANDSGW">    -1</i>
   <i type="int" name="NBANDSO">    -1</i>
   <i type="int" name="NBANDSV">    -1</i>
   <i type="int" name="NELMGW">     1</i>
   <i type="int" name="NELMHF">     1</i>
   <i type="int" name="DIM">     3</i>
   <i type="int" name="IESPILON">     4</i>
   <i type="int" name="ANTIRES">     0</i>
   <i name="OMEGAMAX">    -30.00000000</i>
   <i name="OMEGAMIN">    -30.00000000</i>
   <i name="OMEGATL">   -200.00000000</i>
   <i type="int" name="OMEGAGRID">     0</i>
   <i name="CSHIFT">     -0.10000000</i>
   <i type="logical" name="LSELFENERGY"> F  </i>
   <i type="logical" name="LSPECTRAL"> F  </i>
   <i type="logical" name="LSPECTRALGW"> F  </i>
   <i type="logical" name="LSINGLES"> F  </i>
   <i type="logical" name="LFERMIGW"> F  </i>
   <i type="logical" name="ODDONLYGW"> F  </i>
   <i type="logical" name="EVENONLYGW"> F  </i>
   <i type="int" name="NKREDLFX">     1</i>
   <i type="int" name="NKREDLFY">     1</i>
   <i type="int" name="NKREDLFZ">     1</i>
   <i type="int" name="MAXMEM">  2800</i>
   <i type="int" name="TELESCOPE">     0</i>
   <i type="int" name="NTAUPAR">    -1</i>
   <i type="int" name="NOMEGAPAR">    -1</i>
   <i name="DAMP_NEWTON">      0.80000001</i>
   <i name="LAMBDA">      1.00000000</i>
  </separator>
  <separator name="External order field" >
   <i name="OFIELD_KAPPA">      0.00000000</i>
   <v name="OFIELD_K">      0.00000000      0.00000000      0.00000000</v>
   <i name="OFIELD_Q6_NEAR">      0.00000000</i>
   <i name="OFIELD_Q6_FAR">      0.00000000</i>
   <i name="OFIELD_A">      0.00000000</i>
  </separator>
  <separator name="optional k-points parameters" >
   <i type="int" name="KPOINTS_OPT_MODE">     1</i>
   <i type="logical" name="LKPOINTS_OPT"> F  </i>
  </separator>
 </parameters>
 <atominfo>
  <atoms>      34 </atoms>
  <types>       2 </types>
  <array name="atoms" >
   <dimension dim="1">ion</dimension>
   <field type="string">element</field>
   <field type="int">atomtype</field>
   <set>
    <rc><c>Cu</c><c>   1</c></rc>
    <rc><c>Cu</c><c>   1</c></rc>
    <rc><c>Cu</c><c>   1</c></rc>
    <rc><c>Cu</c><c>   1</c></rc>
    <rc><c>Cu</c><c>   1</c></rc>
    <rc><c>Cu</c><c>   1</c></rc>
    <rc><c>Cu</c><c>   1</c></rc>
    <rc><c>Cu</c><c>   1</c></rc>
    <rc><c>Cu</c><c>   1</c></rc>
    <rc><c>Cu</c><c>   1</c></rc>
    <rc><c>Cu</c><c>   1</c></rc>
    <rc><c>Cu</c><c>   1</c></rc>
    <rc><c>Cu</c><c>   1</c></rc>
    <rc><c>Cu</c><c>   1</c></rc>
    <rc><c>Cu</c><c>   1</c></rc>
    <rc><c>Cu</c><c>   1</c></rc>
    <rc><c>Cu</c><c>   1</c></rc>
    <rc><c>Cu</c><c>   1</c></rc>
    <rc><c>Cu</c><c>   1</c></rc>
    <rc><c>Cu</c><c>   1</c></rc>
    <rc><c>Cu</c><c>   1</c></rc>
    <rc><c>Cu</c><c>   1</c></rc>
    <rc><c>Cu</c><c>   1</c></rc>
    <rc><c>Cu</c><c>   1</c></rc>
    <rc><c>Cu</c><c>   1</c></rc>
    <rc><c>Cu</c><c>   1</c></rc>
    <rc><c>Cu</c><c>   1</c></rc>
    <rc><c>Cu</c><c>   1</c></rc>
    <rc><c>Cu</c><c>   1</c></rc>
    <rc><c>Cu</c><c>   1</c></rc>
    <rc><c>Cu</c><c>   1</c></rc>
    <rc><c>Cu</c><c>   1</c></rc>
    <rc><c>H </c><c>   2</c></rc>
    <rc><c>H </c><c>   2</c></rc>
   </set>
  </array>
  <array name="atomtypes" >
   <dimension dim="1">type</dimension>
   <field type="int">atomspertype</field>
   <field type="string">element</field>
   <field>mass</field>
   <field>valence</field>
   <field type="string">pseudopotential</field>
   <set>
    <rc><c>  32</c><c>Cu</c><c>     63.54600000</c><c>     11.00000000</c><c>  PAW_PBE Cu 22Jun2005                  </c></rc>
    <rc><c>   2</c><c>H </c><c>      1.00000000</c><c>      1.00000000</c><c>  PAW_PBE H 15Jun2001                   </c></rc>
   </set>
  </array>
 </atominfo>
 <structure name="initialpos" >
  <crystal>
   <varray name="basis" >
    <v>       5.13359547       0.00000000       0.00000000 </v>
    <v>       2.56679773       4.44582409       0.00000000 </v>
    <v>       0.00000000       0.00000000      29.67047119 </v>
   </varray>
   <i name="volume">    677.17101477 </i>
   <varray name="rec_basis" >
    <v>       0.19479525      -0.11246509       0.00000000 </v>
    <v>       0.00000000       0.22493018       0.00000000 </v>
    <v>       0.00000000       0.00000000       0.03370354 </v>
   </varray>
  </crystal>
  <varray name="positions" >
   <v>       0.00000000       0.00000000       0.00000000 </v>
   <v>       1.00000000       0.50000000       0.00000000 </v>
   <v>       0.50000000       0.00000000       0.00000000 </v>
   <v>       0.50000000       0.50000000       0.00000000 </v>
   <v>       0.16666667       0.16666667       0.07063526 </v>
   <v>       0.16666667       0.66666667       0.07063526 </v>
   <v>       0.66666667       0.16666667       0.07063526 </v>
   <v>       0.66666667       0.66666667       0.07063526 </v>
   <v>       0.33333333       0.33333333       0.13847021 </v>
   <v>       0.33333333       0.83333333       0.13847021 </v>
   <v>       0.83333333       0.33333333       0.13847021 </v>
   <v>       0.83333333       0.83333333       0.13847021 </v>
   <v>       0.00000000       0.00000000       0.20667428 </v>
   <v>       1.00000000       0.50000000       0.20667428 </v>
   <v>       0.50000000       0.00000000       0.20667428 </v>
   <v>       0.50000000       0.50000000       0.20667428 </v>
   <v>       0.16666667       0.16666667       0.27488859 </v>
   <v>       0.16666667       0.66666667       0.27488859 </v>
   <v>       0.66666667       0.16666667       0.27488859 </v>
   <v>       0.66666667       0.66666667       0.27488859 </v>
   <v>       0.33333333       0.33333333       0.34319917 </v>
   <v>       0.33333333       0.83333333       0.34319917 </v>
   <v>       0.83333333       0.33333333       0.34319917 </v>
   <v>       0.83333333       0.83333333       0.34319917 </v>
   <v>       0.00000000       0.00000000       0.41105828 </v>
   <v>       1.00000000       0.50000000       0.41105828 </v>
   <v>       0.50000000       0.00000000       0.41105828 </v>
   <v>       0.50000000       0.50000000       0.41105828 </v>
   <v>       0.16666667       0.16666667       0.48054462 </v>
   <v>       0.16666667       0.66666667       0.48054462 </v>
   <v>       0.66666667       0.16666667       0.48054462 </v>
   <v>       0.66666667       0.66666667       0.48054462 </v>
   <v>       0.66666667       0.66666667       0.53425930 </v>
   <v>       0.58276771       0.83446458       0.53425930 </v>
  </varray>
 </structure>
 <calculation>
  <scstep>
   <time name="dav">    6.26    6.32</time>
   <time name="total">    6.35    6.40</time>
   <energy>
    <i name="alphaZ">   1114.72537883 </i>
    <i name="ewald"> 216575.94938097 </i>
    <i name="hartreedc">-260602.62475453 </i>
    <i name="XCdc">   1472.30014424 </i>
    <i name="pawpsdc">  39302.70853331 </i>
    <i name="pawaedc"> -42689.07521165 </i>
    <i name="eentropy">     -0.02054666 </i>
    <i name="bandstr">   3743.10446874 </i>
    <i name="atom">  44535.60175172 </i>
    <i name="e_fr_energy">   3452.66914496 </i>
    <i name="e_wo_entrp">   3452.68969163 </i>
    <i name="e_0_energy">   3452.67599385 </i>
   </energy>
  </scstep>
  <scstep>
   <time name="dav">    6.18    6.23</time>
   <time name="total">    6.18    6.23</time>
   <energy>
    <i name="e_fr_energy">    487.99977421 </i>
    <i name="e_wo_entrp">    488.00367257 </i>
    <i name="e_0_energy">    488.00107366 </i>
   </energy>
  </scstep>
  <scstep>
   <time name="dav">    6.17    6.22</time>
   <time name="total">    6.17    6.22</time>
   <energy>
    <i name="e_fr_energy">    -93.12473003 </i>
    <i name="e_wo_entrp">    -93.12641197 </i>
    <i name="e_0_energy">    -93.12529068 </i>
   </energy>
  </scstep>
  <scstep>
   <time name="dav">    6.66    6.72</time>
   <time name="total">    6.66    6.72</time>
   <energy>
    <i name="e_fr_energy">   -138.77170463 </i>
    <i name="e_wo_entrp">   -138.79676556 </i>
    <i name="e_0_energy">   -138.78005827 </i>
   </energy>
  </scstep>
  <scstep>
   <time name="dav">    6.74    6.80</time>
   <time name="total">    7.12    7.18</time>
   <energy>
    <i name="e_fr_energy">   -139.88748261 </i>
    <i name="e_wo_entrp">   -139.91441259 </i>
    <i name="e_0_energy">   -139.89645927 </i>
   </energy>
  </scstep>
  <scstep>
   <time name="dav">    6.74    6.80</time>
   <time name="total">    7.19    7.26</time>
   <energy>
    <i name="e_fr_energy">   -114.59039249 </i>
    <i name="e_wo_entrp">   -114.54652549 </i>
    <i name="e_0_energy">   -114.57577016 </i>
   </energy>
  </scstep>
  <scstep>
   <time name="dav">    6.85    6.91</time>
   <time name="total">    7.30    7.36</time>
   <energy>
    <i name="e_fr_energy">   -103.37615875 </i>
    <i name="e_wo_entrp">   -103.36473818 </i>
    <i name="e_0_energy">   -103.37235190 </i>
   </energy>
  </scstep>
  <scstep>
   <time name="dav">    7.39    7.45</time>
   <time name="total">    7.85    7.91</time>
   <energy>
    <i name="e_fr_energy">   -108.79867169 </i>
    <i name="e_wo_entrp">   -108.85512256 </i>
    <i name="e_0_energy">   -108.81748864 </i>
   </energy>
  </scstep>
  <scstep>
   <time name="dav">    8.23    8.30</time>
   <time name="total">    8.68    8.75</time>
   <energy>
    <i name="e_fr_energy">    -99.44130937 </i>
    <i name="e_wo_entrp">    -99.40495112 </i>
    <i name="e_0_energy">    -99.42918995 </i>
   </energy>
  </scstep>
  <scstep>
   <time name="dav">    7.29    7.35</time>
   <time name="total">    7.73    7.80</time>
   <energy>
    <i name="e_fr_energy">   -100.07285613 </i>
    <i name="e_wo_entrp">   -100.04250869 </i>
    <i name="e_0_energy">   -100.06274031 </i>
   </energy>
  </scstep>
  <scstep>
   <time name="dav">    6.78    6.84</time>
   <time name="total">    7.22    7.28</time>
   <energy>
    <i name="e_fr_energy">   -101.39653722 </i>
    <i name="e_wo_entrp">   -101.39864441 </i>
    <i name="e_0_energy">   -101.39723962 </i>
   </energy>
  </scstep>
  <scstep>
   <time name="dav">    7.11    7.18</time>
   <time name="total">    7.58    7.64</time>
   <energy>
    <i name="e_fr_energy">   -103.63197505 </i>
    <i name="e_wo_entrp">   -103.56782170 </i>
    <i name="e_0_energy">   -103.61059060 </i>
   </energy>
  </scstep>
  <scstep>
   <time name="dav">    8.38    8.45</time>
   <time name="total">    8.82    8.90</time>
   <energy>
    <i name="e_fr_energy">   -102.73379170 </i>
    <i name="e_wo_entrp">   -102.72213093 </i>
    <i name="e_0_energy">   -102.72990478 </i>
   </energy>
  </scstep>
  <scstep>
   <time name="dav">    8.77    8.84</time>
   <time name="total">    9.21    9.29</time>
   <energy>
    <i name="e_fr_energy">   -104.91189879 </i>
    <i name="e_wo_entrp">   -104.93209180 </i>
    <i name="e_0_energy">   -104.91862979 </i>
   </energy>
  </scstep>
  <scstep>
   <time name="dav">    8.21    8.28</time>
   <time name="total">    8.65    8.73</time>
   <energy>
    <i name="e_fr_energy">   -109.20910406 </i>
    <i name="e_wo_entrp">   -109.22248165 </i>
    <i name="e_0_energy">   -109.21356325 </i>
   </energy>
  </scstep>
  <scstep>
   <time name="dav">    7.34    7.40</time>
   <time name="total">    7.78    7.85</time>
   <energy>
    <i name="e_fr_energy">   -111.86120847 </i>
    <i name="e_wo_entrp">   -111.84719088 </i>
    <i name="e_0_energy">   -111.85653594 </i>
   </energy>
  </scstep>
  <scstep>
   <time name="dav">    7.96    8.03</time>
   <time name="total">    8.42    8.49</time>
   <energy>
    <i name="e_fr_energy">   -113.89220886 </i>
    <i name="e_wo_entrp">   -113.87753432 </i>
    <i name="e_0_energy">   -113.88731734 </i>
   </energy>
  </scstep>
  <scstep>
   <time name="dav">    7.61    7.68</time>
   <time name="total">    8.05    8.12</time>
   <energy>
    <i name="e_fr_energy">   -115.01485734 </i>
    <i name="e_wo_entrp">   -114.99622469 </i>
    <i name="e_0_energy">   -115.00864646 </i>
   </energy>
  </scstep>
  <scstep>
   <time name="dav">    6.96    7.03</time>
   <time name="total">    7.41    7.49</time>
   <energy>
    <i name="e_fr_energy">   -115.83308240 </i>
    <i name="e_wo_entrp">   -115.82036774 </i>
    <i name="e_0_energy">   -115.82884418 </i>
   </energy>
  </scstep>
  <scstep>
   <time name="dav">    7.26    7.33</time>
   <time name="total">    7.71    7.77</time>
   <energy>
    <i name="e_fr_energy">   -116.60201545 </i>
    <i name="e_wo_entrp">   -116.58334749 </i>
    <i name="e_0_energy">   -116.59579280 </i>
   </energy>
  </scstep>
  <scstep>
   <time name="dav">    7.31    7.37</time>
   <time name="total">    7.76    7.83</time>
   <energy>
    <i name="e_fr_energy">   -117.42033593 </i>
    <i name="e_wo_entrp">   -117.40453111 </i>
    <i name="e_0_energy">   -117.41506765 </i>
   </energy>
  </scstep>
  <scstep>
   <time name="dav">    8.04    8.11</time>
   <time name="total">    8.48    8.56</time>
   <energy>
    <i name="e_fr_energy">   -117.90830592 </i>
    <i name="e_wo_entrp">   -117.88558366 </i>
    <i name="e_0_energy">   -117.90073183 </i>
   </energy>
  </scstep>
  <scstep>
   <time name="dav">    7.69    7.76</time>
   <time name="total">    8.13    8.20</time>
   <energy>
    <i name="e_fr_energy">   -118.30699891 </i>
    <i name="e_wo_entrp">   -118.28688437 </i>
    <i name="e_0_energy">   -118.30029407 </i>
   </energy>
  </scstep>
  <scstep>
   <time name="dav">    7.26    7.33</time>
   <time name="total">    7.70    7.76</time>
   <energy>
    <i name="e_fr_energy">   -119.07613812 </i>
    <i name="e_wo_entrp">   -119.06326145 </i>
    <i name="e_0_energy">   -119.07184590 </i>
   </energy>
  </scstep>
  <scstep>
   <time name="dav">    7.69    7.76</time>
   <time name="total">    8.15    8.21</time>
   <energy>
    <i name="e_fr_energy">   -120.09143663 </i>
    <i name="e_wo_entrp">   -120.07482228 </i>
    <i name="e_0_energy">   -120.08589852 </i>
   </energy>
  </scstep>
  <scstep>
   <time name="dav">    7.06    7.12</time>
   <time name="total">    7.51    7.57</time>
   <energy>
    <i name="e_fr_energy">   -120.55330004 </i>
    <i name="e_wo_entrp">   -120.53503369 </i>
    <i name="e_0_energy">   -120.54721126 </i>
   </energy>
  </scstep>
  <scstep>
   <time name="dav">    6.79    6.85</time>
   <time name="total">    7.24    7.30</time>
   <energy>
    <i name="e_fr_energy">   -120.68262017 </i>
    <i name="e_wo_entrp">   -120.66460629 </i>
    <i name="e_0_energy">   -120.67661555 </i>
   </energy>
  </scstep>
  <scstep>
   <time name="dav">    7.10    7.16</time>
   <time name="total">    7.54    7.61</time>
   <energy>
    <i name="e_fr_energy">   -120.71787071 </i>
    <i name="e_wo_entrp">   -120.70008878 </i>
    <i name="e_0_energy">   -120.71194340 </i>
   </energy>
  </scstep>
  <scstep>
   <time name="dav">    6.62    6.68</time>
   <time name="total">    7.06    7.11</time>
   <energy>
    <i name="e_fr_energy">   -120.72524398 </i>
    <i name="e_wo_entrp">   -120.70827828 </i>
    <i name="e_0_energy">   -120.71958875 </i>
   </energy>
  </scstep>
  <scstep>
   <time name="dav">    6.41    6.47</time>
   <time name="total">    6.85    6.91</time>
   <energy>
    <i name="e_fr_energy">   -120.72669740 </i>
    <i name="e_wo_entrp">   -120.71030097 </i>
    <i name="e_0_energy">   -120.72123192 </i>
   </energy>
  </scstep>
  <scstep>
   <time name="dav">    4.88    4.92</time>
   <time name="total">    5.32    5.36</time>
   <energy>
    <i name="e_fr_energy">   -120.73072402 </i>
    <i name="e_wo_entrp">   -120.71387598 </i>
    <i name="e_0_energy">   -120.72510801 </i>
   </energy>
  </scstep>
  <scstep>
   <time name="dav">    4.68    4.71</time>
   <time name="total">    4.75    4.79</time>
   <energy>
    <i name="alphaZ">   1114.72537883 </i>
    <i name="ewald"> 216575.94938097 </i>
    <i name="hartreedc">-260118.47753923 </i>
    <i name="XCdc">   1433.99780517 </i>
    <i name="pawpsdc">  42163.78785634 </i>
    <i name="pawaedc"> -45616.12979520 </i>
    <i name="eentropy">     -0.01690300 </i>
    <i name="bandstr">   -210.16878025 </i>
    <i name="atom">  44535.60175172 </i>
    <i name="e_fr_energy">   -120.73084465 </i>
    <i name="e_wo_entrp">   -120.71394165 </i>
    <i name="e_0_energy">   -120.72521032 </i>
   </energy>
  </scstep>
  <structure>
   <crystal>
    <varray name="basis" >
     <v>       5.13359547       0.00000000       0.00000000 </v>
     <v>       2.56679773       4.44582409       0.00000000 </v>
     <v>       0.00000000       0.00000000      29.67047119 </v>
    </varray>
    <i name="volume">    677.17101477 </i>
    <varray name="rec_basis" >
     <v>       0.19479525      -0.11246509       0.00000000 </v>
     <v>       0.00000000       0.22493018       0.00000000 </v>
     <v>       0.00000000       0.00000000       0.03370354 </v>
    </varray>
   </crystal>
   <varray name="positions" >
    <v>       0.00000000       0.00000000       0.00000000 </v>
    <v>       1.00000000       0.50000000       0.00000000 </v>
    <v>       0.50000000       0.00000000       0.00000000 </v>
    <v>       0.50000000       0.50000000       0.00000000 </v>
    <v>       0.16666667       0.16666667       0.07063526 </v>
    <v>       0.16666667       0.66666667       0.07063526 </v>
    <v>       0.66666667       0.16666667       0.07063526 </v>
    <v>       0.66666667       0.66666667       0.07063526 </v>
    <v>       0.33333333       0.33333333       0.13847021 </v>
    <v>       0.33333333       0.83333333       0.13847021 </v>
    <v>       0.83333333       0.33333333       0.13847021 </v>
    <v>       0.83333333       0.83333333       0.13847021 </v>
    <v>       0.00000000       0.00000000       0.20667428 </v>
    <v>       1.00000000       0.50000000       0.20667428 </v>
    <v>       0.50000000       0.00000000       0.20667428 </v>
    <v>       0.50000000       0.50000000       0.20667428 </v>
    <v>       0.16666667       0.16666667       0.27488859 </v>
    <v>       0.16666667       0.66666667       0.27488859 </v>
    <v>       0.66666667       0.16666667       0.27488859 </v>
    <v>       0.66666667       0.66666667       0.27488859 </v>
    <v>       0.33333333       0.33333333       0.34319917 </v>
    <v>       0.33333333       0.83333333       0.34319917 </v>
    <v>       0.83333333       0.33333333       0.34319917 </v>
    <v>       0.83333333       0.83333333       0.34319917 </v>
    <v>       0.00000000       0.00000000       0.41105828 </v>
    <v>       1.00000000       0.50000000       0.41105828 </v>
    <v>       0.50000000       0.00000000       0.41105828 </v>
    <v>       0.50000000       0.50000000       0.41105828 </v>
    <v>       0.16666667       0.16666667       0.48054462 </v>
    <v>       0.16666667       0.66666667       0.48054462 </v>
    <v>       0.66666667       0.16666667       0.48054462 </v>
    <v>       0.66666667       0.66666667       0.48054462 </v>
    <v>       0.66666667       0.66666667       0.53425930 </v>
    <v>       0.58276771       0.83446458       0.53425930 </v>
   </varray>
  </structure>
  <varray name="forces" >
   <v>       0.00000000       0.01167334       0.13748554 </v>
   <v>      -0.00641881      -0.00629077       0.14045618 </v>
   <v>      -0.00000000       0.00168562       0.15206656 </v>
   <v>       0.00641881      -0.00629077       0.14045618 </v>
   <v>       0.01168742       0.00399157      -0.13345391 </v>
   <v>      -0.00000000      -0.00919928      -0.14181998 </v>
   <v>      -0.01168742       0.00399157      -0.13345391 </v>
   <v>       0.00000000       0.00320523      -0.10718302 </v>
   <v>      -0.00000000       0.00130704       0.00932349 </v>
   <v>      -0.01975707       0.00914699      -0.02241741 </v>
   <v>      -0.00000000      -0.01759044      -0.01610138 </v>
   <v>       0.01975707       0.00914699      -0.02241741 </v>
   <v>      -0.00000000       0.01143725       0.03356992 </v>
   <v>       0.00541592      -0.01185464      -0.01001177 </v>
   <v>      -0.00000000       0.00831327       0.01219759 </v>
   <v>      -0.00541592      -0.01185464      -0.01001177 </v>
   <v>      -0.00058840       0.02209896      -0.01685911 </v>
   <v>       0.00000000      -0.02550712      -0.00138672 </v>
   <v>       0.00058840       0.02209896      -0.01685911 </v>
   <v>       0.00000000      -0.02366269       0.06421131 </v>
   <v>      -0.00000000       0.00241779       0.06191844 </v>
   <v>      -0.05811153       0.02214652      -0.02607215 </v>
   <v>       0.00000000      -0.04394386       0.00524097 </v>
   <v>       0.05811153       0.02214652      -0.02607215 </v>
   <v>      -0.00000000      -0.00652754       0.16679643 </v>
   <v>      -0.04256361       0.04475666       0.11313610 </v>
   <v>      -0.00000000      -0.05796552       0.02498830 </v>
   <v>       0.04256361       0.04475666       0.11313610 </v>
   <v>      -0.15338058       0.15644292      -0.27132299 </v>
   <v>      -0.00000000      -0.05775549      -0.32208989 </v>
   <v>       0.15338058       0.15644292      -0.27132299 </v>
   <v>       0.00000000      -0.03743975      -0.78261638 </v>
   <v>      -0.00000000      -2.09615005       1.11181038 </v>
   <v>      -0.00000000       1.85482578       0.04467855 </v>
  </varray>
  <varray name="stress" >
   <v>     -30.82106953       0.00000000       0.00000000 </v>
   <v>       0.00000000     -26.93225819      -1.04913897 </v>
   <v>       0.00000000      -1.04913335      -6.36298432 </v>
  </varray>
  <energy>
   <i name="e_fr_energy">   -134.78841672 </i>
   <i name="e_wo_entrp">   -134.77151372 </i>
   <i name="e_0_energy">   -134.78278239 </i>
  </energy>
  <time name="totalsc">  250.14  252.27</time>
 </calculation>
 <calculation>
  <scstep>
   <time name="dav">    6.29    6.35</time>
   <time name="total">    6.76    6.82</time>
   <energy>
    <i name="alphaZ">   1114.72537883 </i>
    <i name="ewald"> 216974.69932617 </i>
    <i name="hartreedc">-260519.44856706 </i>
    <i name="XCdc">   1433.88387895 </i>
    <i name="pawpsdc">  42164.30063707 </i>
    <i name="pawaedc"> -45616.68629597 </i>
    <i name="eentropy">     -0.02490467 </i>
    <i name="bandstr">   -207.79413459 </i>
    <i name="atom">  44535.60175172 </i>
    <i name="e_fr_energy">   -120.74292955 </i>
    <i name="e_wo_entrp">   -120.71802487 </i>
    <i name="e_0_energy">   -120.73462799 </i>
   </energy>
  </scstep>
  <scstep>
   <time name="dav">    8.56    8.65</time>
   <time name="total">    9.02    9.11</time>
   <energy>
    <i name="e_fr_energy">   -120.78056918 </i>
    <i name="e_wo_entrp">   -120.75798906 </i>
    <i name="e_0_energy">   -120.77304247 </i>
   </energy>
  </scstep>
  <scstep>
   <time name="dav">    6.94    7.00</time>
   <time name="total">    7.40    7.46</time>
   <energy>
    <i name="e_fr_energy">   -120.92216540 </i>
    <i name="e_wo_entrp">   -120.89781020 </i>
    <i name="e_0_energy">   -120.91404700 </i>
   </energy>
  </scstep>
  <scstep>
   <time name="dav">    7.16    7.22</time>
   <time name="total">    7.61    7.67</time>
   <energy>
    <i name="e_fr_energy">   -120.80258586 </i>
    <i name="e_wo_entrp">   -120.78523209 </i>
    <i name="e_0_energy">   -120.79680127 </i>
   </energy>
  </scstep>
  <scstep>
   <time name="dav">    7.90    7.96</time>
   <time name="total">    8.36    8.43</time>
   <energy>
    <i name="e_fr_energy">   -120.78646708 </i>
    <i name="e_wo_entrp">   -120.76513306 </i>
    <i name="e_0_energy">   -120.77935574 </i>
   </energy>
  </scstep>
  <scstep>
   <time name="dav">    7.84    7.91</time>
   <time name="total">    8.30    8.37</time>
   <energy>
    <i name="e_fr_energy">   -120.76828827 </i>
    <i name="e_wo_entrp">   -120.74477790 </i>
    <i name="e_0_energy">   -120.76045148 </i>
   </energy>
  </scstep>
  <scstep>
   <time name="dav">    8.52    8.59</time>
   <time name="total">    8.98    9.06</time>
   <energy>
    <i name="e_fr_energy">   -120.76795803 </i>
    <i name="e_wo_entrp">   -120.74720450 </i>
    <i name="e_0_energy">   -120.76104019 </i>
   </energy>
  </scstep>
  <scstep>
   <time name="dav">    6.72    6.78</time>
   <time name="total">    7.17    7.23</time>
   <energy>
    <i name="e_fr_energy">   -120.76835605 </i>
    <i name="e_wo_entrp">   -120.74502786 </i>
    <i name="e_0_energy">   -120.76057999 </i>
   </energy>
  </scstep>
  <scstep>
   <time name="dav">    6.57    6.63</time>
   <time name="total">    7.03    7.09</time>
   <energy>
    <i name="e_fr_energy">   -120.76865797 </i>
    <i name="e_wo_entrp">   -120.74618179 </i>
    <i name="e_0_energy">   -120.76116591 </i>
   </energy>
  </scstep>
  <scstep>
   <time name="dav">    5.92    5.97</time>
   <time name="total">    6.00    6.05</time>
   <energy>
    <i name="alphaZ">   1114.72537883 </i>
    <i name="ewald"> 216974.69932617 </i>
    <i name="hartreedc">-260507.69410513 </i>
    <i name="XCdc">   1433.67978514 </i>
    <i name="pawpsdc">  42157.26476109 </i>
    <i name="pawaedc"> -45609.73716385 </i>
    <i name="eentropy">     -0.02241051 </i>
    <i name="bandstr">   -219.28609351 </i>
    <i name="atom">  44535.60175172 </i>
    <i name="e_fr_energy">   -120.76877004 </i>
    <i name="e_wo_entrp">   -120.74635953 </i>
    <i name="e_0_energy">   -120.76129987 </i>
   </energy>
  </scstep>
  <structure>
   <crystal>
    <varray name="basis" >
     <v>       5.13359547       0.00000000       0.00000000 </v>
     <v>       2.56679773       4.44582409       0.00000000 </v>
     <v>       0.00000000       0.00000000      29.67047119 </v>
    </varray>
    <i name="volume">    677.17101477 </i>
    <varray name="rec_basis" >
     <v>       0.19479525      -0.11246509       0.00000000 </v>
     <v>       0.00000000       0.22493018       0.00000000 </v>
     <v>       0.00000000       0.00000000       0.03370354 </v>
    </varray>
   </crystal>
   <varray name="positions" >
    <v>      -0.00006334       0.00012667       0.00022354 </v>
    <v>       0.99997381       0.49993174       0.00022837 </v>
    <v>       0.49999085       0.00001829       0.00024725 </v>
    <v>       0.50009445       0.49993174       0.00022837 </v>
    <v>       0.16675484       0.16670998       0.07041827 </v>
    <v>       0.16671658       0.66656684       0.07040467 </v>
    <v>       0.66653518       0.16670998       0.07041827 </v>
    <v>       0.66664928       0.66670145       0.07046099 </v>
    <v>       0.33332624       0.33334752       0.13848537 </v>
    <v>       0.33309804       0.83343259       0.13843376 </v>
    <v>       0.83342877       0.33314246       0.13844403 </v>
    <v>       0.83346937       0.83343259       0.13843376 </v>
    <v>      -0.00006205       0.00012411       0.20672886 </v>
    <v>       0.00011521       0.49987136       0.20665800 </v>
    <v>       0.49995490       0.00009021       0.20669411 </v>
    <v>       0.50001342       0.49987136       0.20665800 </v>
    <v>       0.16654124       0.16690647       0.27486118 </v>
    <v>       0.16680506       0.66638988       0.27488633 </v>
    <v>       0.66655230       0.16690647       0.27486118 </v>
    <v>       0.66679505       0.66640990       0.27499299 </v>
    <v>       0.33332022       0.33335957       0.34329985 </v>
    <v>       0.33266708       0.83357365       0.34315678 </v>
    <v>       0.83357176       0.33285649       0.34320769 </v>
    <v>       0.83375927       0.83357365       0.34315678 </v>
    <v>       0.00003542      -0.00007083       0.41132948 </v>
    <v>       0.99935718       0.50048566       0.41124223 </v>
    <v>       0.50031450      -0.00062900       0.41109891 </v>
    <v>       0.50015716       0.50048566       0.41124223 </v>
    <v>       0.16437648       0.16836426       0.48010346 </v>
    <v>       0.16698003       0.66603995       0.48002092 </v>
    <v>       0.66725925       0.16836426       0.48010346 </v>
    <v>       0.66686980       0.66626040       0.47927212 </v>
    <v>       0.67803957       0.64392086       0.53606705 </v>
    <v>       0.57270414       0.85459172       0.53433195 </v>
   </varray>
  </structure>
  <varray name="forces" >
   <v>       0.00000000       0.00751194       0.08756799 </v>
   <v>      -0.00442961      -0.00292804       0.09217961 </v>
   <v>       0.00000000      -0.00050111       0.10241901 </v>
   <v>       0.00442961      -0.00292804       0.09217961 </v>
   <v>       0.00637374       0.00443321      -0.05870931 </v>
   <v>       0.00000000      -0.00695341      -0.06503570 </v>
   <v>      -0.00637374       0.00443321      -0.05870931 </v>
   <v>       0.00000000       0.00130500      -0.04047362 </v>
   <v>       0.00000000      -0.00277019      -0.02311547 </v>
   <v>      -0.00649414       0.00683780      -0.03723644 </v>
   <v>       0.00000000      -0.00658605      -0.03734780 </v>
   <v>       0.00649414       0.00683780      -0.03723644 </v>
   <v>       0.00000000       0.00575148       0.01913241 </v>
   <v>      -0.00418469      -0.00206307      -0.00772962 </v>
   <v>       0.00000000      -0.00612450       0.00779188 </v>
   <v>       0.00418469      -0.00206307      -0.00772962 </v>
   <v>       0.00164403       0.01319576      -0.01162774 </v>
   <v>       0.00000000      -0.02135463      -0.00613975 </v>
   <v>      -0.00164403       0.01319576      -0.01162774 </v>
   <v>       0.00000000      -0.01329678       0.03560353 </v>
   <v>       0.00000000      -0.00283806       0.05490987 </v>
   <v>      -0.03317561       0.01315966      -0.00363842 </v>
   <v>       0.00000000      -0.02127367       0.03129518 </v>
   <v>       0.03317561       0.01315966      -0.00363842 </v>
   <v>       0.00000000       0.00024578       0.06492019 </v>
   <v>       0.00358414       0.01817577      -0.03384467 </v>
   <v>       0.00000000       0.00163808      -0.05610728 </v>
   <v>      -0.00358414       0.01817577      -0.03384467 </v>
   <v>      -0.04155807       0.07030321      -0.11450049 </v>
   <v>       0.00000000      -0.03314975      -0.21824865 </v>
   <v>       0.04155807       0.07030321      -0.11450049 </v>
   <v>       0.00000000       0.09364408       0.27967230 </v>
   <v>      -0.00000000       1.08655350       0.22079883 </v>
   <v>      -0.00000000      -1.32403029      -0.10742876 </v>
  </varray>
  <varray name="stress" >
   <v>     -29.54993840       0.00000000       0.00000000 </v>
   <v>       0.00000000     -31.49398264      -0.96220257 </v>
   <v>       0.00000000      -0.96219677      -7.71882109 </v>
  </varray>
  <energy>
   <i name="e_fr_energy">   -134.84584943 </i>
   <i name="e_wo_entrp">   -134.82343892 </i>
   <i name="e_0_energy">   -134.83837926 </i>
  </energy>
  <time name="totalsc">   88.20   88.94</time>
 </calculation>
 <calculation>
  <scstep>
   <time name="dav">    6.16    6.21</time>
   <time name="total">    6.61    6.66</time>
   <energy>
    <i name="alphaZ">   1114.72537883 </i>
    <i name="ewald"> 216783.75439486 </i>
    <i name="hartreedc">-260315.61516639 </i>
    <i name="XCdc">   1433.72872358 </i>
    <i name="pawpsdc">  42157.39224105 </i>
    <i name="pawaedc"> -45609.88363673 </i>
    <i name="eentropy">     -0.01939824 </i>
    <i name="bandstr">   -220.51445062 </i>
    <i name="atom">  44535.60175172 </i>
    <i name="e_fr_energy">   -120.83016194 </i>
    <i name="e_wo_entrp">   -120.81076370 </i>
    <i name="e_0_energy">   -120.82369586 </i>
   </energy>
  </scstep>
  <scstep>
   <time name="dav">    8.90    8.98</time>
   <time name="total">    9.35    9.43</time>
   <energy>
    <i name="e_fr_energy">   -120.84617349 </i>
    <i name="e_wo_entrp">   -120.82573148 </i>
    <i name="e_0_energy">   -120.83935949 </i>
   </energy>
  </scstep>
  <scstep>
   <time name="dav">    6.77    6.83</time>
   <time name="total">    7.21    7.28</time>
   <energy>
    <i name="e_fr_energy">   -120.85511758 </i>
    <i name="e_wo_entrp">   -120.83410419 </i>
    <i name="e_0_energy">   -120.84811312 </i>
   </energy>
  </scstep>
  <scstep>
   <time name="dav">    7.21    7.27</time>
   <time name="total">    7.66    7.73</time>
   <energy>
    <i name="e_fr_energy">   -120.85314853 </i>
    <i name="e_wo_entrp">   -120.83414531 </i>
    <i name="e_0_energy">   -120.84681413 </i>
   </energy>
  </scstep>
  <scstep>
   <time name="dav">    7.49    7.55</time>
   <time name="total">    7.94    8.01</time>
   <energy>
    <i name="e_fr_energy">   -120.84510045 </i>
    <i name="e_wo_entrp">   -120.82675050 </i>
    <i name="e_0_energy">   -120.83898380 </i>
   </energy>
  </scstep>
  <scstep>
   <time name="dav">    8.22    8.29</time>
   <time name="total">    8.67    8.74</time>
   <energy>
    <i name="e_fr_energy">   -120.84416102 </i>
    <i name="e_wo_entrp">   -120.82250410 </i>
    <i name="e_0_energy">   -120.83694204 </i>
   </energy>
  </scstep>
  <scstep>
   <time name="dav">    6.62    6.67</time>
   <time name="total">    7.06    7.12</time>
   <energy>
    <i name="e_fr_energy">   -120.84390043 </i>
    <i name="e_wo_entrp">   -120.82372296 </i>
    <i name="e_0_energy">   -120.83717460 </i>
   </energy>
  </scstep>
  <scstep>
   <time name="dav">    6.43    6.48</time>
   <time name="total">    6.51    6.56</time>
   <energy>
    <i name="alphaZ">   1114.72537883 </i>
    <i name="ewald"> 216783.75439486 </i>
    <i name="hartreedc">-260318.01176779 </i>
    <i name="XCdc">   1433.81220869 </i>
    <i name="pawpsdc">  42160.30659588 </i>
    <i name="pawaedc"> -45612.80398536 </i>
    <i name="eentropy">     -0.02005712 </i>
    <i name="bandstr">   -218.20849253 </i>
    <i name="atom">  44535.60175172 </i>
    <i name="e_fr_energy">   -120.84397282 </i>
    <i name="e_wo_entrp">   -120.82391570 </i>
    <i name="e_0_energy">   -120.83728711 </i>
   </energy>
  </scstep>
  <structure>
   <crystal>
    <varray name="basis" >
     <v>       5.13359547       0.00000000       0.00000000 </v>
     <v>       2.56679773       4.44582409       0.00000000 </v>
     <v>       0.00000000       0.00000000      29.67047119 </v>
    </varray>
    <i name="volume">    677.17101477 </i>
    <varray name="rec_basis" >
     <v>       0.19479525      -0.11246509       0.00000000 </v>
     <v>       0.00000000       0.22493018       0.00000000 </v>
     <v>       0.00000000       0.00000000       0.03370354 </v>
    </varray>
   </crystal>
   <varray name="positions" >
    <v>      -0.00003310       0.00006620       0.00011682 </v>
    <v>       0.99998631       0.49996433       0.00011935 </v>
    <v>       0.49999522       0.00000956       0.00012921 </v>
    <v>       0.50004936       0.49996433       0.00011935 </v>
    <v>       0.16671275       0.16668930       0.07052187 </v>
    <v>       0.16669275       0.66661450       0.07051476 </v>
    <v>       0.66659795       0.16668930       0.07052187 </v>
    <v>       0.66665758       0.66668484       0.07054419 </v>
    <v>       0.33332963       0.33334075       0.13847814 </v>
    <v>       0.33321037       0.83338520       0.13845117 </v>
    <v>       0.83338321       0.33323358       0.13845653 </v>
    <v>       0.83340442       0.83338520       0.13845117 </v>
    <v>      -0.00003243       0.00006486       0.20670280 </v>
    <v>       0.00006021       0.49993278       0.20666577 </v>
    <v>       0.49997643       0.00004714       0.20668464 </v>
    <v>       0.50000701       0.49993278       0.20666577 </v>
    <v>       0.16660112       0.16679198       0.27487426 </v>
    <v>       0.16673899       0.66652202       0.27488741 </v>
    <v>       0.66660690       0.16679198       0.27487426 </v>
    <v>       0.66673376       0.66653248       0.27494315 </v>
    <v>       0.33332648       0.33334704       0.34325178 </v>
    <v>       0.33298516       0.83345892       0.34317702 </v>
    <v>       0.83345793       0.33308414       0.34320362 </v>
    <v>       0.83355592       0.83345892       0.34317702 </v>
    <v>       0.00001851      -0.00003702       0.41120000 </v>
    <v>       0.99966407       0.50025380       0.41115441 </v>
    <v>       0.50016435      -0.00032870       0.41107951 </v>
    <v>       0.50008213       0.50025380       0.41115441 </v>
    <v>       0.16546985       0.16755381       0.48031408 </v>
    <v>       0.16683042       0.66633915       0.48027094 </v>
    <v>       0.66697634       0.16755381       0.48031408 </v>
    <v>       0.66677282       0.66645436       0.47987963 </v>
    <v>       0.67260997       0.65478005       0.53520400 </v>
    <v>       0.57750864       0.84498272       0.53429727 </v>
   </varray>
  </structure>
  <varray name="forces" >
   <v>       0.00000000       0.00960267       0.11214541 </v>
   <v>      -0.00550166      -0.00493753       0.11587795 </v>
   <v>       0.00000000       0.00051388       0.12718691 </v>
   <v>       0.00550166      -0.00493753       0.11587795 </v>
   <v>       0.00968014       0.00416624      -0.10299974 </v>
   <v>       0.00000000      -0.00843010      -0.11079596 </v>
   <v>      -0.00968014       0.00416624      -0.10299974 </v>
   <v>       0.00000000       0.00239821      -0.07938608 </v>
   <v>       0.00000000      -0.00073923      -0.00714150 </v>
   <v>      -0.01430995       0.00823448      -0.03172628 </v>
   <v>       0.00000000      -0.01305497      -0.02827230 </v>
   <v>       0.01430995       0.00823448      -0.03172628 </v>
   <v>       0.00000000       0.00875738       0.03082335 </v>
   <v>       0.00108168      -0.00747566      -0.00700090 </v>
   <v>       0.00000000       0.00100657       0.01264608 </v>
   <v>      -0.00108168      -0.00747566      -0.00700090 </v>
   <v>       0.00085148       0.01860727      -0.01515014 </v>
   <v>       0.00000000      -0.02494145      -0.00446911 </v>
   <v>      -0.00085148       0.01860727      -0.01515014 </v>
   <v>       0.00000000      -0.01973676       0.05320896 </v>
   <v>       0.00000000      -0.00006591       0.06504059 </v>
   <v>      -0.04807669       0.01822263      -0.01191898 </v>
   <v>       0.00000000      -0.03400172       0.02238338 </v>
   <v>       0.04807669       0.01822263      -0.01191898 </v>
   <v>       0.00000000      -0.00391509       0.12509154 </v>
   <v>      -0.01975301       0.03261989       0.04616043 </v>
   <v>       0.00000000      -0.02942066      -0.01245769 </v>
   <v>       0.01975301       0.03261989       0.04616043 </v>
   <v>      -0.09912470       0.11428978      -0.19615571 </v>
   <v>       0.00000000      -0.04751614      -0.26988441 </v>
   <v>       0.09912470       0.11428978      -0.19615571 </v>
   <v>       0.00000000       0.06911273      -0.14220665 </v>
   <v>       0.00000000       0.19298231       0.63018767 </v>
   <v>       0.00000000      -0.47000592      -0.11827346 </v>
  </varray>
  <varray name="stress" >
   <v>     -30.90201788       0.00000000       0.00000000 </v>
   <v>       0.00000000     -31.03950735      -1.18569046 </v>
   <v>       0.00000000      -1.18568495      -7.93442847 </v>
  </varray>
  <energy>
   <i name="e_fr_energy">   -134.90394901 </i>
   <i name="e_wo_entrp">   -134.88389190 </i>
   <i name="e_0_energy">   -134.89726331 </i>
  </energy>
  <time name="totalsc">   72.57   73.23</time>
 </calculation>
 <calculation>
  <scstep>
   <time name="dav">    6.30    6.35</time>
   <time name="total">    6.76    6.81</time>
   <energy>
    <i name="alphaZ">   1114.72537883 </i>
    <i name="ewald"> 217011.10135717 </i>
    <i name="hartreedc">-260545.36031261 </i>
    <i name="XCdc">   1433.87288095 </i>
    <i name="pawpsdc">  42160.36015427 </i>
    <i name="pawaedc"> -45612.84761030 </i>
    <i name="eentropy">     -0.02266525 </i>
    <i name="bandstr">   -218.29749360 </i>
    <i name="atom">  44535.60175172 </i>
    <i name="e_fr_energy">   -120.86655882 </i>
    <i name="e_wo_entrp">   -120.84389357 </i>
    <i name="e_0_energy">   -120.85900374 </i>
   </energy>
  </scstep>
  <scstep>
   <time name="dav">    8.60    8.66</time>
   <time name="total">    9.04    9.11</time>
   <energy>
    <i name="e_fr_energy">   -120.87768969 </i>
    <i name="e_wo_entrp">   -120.85497645 </i>
    <i name="e_0_energy">   -120.87011861 </i>
   </energy>
  </scstep>
  <scstep>
   <time name="dav">    6.80    6.86</time>
   <time name="total">    7.24    7.30</time>
   <energy>
    <i name="e_fr_energy">   -120.87864084 </i>
    <i name="e_wo_entrp">   -120.85665707 </i>
    <i name="e_0_energy">   -120.87131292 </i>
   </energy>
  </scstep>
  <scstep>
   <time name="dav">    6.73    6.78</time>
   <time name="total">    7.18    7.23</time>
   <energy>
    <i name="e_fr_energy">   -120.87801964 </i>
    <i name="e_wo_entrp">   -120.85581229 </i>
    <i name="e_0_energy">   -120.87061719 </i>
   </energy>
  </scstep>
  <scstep>
   <time name="dav">    6.46    6.51</time>
   <time name="total">    6.90    6.95</time>
   <energy>
    <i name="e_fr_energy">   -120.87724147 </i>
    <i name="e_wo_entrp">   -120.85498799 </i>
    <i name="e_0_energy">   -120.86982365 </i>
   </energy>
  </scstep>
  <scstep>
   <time name="dav">    6.14    6.18</time>
   <time name="total">    6.22    6.27</time>
   <energy>
    <i name="alphaZ">   1114.72537883 </i>
    <i name="ewald"> 217011.10135717 </i>
    <i name="hartreedc">-260546.42517206 </i>
    <i name="XCdc">   1433.87413715 </i>
    <i name="pawpsdc">  42165.83689891 </i>
    <i name="pawaedc"> -45618.38122188 </i>
    <i name="eentropy">     -0.02214562 </i>
    <i name="bandstr">   -217.18802633 </i>
    <i name="atom">  44535.60175172 </i>
    <i name="e_fr_energy">   -120.87704210 </i>
    <i name="e_wo_entrp">   -120.85489648 </i>
    <i name="e_0_energy">   -120.86966023 </i>
   </energy>
  </scstep>
  <structure>
   <crystal>
    <varray name="basis" >
     <v>       5.13359547       0.00000000       0.00000000 </v>
     <v>       2.56679773       4.44582409       0.00000000 </v>
     <v>       0.00000000       0.00000000      29.67047119 </v>
    </varray>
    <i name="volume">    677.17101477 </i>
    <varray name="rec_basis" >
     <v>       0.19479525      -0.11246509       0.00000000 </v>
     <v>       0.00000000       0.22493018       0.00000000 </v>
     <v>       0.00000000       0.00000000       0.03370354 </v>
    </varray>
   </crystal>
   <varray name="positions" >
    <v>      -0.00008615       0.00017230       0.00030267 </v>
    <v>       0.99996133       0.49990948       0.00031114 </v>
    <v>       0.49999184       0.00001631       0.00033940 </v>
    <v>       0.50012920       0.49990948       0.00031114 </v>
    <v>       0.16678283       0.16673425       0.07035008 </v>
    <v>       0.16673879       0.66652242       0.07033023 </v>
    <v>       0.66648292       0.16673425       0.07035008 </v>
    <v>       0.66664418       0.66671164       0.07041113 </v>
    <v>       0.33333259       0.33333482       0.13846905 </v>
    <v>       0.33302630       0.83347531       0.13840109 </v>
    <v>       0.83345621       0.33308758       0.13841250 </v>
    <v>       0.83349838       0.83347531       0.13840109 </v>
    <v>      -0.00008121       0.00016243       0.20675324 </v>
    <v>       0.00011687       0.49984736       0.20665395 </v>
    <v>       0.49996727       0.00006546       0.20670510 </v>
    <v>       0.50003576       0.49984736       0.20665395 </v>
    <v>       0.16650530       0.16699706       0.27484942 </v>
    <v>       0.16687434       0.66625132       0.27488063 </v>
    <v>       0.66649764       0.16699706       0.27484942 </v>
    <v>       0.66684263       0.66631473       0.27503117 </v>
    <v>       0.33332557       0.33334885       0.34335686 </v>
    <v>       0.33242471       0.83366027       0.34315552 </v>
    <v>       0.83364711       0.33270578       0.34323734 </v>
    <v>       0.83391502       0.83366027       0.34315552 </v>
    <v>       0.00004104      -0.00008207       0.41140936 </v>
    <v>       0.99927592       0.50061942       0.41123951 </v>
    <v>       0.50033817      -0.00067634       0.41106499 </v>
    <v>       0.50010466       0.50061942       0.41123951 </v>
    <v>       0.16385205       0.16883445       0.47998430 </v>
    <v>       0.16709294       0.66581412       0.47982501 </v>
    <v>       0.66731349       0.16883445       0.47998430 </v>
    <v>       0.66645266       0.66709468       0.47955139 </v>
    <v>       0.67272731       0.65454539       0.53630001 </v>
    <v>       0.57887336       0.84225328       0.53413012 </v>
   </varray>
  </structure>
  <varray name="forces" >
   <v>       0.00000000       0.00480384       0.07014548 </v>
   <v>      -0.00386040      -0.00089646       0.07219759 </v>
   <v>       0.00000000      -0.00187546       0.07903303 </v>
   <v>       0.00386040      -0.00089646       0.07219759 </v>
   <v>       0.00361812       0.00266704      -0.03125900 </v>
   <v>       0.00000000      -0.00349195      -0.03689968 </v>
   <v>      -0.00361812       0.00266704      -0.03125900 </v>
   <v>       0.00000000       0.00041537      -0.01699742 </v>
   <v>       0.00000000      -0.00161838      -0.02688967 </v>
   <v>      -0.00556284       0.00443584      -0.03267936 </v>
   <v>       0.00000000      -0.00475041      -0.03460546 </v>
   <v>       0.00556284       0.00443584      -0.03267936 </v>
   <v>       0.00000000       0.00159426       0.00827381 </v>
   <v>      -0.00379730       0.00207553      -0.00883377 </v>
   <v>       0.00000000      -0.00914294       0.00291830 </v>
   <v>       0.00379730       0.00207553      -0.00883377 </v>
   <v>       0.00448266       0.00770658      -0.00518510 </v>
   <v>       0.00000000      -0.01474242      -0.00774000 </v>
   <v>      -0.00448266       0.00770658      -0.00518510 </v>
   <v>       0.00000000      -0.00582283       0.02548079 </v>
   <v>       0.00000000      -0.00208352       0.04169417 </v>
   <v>      -0.02383596       0.01006161       0.00004746 </v>
   <v>      -0.00000000      -0.01422709       0.02643297 </v>
   <v>       0.02383596       0.01006161       0.00004746 </v>
   <v>       0.00000000       0.00276258       0.01284361 </v>
   <v>      -0.01134958       0.02017818      -0.04147509 </v>
   <v>       0.00000000      -0.00303517      -0.04511817 </v>
   <v>       0.01134958       0.02017818      -0.04147509 </v>
   <v>      -0.03924130       0.06467272      -0.13814892 </v>
   <v>      -0.00000000      -0.01655818      -0.17311434 </v>
   <v>       0.03924130       0.06467272      -0.13814892 </v>
   <v>       0.00000000       0.07731435       0.07054516 </v>
   <v>       0.00000000       0.17504128       0.41018742 </v>
   <v>      -0.00000000      -0.40638539      -0.03551762 </v>
  </varray>
  <varray name="stress" >
   <v>     -30.47895345       0.00000000       0.00000000 </v>
   <v>       0.00000000     -30.44849990      -1.06259838 </v>
   <v>       0.00000000      -1.06259290      -7.67318551 </v>
  </varray>
  <energy>
   <i name="e_fr_energy">   -134.94040072 </i>
   <i name="e_wo_entrp">   -134.91825510 </i>
   <i name="e_0_energy">   -134.93301885 </i>
  </energy>
  <time name="totalsc">   54.91   55.36</time>
 </calculation>
 <calculation>
  <scstep>
   <time name="dav">    6.32    6.37</time>
   <time name="total">    6.77    6.82</time>
   <energy>
    <i name="alphaZ">   1114.72537883 </i>
    <i name="ewald"> 217349.84741699 </i>
    <i name="hartreedc">-260883.36655953 </i>
    <i name="XCdc">   1433.97024239 </i>
    <i name="pawpsdc">  42167.17864206 </i>
    <i name="pawaedc"> -45619.81389775 </i>
    <i name="eentropy">     -0.02579754 </i>
    <i name="bandstr">   -218.99057471 </i>
    <i name="atom">  44535.60175172 </i>
    <i name="e_fr_energy">   -120.87339754 </i>
    <i name="e_wo_entrp">   -120.84760000 </i>
    <i name="e_0_energy">   -120.86479836 </i>
   </energy>
  </scstep>
  <scstep>
   <time name="dav">    8.41    8.47</time>
   <time name="total">    8.85    8.92</time>
   <energy>
    <i name="e_fr_energy">   -120.90006490 </i>
    <i name="e_wo_entrp">   -120.87562684 </i>
    <i name="e_0_energy">   -120.89191888 </i>
   </energy>
  </scstep>
  <scstep>
   <time name="dav">    6.79    6.84</time>
   <time name="total">    7.23    7.28</time>
   <energy>
    <i name="e_fr_energy">   -120.90479913 </i>
    <i name="e_wo_entrp">   -120.87922652 </i>
    <i name="e_0_energy">   -120.89627493 </i>
   </energy>
  </scstep>
  <scstep>
   <time name="dav">    6.83    6.88</time>
   <time name="total">    7.27    7.33</time>
   <energy>
    <i name="e_fr_energy">   -120.89727228 </i>
    <i name="e_wo_entrp">   -120.87247148 </i>
    <i name="e_0_energy">   -120.88900535 </i>
   </energy>
  </scstep>
  <scstep>
   <time name="dav">    6.92    6.98</time>
   <time name="total">    7.36    7.42</time>
   <energy>
    <i name="e_fr_energy">   -120.89736349 </i>
    <i name="e_wo_entrp">   -120.87221726 </i>
    <i name="e_0_energy">   -120.88898142 </i>
   </energy>
  </scstep>
  <scstep>
   <time name="dav">    6.46    6.51</time>
   <time name="total">    6.90    6.95</time>
   <energy>
    <i name="e_fr_energy">   -120.89832795 </i>
    <i name="e_wo_entrp">   -120.87379967 </i>
    <i name="e_0_energy">   -120.89015185 </i>
   </energy>
  </scstep>
  <scstep>
   <time name="dav">    6.60    6.66</time>
   <time name="total">    7.05    7.10</time>
   <energy>
    <i name="e_fr_energy">   -120.89823704 </i>
    <i name="e_wo_entrp">   -120.87290645 </i>
    <i name="e_0_energy">   -120.88979351 </i>
   </energy>
  </scstep>
  <scstep>
   <time name="dav">    6.38    6.43</time>
   <time name="total">    6.82    6.87</time>
   <energy>
    <i name="e_fr_energy">   -120.89742123 </i>
    <i name="e_wo_entrp">   -120.87213963 </i>
    <i name="e_0_energy">   -120.88899403 </i>
   </energy>
  </scstep>
  <scstep>
   <time name="dav">    5.16    5.20</time>
   <time name="total">    5.24    5.28</time>
   <energy>
    <i name="alphaZ">   1114.72537883 </i>
    <i name="ewald"> 217349.84741699 </i>
    <i name="hartreedc">-260884.60734507 </i>
    <i name="XCdc">   1433.95962837 </i>
    <i name="pawpsdc">  42180.58284637 </i>
    <i name="pawaedc"> -45633.45052420 </i>
    <i name="eentropy">     -0.02520152 </i>
    <i name="bandstr">   -217.53140073 </i>
    <i name="atom">  44535.60175172 </i>
    <i name="e_fr_energy">   -120.89744924 </i>
    <i name="e_wo_entrp">   -120.87224772 </i>
    <i name="e_0_energy">   -120.88904873 </i>
   </energy>
  </scstep>
  <structure>
   <crystal>
    <varray name="basis" >
     <v>       5.13359547       0.00000000       0.00000000 </v>
     <v>       2.56679773       4.44582409       0.00000000 </v>
     <v>       0.00000000       0.00000000      29.67047119 </v>
    </varray>
    <i name="volume">    677.17101477 </i>
    <varray name="rec_basis" >
     <v>       0.19479525      -0.11246509       0.00000000 </v>
     <v>       0.00000000       0.22493018       0.00000000 </v>
     <v>       0.00000000       0.00000000       0.03370354 </v>
    </varray>
   </crystal>
   <varray name="positions" >
    <v>      -0.00016483       0.00032966       0.00057831 </v>
    <v>       0.99992428       0.49982813       0.00059558 </v>
    <v>       0.49998683       0.00002633       0.00065113 </v>
    <v>       0.50024760       0.49982813       0.00059558 </v>
    <v>       0.16688678       0.16680090       0.07009531 </v>
    <v>       0.16680708       0.66638585       0.07005657 </v>
    <v>       0.66631231       0.16680090       0.07009531 </v>
    <v>       0.66662431       0.66675137       0.07021379 </v>
    <v>       0.33333699       0.33332603       0.13845558 </v>
    <v>       0.33275332       0.83360896       0.13832684 </v>
    <v>       0.83356447       0.33287106       0.13834720 </v>
    <v>       0.83363773       0.83360896       0.13832684 </v>
    <v>      -0.00015356       0.00030713       0.20682805 </v>
    <v>       0.00020091       0.49972069       0.20663642 </v>
    <v>       0.49995368       0.00009264       0.20673543 </v>
    <v>       0.50007840       0.49972069       0.20663642 </v>
    <v>       0.16636320       0.16730120       0.27481257 </v>
    <v>       0.16707508       0.66584984       0.27487057 </v>
    <v>       0.66633560       0.16730120       0.27481257 </v>
    <v>       0.66700410       0.66599180       0.27516172 </v>
    <v>       0.33332423       0.33335153       0.34351270 </v>
    <v>       0.33159355       0.83395888       0.34312364 </v>
    <v>       0.83392767       0.33214465       0.34328735 </v>
    <v>       0.83444758       0.83395888       0.34312364 </v>
    <v>       0.00007445      -0.00014889       0.41171984 </v>
    <v>       0.99870027       0.50116166       0.41136573 </v>
    <v>       0.50059595      -0.00119190       0.41104346 </v>
    <v>       0.50013807       0.50116166       0.41136573 </v>
    <v>       0.16145277       0.17073373       0.47949523 </v>
    <v>       0.16748227       0.66503547       0.47916367 </v>
    <v>       0.66781351       0.17073373       0.47949523 </v>
    <v>       0.66597784       0.66804432       0.47906460 </v>
    <v>       0.67290132       0.65419737       0.53792544 </v>
    <v>       0.58089732       0.83820537       0.53388223 </v>
   </varray>
  </structure>
  <varray name="forces" >
   <v>      -0.00000000      -0.00102320       0.01489508 </v>
   <v>      -0.00228033       0.00392155       0.01629994 </v>
   <v>      -0.00000000      -0.00512374       0.01898389 </v>
   <v>       0.00228033       0.00392155       0.01629994 </v>
   <v>      -0.00405114       0.00059790       0.04960943 </v>
   <v>      -0.00000000       0.00278822       0.04543773 </v>
   <v>       0.00405114       0.00059790       0.04960943 </v>
   <v>      -0.00000000      -0.00183919       0.05175478 </v>
   <v>      -0.00000000      -0.00302172      -0.05937071 </v>
   <v>       0.00493927      -0.00017494      -0.04234596 </v>
   <v>      -0.00000000       0.00543463      -0.05074035 </v>
   <v>      -0.00493927      -0.00017494      -0.04234596 </v>
   <v>      -0.00000000      -0.00772953      -0.02054725 </v>
   <v>      -0.00959696       0.01417750      -0.01244803 </v>
   <v>      -0.00000000      -0.02226226      -0.00970544 </v>
   <v>       0.00959696       0.01417750      -0.01244803 </v>
   <v>       0.00949998      -0.00533461       0.01090624 </v>
   <v>      -0.00000000      -0.00326723      -0.00811318 </v>
   <v>      -0.00949998      -0.00533461       0.01090624 </v>
   <v>      -0.00000000       0.01106831      -0.00245665 </v>
   <v>      -0.00000000      -0.00431061       0.02654222 </v>
   <v>       0.00645149      -0.00040152       0.03070080 </v>
   <v>      -0.00000000       0.01049408       0.04876604 </v>
   <v>      -0.00645149      -0.00040152       0.03070080 </v>
   <v>      -0.00000000       0.01091462      -0.12289761 </v>
   <v>       0.00004933       0.00421628      -0.14591138 </v>
   <v>      -0.00000000       0.03316378      -0.07411786 </v>
   <v>      -0.00004933       0.00421628      -0.14591138 </v>
   <v>       0.03642075       0.00306438      -0.06548272 </v>
   <v>      -0.00000000       0.01872925      -0.07025316 </v>
   <v>      -0.03642075       0.00306438      -0.06548272 </v>
   <v>       0.00000000       0.07954453       0.29307116 </v>
   <v>      -0.00000000       0.15068695       0.16587440 </v>
   <v>       0.00000000      -0.31437995       0.07022029 </v>
  </varray>
  <varray name="stress" >
   <v>     -29.61848696       0.00000000       0.00000000 </v>
   <v>       0.00000000     -29.37706761      -0.87007936 </v>
   <v>       0.00000000      -0.87007359      -6.59646949 </v>
  </varray>
  <energy>
   <i name="e_fr_energy">   -134.96620800 </i>
   <i name="e_wo_entrp">   -134.94100649 </i>
   <i name="e_0_energy">   -134.95780750 </i>
  </energy>
  <time name="totalsc">   75.06   75.65</time>
 </calculation>
 <calculation>
  <scstep>
   <time name="dav">    6.28    6.33</time>
   <time name="total">    6.72    6.77</time>
   <energy>
    <i name="alphaZ">   1114.72537883 </i>
    <i name="ewald"> 217447.34235306 </i>
    <i name="hartreedc">-260981.77580748 </i>
    <i name="XCdc">   1433.98809350 </i>
    <i name="pawpsdc">  42180.58953850 </i>
    <i name="pawaedc"> -45633.44710116 </i>
    <i name="eentropy">     -0.02587628 </i>
    <i name="bandstr">   -217.89390307 </i>
    <i name="atom">  44535.60175172 </i>
    <i name="e_fr_energy">   -120.89557238 </i>
    <i name="e_wo_entrp">   -120.86969610 </i>
    <i name="e_0_energy">   -120.88694695 </i>
   </energy>
  </scstep>
  <scstep>
   <time name="dav">    9.80    9.87</time>
   <time name="total">   10.24   10.33</time>
   <energy>
    <i name="e_fr_energy">   -120.89842054 </i>
    <i name="e_wo_entrp">   -120.87240742 </i>
    <i name="e_0_energy">   -120.88974950 </i>
   </energy>
  </scstep>
  <scstep>
   <time name="dav">    7.60    7.66</time>
   <time name="total">    8.04    8.10</time>
   <energy>
    <i name="e_fr_energy">   -120.89789880 </i>
    <i name="e_wo_entrp">   -120.87221246 </i>
    <i name="e_0_energy">   -120.88933668 </i>
   </energy>
  </scstep>
  <scstep>
   <time name="dav">    6.00    6.05</time>
   <time name="total">    6.45    6.50</time>
   <energy>
    <i name="e_fr_energy">   -120.89764893 </i>
    <i name="e_wo_entrp">   -120.87212475 </i>
    <i name="e_0_energy">   -120.88914087 </i>
   </energy>
  </scstep>
  <scstep>
   <time name="dav">    5.03    5.07</time>
   <time name="total">    5.11    5.15</time>
   <energy>
    <i name="alphaZ">   1114.72537883 </i>
    <i name="ewald"> 217447.34235306 </i>
    <i name="hartreedc">-260981.73793752 </i>
    <i name="XCdc">   1433.98291648 </i>
    <i name="pawpsdc">  42183.11087836 </i>
    <i name="pawaedc"> -45635.97578981 </i>
    <i name="eentropy">     -0.02577252 </i>
    <i name="bandstr">   -217.92140158 </i>
    <i name="atom">  44535.60175172 </i>
    <i name="e_fr_energy">   -120.89762297 </i>
    <i name="e_wo_entrp">   -120.87185046 </i>
    <i name="e_0_energy">   -120.88903213 </i>
   </energy>
  </scstep>
  <structure>
   <crystal>
    <varray name="basis" >
     <v>       5.13359547       0.00000000       0.00000000 </v>
     <v>       2.56679773       4.44582409       0.00000000 </v>
     <v>       0.00000000       0.00000000      29.67047119 </v>
    </varray>
    <i name="volume">    677.17101477 </i>
    <varray name="rec_basis" >
     <v>       0.19479525      -0.11246509       0.00000000 </v>
     <v>       0.00000000       0.22493018       0.00000000 </v>
     <v>       0.00000000       0.00000000       0.03370354 </v>
    </varray>
   </crystal>
   <varray name="positions" >
    <v>      -0.00018740       0.00037480       0.00065736 </v>
    <v>       0.99991365       0.49980480       0.00067716 </v>
    <v>       0.49998540       0.00002921       0.00074054 </v>
    <v>       0.50028155       0.49980480       0.00067716 </v>
    <v>       0.16691659       0.16682002       0.07002224 </v>
    <v>       0.16682666       0.66634668       0.06997808 </v>
    <v>       0.66626339       0.16682002       0.07002224 </v>
    <v>       0.66661862       0.66676277       0.07015719 </v>
    <v>       0.33333825       0.33332350       0.13845171 </v>
    <v>       0.33267503       0.83364728       0.13830554 </v>
    <v>       0.83359552       0.33280896       0.13832847 </v>
    <v>       0.83367769       0.83364728       0.13830554 </v>
    <v>      -0.00017431       0.00034863       0.20684950 </v>
    <v>       0.00022501       0.49968436       0.20663140 </v>
    <v>       0.49994978       0.00010043       0.20674413 </v>
    <v>       0.50009063       0.49968436       0.20663140 </v>
    <v>       0.16632244       0.16738842       0.27480200 </v>
    <v>       0.16713265       0.66573470       0.27486768 </v>
    <v>       0.66628913       0.16738842       0.27480200 </v>
    <v>       0.66705041       0.66589918       0.27519916 </v>
    <v>       0.33332385       0.33335230       0.34355739 </v>
    <v>       0.33135517       0.83404452       0.34311450 </v>
    <v>       0.83400814       0.33198372       0.34330169 </v>
    <v>       0.83460031       0.83404452       0.34311450 </v>
    <v>       0.00008403      -0.00016806       0.41180889 </v>
    <v>       0.99853518       0.50131717       0.41140193 </v>
    <v>       0.50066988      -0.00133977       0.41103728 </v>
    <v>       0.50014765       0.50131717       0.41140193 </v>
    <v>       0.16076466       0.17127843       0.47935496 </v>
    <v>       0.16759392       0.66481216       0.47897399 </v>
    <v>       0.66795691       0.17127843       0.47935496 </v>
    <v>       0.66584166       0.66831668       0.47892499 </v>
    <v>       0.67295122       0.65409756       0.53839161 </v>
    <v>       0.58147778       0.83704445       0.53381114 </v>
   </varray>
  </structure>
  <varray name="forces" >
   <v>       0.00000000      -0.00259046       0.00809242 </v>
   <v>      -0.00213813       0.00469381       0.00966263 </v>
   <v>       0.00000000      -0.00642344       0.01147756 </v>
   <v>       0.00213813       0.00469381       0.00966263 </v>
   <v>      -0.00554546      -0.00002712       0.06395329 </v>
   <v>       0.00000000       0.00362818       0.05955330 </v>
   <v>       0.00554546      -0.00002712       0.06395329 </v>
   <v>      -0.00000000      -0.00270632       0.06482201 </v>
   <v>      -0.00000000      -0.00378673      -0.06984876 </v>
   <v>       0.00629694      -0.00094942      -0.04913026 </v>
   <v>       0.00000000       0.00645157      -0.05898462 </v>
   <v>      -0.00629694      -0.00094942      -0.04913026 </v>
   <v>       0.00000000      -0.00974507      -0.02181948 </v>
   <v>      -0.01102201       0.01644069      -0.01071404 </v>
[...]
       <r>    11.2452     9.3778   223.6504 </r>
       <r>    11.3250     9.2064   224.3842 </r>
       <r>    11.4047     9.6476   225.1533 </r>
       <r>    11.4844    11.3121   226.0550 </r>
       <r>    11.5641    12.0643   227.0167 </r>
       <r>    11.6438     9.9640   227.8109 </r>
       <r>    11.7235     6.3301   228.3155 </r>
       <r>    11.8032     4.1610   228.6472 </r>
       <r>    11.8829     4.6889   229.0210 </r>
       <r>    11.9627     6.5625   229.5441 </r>
       <r>    12.0424     7.4923   230.1413 </r>
       <r>    12.1221     6.3097   230.6443 </r>
       <r>    12.2018     3.8415   230.9505 </r>
       <r>    12.2815     1.6712   231.0837 </r>
       <r>    12.3612     0.4607   231.1204 </r>
       <r>    12.4409    -0.0075   231.1198 </r>
       <r>    12.5207     0.0193   231.1214 </r>
       <r>    12.6004     0.3942   231.1528 </r>
       <r>    12.6801     0.8960   231.2242 </r>
       <r>    12.7598     1.4098   231.3366 </r>
       <r>    12.8395     1.9791   231.4943 </r>
       <r>    12.9192     2.3938   231.6852 </r>
       <r>    12.9989     2.2064   231.8610 </r>
       <r>    13.0786     1.3975   231.9724 </r>
       <r>    13.1584     0.5124   232.0133 </r>
       <r>    13.2381     0.0161   232.0146 </r>
       <r>    13.3178    -0.0973   232.0068 </r>
       <r>    13.3975    -0.0601   232.0020 </r>
       <r>    13.4772    -0.0202   232.0004 </r>
       <r>    13.5569    -0.0044   232.0001 </r>
       <r>    13.6366    -0.0007   232.0000 </r>
       <r>    13.7163    -0.0001   232.0000 </r>
       <r>    13.7961    -0.0000   232.0000 </r>
       <r>    13.8758    -0.0000   232.0000 </r>
       <r>    13.9555    -0.0000   232.0000 </r>
       <r>    14.0352    -0.0000   232.0000 </r>
       <r>    14.1149    -0.0000   232.0000 </r>
       <r>    14.1946    -0.0000   232.0000 </r>
       <r>    14.2743    -0.0000   232.0000 </r>
       <r>    14.3540     0.0000   232.0000 </r>
       <r>    14.4338     0.0000   232.0000 </r>
       <r>    14.5135     0.0000   232.0000 </r>
       <r>    14.5932     0.0000   232.0000 </r>
       <r>    14.6729     0.0000   232.0000 </r>
       <r>    14.7526     0.0000   232.0000 </r>
       <r>    14.8323     0.0000   232.0000 </r>
       <r>    14.9120     0.0000   232.0000 </r>
       <r>    14.9917     0.0000   232.0000 </r>
      </set>
      <set comment="spin 2">
       <r>    -8.9221     0.0000     0.0000 </r>
       <r>    -8.8423     0.0000     0.0000 </r>
       <r>    -8.7626     0.0000     0.0000 </r>
       <r>    -8.6829     0.0000     0.0000 </r>
       <r>    -8.6032     0.0000     0.0000 </r>
       <r>    -8.5235    -0.0000    -0.0000 </r>
       <r>    -8.4438    -0.0000    -0.0000 </r>
       <r>    -8.3641    -0.0000    -0.0000 </r>
       <r>    -8.2844    -0.0000    -0.0000 </r>
       <r>    -8.2046    -0.0000    -0.0000 </r>
       <r>    -8.1249    -0.0000    -0.0000 </r>
       <r>    -8.0452    -0.0000    -0.0000 </r>
       <r>    -7.9655    -0.0000    -0.0000 </r>
       <r>    -7.8858    -0.0000    -0.0000 </r>
       <r>    -7.8061    -0.0000    -0.0000 </r>
       <r>    -7.7264    -0.0000    -0.0000 </r>
       <r>    -7.6467    -0.0000    -0.0000 </r>
       <r>    -7.5669    -0.0000    -0.0000 </r>
       <r>    -7.4872    -0.0003    -0.0000 </r>
       <r>    -7.4075    -0.0019    -0.0002 </r>
       <r>    -7.3278    -0.0079    -0.0008 </r>
       <r>    -7.2481    -0.0201    -0.0024 </r>
       <r>    -7.1684    -0.0193    -0.0039 </r>
       <r>    -7.0887     0.0514     0.0002 </r>
       <r>    -7.0090     0.2275     0.0183 </r>
       <r>    -6.9292     0.4074     0.0508 </r>
       <r>    -6.8495     0.4166     0.0840 </r>
       <r>    -6.7698     0.2708     0.1056 </r>
       <r>    -6.6901     0.1999     0.1215 </r>
       <r>    -6.6104     0.3115     0.1463 </r>
       <r>    -6.5307     0.4152     0.1794 </r>
       <r>    -6.4510     0.2910     0.2026 </r>
       <r>    -6.3713     0.0052     0.2030 </r>
       <r>    -6.2915    -0.0680     0.1976 </r>
       <r>    -6.2118     0.5436     0.2409 </r>
       <r>    -6.1321     1.8703     0.3900 </r>
       <r>    -6.0524     3.1093     0.6379 </r>
       <r>    -5.9727     3.5076     0.9175 </r>
       <r>    -5.8930     3.3415     1.1838 </r>
       <r>    -5.8133     3.1543     1.4353 </r>
       <r>    -5.7336     3.0807     1.6808 </r>
       <r>    -5.6538     3.2996     1.9438 </r>
       <r>    -5.5741     3.6463     2.2345 </r>
       <r>    -5.4944     3.2710     2.4952 </r>
       <r>    -5.4147     1.9111     2.6476 </r>
       <r>    -5.3350     0.4571     2.6840 </r>
       <r>    -5.2553    -0.2547     2.6637 </r>
       <r>    -5.1756    -0.0458     2.6601 </r>
       <r>    -5.0959     1.0267     2.7419 </r>
       <r>    -5.0161     2.4653     2.9384 </r>
       <r>    -4.9364     3.1172     3.1869 </r>
       <r>    -4.8567     2.3408     3.3735 </r>
       <r>    -4.7770     0.8967     3.4450 </r>
       <r>    -4.6973    -0.0268     3.4428 </r>
       <r>    -4.6176     0.1013     3.4509 </r>
       <r>    -4.5379     1.1096     3.5394 </r>
       <r>    -4.4582     2.2414     3.7180 </r>
       <r>    -4.3784     2.8034     3.9415 </r>
       <r>    -4.2987     3.2227     4.1984 </r>
       <r>    -4.2190     4.2187     4.5347 </r>
       <r>    -4.1393     5.0351     4.9360 </r>
       <r>    -4.0596     4.4140     5.2879 </r>
       <r>    -3.9799     2.8621     5.5160 </r>
       <r>    -3.9002     2.0354     5.6783 </r>
       <r>    -3.8204     2.4462     5.8733 </r>
       <r>    -3.7407     3.4237     6.1462 </r>
       <r>    -3.6610     4.5136     6.5060 </r>
       <r>    -3.5813     5.2907     6.9277 </r>
       <r>    -3.5016     5.1087     7.3349 </r>
       <r>    -3.4219     4.2798     7.6761 </r>
       <r>    -3.3422     3.8446     7.9826 </r>
       <r>    -3.2625     4.0104     8.3022 </r>
       <r>    -3.1827     4.2100     8.6378 </r>
       <r>    -3.1030     4.0638     8.9618 </r>
       <r>    -3.0233     3.5639     9.2458 </r>
       <r>    -2.9436     2.9984     9.4849 </r>
       <r>    -2.8639     3.0396     9.7272 </r>
       <r>    -2.7842     4.1480    10.0578 </r>
       <r>    -2.7045     5.7887    10.5192 </r>
       <r>    -2.6248     7.4709    11.1148 </r>
       <r>    -2.5450    10.0837    11.9186 </r>
       <r>    -2.4653    14.5010    13.0745 </r>
       <r>    -2.3856    19.8589    14.6575 </r>
       <r>    -2.3059    24.3775    16.6007 </r>
       <r>    -2.2262    26.3717    18.7028 </r>
       <r>    -2.1465    24.7813    20.6782 </r>
       <r>    -2.0668    20.8562    22.3407 </r>
       <r>    -1.9871    18.1850    23.7903 </r>
       <r>    -1.9073    19.5073    25.3453 </r>
       <r>    -1.8276    24.7015    27.3143 </r>
       <r>    -1.7479    31.5519    29.8294 </r>
       <r>    -1.6682    37.0065    32.7793 </r>
       <r>    -1.5885    39.0459    35.8917 </r>
       <r>    -1.5088    37.7995    38.9048 </r>
       <r>    -1.4291    34.4303    41.6494 </r>
       <r>    -1.3494    30.6438    44.0921 </r>
       <r>    -1.2696    28.3254    46.3500 </r>
       <r>    -1.1899    28.5565    48.6263 </r>
       <r>    -1.1102    32.1568    51.1896 </r>
       <r>    -1.0305    39.2240    54.3162 </r>
       <r>    -0.9508    46.7316    58.0413 </r>
       <r>    -0.8711    50.1805    62.0414 </r>
       <r>    -0.7914    50.1556    66.0394 </r>
       <r>    -0.7117    52.6463    70.2360 </r>
       <r>    -0.6319    59.5182    74.9803 </r>
       <r>    -0.5522    64.9354    80.1565 </r>
       <r>    -0.4725    64.3426    85.2854 </r>
       <r>    -0.3928    60.2713    90.0898 </r>
       <r>    -0.3131    57.0557    94.6379 </r>
       <r>    -0.2334    55.5736    99.0678 </r>
       <r>    -0.1537    54.7246   103.4300 </r>
       <r>    -0.0740    53.3898   107.6859 </r>
       <r>     0.0058    50.8176   111.7367 </r>
       <r>     0.0855    48.3723   115.5926 </r>
       <r>     0.1652    47.9388   119.4139 </r>
       <r>     0.2449    48.8346   123.3066 </r>
       <r>     0.3246    51.5584   127.4165 </r>
       <r>     0.4043    58.9552   132.1160 </r>
       <r>     0.4840    68.6012   137.5844 </r>
       <r>     0.5637    73.5086   143.4439 </r>
       <r>     0.6435    72.9469   149.2587 </r>
       <r>     0.7232    72.2026   155.0142 </r>
       <r>     0.8029    71.0357   160.6766 </r>
       <r>     0.8826    61.9783   165.6171 </r>
       <r>     0.9623    42.0780   168.9712 </r>
       <r>     1.0420    19.2290   170.5040 </r>
       <r>     1.1217     3.7459   170.8026 </r>
       <r>     1.2015    -1.5256   170.6810 </r>
       <r>     1.2812    -0.5724   170.6354 </r>
       <r>     1.3609     1.8287   170.7812 </r>
       <r>     1.4406     3.3597   171.0490 </r>
       <r>     1.5203     4.1023   171.3760 </r>
       <r>     1.6000     4.8470   171.7623 </r>
       <r>     1.6797     5.2635   172.1819 </r>
       <r>     1.7594     4.3064   172.5252 </r>
       <r>     1.8392     2.4090   172.7172 </r>
       <r>     1.9189     1.7138   172.8538 </r>
       <r>     1.9986     3.6332   173.1434 </r>
       <r>     2.0783     7.3129   173.7264 </r>
       <r>     2.1580    10.6102   174.5721 </r>
       <r>     2.2377    11.8159   175.5140 </r>
       <r>     2.3174    10.9336   176.3856 </r>
       <r>     2.3971     9.4893   177.1420 </r>
       <r>     2.4769     8.1794   177.7940 </r>
       <r>     2.5566     6.1956   178.2878 </r>
       <r>     2.6363     3.8356   178.5936 </r>
       <r>     2.7160     2.9542   178.8291 </r>
       <r>     2.7957     4.2286   179.1662 </r>
       <r>     2.8754     6.2541   179.6647 </r>
       <r>     2.9551     7.1350   180.2334 </r>
       <r>     3.0348     5.9671   180.7091 </r>
       <r>     3.1146     3.6311   180.9985 </r>
       <r>     3.1943     2.0909   181.1652 </r>
       <r>     3.2740     2.2757   181.3466 </r>
       <r>     3.3537     3.3701   181.6152 </r>
       <r>     3.4334     4.1544   181.9464 </r>
       <r>     3.5131     4.3364   182.2921 </r>
       <r>     3.5928     4.7122   182.6677 </r>
       <r>     3.6725     6.1199   183.1555 </r>
       <r>     3.7523     8.1268   183.8033 </r>
       <r>     3.8320     9.2248   184.5387 </r>
       <r>     3.9117     8.4411   185.2115 </r>
       <r>     3.9914     6.0560   185.6943 </r>
       <r>     4.0711     3.1978   185.9492 </r>
       <r>     4.1508     1.3923   186.0602 </r>
       <r>     4.2305     1.4284   186.1740 </r>
       <r>     4.3102     2.2875   186.3564 </r>
       <r>     4.3900     2.2784   186.5380 </r>
       <r>     4.4697     1.1855   186.6325 </r>
       <r>     4.5494     0.3340   186.6591 </r>
       <r>     4.6291     0.8899   186.7300 </r>
       <r>     4.7088     2.8092   186.9540 </r>
       <r>     4.7885     4.9455   187.3482 </r>
       <r>     4.8682     5.8265   187.8126 </r>
       <r>     4.9479     4.8006   188.1953 </r>
       <r>     5.0277     2.6416   188.4059 </r>
       <r>     5.1074     0.7790   188.4680 </r>
       <r>     5.1871     0.0022   188.4682 </r>
       <r>     5.2668     0.0944   188.4757 </r>
       <r>     5.3465     0.4296   188.5099 </r>
       <r>     5.4262     0.8445   188.5772 </r>
       <r>     5.5059     1.9477   188.7325 </r>
       <r>     5.5856     4.0728   189.0572 </r>
       <r>     5.6654     6.3504   189.5634 </r>
       <r>     5.7451     7.8125   190.1861 </r>
       <r>     5.8248     8.4646   190.8609 </r>
       <r>     5.9045     8.3975   191.5302 </r>
       <r>     5.9842     7.2341   192.1069 </r>
       <r>     6.0639     5.0119   192.5064 </r>
       <r>     6.1436     2.5933   192.7131 </r>
       <r>     6.2233     1.0115   192.7938 </r>
       <r>     6.3031     0.8748   192.8635 </r>
       <r>     6.3828     2.4513   193.0589 </r>
       <r>     6.4625     5.6552   193.5097 </r>
       <r>     6.5422     9.1503   194.2391 </r>
       <r>     6.6219    10.4402   195.0713 </r>
       <r>     6.7016     8.3083   195.7336 </r>
       <r>     6.7813     4.4152   196.0855 </r>
       <r>     6.8611     1.6457   196.2167 </r>
       <r>     6.9408     1.6474   196.3480 </r>
       <r>     7.0205     3.9957   196.6665 </r>
       <r>     7.1002     6.7873   197.2076 </r>
       <r>     7.1799     8.1423   197.8566 </r>
       <r>     7.2596     7.7464   198.4741 </r>
       <r>     7.3393     6.7791   199.0145 </r>
       <r>     7.4190     6.3510   199.5207 </r>
       <r>     7.4988     6.5392   200.0420 </r>
       <r>     7.5785     6.7475   200.5799 </r>
       <r>     7.6582     6.3104   201.0829 </r>
       <r>     7.7379     5.0743   201.4874 </r>
       <r>     7.8176     3.9792   201.8045 </r>
       <r>     7.8973     4.3014   202.1474 </r>
       <r>     7.9770     6.0339   202.6284 </r>
       <r>     8.0567     7.9364   203.2610 </r>
       <r>     8.1365     8.8762   203.9686 </r>
       <r>     8.2162     8.3904   204.6374 </r>
       <r>     8.2959     6.7253   205.1735 </r>
       <r>     8.3756     5.0135   205.5731 </r>
       <r>     8.4553     4.4746   205.9298 </r>
       <r>     8.5350     5.0341   206.3311 </r>
       <r>     8.6147     5.7880   206.7925 </r>
       <r>     8.6944     6.3841   207.3014 </r>
       <r>     8.7742     6.7242   207.8374 </r>
       <r>     8.8539     6.3728   208.3454 </r>
       <r>     8.9336     5.3059   208.7683 </r>
       <r>     9.0133     4.2899   209.1103 </r>
       <r>     9.0930     4.0795   209.4355 </r>
       <r>     9.1727     4.6989   209.8100 </r>
       <r>     9.2524     5.4130   210.2415 </r>
       <r>     9.3321     5.3752   210.6700 </r>
       <r>     9.4119     4.7026   211.0448 </r>
       <r>     9.4916     4.6905   211.4187 </r>
       <r>     9.5713     6.4277   211.9311 </r>
       <r>     9.6510     9.1739   212.6624 </r>
       <r>     9.7307    10.6047   213.5077 </r>
       <r>     9.8104     9.4193   214.2585 </r>
       <r>     9.8901     6.9746   214.8145 </r>
       <r>     9.9698     5.2714   215.2347 </r>
       <r>    10.0496     4.9011   215.6254 </r>
       <r>    10.1293     5.5630   216.0688 </r>
       <r>    10.2090     6.4920   216.5863 </r>
       <r>    10.2887     6.6331   217.1150 </r>
       <r>    10.3684     5.7922   217.5768 </r>
       <r>    10.4481     4.8009   217.9594 </r>
       <r>    10.5278     4.5059   218.3186 </r>
       <r>    10.6075     5.2575   218.7377 </r>
       <r>    10.6873     6.7027   219.2720 </r>
       <r>    10.7670     7.9014   219.9019 </r>
       <r>    10.8467     8.0729   220.5454 </r>
       <r>    10.9264     7.2858   221.1261 </r>
       <r>    11.0061     6.5942   221.6518 </r>
       <r>    11.0858     7.1259   222.2198 </r>
       <r>    11.1655     8.5677   222.9028 </r>
       <r>    11.2452     9.3778   223.6503 </r>
       <r>    11.3250     9.2062   224.3841 </r>
       <r>    11.4047     9.6473   225.1531 </r>
       <r>    11.4844    11.3120   226.0549 </r>
       <r>    11.5641    12.0647   227.0166 </r>
       <r>    11.6438     9.9646   227.8109 </r>
       <r>    11.7235     6.3303   228.3155 </r>
       <r>    11.8032     4.1608   228.6471 </r>
       <r>    11.8829     4.6886   229.0209 </r>
       <r>    11.9627     6.5624   229.5440 </r>
       <r>    12.0424     7.4923   230.1412 </r>
       <r>    12.1221     6.3100   230.6442 </r>
       <r>    12.2018     3.8418   230.9504 </r>
       <r>    12.2815     1.6714   231.0837 </r>
       <r>    12.3612     0.4609   231.1204 </r>
       <r>    12.4409    -0.0074   231.1198 </r>
       <r>    12.5207     0.0193   231.1214 </r>
       <r>    12.6004     0.3942   231.1528 </r>
       <r>    12.6801     0.8959   231.2242 </r>
       <r>    12.7598     1.4097   231.3366 </r>
       <r>    12.8395     1.9791   231.4943 </r>
       <r>    12.9192     2.3939   231.6852 </r>
       <r>    12.9989     2.2065   231.8610 </r>
       <r>    13.0786     1.3975   231.9724 </r>
       <r>    13.1584     0.5123   232.0133 </r>
       <r>    13.2381     0.0160   232.0146 </r>
       <r>    13.3178    -0.0973   232.0068 </r>
       <r>    13.3975    -0.0601   232.0020 </r>
       <r>    13.4772    -0.0202   232.0004 </r>
       <r>    13.5569    -0.0044   232.0001 </r>
       <r>    13.6366    -0.0007   232.0000 </r>
       <r>    13.7163    -0.0001   232.0000 </r>
       <r>    13.7961    -0.0000   232.0000 </r>
       <r>    13.8758    -0.0000   232.0000 </r>
       <r>    13.9555    -0.0000   232.0000 </r>
       <r>    14.0352    -0.0000   232.0000 </r>
       <r>    14.1149    -0.0000   232.0000 </r>
       <r>    14.1946    -0.0000   232.0000 </r>
       <r>    14.2743    -0.0000   232.0000 </r>
       <r>    14.3540     0.0000   232.0000 </r>
       <r>    14.4338     0.0000   232.0000 </r>
       <r>    14.5135     0.0000   232.0000 </r>
       <r>    14.5932     0.0000   232.0000 </r>
       <r>    14.6729     0.0000   232.0000 </r>
       <r>    14.7526     0.0000   232.0000 </r>
       <r>    14.8323     0.0000   232.0000 </r>
       <r>    14.9120     0.0000   232.0000 </r>
       <r>    14.9917     0.0000   232.0000 </r>
      </set>
     </set>
    </array>
   </total>
  </dos>
 </calculation>
 <structure name="finalpos" >
  <crystal>
   <varray name="basis" >
    <v>       5.13359547       0.00000000       0.00000000 </v>
    <v>       2.56679773       4.44582409       0.00000000 </v>
    <v>       0.00000000       0.00000000      29.67047119 </v>
   </varray>
   <i name="volume">    677.17101477 </i>
   <varray name="rec_basis" >
    <v>       0.19479525      -0.11246509       0.00000000 </v>
    <v>       0.00000000       0.22493018       0.00000000 </v>
    <v>       0.00000000       0.00000000       0.03370354 </v>
   </varray>
  </crystal>
  <varray name="positions" >
   <v>      -0.00076946       0.00153892       0.00045436 </v>
   <v>       0.99902753       0.50146862       0.00036538 </v>
   <v>       0.49931366       0.00137269       0.00036629 </v>
   <v>       0.49950385       0.50146862       0.00036538 </v>
   <v>       0.16580037       0.16838557       0.06967030 </v>
   <v>       0.16575891       0.66848218       0.06967363 </v>
   <v>       0.66581407       0.16838557       0.06967030 </v>
   <v>       0.66581476       0.66837049       0.06990406 </v>
   <v>       0.33202269       0.33595463       0.13755167 </v>
   <v>       0.33152875       0.83614321       0.13766211 </v>
   <v>       0.83239940       0.33520121       0.13770068 </v>
   <v>       0.83232804       0.83614321       0.13766211 </v>
   <v>      -0.00201408       0.00402815       0.20615917 </v>
   <v>      -0.00166459       0.50373055       0.20582389 </v>
   <v>       0.49788038       0.00423924       0.20585427 </v>
   <v>       0.49793404       0.50373055       0.20582389 </v>
   <v>       0.16485037       0.17156125       0.27417437 </v>
   <v>       0.16490663       0.67018673       0.27419533 </v>
   <v>       0.66358839       0.17156125       0.27417437 </v>
   <v>       0.66460584       0.67078832       0.27427113 </v>
   <v>       0.33048972       0.33902056       0.34292741 </v>
   <v>       0.32927872       0.84002267       0.34235216 </v>
   <v>       0.83072773       0.33854455       0.34236121 </v>
   <v>       0.83069861       0.84002267       0.34235216 </v>
   <v>      -0.00372858       0.00745717       0.40985868 </v>
   <v>       0.99301975       0.50868332       0.41030391 </v>
   <v>       0.49822192       0.00355616       0.41036392 </v>
   <v>       0.49829693       0.50868332       0.41030391 </v>
   <v>       0.16301442       0.17293309       0.47802704 </v>
   <v>       0.16338043       0.67323914       0.47759610 </v>
   <v>       0.66405249       0.17293309       0.47802704 </v>
   <v>       0.66366871       0.67266259       0.48162738 </v>
   <v>       0.70227916       0.59544167       0.54696780 </v>
   <v>       0.61407152       0.77185695       0.54580882 </v>
  </varray>
 </structure>
</modeling>
