unknown system                          
           1
     5.133595    0.000000    0.000000
     2.566798    4.445824    0.000000
     0.000000    0.000000   29.670471
   Cu   H 
    32     2
Direct configuration=     1
   0.00000000  0.00000000  0.00000000
   1.00000000  0.50000000  0.00000000
   0.50000000  0.00000000  0.00000000
   0.50000000  0.50000000  0.00000000
   0.16666667  0.16666667  0.07063526
   0.16666667  0.66666667  0.07063526
   0.66666667  0.16666667  0.07063526
   0.66666667  0.66666667  0.07063526
   0.33333333  0.33333333  0.13847021
   0.33333333  0.83333333  0.13847021
   0.83333333  0.33333333  0.13847021
   0.83333333  0.83333333  0.13847021
   0.00000000  0.00000000  0.20667428
   1.00000000  0.50000000  0.20667428
   0.50000000  0.00000000  0.20667428
   0.50000000  0.50000000  0.20667428
   0.16666667  0.16666667  0.27488859
   0.16666667  0.66666667  0.27488859
   0.66666667  0.16666667  0.27488859
   0.66666667  0.66666667  0.27488859
   0.33333333  0.33333333  0.34319917
   0.33333333  0.83333333  0.34319917
   0.83333333  0.33333333  0.34319917
   0.83333333  0.83333333  0.34319917
   0.00000000  0.00000000  0.41105828
   1.00000000  0.50000000  0.41105828
   0.50000000  0.00000000  0.41105828
   0.50000000  0.50000000  0.41105828
   0.16666667  0.16666667  0.48054462
   0.16666667  0.66666667  0.48054462
   0.66666667  0.16666667  0.48054462
   0.66666667  0.66666667  0.48054462
   0.66666667  0.66666667  0.53425930
   0.58276771  0.83446458  0.53425930
Direct configuration=     2
  -0.00006334  0.00012667  0.00022354
   0.99997381  0.49993174  0.00022837
   0.49999085  0.00001829  0.00024725
   0.50009445  0.49993174  0.00022837
   0.16675484  0.16670998  0.07041827
   0.16671658  0.66656684  0.07040467
   0.66653518  0.16670998  0.07041827
   0.66664928  0.66670145  0.07046099
   0.33332624  0.33334752  0.13848537
   0.33309804  0.83343259  0.13843376
   0.83342877  0.33314246  0.13844403
   0.83346937  0.83343259  0.13843376
  -0.00006205  0.00012411  0.20672886
   0.00011521  0.49987136  0.20665800
   0.49995490  0.00009021  0.20669411
   0.50001342  0.49987136  0.20665800
   0.16654124  0.16690647  0.27486118
   0.16680506  0.66638988  0.27488633
   0.66655230  0.16690647  0.27486118
   0.66679505  0.66640990  0.27499299
   0.33332022  0.33335957  0.34329985
   0.33266708  0.83357365  0.34315678
   0.83357176  0.33285649  0.34320769
   0.83375927  0.83357365  0.34315678
   0.00003542 -0.00007083  0.41132948
   0.99935718  0.50048566  0.41124223
   0.50031450 -0.00062900  0.41109891
   0.50015716  0.50048566  0.41124223
   0.16437648  0.16836426  0.48010346
   0.16698003  0.66603995  0.48002092
   0.66725925  0.16836426  0.48010346
   0.66686980  0.66626040  0.47927212
   0.67803957  0.64392086  0.53606705
   0.57270414  0.85459172  0.53433195
Direct configuration=     3
  -0.00003310  0.00006620  0.00011682
   0.99998631  0.49996433  0.00011935
   0.49999522  0.00000956  0.00012921
   0.50004936  0.49996433  0.00011935
   0.16671275  0.16668930  0.07052187
   0.16669275  0.66661450  0.07051476
   0.66659795  0.16668930  0.07052187
   0.66665758  0.66668484  0.07054419
   0.33332963  0.33334075  0.13847814
   0.33321037  0.83338520  0.13845117
   0.83338321  0.33323358  0.13845653
   0.83340442  0.83338520  0.13845117
  -0.00003243  0.00006486  0.20670280
   0.00006021  0.49993278  0.20666577
   0.49997643  0.00004714  0.20668464
   0.50000701  0.49993278  0.20666577
   0.16660112  0.16679198  0.27487426
   0.16673899  0.66652202  0.27488741
   0.66660690  0.16679198  0.27487426
   0.66673376  0.66653248  0.27494315
   0.33332648  0.33334704  0.34325178
   0.33298516  0.83345892  0.34317702
   0.83345793  0.33308414  0.34320362
   0.83355592  0.83345892  0.34317702
   0.00001851 -0.00003702  0.41120000
   0.99966407  0.50025380  0.41115441
   0.50016435 -0.00032870  0.41107951
   0.50008213  0.50025380  0.41115441
   0.16546985  0.16755381  0.48031408
   0.16683042  0.66633915  0.48027094
   0.66697634  0.16755381  0.48031408
   0.66677282  0.66645436  0.47987963
   0.67260997  0.65478005  0.53520400
   0.57750864  0.84498272  0.53429727
Direct configuration=     4
  -0.00008615  0.00017230  0.00030267
   0.99996133  0.49990948  0.00031114
   0.49999184  0.00001631  0.00033940
   0.50012920  0.49990948  0.00031114
   0.16678283  0.16673425  0.07035008
   0.16673879  0.66652242  0.07033023
   0.66648292  0.16673425  0.07035008
   0.66664418  0.66671164  0.07041113
   0.33333259  0.33333482  0.13846905
   0.33302630  0.83347531  0.13840109
   0.83345621  0.33308758  0.13841250
   0.83349838  0.83347531  0.13840109
  -0.00008121  0.00016243  0.20675324
   0.00011687  0.49984736  0.20665395
   0.49996727  0.00006546  0.20670510
   0.50003576  0.49984736  0.20665395
   0.16650530  0.16699706  0.27484942
   0.16687434  0.66625132  0.27488063
   0.66649764  0.16699706  0.27484942
   0.66684263  0.66631473  0.27503117
   0.33332557  0.33334885  0.34335686
   0.33242471  0.83366027  0.34315552
   0.83364711  0.33270578  0.34323734
   0.83391502  0.83366027  0.34315552
   0.00004104 -0.00008207  0.41140936
   0.99927592  0.50061942  0.41123951
   0.50033817 -0.00067634  0.41106499
   0.50010466  0.50061942  0.41123951
   0.16385205  0.16883445  0.47998430
   0.16709294  0.66581412  0.47982501
   0.66731349  0.16883445  0.47998430
   0.66645266  0.66709468  0.47955139
   0.67272731  0.65454539  0.53630001
   0.57887336  0.84225328  0.53413012
Direct configuration=     5
  -0.00016483  0.00032966  0.00057831
   0.99992428  0.49982813  0.00059558
   0.49998683  0.00002633  0.00065113
   0.50024760  0.49982813  0.00059558
   0.16688678  0.16680090  0.07009531
   0.16680708  0.66638585  0.07005657
   0.66631231  0.16680090  0.07009531
   0.66662431  0.66675137  0.07021379
   0.33333699  0.33332603  0.13845558
   0.33275332  0.83360896  0.13832684
   0.83356447  0.33287106  0.13834720
   0.83363773  0.83360896  0.13832684
  -0.00015356  0.00030713  0.20682805
   0.00020091  0.49972069  0.20663642
   0.49995368  0.00009264  0.20673543
   0.50007840  0.49972069  0.20663642
   0.16636320  0.16730120  0.27481257
   0.16707508  0.66584984  0.27487057
   0.66633560  0.16730120  0.27481257
   0.66700410  0.66599180  0.27516172
   0.33332423  0.33335153  0.34351270
   0.33159355  0.83395888  0.34312364
   0.83392767  0.33214465  0.34328735
   0.83444758  0.83395888  0.34312364
   0.00007445 -0.00014889  0.41171984
   0.99870027  0.50116166  0.41136573
   0.50059595 -0.00119190  0.41104346
   0.50013807  0.50116166  0.41136573
   0.16145277  0.17073373  0.47949523
   0.16748227  0.66503547  0.47916367
   0.66781351  0.17073373  0.47949523
   0.66597784  0.66804432  0.47906460
   0.67290132  0.65419737  0.53792544
   0.58089732  0.83820537  0.53388223
Direct configuration=     6
  -0.00018740  0.00037480  0.00065736
   0.99991365  0.49980480  0.00067716
   0.49998540  0.00002921  0.00074054
   0.50028155  0.49980480  0.00067716
   0.16691659  0.16682002  0.07002224
   0.16682666  0.66634668  0.06997808
   0.66626339  0.16682002  0.07002224
   0.66661862  0.66676277  0.07015719
   0.33333825  0.33332350  0.13845171
   0.33267503  0.83364728  0.13830554
   0.83359552  0.33280896  0.13832847
   0.83367769  0.83364728  0.13830554
  -0.00017431  0.00034863  0.20684950
   0.00022501  0.49968436  0.20663140
   0.49994978  0.00010043  0.20674413
   0.50009063  0.49968436  0.20663140
   0.16632244  0.16738842  0.27480200
   0.16713265  0.66573470  0.27486768
   0.66628913  0.16738842  0.27480200
   0.66705041  0.66589918  0.27519916
   0.33332385  0.33335230  0.34355739
   0.33135517  0.83404452  0.34311450
   0.83400814  0.33198372  0.34330169
   0.83460031  0.83404452  0.34311450
   0.00008403 -0.00016806  0.41180889
   0.99853518  0.50131717  0.41140193
   0.50066988 -0.00133977  0.41103728
   0.50014765  0.50131717  0.41140193
   0.16076466  0.17127843  0.47935496
   0.16759392  0.66481216  0.47897399
   0.66795691  0.17127843  0.47935496
   0.66584166  0.66831668  0.47892499
   0.67295122  0.65409756  0.53839161
   0.58147778  0.83704445  0.53381114
Direct configuration=     7
  -0.00018784  0.00037568  0.00073689
   0.99984823  0.49984983  0.00076190
   0.50002781 -0.00005561  0.00083521
   0.50030194  0.49984983  0.00076190
   0.16687544  0.16683491  0.07009388
   0.16681769  0.66636462  0.07003645
   0.66628965  0.16683491  0.07009388
   0.66663242  0.66673516  0.07024374
   0.33336493  0.33327014  0.13830670
   0.33269293  0.83366500  0.13818871
   0.83357656  0.33284689  0.13819367
   0.83364207  0.83366500  0.13818871
  -0.00012480  0.00024959  0.20682229
   0.00000332  0.49987832  0.20660561
   0.50012430 -0.00024861  0.20673377
   0.50011836  0.49987832  0.20660561
   0.16647016  0.16736195  0.27482879
   0.16720058  0.66559884  0.27485426
   0.66616789  0.16736195  0.27482879
   0.66699924  0.66600153  0.27522579
   0.33335786  0.33328428  0.34364482
   0.33129387  0.83408877  0.34317941
   0.83397993  0.33204015  0.34342200
   0.83461736  0.83408877  0.34317941
   0.00000439 -0.00000877  0.41156336
   0.99841071  0.50146407  0.41107429
   0.50045437 -0.00090875  0.41085714
   0.50012522  0.50146407  0.41107429
   0.16090549  0.17157993  0.47914111
   0.16750375  0.66499250  0.47873164
   0.66751459  0.17157993  0.47914111
   0.66514835  0.66970331  0.47949526
   0.67195436  0.65609128  0.53898697
   0.58398995  0.83202010  0.53396287
Direct configuration=     8
  -0.00018786  0.00037571  0.00073928
   0.99984626  0.49985119  0.00076445
   0.50002908 -0.00005816  0.00083806
   0.50030255  0.49985119  0.00076445
   0.16687420  0.16683536  0.07009603
   0.16681742  0.66636516  0.07003821
   0.66629044  0.16683536  0.07009603
   0.66663283  0.66673433  0.07024634
   0.33336573  0.33326853  0.13830234
   0.33269347  0.83366553  0.13818519
   0.83357599  0.33284803  0.13818962
   0.83364100  0.83366553  0.13818519
  -0.00012331  0.00024662  0.20682147
  -0.00000335  0.49988416  0.20660484
   0.50012955 -0.00025910  0.20673345
   0.50011919  0.49988416  0.20660484
   0.16647460  0.16736116  0.27482960
   0.16720262  0.66559476  0.27485386
   0.66616424  0.16736116  0.27482960
   0.66699770  0.66600461  0.27522659
   0.33335888  0.33328224  0.34364745
   0.33129203  0.83409011  0.34318137
   0.83397908  0.33204184  0.34342562
   0.83461787  0.83409011  0.34318137
   0.00000199 -0.00000398  0.41155598
   0.99840697  0.50146848  0.41106444
   0.50044789 -0.00089578  0.41085173
   0.50012455  0.50146848  0.41106444
   0.16090972  0.17158899  0.47913468
   0.16750104  0.66499792  0.47872435
   0.66750129  0.17158899  0.47913468
   0.66512750  0.66974501  0.47951241
   0.67192438  0.65615123  0.53900487
   0.58406550  0.83186901  0.53396743
Direct configuration=     9
  -0.00017882  0.00035764  0.00078791
   0.99979132  0.49990656  0.00081595
   0.50006732 -0.00013465  0.00089549
   0.50030212  0.49990656  0.00081595
   0.16682246  0.16683566  0.07018070
   0.16679505  0.66640990  0.07011634
   0.66634188  0.16683566  0.07018070
   0.66664360  0.66671281  0.07033773
   0.33338585  0.33322831  0.13819902
   0.33272593  0.83367001  0.13810927
   0.83355002  0.33289996  0.13810114
   0.83360406  0.83367001  0.13810927
  -0.00008845  0.00017689  0.20677390
  -0.00016574  0.50002560  0.20656905
   0.50025555 -0.00051110  0.20670359
   0.50014014  0.50002560  0.20656905
   0.16658811  0.16730722  0.27486483
   0.16723085  0.66553830  0.27485078
   0.66610467  0.16730722  0.27486483
   0.66694251  0.66611498  0.27524440
   0.33339321  0.33321358  0.34365433
   0.33135062  0.83411781  0.34320249
   0.83391589  0.33216822  0.34347082
   0.83453158  0.83411781  0.34320249
  -0.00009665  0.00019329  0.41128504
   0.99808490  0.50170954  0.41079804
   0.50030245 -0.00060491  0.41072763
   0.50020556  0.50170954  0.41079804
   0.16121072  0.17174085  0.47894112
   0.16730967  0.66538067  0.47853222
   0.66704842  0.17174085  0.47894112
   0.66466977  0.67066046  0.47996903
   0.67300338  0.65399325  0.53962052
   0.58431309  0.83137381  0.53416748
Direct configuration=    10
  -0.00016601  0.00033203  0.00085682
   0.99971345  0.49998504  0.00088894
   0.50012152 -0.00024305  0.00097689
   0.50030150  0.49998504  0.00088894
   0.16674914  0.16683609  0.07030070
   0.16676335  0.66647330  0.07022706
   0.66641477  0.16683609  0.07030070
   0.66665885  0.66668230  0.07046724
   0.33341435  0.33317130  0.13805261
   0.33277193  0.83367636  0.13800167
   0.83351322  0.33297356  0.13797574
   0.83355171  0.83367636  0.13800167
  -0.00003904  0.00007808  0.20670649
  -0.00039588  0.50022605  0.20651834
   0.50043411 -0.00086822  0.20666126
   0.50016984  0.50022605  0.20651834
   0.16674897  0.16723078  0.27491475
   0.16727085  0.66545829  0.27484641
   0.66602026  0.16723078  0.27491475
   0.66686430  0.66627139  0.27526964
   0.33344186  0.33311627  0.34366408
   0.33143365  0.83415707  0.34323242
   0.83382634  0.33234732  0.34353487
   0.83440928  0.83415707  0.34323242
  -0.00023644  0.00047288  0.41090108
   0.99762846  0.50205116  0.41042050
   0.50009634 -0.00019268  0.41055176
   0.50032037  0.50205116  0.41042050
   0.16163730  0.17195606  0.47866680
   0.16703845  0.66592310  0.47825994
   0.66640663  0.17195606  0.47866680
   0.66402109  0.67195782  0.48061615
   0.67453251  0.65093497  0.54049300
   0.58466399  0.83067202  0.53445098
Direct configuration=    11
  -0.00016900  0.00033800  0.00084074
   0.99973162  0.49996674  0.00087191
   0.50010888 -0.00021776  0.00095790
   0.50030165  0.49996674  0.00087191
   0.16676624  0.16683599  0.07027271
   0.16677075  0.66645851  0.07020123
   0.66639777  0.16683599  0.07027271
   0.66665529  0.66668942  0.07043703
   0.33340770  0.33318460  0.13808676
   0.33276120  0.83367488  0.13802677
   0.83352180  0.33295639  0.13800499
   0.83356392  0.83367488  0.13802677
  -0.00005057  0.00010113  0.20672222
  -0.00034220  0.50017929  0.20653017
   0.50039246 -0.00078491  0.20667113
   0.50016291  0.50017929  0.20653017
   0.16671144  0.16724861  0.27490310
   0.16726152  0.66547696  0.27484743
   0.66603995  0.16724861  0.27490310
   0.66688255  0.66623490  0.27526375
   0.33343051  0.33313897  0.34366181
   0.33141428  0.83414791  0.34322544
   0.83384723  0.33230554  0.34351993
   0.83443781  0.83414791  0.34322544
  -0.00020383  0.00040766  0.41099065
   0.99773494  0.50197147  0.41050857
   0.50014442 -0.00028884  0.41059278
   0.50029359  0.50197147  0.41050857
   0.16153780  0.17190586  0.47873079
   0.16710172  0.66579657  0.47832346
   0.66655634  0.17190586  0.47873079
   0.66417241  0.67165518  0.48046520
   0.67417581  0.65164838  0.54028947
   0.58458214  0.83083573  0.53438485
Direct configuration=    12
  -0.00016105  0.00032209  0.00088311
   0.99972265  0.49999083  0.00091569
   0.50012039 -0.00024078  0.00100440
   0.50028652  0.49999083  0.00091569
   0.16674305  0.16682329  0.07028281
   0.16675434  0.66649131  0.07022064
   0.66643366  0.16682329  0.07028281
   0.66665125  0.66669749  0.07044983
   0.33341351  0.33317298  0.13811730
   0.33274643  0.83368123  0.13805447
   0.83352184  0.33295633  0.13803988
   0.83357234  0.83368123  0.13805447
  -0.00007975  0.00015950  0.20667345
  -0.00027512  0.50009396  0.20648567
   0.50035424 -0.00070848  0.20662185
   0.50018116  0.50009396  0.20648567
   0.16666083  0.16722840  0.27490615
   0.16725002  0.66549995  0.27484339
   0.66611077  0.16722840  0.27490615
   0.66688920  0.66622159  0.27526541
   0.33345080  0.33309840  0.34352924
   0.33150653  0.83422286  0.34311373
   0.83380459  0.33239082  0.34336517
   0.83427061  0.83422286  0.34311373
  -0.00030955  0.00061911  0.41085575
   0.99704796  0.50246319  0.41051644
   0.50023417 -0.00046834  0.41062616
   0.50048885  0.50246319  0.41051644
   0.16155026  0.17208376  0.47855225
   0.16681320  0.66637361  0.47814001
   0.66636597  0.17208376  0.47855225
   0.66420538  0.67158924  0.48066103
   0.67462728  0.65074543  0.54066818
   0.58514868  0.82970265  0.53478103
Direct configuration=    13
  -0.00013719  0.00027437  0.00101020
   0.99969576  0.50006310  0.00104703
   0.50015493 -0.00030986  0.00114391
   0.50024114  0.50006310  0.00104703
   0.16667346  0.16678518  0.07031311
   0.16670514  0.66658972  0.07027886
   0.66654136  0.16678518  0.07031311
   0.66663915  0.66672171  0.07048822
   0.33343094  0.33313812  0.13820892
   0.33270212  0.83370028  0.13813757
   0.83352193  0.33295613  0.13814452
   0.83359760  0.83370028  0.13813757
  -0.00016730  0.00033460  0.20652714
  -0.00007390  0.49983797  0.20635219
   0.50023960 -0.00047919  0.20647399
   0.50023593  0.49983797  0.20635219
   0.16650900  0.16716776  0.27491529
   0.16721553  0.66556894  0.27483130
   0.66632323  0.16716776  0.27491529
   0.66690917  0.66618166  0.27527036
   0.33351166  0.33297668  0.34313155
   0.33178327  0.83444771  0.34277860
   0.83367668  0.33264664  0.34290087
   0.83376903  0.83444771  0.34277860
  -0.00062673  0.00125346  0.41045107
   0.99498703  0.50393835  0.41054007
   0.50050341 -0.00100683  0.41072629
   0.50107462  0.50393835  0.41054007
   0.16158767  0.17261747  0.47801663
   0.16594764  0.66810473  0.47758966
   0.66579487  0.17261747  0.47801663
   0.66430430  0.67139140  0.48124855
   0.67598170  0.64803660  0.54180429
   0.58684830  0.82630339  0.53596957
Direct configuration=    14
  -0.00014337  0.00028673  0.00105204
   0.99972758  0.50005508  0.00109037
   0.50012800 -0.00025600  0.00118182
   0.50021734  0.50005508  0.00109037
   0.16667718  0.16682697  0.07032438
   0.16672863  0.66654275  0.07030065
   0.66649585  0.16682697  0.07032438
   0.66663133  0.66673733  0.07050006
   0.33341745  0.33316509  0.13823092
   0.33270265  0.83369148  0.13816367
   0.83351655  0.33296690  0.13816884
   0.83360587  0.83369148  0.13816367
  -0.00015957  0.00031914  0.20659658
   0.00001217  0.49978443  0.20641970
   0.50017925 -0.00035849  0.20653823
   0.50020341  0.49978443  0.20641970
   0.16651985  0.16714390  0.27469968
   0.16718396  0.66563208  0.27466041
   0.66633625  0.16714390  0.27469968
   0.66687796  0.66624407  0.27504792
   0.33336302  0.33327397  0.34318683
   0.33189400  0.83447441  0.34270268
   0.83355854  0.33288291  0.34278391
   0.83363158  0.83447441  0.34270268
  -0.00085817  0.00171634  0.41020927
   0.99463699  0.50440372  0.41049233
   0.50042136 -0.00084271  0.41065119
   0.50095929  0.50440372  0.41049233
   0.16143030  0.17277444  0.47788019
   0.16548122  0.66903755  0.47744602
   0.66579526  0.17277444  0.47788019
   0.66455964  0.67088073  0.48129388
   0.67628218  0.64743564  0.54224892
   0.58808749  0.82382501  0.53675675
Direct configuration=    15
  -0.00014958  0.00029916  0.00109409
   0.99975957  0.50004702  0.00113394
   0.50010093 -0.00020185  0.00121993
   0.50019341  0.50004702  0.00113394
   0.16668092  0.16686897  0.07033571
   0.16675223  0.66649553  0.07032255
   0.66645011  0.16686897  0.07033571
   0.66662348  0.66675303  0.07051197
   0.33340390  0.33319221  0.13825304
   0.33270319  0.83368263  0.13818991
   0.83351114  0.33297771  0.13819328
   0.83361418  0.83368263  0.13818991
  -0.00015180  0.00030361  0.20666638
   0.00009868  0.49973061  0.20648756
   0.50011858 -0.00023717  0.20660281
   0.50017071  0.49973061  0.20648756
   0.16653075  0.16711992  0.27448294
   0.16715223  0.66569555  0.27448863
   0.66634933  0.16711992  0.27448294
   0.66684659  0.66630681  0.27482432
   0.33321360  0.33357281  0.34324241
   0.33200531  0.83450126  0.34262636
   0.83343979  0.33312042  0.34266634
   0.83349342  0.83450126  0.34262636
  -0.00109082  0.00218164  0.40996620
   0.99428512  0.50487151  0.41044435
   0.50033887 -0.00067774  0.41057569
   0.50084336  0.50487151  0.41044435
   0.16127212  0.17293223  0.47774304
   0.16501238  0.66997525  0.47730164
   0.66579565  0.17293223  0.47774304
   0.66481631  0.67036739  0.48133945
   0.67658423  0.64683154  0.54269587
   0.58933316  0.82133369  0.53754804
Direct configuration=    16
  -0.00015452  0.00030904  0.00112131
   0.99977523  0.50004420  0.00115915
   0.50008009 -0.00016019  0.00123779
   0.50018058  0.50004420  0.00115915
   0.16668530  0.16689374  0.07035366
   0.16676404  0.66647191  0.07034322
   0.66642096  0.16689374  0.07035366
   0.66661520  0.66676960  0.07052638
   0.33339444  0.33321112  0.13827206
   0.33271275  0.83367879  0.13821677
   0.83351010  0.33297980  0.13821577
   0.83360846  0.83367879  0.13821677
  -0.00011850  0.00023701  0.20667838
   0.00011383  0.49975227  0.20650216
   0.50010004 -0.00020009  0.20661099
   0.50013389  0.49975227  0.20650216
   0.16659785  0.16714590  0.27436024
   0.16715185  0.66569630  0.27439939
   0.66625626  0.16714590  0.27436024
   0.66680900  0.66638200  0.27467183
   0.33306873  0.33386255  0.34328714
   0.33208633  0.83453661  0.34255173
   0.83331718  0.33336564  0.34258008
   0.83337706  0.83453661  0.34255173
  -0.00128681  0.00257363  0.40980312
   0.99425638  0.50511187  0.41038352
   0.50020246 -0.00040492  0.41049715
   0.50063175  0.50511187  0.41038352
   0.16124355  0.17295671  0.47767571
   0.16468688  0.67062625  0.47723676
   0.66579975  0.17295671  0.47767571
   0.66491035  0.67017930  0.48128900
   0.67770941  0.64458118  0.54308528
   0.58946119  0.82107762  0.53813872
Direct configuration=    17
  -0.00015735  0.00031469  0.00113688
   0.99978418  0.50004258  0.00117358
   0.50006818 -0.00013636  0.00124800
   0.50017323  0.50004258  0.00117358
   0.16668781  0.16690791  0.07036392
   0.16677080  0.66645840  0.07035505
   0.66640428  0.16690791  0.07036392
   0.66661046  0.66677907  0.07053463
   0.33338903  0.33322194  0.13828293
   0.33271822  0.83367659  0.13823213
   0.83350950  0.33298099  0.13822863
   0.83360519  0.83367659  0.13823213
  -0.00009945  0.00019891  0.20668525
   0.00012250  0.49976467  0.20651051
   0.50008944 -0.00017888  0.20661568
   0.50011283  0.49976467  0.20651051
   0.16663623  0.16716076  0.27429004
   0.16715163  0.66569673  0.27434834
   0.66620301  0.16716076  0.27429004
   0.66678750  0.66642501  0.27458460
   0.33298585  0.33402829  0.34331273
   0.33213267  0.83455683  0.34250904
   0.83324704  0.33350592  0.34253073
   0.83331050  0.83455683  0.34250904
  -0.00139893  0.00279786  0.40970983
   0.99423994  0.50524936  0.41034873
   0.50012442 -0.00024885  0.41045222
   0.50051070  0.50524936  0.41034873
   0.16122720  0.17297071  0.47763719
   0.16450067  0.67099865  0.47719965
   0.66580209  0.17297071  0.47763719
   0.66496414  0.67007171  0.48126014
   0.67835307  0.64329386  0.54330805
   0.58953444  0.82093113  0.53847662
Direct configuration=    18
  -0.00015819  0.00031638  0.00114153
   0.99978686  0.50004210  0.00117788
   0.50006462 -0.00012924  0.00125105
   0.50017104  0.50004210  0.00117788
   0.16668855  0.16691214  0.07036698
   0.16677282  0.66645437  0.07035858
   0.66639931  0.16691214  0.07036698
   0.66660905  0.66678190  0.07053709
   0.33338742  0.33322516  0.13828618
   0.33271985  0.83367594  0.13823672
   0.83350933  0.33298135  0.13823247
   0.83360421  0.83367594  0.13823672
  -0.00009377  0.00018754  0.20668730
   0.00012509  0.49976836  0.20651300
   0.50008627 -0.00017255  0.20661707
   0.50010655  0.49976836  0.20651300
   0.16664769  0.16716519  0.27426910
   0.16715157  0.66569686  0.27433311
   0.66618712  0.16716519  0.27426910
   0.66678108  0.66643784  0.27455857
   0.33296112  0.33407775  0.34332037
   0.33214650  0.83456286  0.34249630
   0.83322611  0.33354778  0.34251601
   0.83329064  0.83456286  0.34249630
  -0.00143239  0.00286478  0.40968199
   0.99423503  0.50529039  0.41033835
   0.50010114 -0.00020227  0.41043882
   0.50047458  0.50529039  0.41033835
   0.16122233  0.17297489  0.47762570
   0.16444511  0.67110978  0.47718857
   0.66580279  0.17297489  0.47762570
   0.66498020  0.67003960  0.48125153
   0.67854514  0.64290972  0.54337452
   0.58955629  0.82088742  0.53857746
Direct configuration=    19
  -0.00016221  0.00032442  0.00115444
   0.99977594  0.50005783  0.00118511
   0.50005280 -0.00010560  0.00125031
   0.50016623  0.50005783  0.00118511
   0.16668403  0.16691722  0.07039073
   0.16676213  0.66647573  0.07037914
   0.66639875  0.16691722  0.07039073
   0.66659739  0.66680522  0.07055470
   0.33338113  0.33323775  0.13830342
   0.33273026  0.83368708  0.13826130
   0.83351177  0.33297646  0.13825457
   0.83358266  0.83368708  0.13826130
  -0.00005370  0.00010740  0.20662607
   0.00008760  0.49984096  0.20645416
   0.50009087 -0.00018175  0.20654671
   0.50007144  0.49984096  0.20645416
   0.16673464  0.16726080  0.27426094
   0.16717597  0.66564805  0.27433789
   0.66600456  0.16726080  0.27426094
   0.66674452  0.66651096  0.27449576
   0.33283859  0.33432282  0.34329275
   0.33219237  0.83466135  0.34239067
   0.83309262  0.33381475  0.34242059
   0.83314628  0.83466135  0.34239067
  -0.00160834  0.00321668  0.40959204
   0.99436006  0.50541433  0.41027080
   0.49994684  0.00010633  0.41036762
   0.50022561  0.50541433  0.41027080
   0.16135858  0.17290793  0.47760572
   0.16424238  0.67151525  0.47717351
   0.66573350  0.17290793  0.47760572
   0.66484732  0.67030536  0.48120145
   0.67915651  0.64168699  0.54368152
   0.59023196  0.81953607  0.53912886
Direct configuration=    20
  -0.00017428  0.00034856  0.00119318
   0.99974317  0.50010504  0.00120682
   0.50001733 -0.00003467  0.00124810
   0.50015180  0.50010504  0.00120682
   0.16667046  0.16693246  0.07046198
   0.16673009  0.66653981  0.07044081
   0.66639708  0.16693246  0.07046198
   0.66656241  0.66687518  0.07060752
   0.33336225  0.33327549  0.13835514
   0.33276149  0.83372049  0.13833505
   0.83351910  0.33296180  0.13832089
   0.83351802  0.83372049  0.13833505
   0.00006651 -0.00013303  0.20644238
  -0.00002487  0.50005877  0.20627763
   0.50010467 -0.00020935  0.20633564
   0.49996610  0.50005877  0.20627763
   0.16699551  0.16754763  0.27423648
   0.16724919  0.66550163  0.27435224
   0.66545686  0.16754763  0.27423648
   0.66663485  0.66673031  0.27430733
   0.33247099  0.33505802  0.34320989
   0.33232998  0.83495682  0.34207380
   0.83269217  0.33461567  0.34213432
   0.83271319  0.83495682  0.34207380
  -0.00213620  0.00427240  0.40932221
   0.99473512  0.50578616  0.41006815
   0.49948393  0.00103213  0.41015402
   0.49947872  0.50578616  0.41006815
   0.16176733  0.17270704  0.47754579
   0.16363418  0.67273164  0.47712832
   0.66552563  0.17270704  0.47754579
   0.66444868  0.67110264  0.48105123
   0.68099060  0.63801880  0.54460252
   0.59225898  0.81548204  0.54078309
Direct configuration=    21
  -0.00017691  0.00035381  0.00119926
   0.99971699  0.50013560  0.00120556
   0.50001471 -0.00002943  0.00124517
   0.50014741  0.50013560  0.00120556
   0.16665368  0.16693171  0.07046869
   0.16670660  0.66658679  0.07044955
   0.66641461  0.16693171  0.07046869
   0.66656290  0.66687420  0.07061674
   0.33334278  0.33331445  0.13828217
   0.33274546  0.83372599  0.13825166
   0.83351995  0.33296010  0.13825378
   0.83352855  0.83372599  0.13825166
   0.00001031 -0.00002062  0.20647008
   0.00004201  0.49999483  0.20626718
   0.50003127 -0.00006255  0.20632285
   0.49996316  0.49999483  0.20626718
   0.16686193  0.16765234  0.27424445
   0.16718572  0.66562855  0.27432849
   0.66548573  0.16765234  0.27424445
   0.66664041  0.66671917  0.27430646
   0.33248756  0.33502487  0.34309294
   0.33217386  0.83520738  0.34208329
   0.83265450  0.33469100  0.34214393
   0.83261876  0.83520738  0.34208329
  -0.00215971  0.00431942  0.40935722
   0.99454330  0.50592541  0.41005052
   0.49953850  0.00092300  0.41012969
   0.49953129  0.50592541  0.41005052
   0.16182653  0.17285739  0.47755340
   0.16376943  0.67246114  0.47714150
   0.66531607  0.17285739  0.47755340
   0.66420173  0.67159655  0.48103818
   0.68080984  0.63838032  0.54473241
   0.59339208  0.81321584  0.54104032
Direct configuration=    22
  -0.00017679  0.00035357  0.00119898
   0.99971820  0.50013418  0.00120562
   0.50001483 -0.00002967  0.00124531
   0.50014761  0.50013418  0.00120562
   0.16665446  0.16693174  0.07046837
   0.16670769  0.66658461  0.07044915
   0.66641380  0.16693174  0.07046837
   0.66656288  0.66687424  0.07061631
   0.33334368  0.33331264  0.13828556
   0.33274620  0.83372574  0.13825553
   0.83351991  0.33296018  0.13825690
   0.83352806  0.83372574  0.13825553
   0.00001292 -0.00002584  0.20646880
   0.00003890  0.49999780  0.20626766
   0.50003468 -0.00006936  0.20632344
   0.49996330  0.49999780  0.20626766
   0.16686813  0.16764748  0.27424408
   0.16718867  0.66562266  0.27432959
   0.66548439  0.16764748  0.27424408
   0.66664016  0.66671969  0.27430650
   0.33248680  0.33502641  0.34309837
   0.33218111  0.83519575  0.34208285
   0.83265625  0.33468750  0.34214349
   0.83262314  0.83519575  0.34208285
  -0.00215862  0.00431724  0.40935560
   0.99455220  0.50591895  0.41005134
   0.49953597  0.00092806  0.41013082
   0.49952885  0.50591895  0.41005134
   0.16182378  0.17285042  0.47755305
   0.16376315  0.67247369  0.47714089
   0.66532580  0.17285042  0.47755305
   0.66421319  0.67157362  0.48103878
   0.68081823  0.63836354  0.54472638
   0.59333950  0.81332100  0.54102838
Direct configuration=    23
  -0.00017690  0.00035379  0.00119923
   0.99971711  0.50013546  0.00120557
   0.50001472 -0.00002945  0.00124518
   0.50014743  0.50013546  0.00120557
   0.16665376  0.16693171  0.07046866
   0.16670671  0.66658658  0.07044951
   0.66641453  0.16693171  0.07046866
   0.66656290  0.66687420  0.07061669
   0.33334286  0.33331427  0.13828251
   0.33274553  0.83372597  0.13825204
   0.83351995  0.33296010  0.13825409
   0.83352850  0.83372597  0.13825204
   0.00001057 -0.00002114  0.20646995
   0.00004170  0.49999512  0.20626723
   0.50003161 -0.00006322  0.20632291
   0.49996318  0.49999512  0.20626723
   0.16686254  0.16765186  0.27424442
   0.16718602  0.66562797  0.27432860
   0.66548560  0.16765186  0.27424442