  18  18   0   0
  0.2028145E+02  0.3630000E-09  0.3630000E-09  0.2770500E-08  0.5000000E-15
  1.000000000000000E-004
  CAR 
 unknown system                          
     13.23852622     -9.43512994  301      1.96759526      1.00000000
     -9.435  0.0000E+00  0.0000E+00  0.0000E+00  0.0000E+00
     -9.360  0.0000E+00  0.0000E+00  0.0000E+00  0.0000E+00
     -9.284  0.0000E+00  0.0000E+00  0.0000E+00  0.0000E+00
     -9.208  0.0000E+00  0.0000E+00  0.0000E+00  0.0000E+00
     -9.133  0.0000E+00  0.0000E+00  0.0000E+00  0.0000E+00
     -9.057 -0.1136E-30 -0.1136E-30 -0.8589E-32 -0.8589E-32
     -8.982 -0.4303E-28 -0.4303E-28 -0.3261E-29 -0.3261E-29
     -8.906 -0.1224E-25 -0.1224E-25 -0.9283E-27 -0.9283E-27
     -8.830 -0.2609E-23 -0.2609E-23 -0.1981E-24 -0.1981E-24
     -8.755 -0.4164E-21 -0.4164E-21 -0.3167E-22 -0.3167E-22
     -8.679 -0.4978E-19 -0.4978E-19 -0.3794E-20 -0.3794E-20
     -8.604 -0.4350E-17 -0.4350E-17 -0.3325E-18 -0.3325E-18
     -8.528 -0.2878E-15 -0.2878E-15 -0.2208E-16 -0.2208E-16
     -8.453 -0.1430E-13 -0.1430E-13 -0.1103E-14 -0.1103E-14
     -8.377 -0.5296E-12 -0.5296E-12 -0.4113E-13 -0.4113E-13
     -8.301 -0.1458E-10 -0.1458E-10 -0.1143E-11 -0.1143E-11
     -8.226 -0.2975E-09 -0.2975E-09 -0.2363E-10 -0.2363E-10
     -8.150 -0.4484E-08 -0.4484E-08 -0.3625E-09 -0.3625E-09
     -8.075 -0.4959E-07 -0.4959E-07 -0.4111E-08 -0.4111E-08
     -7.999 -0.3987E-06 -0.3987E-06 -0.3424E-07 -0.3424E-07
     -7.924 -0.2292E-05 -0.2292E-05 -0.2075E-06 -0.2075E-06
     -7.848 -0.9128E-05 -0.9128E-05 -0.8973E-06 -0.8973E-06
     -7.772 -0.2331E-04 -0.2331E-04 -0.2659E-05 -0.2659E-05
     -7.697 -0.2821E-04 -0.2821E-04 -0.4791E-05 -0.4791E-05
     -7.621  0.3337E-04  0.3337E-04 -0.2270E-05 -0.2270E-05
     -7.546  0.2181E-03  0.2181E-03  0.1421E-04  0.1421E-04
     -7.470  0.4629E-03  0.4629E-03  0.4919E-04  0.4919E-04
     -7.395  0.5727E-03  0.5727E-03  0.9248E-04  0.9248E-04
     -7.319  0.4351E-03  0.4351E-03  0.1254E-03  0.1254E-03
     -7.243  0.1735E-03  0.1735E-03  0.1385E-03  0.1385E-03
     -7.168  0.2408E-05  0.2408E-05  0.1387E-03  0.1387E-03
     -7.092  0.3687E-04  0.3687E-04  0.1414E-03  0.1414E-03
     -7.017  0.2556E-03  0.2556E-03  0.1608E-03  0.1608E-03
     -6.941  0.5020E-03  0.5020E-03  0.1987E-03  0.1987E-03
     -6.865  0.5639E-03  0.5639E-03  0.2413E-03  0.2413E-03
     -6.790  0.3897E-03  0.3897E-03  0.2708E-03  0.2708E-03
     -6.714  0.1452E-03  0.1452E-03  0.2818E-03  0.2818E-03
     -6.639 -0.6779E-05 -0.6779E-05  0.2812E-03  0.2812E-03
     -6.563 -0.6758E-04 -0.6758E-04  0.2761E-03  0.2761E-03
     -6.488 -0.1205E-03 -0.1205E-03  0.2670E-03  0.2670E-03
     -6.412 -0.1515E-03 -0.1515E-03  0.2556E-03  0.2556E-03
     -6.336  0.7910E-04  0.7910E-04  0.2616E-03  0.2616E-03
     -6.261  0.8848E-03  0.8848E-03  0.3284E-03  0.3284E-03
     -6.185  0.2092E-02  0.2092E-02  0.4866E-03  0.4866E-03
     -6.110  0.2813E-02  0.2813E-02  0.6991E-03  0.6991E-03
     -6.034  0.2340E-02  0.2340E-02  0.8760E-03  0.8760E-03
     -5.959  0.1111E-02  0.1111E-02  0.9600E-03  0.9600E-03
     -5.883  0.2491E-03  0.2491E-03  0.9788E-03  0.9788E-03
     -5.807  0.4288E-03  0.4288E-03  0.1011E-02  0.1011E-02
     -5.732  0.1392E-02  0.1392E-02  0.1116E-02  0.1116E-02
     -5.656  0.2196E-02  0.2196E-02  0.1282E-02  0.1282E-02
     -5.581  0.2056E-02  0.2056E-02  0.1438E-02  0.1438E-02
     -5.505  0.1145E-02  0.1145E-02  0.1524E-02  0.1524E-02
     -5.429  0.2504E-03  0.2504E-03  0.1543E-02  0.1543E-02
     -5.354 -0.2064E-03 -0.2064E-03  0.1528E-02  0.1528E-02
     -5.278 -0.3242E-03 -0.3242E-03  0.1503E-02  0.1503E-02
     -5.203 -0.1011E-03 -0.1011E-03  0.1496E-02  0.1496E-02
     -5.127  0.8428E-03  0.8428E-03  0.1559E-02  0.1559E-02
     -5.052  0.2638E-02  0.2638E-02  0.1759E-02  0.1759E-02
     -4.976  0.4365E-02  0.4365E-02  0.2089E-02  0.2089E-02
     -4.900  0.4616E-02  0.4616E-02  0.2437E-02  0.2437E-02
     -4.825  0.3259E-02  0.3259E-02  0.2684E-02  0.2684E-02
     -4.749  0.1825E-02  0.1825E-02  0.2822E-02  0.2822E-02
     -4.674  0.1603E-02  0.1603E-02  0.2943E-02  0.2943E-02
     -4.598  0.2199E-02  0.2199E-02  0.3109E-02  0.3109E-02
     -4.523  0.2559E-02  0.2559E-02  0.3302E-02  0.3302E-02
     -4.447  0.2550E-02  0.2550E-02  0.3495E-02  0.3495E-02
     -4.371  0.2701E-02  0.2701E-02  0.3699E-02  0.3699E-02
     -4.296  0.3083E-02  0.3083E-02  0.3932E-02  0.3932E-02
     -4.220  0.3315E-02  0.3315E-02  0.4183E-02  0.4183E-02
     -4.145  0.3309E-02  0.3309E-02  0.4433E-02  0.4433E-02
     -4.069  0.3405E-02  0.3405E-02  0.4690E-02  0.4690E-02
     -3.993  0.3814E-02  0.3814E-02  0.4979E-02  0.4979E-02
     -3.918  0.4138E-02  0.4138E-02  0.5291E-02  0.5291E-02
     -3.842  0.3685E-02  0.3685E-02  0.5570E-02  0.5570E-02
     -3.767  0.2326E-02  0.2326E-02  0.5746E-02  0.5746E-02
     -3.691  0.8699E-03  0.8699E-03  0.5811E-02  0.5811E-02
     -3.616  0.4981E-03  0.4981E-03  0.5849E-02  0.5849E-02
     -3.540  0.1718E-02  0.1718E-02  0.5979E-02  0.5979E-02
     -3.464  0.3574E-02  0.3574E-02  0.6249E-02  0.6249E-02
     -3.389  0.4241E-02  0.4241E-02  0.6569E-02  0.6569E-02
     -3.313  0.3096E-02  0.3096E-02  0.6804E-02  0.6804E-02
     -3.238  0.1707E-02  0.1707E-02  0.6933E-02  0.6933E-02
     -3.162  0.2071E-02  0.2071E-02  0.7089E-02  0.7089E-02
     -3.087  0.4649E-02  0.4649E-02  0.7440E-02  0.7440E-02
     -3.011  0.8578E-02  0.8578E-02  0.8089E-02  0.8089E-02
     -2.935  0.1276E-01  0.1276E-01  0.9053E-02  0.9053E-02
     -2.860  0.1586E-01  0.1586E-01  0.1025E-01  0.1025E-01
     -2.784  0.1629E-01  0.1629E-01  0.1148E-01  0.1148E-01
     -2.709  0.1394E-01  0.1394E-01  0.1254E-01  0.1254E-01
     -2.633  0.1141E-01  0.1141E-01  0.1340E-01  0.1340E-01
     -2.557  0.1142E-01  0.1142E-01  0.1426E-01  0.1426E-01
     -2.482  0.1414E-01  0.1414E-01  0.1533E-01  0.1533E-01
     -2.406  0.1819E-01  0.1819E-01  0.1671E-01  0.1671E-01
     -2.331  0.2240E-01  0.2240E-01  0.1840E-01  0.1840E-01
     -2.255  0.2572E-01  0.2572E-01  0.2034E-01  0.2034E-01
     -2.180  0.2661E-01  0.2661E-01  0.2235E-01  0.2235E-01
     -2.104  0.2418E-01  0.2418E-01  0.2418E-01  0.2418E-01
     -2.028  0.1964E-01  0.1964E-01  0.2567E-01  0.2567E-01
     -1.953  0.1577E-01  0.1577E-01  0.2686E-01  0.2686E-01
     -1.877  0.1472E-01  0.1472E-01  0.2797E-01  0.2797E-01
     -1.802  0.1667E-01  0.1667E-01  0.2923E-01  0.2923E-01
     -1.726  0.2021E-01  0.2021E-01  0.3076E-01  0.3076E-01
     -1.651  0.2339E-01  0.2339E-01  0.3253E-01  0.3253E-01
     -1.575  0.2480E-01  0.2480E-01  0.3440E-01  0.3440E-01
     -1.499  0.2438E-01  0.2438E-01  0.3624E-01  0.3624E-01
     -1.424  0.2364E-01  0.2364E-01  0.3803E-01  0.3803E-01
     -1.348  0.2444E-01  0.2444E-01  0.3988E-01  0.3988E-01
     -1.273  0.2744E-01  0.2744E-01  0.4195E-01  0.4195E-01
     -1.197  0.3210E-01  0.3210E-01  0.4438E-01  0.4438E-01
     -1.121  0.3741E-01  0.3741E-01  0.4720E-01  0.4720E-01
     -1.046  0.4148E-01  0.4148E-01  0.5034E-01  0.5034E-01
     -0.970  0.4215E-01  0.4215E-01  0.5353E-01  0.5353E-01
     -0.895  0.3938E-01  0.3938E-01  0.5650E-01  0.5650E-01
     -0.819  0.3556E-01  0.3556E-01  0.5919E-01  0.5919E-01
     -0.744  0.3250E-01  0.3250E-01  0.6165E-01  0.6165E-01
     -0.668  0.3027E-01  0.3027E-01  0.6393E-01  0.6393E-01
     -0.592  0.2943E-01  0.2943E-01  0.6616E-01  0.6616E-01
     -0.517  0.3040E-01  0.3040E-01  0.6845E-01  0.6845E-01
     -0.441  0.3153E-01  0.3153E-01  0.7084E-01  0.7084E-01
     -0.366  0.3147E-01  0.3147E-01  0.7322E-01  0.7322E-01
     -0.290  0.3205E-01  0.3205E-01  0.7564E-01  0.7564E-01
     -0.215  0.3567E-01  0.3567E-01  0.7833E-01  0.7833E-01
     -0.139  0.4137E-01  0.4137E-01  0.8146E-01  0.8146E-01
     -0.063  0.4548E-01  0.4548E-01  0.8490E-01  0.8490E-01
      0.012  0.4587E-01  0.4587E-01  0.8837E-01  0.8837E-01
      0.088  0.4441E-01  0.4441E-01  0.9172E-01  0.9172E-01
      0.163  0.4431E-01  0.4431E-01  0.9507E-01  0.9507E-01
      0.239  0.4535E-01  0.4535E-01  0.9850E-01  0.9850E-01
      0.315  0.4333E-01  0.4333E-01  0.1018E+00  0.1018E+00
      0.390  0.3512E-01  0.3512E-01  0.1044E+00  0.1044E+00
      0.466  0.2263E-01  0.2263E-01  0.1061E+00  0.1061E+00
      0.541  0.1078E-01  0.1078E-01  0.1070E+00  0.1070E+00
      0.617  0.3022E-02  0.3022E-02  0.1072E+00  0.1072E+00
      0.692 -0.2410E-03 -0.2410E-03  0.1072E+00  0.1072E+00
      0.768 -0.1641E-03 -0.1641E-03  0.1072E+00  0.1072E+00
      0.844  0.1933E-02  0.1933E-02  0.1073E+00  0.1073E+00
      0.919  0.4493E-02  0.4493E-02  0.1076E+00  0.1076E+00
      0.995  0.5780E-02  0.5780E-02  0.1081E+00  0.1081E+00
      1.070  0.5037E-02  0.5037E-02  0.1085E+00  0.1085E+00
      1.146  0.3038E-02  0.3038E-02  0.1087E+00  0.1087E+00
      1.221  0.1133E-02  0.1133E-02  0.1088E+00  0.1088E+00
      1.297  0.1146E-03  0.1146E-03  0.1088E+00  0.1088E+00
      1.373 -0.6531E-04 -0.6531E-04  0.1088E+00  0.1088E+00
      1.448  0.1216E-03  0.1216E-03  0.1088E+00  0.1088E+00
      1.524  0.4369E-03  0.4369E-03  0.1088E+00  0.1088E+00
      1.599  0.1217E-02  0.1217E-02  0.1089E+00  0.1089E+00
      1.675  0.2980E-02  0.2980E-02  0.1091E+00  0.1091E+00
      1.751  0.5549E-02  0.5549E-02  0.1096E+00  0.1096E+00
      1.826  0.7707E-02  0.7707E-02  0.1101E+00  0.1101E+00
      1.902  0.8267E-02  0.8267E-02  0.1108E+00  0.1108E+00
      1.977  0.7356E-02  0.7356E-02  0.1113E+00  0.1113E+00
      2.053  0.5766E-02  0.5766E-02  0.1118E+00  0.1118E+00
      2.128  0.3754E-02  0.3754E-02  0.1120E+00  0.1120E+00
      2.204  0.1870E-02  0.1870E-02  0.1122E+00  0.1122E+00
      2.280  0.1638E-02  0.1638E-02  0.1123E+00  0.1123E+00
      2.355  0.3717E-02  0.3717E-02  0.1126E+00  0.1126E+00
      2.431  0.6313E-02  0.6313E-02  0.1131E+00  0.1131E+00
      2.506  0.6961E-02  0.6961E-02  0.1136E+00  0.1136E+00
      2.582  0.5471E-02  0.5471E-02  0.1140E+00  0.1140E+00
      2.657  0.3781E-02  0.3781E-02  0.1143E+00  0.1143E+00
      2.733  0.3467E-02  0.3467E-02  0.1145E+00  0.1145E+00
      2.809  0.4336E-02  0.4336E-02  0.1149E+00  0.1149E+00
      2.884  0.4858E-02  0.4858E-02  0.1152E+00  0.1152E+00
      2.960  0.3902E-02  0.3902E-02  0.1155E+00  0.1155E+00
      3.035  0.2208E-02  0.2208E-02  0.1157E+00  0.1157E+00
      3.111  0.1382E-02  0.1382E-02  0.1158E+00  0.1158E+00
      3.187  0.1698E-02  0.1698E-02  0.1159E+00  0.1159E+00
      3.262  0.2006E-02  0.2006E-02  0.1161E+00  0.1161E+00
      3.338  0.1594E-02  0.1594E-02  0.1162E+00  0.1162E+00
      3.413  0.9774E-03  0.9774E-03  0.1163E+00  0.1163E+00
      3.489  0.8150E-03  0.8150E-03  0.1163E+00  0.1163E+00
      3.564  0.1101E-02  0.1101E-02  0.1164E+00  0.1164E+00
      3.640  0.1652E-02  0.1652E-02  0.1166E+00  0.1166E+00
      3.716  0.2430E-02  0.2430E-02  0.1167E+00  0.1167E+00
      3.791  0.3182E-02  0.3182E-02  0.1170E+00  0.1170E+00
      3.867  0.3508E-02  0.3508E-02  0.1172E+00  0.1172E+00
      3.942  0.3250E-02  0.3250E-02  0.1175E+00  0.1175E+00
      4.018  0.2442E-02  0.2442E-02  0.1177E+00  0.1177E+00
      4.093  0.1303E-02  0.1303E-02  0.1178E+00  0.1178E+00
      4.169  0.3069E-03  0.3069E-03  0.1178E+00  0.1178E+00
      4.245 -0.1641E-03 -0.1641E-03  0.1178E+00  0.1178E+00
      4.320 -0.5899E-04 -0.5899E-04  0.1178E+00  0.1178E+00
      4.396  0.5379E-03  0.5379E-03  0.1178E+00  0.1178E+00
      4.471  0.1488E-02  0.1488E-02  0.1179E+00  0.1179E+00
      4.547  0.2422E-02  0.2422E-02  0.1181E+00  0.1181E+00
      4.623  0.2767E-02  0.2767E-02  0.1183E+00  0.1183E+00
      4.698  0.2287E-02  0.2287E-02  0.1185E+00  0.1185E+00
      4.774  0.1568E-02  0.1568E-02  0.1186E+00  0.1186E+00
      4.849  0.1452E-02  0.1452E-02  0.1187E+00  0.1187E+00
      4.925  0.1928E-02  0.1928E-02  0.1189E+00  0.1189E+00
      5.000  0.2322E-02  0.2322E-02  0.1190E+00  0.1190E+00
      5.076  0.2454E-02  0.2454E-02  0.1192E+00  0.1192E+00
      5.152  0.2662E-02  0.2662E-02  0.1194E+00  0.1194E+00
      5.227  0.2981E-02  0.2981E-02  0.1197E+00  0.1197E+00
      5.303  0.3120E-02  0.3120E-02  0.1199E+00  0.1199E+00
      5.378  0.2986E-02  0.2986E-02  0.1201E+00  0.1201E+00
      5.454  0.2755E-02  0.2755E-02  0.1203E+00  0.1203E+00
      5.529  0.2564E-02  0.2564E-02  0.1205E+00  0.1205E+00
      5.605  0.2424E-02  0.2424E-02  0.1207E+00  0.1207E+00
      5.681  0.2644E-02  0.2644E-02  0.1209E+00  0.1209E+00
      5.756  0.3893E-02  0.3893E-02  0.1212E+00  0.1212E+00
      5.832  0.6237E-02  0.6237E-02  0.1217E+00  0.1217E+00
      5.907  0.8305E-02  0.8305E-02  0.1223E+00  0.1223E+00
      5.983  0.8154E-02  0.8154E-02  0.1229E+00  0.1229E+00
      6.059  0.5473E-02  0.5473E-02  0.1233E+00  0.1233E+00
      6.134  0.2296E-02  0.2296E-02  0.1235E+00  0.1235E+00
      6.210  0.8837E-03  0.8838E-03  0.1236E+00  0.1236E+00
      6.285  0.1450E-02  0.1450E-02  0.1237E+00  0.1237E+00
      6.361  0.2400E-02  0.2400E-02  0.1239E+00  0.1239E+00
      6.436  0.2424E-02  0.2424E-02  0.1240E+00  0.1240E+00
      6.512  0.1862E-02  0.1862E-02  0.1242E+00  0.1242E+00
      6.588  0.1746E-02  0.1746E-02  0.1243E+00  0.1243E+00
      6.663  0.2256E-02  0.2256E-02  0.1245E+00  0.1245E+00
      6.739  0.2946E-02  0.2946E-02  0.1247E+00  0.1247E+00
      6.814  0.3771E-02  0.3771E-02  0.1250E+00  0.1250E+00
      6.890  0.4911E-02  0.4911E-02  0.1254E+00  0.1254E+00
      6.965  0.6031E-02  0.6031E-02  0.1258E+00  0.1258E+00
      7.041  0.6311E-02  0.6311E-02  0.1263E+00  0.1263E+00
      7.117  0.5268E-02  0.5268E-02  0.1267E+00  0.1267E+00
      7.192  0.3469E-02  0.3469E-02  0.1270E+00  0.1270E+00
      7.268  0.2138E-02  0.2138E-02  0.1271E+00  0.1271E+00
      7.343  0.2043E-02  0.2043E-02  0.1273E+00  0.1273E+00
      7.419  0.3073E-02  0.3073E-02  0.1275E+00  0.1275E+00
      7.495  0.4710E-02  0.4711E-02  0.1279E+00  0.1279E+00
      7.570  0.6302E-02  0.6302E-02  0.1283E+00  0.1283E+00
      7.646  0.6876E-02  0.6876E-02  0.1289E+00  0.1289E+00
      7.721  0.5679E-02  0.5679E-02  0.1293E+00  0.1293E+00
      7.797  0.3356E-02  0.3356E-02  0.1295E+00  0.1295E+00
      7.872  0.1649E-02  0.1649E-02  0.1297E+00  0.1297E+00
      7.948  0.1396E-02  0.1396E-02  0.1298E+00  0.1298E+00
      8.024  0.1764E-02  0.1764E-02  0.1299E+00  0.1299E+00
      8.099  0.1881E-02  0.1881E-02  0.1300E+00  0.1300E+00
      8.175  0.2183E-02  0.2183E-02  0.1302E+00  0.1302E+00
      8.250  0.3240E-02  0.3240E-02  0.1305E+00  0.1305E+00
      8.326  0.4250E-02  0.4250E-02  0.1308E+00  0.1308E+00
      8.401  0.4111E-02  0.4111E-02  0.1311E+00  0.1311E+00
      8.477  0.3114E-02  0.3114E-02  0.1313E+00  0.1313E+00
      8.553  0.2238E-02  0.2238E-02  0.1315E+00  0.1315E+00
      8.628  0.1894E-02  0.1894E-02  0.1316E+00  0.1316E+00
      8.704  0.2495E-02  0.2495E-02  0.1318E+00  0.1318E+00
      8.779  0.4613E-02  0.4613E-02  0.1322E+00  0.1322E+00
      8.855  0.7550E-02  0.7550E-02  0.1327E+00  0.1327E+00
      8.931  0.9348E-02  0.9348E-02  0.1334E+00  0.1334E+00
      9.006  0.8966E-02  0.8966E-02  0.1341E+00  0.1341E+00
      9.082  0.7252E-02  0.7252E-02  0.1347E+00  0.1347E+00
      9.157  0.5497E-02  0.5497E-02  0.1351E+00  0.1351E+00
      9.233  0.4162E-02  0.4162E-02  0.1354E+00  0.1354E+00
      9.308  0.3212E-02  0.3212E-02  0.1356E+00  0.1356E+00
      9.384  0.2738E-02  0.2738E-02  0.1359E+00  0.1359E+00
      9.460  0.2983E-02  0.2983E-02  0.1361E+00  0.1361E+00
      9.535  0.4140E-02  0.4140E-02  0.1364E+00  0.1364E+00
      9.611  0.5853E-02  0.5853E-02  0.1368E+00  0.1368E+00
      9.686  0.6900E-02  0.6900E-02  0.1374E+00  0.1374E+00
      9.762  0.6239E-02  0.6239E-02  0.1378E+00  0.1378E+00
      9.837  0.4465E-02  0.4465E-02  0.1382E+00  0.1382E+00
      9.913  0.3287E-02  0.3287E-02  0.1384E+00  0.1384E+00
      9.989  0.3355E-02  0.3355E-02  0.1387E+00  0.1387E+00
     10.064  0.3733E-02  0.3733E-02  0.1389E+00  0.1389E+00
     10.140  0.3629E-02  0.3629E-02  0.1392E+00  0.1392E+00
     10.215  0.3415E-02  0.3415E-02  0.1395E+00  0.1395E+00
     10.291  0.3864E-02  0.3864E-02  0.1398E+00  0.1398E+00
     10.367  0.5393E-02  0.5393E-02  0.1402E+00  0.1402E+00
     10.442  0.7832E-02  0.7832E-02  0.1408E+00  0.1408E+00
     10.518  0.1005E-01  0.1005E-01  0.1415E+00  0.1415E+00
     10.593  0.1034E-01  0.1034E-01  0.1423E+00  0.1423E+00
     10.669  0.8080E-02  0.8080E-02  0.1429E+00  0.1429E+00
     10.744  0.4456E-02  0.4456E-02  0.1433E+00  0.1433E+00
     10.820  0.1302E-02  0.1302E-02  0.1434E+00  0.1434E+00
     10.896 -0.2474E-03 -0.2474E-03  0.1433E+00  0.1433E+00
     10.971  0.1168E-03  0.1168E-03  0.1433E+00  0.1433E+00
     11.047  0.2173E-02  0.2174E-02  0.1435E+00  0.1435E+00
     11.122  0.4839E-02  0.4839E-02  0.1439E+00  0.1439E+00
     11.198  0.6249E-02  0.6249E-02  0.1443E+00  0.1443E+00
     11.273  0.5332E-02  0.5332E-02  0.1448E+00  0.1448E+00
     11.349  0.2963E-02  0.2963E-02  0.1450E+00  0.1450E+00
     11.425  0.8706E-03  0.8705E-03  0.1450E+00  0.1450E+00
     11.500 -0.1059E-03 -0.1059E-03  0.1450E+00  0.1450E+00
     11.576 -0.2546E-03 -0.2546E-03  0.1450E+00  0.1450E+00
     11.651 -0.1403E-03 -0.1403E-03  0.1450E+00  0.1450E+00
     11.727 -0.4691E-04 -0.4691E-04  0.1450E+00  0.1450E+00
     11.803 -0.1078E-04 -0.1078E-04  0.1450E+00  0.1450E+00
     11.878 -0.1776E-05 -0.1776E-05  0.1450E+00  0.1450E+00
     11.954 -0.2132E-06 -0.2132E-06  0.1450E+00  0.1450E+00
     12.029 -0.1883E-07 -0.1883E-07  0.1450E+00  0.1450E+00
     12.105 -0.1230E-08 -0.1230E-08  0.1450E+00  0.1450E+00
     12.180 -0.5963E-10 -0.5963E-10  0.1450E+00  0.1450E+00
     12.256 -0.2151E-11 -0.2151E-11  0.1450E+00  0.1450E+00
     12.332 -0.5782E-13 -0.5781E-13  0.1450E+00  0.1450E+00
     12.407 -0.1159E-14 -0.1159E-14  0.1450E+00  0.1450E+00
     12.483 -0.1795E-16 -0.1795E-16  0.1450E+00  0.1450E+00
     12.558  0.0000E+00  0.0000E+00  0.1450E+00  0.1450E+00
     12.634  0.0000E+00  0.0000E+00  0.1450E+00  0.1450E+00
     12.709  0.0000E+00  0.0000E+00  0.1450E+00  0.1450E+00
     12.785  0.0000E+00  0.0000E+00  0.1450E+00  0.1450E+00
     12.861  0.0000E+00  0.0000E+00  0.1450E+00  0.1450E+00
     12.936  0.0000E+00  0.0000E+00  0.1450E+00  0.1450E+00
     13.012  0.0000E+00  0.0000E+00  0.1450E+00  0.1450E+00
     13.087  0.0000E+00  0.0000E+00  0.1450E+00  0.1450E+00
     13.163  0.0000E+00  0.0000E+00  0.1450E+00  0.1450E+00
     13.239  0.0000E+00  0.0000E+00  0.1450E+00  0.1450E+00
