   18   18  800    2
  0.2028145E+02  0.3630000E-09  0.3630000E-09  0.2770500E-08  0.5000000E-15
  1.000000000000000E-004
  CAR 
 unknown system                          
    178      3    116
 
  0.0000000E+00  0.0000000E+00  0.0000000E+00  0.1111111E+00
      1         -7.435130       -7.435130   1.000000   1.000000
      2         -6.924270       -6.924270   1.000000   1.000000
      3         -6.103107       -6.103107   1.000000   1.000000
      4         -5.049081       -5.049081   1.000000   1.000000
      5         -4.516303       -4.516303   1.000000   1.000000
      6         -3.819757       -3.819757   1.000000   1.000000
      7         -3.140486       -3.140486   1.000000   1.000000
      8         -3.016428       -3.016428   1.000000   1.000000
      9         -3.016255       -3.016255   1.000000   1.000000
     10         -2.986574       -2.986574   1.000000   1.000000
     11         -2.961100       -2.961100   1.000000   1.000000
     12         -2.801250       -2.801250   1.000000   1.000000
     13         -2.798782       -2.798782   1.000000   1.000000
     14         -2.572572       -2.572572   1.000000   1.000000
     15         -2.539844       -2.539844   1.000000   1.000000
     16         -2.539844       -2.539844   1.000000   1.000000
     17         -2.471650       -2.471650   1.000000   1.000000
     18         -2.468197       -2.468197   1.000000   1.000000
     19         -2.454202       -2.454202   1.000000   1.000000
     20         -2.410268       -2.410268   1.000000   1.000000
     21         -2.410268       -2.410268   1.000000   1.000000
     22         -2.219200       -2.219200   1.000000   1.000000
     23         -2.155311       -2.155311   1.000000   1.000000
     24         -2.155311       -2.155311   1.000000   1.000000
     25         -2.078375       -2.078375   1.000000   1.000000
     26         -2.053712       -2.053712   1.000000   1.000000
     27         -1.900037       -1.900037   1.000000   1.000000
     28         -1.748334       -1.748334   1.000000   1.000000
     29         -1.748334       -1.748334   1.000000   1.000000
     30         -1.603414       -1.603414   1.000000   1.000000
     31         -1.346935       -1.346935   1.000000   1.000000
     32         -1.261831       -1.261831   1.000000   1.000000
     33         -1.261831       -1.261831   1.000000   1.000000
     34         -1.199640       -1.199640   1.000000   1.000000
     35         -1.166413       -1.166413   1.000000   1.000000
     36         -1.166413       -1.166413   1.000000   1.000000
     37         -1.060747       -1.060747   1.000000   1.000000
     38         -1.060747       -1.060747   1.000000   1.000000
     39         -1.036439       -1.036439   1.000000   1.000000
     40         -0.849906       -0.849906   1.000000   1.000000
     41         -0.849906       -0.849906   1.000000   1.000000
     42         -0.692410       -0.692410   1.000000   1.000000
     43         -0.692410       -0.692410   1.000000   1.000000
     44         -0.564142       -0.564142   1.000000   1.000000
     45         -0.534270       -0.534270   1.000000   1.000000
     46         -0.534270       -0.534270   1.000000   1.000000
     47         -0.516711       -0.516711   1.000000   1.000000
     48         -0.420237       -0.420237   1.000000   1.000000
     49         -0.372559       -0.372559   1.000000   1.000000
     50         -0.345101       -0.345101   1.000000   1.000000
     51         -0.335868       -0.335868   1.000000   1.000000
     52         -0.220400       -0.220400   1.000000   1.000000
     53         -0.215865       -0.215865   1.000000   1.000000
     54         -0.214602       -0.214602   1.000000   1.000000
     55         -0.209578       -0.209578   1.000000   1.000000
     56         -0.209578       -0.209578   1.000000   1.000000
     57         -0.203988       -0.203988   1.000000   1.000000
     58         -0.143967       -0.143967   1.000000   1.000000
     59         -0.143967       -0.143967   1.000000   1.000000
     60         -0.060705       -0.060705   1.000000   1.000000
     61         -0.058417       -0.058417   1.000000   1.000000
     62         -0.047121       -0.047121   1.000000   1.000000
     63          0.083489        0.083489   1.000000   1.000000
     64          0.083489        0.083489   1.000000   1.000000
     65          0.085109        0.085109   1.000000   1.000000
     66          0.123904        0.123904   1.000000   1.000000
     67          0.139759        0.139759   1.000000   1.000000
     68          0.143113        0.143113   1.000000   1.000000
     69          0.220115        0.220115   1.000000   1.000000
     70          0.258265        0.258265   1.000000   1.000000
     71          0.260722        0.260722   1.000000   1.000000
     72          0.266806        0.266806   1.000000   1.000000
     73          0.267249        0.267249   1.000000   1.000000
     74          0.270783        0.270783   1.000000   1.000000
     75          0.270783        0.270783   1.000000   1.000000
     76          0.273176        0.273176   1.000000   1.000000
     77          0.296357        0.296357   1.000000   1.000000
     78          0.342421        0.342421   1.000000   1.000000
     79          0.342421        0.342421   1.000000   1.000000
     80          0.383143        0.383143   1.000000   1.000000
     81          0.389547        0.389547   1.000000   1.000000
     82          0.425700        0.425700   1.000000   1.000000
     83          0.425700        0.425700   1.000000   1.000000
     84          0.435073        0.435073   1.000000   1.000000
     85          0.440523        0.440523   1.000000   1.000000
     86          0.554173        0.554173   1.000000   1.000000
     87          0.583921        0.583921   1.000000   1.000000
     88          1.461479        1.461479   1.001009   1.001009
     89          2.773548        2.773548  -0.000000  -0.000000
     90          3.524572        3.524572  -0.000000  -0.000000
     91          3.524572        3.524572  -0.000000  -0.000000
     92          3.713325        3.713325  -0.000000  -0.000000
     93          4.474053        4.474053  -0.000000  -0.000000
     94          4.474053        4.474053  -0.000000  -0.000000
     95          5.715779        5.715777  -0.000000  -0.000000
     96          5.737835        5.737835  -0.000000  -0.000000
     97          5.737835        5.737835  -0.000000  -0.000000
     98          6.344458        6.344456  -0.000000  -0.000000
     99          7.256510        7.256510  -0.000000  -0.000000
    100          7.256510        7.256510  -0.000000  -0.000000
    101          7.470553        7.470548   0.000000   0.000000
    102          8.886898        8.886898   0.000000   0.000000
    103          8.886898        8.886898   0.000000   0.000000
    104          8.918924        8.918922   0.000000   0.000000
    105          8.992833        8.992833   0.000000   0.000000
    106          9.006914        9.006914   0.000000   0.000000
    107          9.173814        9.173814   0.000000   0.000000
    108          9.189156        9.189155   0.000000   0.000000
    109          9.583483        9.583483   0.000000   0.000000
    110          9.594954        9.594954   0.000000   0.000000
    111          9.719343        9.719342   0.000000   0.000000
    112         10.203669       10.203668   0.000000   0.000000
    113         10.229077       10.229077   0.000000   0.000000
    114         10.478209       10.478208   0.000000   0.000000
    115         10.658326       10.658326   0.000000   0.000000
    116         10.658326       10.658326   0.000000   0.000000
 
  0.3333333E+00  0.0000000E+00  0.0000000E+00  0.4444444E+00
      1         -6.144346       -6.144346   1.000000   1.000000
      2         -5.669478       -5.669478   1.000000   1.000000
      3         -4.925858       -4.925858   1.000000   1.000000
      4         -4.349784       -4.349784   1.000000   1.000000
      5         -3.883849       -3.883849   1.000000   1.000000
      6         -3.423994       -3.423994   1.000000   1.000000
      7         -3.096302       -3.096302   1.000000   1.000000
      8         -2.984420       -2.984420   1.000000   1.000000
      9         -2.638540       -2.638540   1.000000   1.000000
     10         -2.524330       -2.524330   1.000000   1.000000
     11         -2.503550       -2.503550   1.000000   1.000000
     12         -2.365946       -2.365946   1.000000   1.000000
     13         -2.358594       -2.358594   1.000000   1.000000
     14         -2.323654       -2.323654   1.000000   1.000000
     15         -2.252129       -2.252129   1.000000   1.000000
     16         -2.223825       -2.223825   1.000000   1.000000
     17         -2.197356       -2.197356   1.000000   1.000000
     18         -2.191267       -2.191267   1.000000   1.000000
     19         -2.186606       -2.186606   1.000000   1.000000
     20         -2.135132       -2.135132   1.000000   1.000000
     21         -2.124522       -2.124522   1.000000   1.000000
     22         -2.122246       -2.122246   1.000000   1.000000
     23         -2.002806       -2.002806   1.000000   1.000000
     24         -1.967747       -1.967747   1.000000   1.000000
     25         -1.959879       -1.959879   1.000000   1.000000
     26         -1.771836       -1.771836   1.000000   1.000000
     27         -1.736112       -1.736112   1.000000   1.000000
     28         -1.693480       -1.693480   1.000000   1.000000
     29         -1.644627       -1.644627   1.000000   1.000000
     30         -1.604940       -1.604940   1.000000   1.000000
     31         -1.575006       -1.575006   1.000000   1.000000
     32         -1.562525       -1.562525   1.000000   1.000000
     33         -1.464223       -1.464223   1.000000   1.000000
     34         -1.439996       -1.439996   1.000000   1.000000
     35         -1.323539       -1.323539   1.000000   1.000000
     36         -1.258420       -1.258420   1.000000   1.000000
     37         -1.214560       -1.214560   1.000000   1.000000
     38         -1.203628       -1.203628   1.000000   1.000000
     39         -1.107993       -1.107993   1.000000   1.000000
     40         -1.074893       -1.074893   1.000000   1.000000
     41         -1.051243       -1.051243   1.000000   1.000000
     42         -1.017624       -1.017624   1.000000   1.000000
     43         -0.958516       -0.958516   1.000000   1.000000
     44         -0.945274       -0.945274   1.000000   1.000000
     45         -0.923920       -0.923920   1.000000   1.000000
     46         -0.804801       -0.804801   1.000000   1.000000
     47         -0.751101       -0.751101   1.000000   1.000000
     48         -0.706929       -0.706929   1.000000   1.000000
     49         -0.704193       -0.704193   1.000000   1.000000
     50         -0.694322       -0.694322   1.000000   1.000000
     51         -0.521658       -0.521658   1.000000   1.000000
     52         -0.518020       -0.518020   1.000000   1.000000
     53         -0.492797       -0.492797   1.000000   1.000000
     54         -0.486328       -0.486328   1.000000   1.000000
     55         -0.443207       -0.443207   1.000000   1.000000
     56         -0.382978       -0.382978   1.000000   1.000000
     57         -0.381305       -0.381305   1.000000   1.000000
     58         -0.347382       -0.347382   1.000000   1.000000
     59         -0.313389       -0.313389   1.000000   1.000000
     60         -0.313294       -0.313294   1.000000   1.000000
     61         -0.260389       -0.260389   1.000000   1.000000
     62         -0.256624       -0.256624   1.000000   1.000000
     63         -0.216468       -0.216468   1.000000   1.000000
     64         -0.192164       -0.192164   1.000000   1.000000
     65         -0.148018       -0.148018   1.000000   1.000000
     66         -0.132111       -0.132111   1.000000   1.000000
     67         -0.103627       -0.103627   1.000000   1.000000
     68         -0.101750       -0.101750   1.000000   1.000000
     69         -0.094560       -0.094560   1.000000   1.000000
     70         -0.077271       -0.077271   1.000000   1.000000
     71         -0.072634       -0.072634   1.000000   1.000000
     72         -0.070309       -0.070309   1.000000   1.000000
     73         -0.056762       -0.056762   1.000000   1.000000
     74          0.002269        0.002269   1.000000   1.000000
     75          0.012501        0.012501   1.000000   1.000000
     76          0.032036        0.032036   1.000000   1.000000
     77          0.062082        0.062082   1.000000   1.000000
     78          0.074512        0.074512   1.000000   1.000000
     79          0.121249        0.121249   1.000000   1.000000
     80          0.152813        0.152813   1.000000   1.000000
     81          0.258549        0.258549   1.000000   1.000000
     82          0.274850        0.274850   1.000000   1.000000
     83          0.287596        0.287596   1.000000   1.000000
     84          0.411653        0.411653   1.000000   1.000000
     85          0.431447        0.431447   1.000000   1.000000
     86          0.448221        0.448221   1.000000   1.000000
     87          0.918283        0.918283   1.000000   1.000000
     88          0.932965        0.932965   1.000000   1.000000
     89          1.690260        1.690260   1.032248   1.032248
     90          1.850683        1.850683   0.912965   0.912965
     91          2.624503        2.624503  -0.000017  -0.000017
     92          3.211280        3.211280  -0.000000  -0.000000
     93          3.772979        3.772979  -0.000000  -0.000000
     94          4.618943        4.618943  -0.000000  -0.000000
     95          5.160381        5.160381  -0.000000  -0.000000
     96          5.836559        5.836559  -0.000000  -0.000000
     97          5.966555        5.966555  -0.000000  -0.000000
     98          6.346235        6.346235  -0.000000  -0.000000
     99          6.643398        6.643398  -0.000000  -0.000000
    100          7.079968        7.079967  -0.000000  -0.000000
    101          7.576901        7.576899   0.000000   0.000000
    102          7.686950        7.686950   0.000000   0.000000
    103          8.283074        8.283072   0.000000   0.000000
    104          8.838442        8.838440   0.000000   0.000000
    105          8.927209        8.927208   0.000000   0.000000
    106          9.023970        9.023970   0.000000   0.000000
    107          9.567137        9.567137   0.000000   0.000000
    108          9.715957        9.715956   0.000000   0.000000
    109         10.068515       10.068515   0.000000   0.000000
    110         10.422042       10.422042   0.000000   0.000000
    111         10.506922       10.506921   0.000000   0.000000
    112         10.526305       10.526305   0.000000   0.000000
    113         10.553238       10.553238   0.000000   0.000000
    114         11.126152       11.126152   0.000000   0.000000
    115         11.145474       11.145472   0.000000   0.000000
    116         11.238526       11.238525   0.000000   0.000000
 
  0.3333333E+00  0.3333333E+00  0.0000000E+00  0.4444444E+00
      1         -4.983515       -4.983515   1.000000   1.000000
      2         -4.612475       -4.612475   1.000000   1.000000
      3         -4.189941       -4.189941   1.000000   1.000000
      4         -4.010119       -4.010119   1.000000   1.000000
      5         -3.447596       -3.447596   1.000000   1.000000
      6         -2.953734       -2.953734   1.000000   1.000000
      7         -2.862248       -2.862248   1.000000   1.000000
      8         -2.859560       -2.859560   1.000000   1.000000
      9         -2.815380       -2.815380   1.000000   1.000000
     10         -2.812757       -2.812757   1.000000   1.000000
     11         -2.768643       -2.768643   1.000000   1.000000
     12         -2.764598       -2.764598   1.000000   1.000000
     13         -2.566928       -2.566928   1.000000   1.000000
     14         -2.376587       -2.376587   1.000000   1.000000
     15         -2.369780       -2.369780   1.000000   1.000000
     16         -2.312242       -2.312242   1.000000   1.000000
     17         -2.215687       -2.215687   1.000000   1.000000
     18         -2.014133       -2.014133   1.000000   1.000000
     19         -1.840616       -1.840616   1.000000   1.000000
     20         -1.839893       -1.839893   1.000000   1.000000
     21         -1.817265       -1.817265   1.000000   1.000000
     22         -1.702695       -1.702695   1.000000   1.000000
     23         -1.693219       -1.693219   1.000000   1.000000
     24         -1.568003       -1.568003   1.000000   1.000000
     25         -1.567817       -1.567817   1.000000   1.000000
     26         -1.511905       -1.511905   1.000000   1.000000
     27         -1.505345       -1.505345   1.000000   1.000000
     28         -1.383564       -1.383564   1.000000   1.000000
     29         -1.383512       -1.383512   1.000000   1.000000
     30         -1.343797       -1.343797   1.000000   1.000000
     31         -1.338179       -1.338179   1.000000   1.000000
     32         -1.335509       -1.335509   1.000000   1.000000
     33         -1.230809       -1.230809   1.000000   1.000000
     34         -1.229242       -1.229242   1.000000   1.000000
     35         -1.181370       -1.181370   1.000000   1.000000
     36         -1.133870       -1.133870   1.000000   1.000000
     37         -1.132599       -1.132599   1.000000   1.000000
     38         -1.127756       -1.127756   1.000000   1.000000
     39         -1.116792       -1.116792   1.000000   1.000000
     40         -1.064123       -1.064123   1.000000   1.000000
     41         -1.019240       -1.019240   1.000000   1.000000
     42         -1.011837       -1.011837   1.000000   1.000000
     43         -1.001712       -1.001712   1.000000   1.000000
     44         -0.990277       -0.990277   1.000000   1.000000
     45         -0.990111       -0.990111   1.000000   1.000000
     46         -0.970370       -0.970370   1.000000   1.000000
     47         -0.914015       -0.914015   1.000000   1.000000
     48         -0.904530       -0.904530   1.000000   1.000000
     49         -0.893670       -0.893670   1.000000   1.000000
     50         -0.819704       -0.819704   1.000000   1.000000
     51         -0.801772       -0.801772   1.000000   1.000000
     52         -0.791626       -0.791626   1.000000   1.000000
     53         -0.787139       -0.787138   1.000000   1.000000
     54         -0.762535       -0.762535   1.000000   1.000000
     55         -0.749555       -0.749555   1.000000   1.000000
     56         -0.644597       -0.644597   1.000000   1.000000
     57         -0.643613       -0.643613   1.000000   1.000000
     58         -0.604913       -0.604913   1.000000   1.000000
     59         -0.562303       -0.562303   1.000000   1.000000
     60         -0.514984       -0.514984   1.000000   1.000000
     61         -0.493838       -0.493838   1.000000   1.000000
     62         -0.447125       -0.447125   1.000000   1.000000
     63         -0.443404       -0.443404   1.000000   1.000000
     64         -0.294559       -0.294559   1.000000   1.000000
     65         -0.182649       -0.182649   1.000000   1.000000
     66         -0.175566       -0.175566   1.000000   1.000000
     67         -0.143791       -0.143791   1.000000   1.000000
     68         -0.031981       -0.031981   1.000000   1.000000
     69         -0.016044       -0.016044   1.000000   1.000000
     70         -0.001779       -0.001779   1.000000   1.000000
     71          0.044533        0.044533   1.000000   1.000000
     72          0.065771        0.065771   1.000000   1.000000
     73          0.157611        0.157611   1.000000   1.000000
     74          0.163060        0.163060   1.000000   1.000000
     75          0.165425        0.165425   1.000000   1.000000
     76          0.180930        0.180930   1.000000   1.000000
     77          0.200097        0.200097   1.000000   1.000000
     78          0.202007        0.202007   1.000000   1.000000
     79          0.254302        0.254302   1.000000   1.000000
     80          0.283137        0.283137   1.000000   1.000000
     81          0.287947        0.287947   1.000000   1.000000
     82          0.300562        0.300562   1.000000   1.000000
     83          0.303497        0.303497   1.000000   1.000000
     84          0.336740        0.336740   1.000000   1.000000
     85          0.348965        0.348965   1.000000   1.000000
     86          1.062082        1.062082   1.000000   1.000000
     87          1.831091        1.831091   0.953624   0.953624
     88          1.832186        1.832186   0.951604   0.951604
     89          2.042648        2.042648   0.205857   0.205857
     90          2.043993        2.043993   0.201398   0.201398
     91          2.421140        2.421140  -0.003067  -0.003067
     92          2.426415        2.426415  -0.002764  -0.002764
     93          2.439954        2.439954  -0.002100  -0.002100
     94          2.847469        2.847469  -0.000000  -0.000000
     95          2.876453        2.876453  -0.000000  -0.000000
     96          3.951548        3.951548  -0.000000  -0.000000
     97          4.930994        4.930994  -0.000000  -0.000000
     98          5.335088        5.335088  -0.000000  -0.000000
     99          5.538405        5.538405  -0.000000  -0.000000
    100          5.910185        5.910185  -0.000000  -0.000000
    101          5.947018        5.947018  -0.000000  -0.000000
    102          6.824563        6.824563  -0.000000  -0.000000
    103          6.933340        6.933340  -0.000000  -0.000000
    104          7.020806        7.020806  -0.000000  -0.000000
    105          7.429185        7.429185   0.000000   0.000000
    106          7.631209        7.631209   0.000000   0.000000
    107          8.000048        8.000048   0.000000   0.000000
    108          8.330488        8.330488   0.000000   0.000000
    109          8.563295        8.563294   0.000000   0.000000
    110          8.820953        8.820951   0.000000   0.000000
    111          9.167848        9.167848   0.000000   0.000000
    112          9.374528        9.374528   0.000000   0.000000
    113          9.701019        9.701016   0.000000   0.000000
    114          9.959384        9.959384   0.000000   0.000000
    115         10.300930       10.300929   0.000000   0.000000
    116         10.652084       10.652083   0.000000   0.000000
