<?xml version="1.0" encoding="ISO-8859-1"?>
<modeling>
 <generator>
  <i name="program" type="string">vasp </i>
  <i name="version" type="string">6.3.2  </i>
  <i name="subversion" type="string">27Jun22 (build Aug 17 2022 15:43:34) complex                          parallel </i>
  <i name="platform" type="string">tv2STDVTST </i>
  <i name="date" type="string">2025 02 04 </i>
  <i name="time" type="string">12:50:01 </i>
 </generator>
 <incar>
  <i type="int" name="ISTART">     0</i>
  <i type="string" name="PREC">Normal</i>
  <i type="int" name="ISPIN">     2</i>
  <i type="int" name="ICHARG">     2</i>
  <i type="int" name="IBRION">     2</i>
  <i name="EDIFF">      0.00020000</i>
  <i name="EDIFFG">     -0.03000000</i>
  <i type="int" name="NSW">   800</i>
  <i type="int" name="ISIF">     2</i>
  <i type="int" name="ISYM">     1</i>
  <i name="ENCUT">    400.00000000</i>
  <i name="POTIM">      0.50000000</i>
  <i type="logical" name="LREAL"> F  </i>
  <i type="int" name="ISMEAR">     1</i>
  <i name="SIGMA">      0.20000000</i>
  <i type="logical" name="LWAVE"> F  </i>
  <i type="logical" name="LCHARG"> F  </i>
  <i type="string" name="GGA">PE</i>
  <i type="int" name="IVDW">    11</i>
 </incar>
 <primitive_cell>
  <structure name="primitive_cell" >
   <crystal>
    <varray name="basis" >
     <v>       3.63000011       0.00000000       0.00000000 </v>
     <v>       0.00000000       3.63000011       0.00000000 </v>
     <v>       0.00000000       0.00000000      27.70499992 </v>
    </varray>
    <i name="volume">    365.06603650 </i>
    <varray name="rec_basis" >
     <v>       0.27548208       0.00000000       0.00000000 </v>
     <v>       0.00000000       0.27548208       0.00000000 </v>
     <v>       0.00000000       0.00000000       0.03609457 </v>
    </varray>
   </crystal>
   <varray name="positions" >
    <v>       0.00000000       0.00000000       0.00000000 </v>
    <v>       0.50000000       0.50000000       0.00000000 </v>
    <v>       0.00000000       0.50000000       0.06551164 </v>
    <v>       0.50000000       0.00000000       0.06551164 </v>
    <v>       0.00000000       0.00000000       0.12876120 </v>
    <v>       0.50000000       0.50000000       0.12876120 </v>
    <v>       0.00000000       0.50000000       0.19193187 </v>
    <v>       0.50000000       0.00000000       0.19193187 </v>
    <v>       0.00000000       0.00000000       0.25406550 </v>
    <v>       0.50000000       0.50000000       0.25406550 </v>
    <v>       0.00000000       0.50000000       0.31747855 </v>
    <v>       0.50000000       0.00000000       0.31747855 </v>
    <v>       0.00000000       0.00000000       0.38132233 </v>
    <v>       0.50000000       0.50000000       0.38132233 </v>
    <v>       0.00000000       0.50000000       0.44440075 </v>
    <v>       0.50000000       0.00000000       0.44440075 </v>
    <v>       1.00000000       0.50000000       0.50150658 </v>
    <v>       1.00000000       0.50000000       0.52843313 </v>
   </varray>
  </structure>
  <varray name="primitive_index" >
   <v type="int" >        1 </v>
   <v type="int" >        2 </v>
   <v type="int" >        3 </v>
   <v type="int" >        4 </v>
   <v type="int" >        5 </v>
   <v type="int" >        6 </v>
   <v type="int" >        7 </v>
   <v type="int" >        8 </v>
   <v type="int" >        9 </v>
   <v type="int" >       10 </v>
   <v type="int" >       11 </v>
   <v type="int" >       12 </v>
   <v type="int" >       13 </v>
   <v type="int" >       14 </v>
   <v type="int" >       15 </v>
   <v type="int" >       16 </v>
   <v type="int" >       17 </v>
   <v type="int" >       18 </v>
  </varray>
 </primitive_cell>
 <kpoints>
  <generation param="Monkhorst-Pack">
   <v type="int" name="divisions">       3        3        1 </v>
   <v name="usershift">      0.00000000       0.00000000       0.00000000 </v>
   <v name="genvec1">      0.33333333       0.00000000       0.00000000 </v>
   <v name="genvec2">      0.00000000       0.33333333       0.00000000 </v>
   <v name="genvec3">      0.00000000       0.00000000       1.00000000 </v>
   <v name="shift">      0.00000000       0.00000000       0.00000000 </v>
  </generation>
  <varray name="kpointlist" >
   <v>       0.00000000       0.00000000       0.00000000 </v>
   <v>       0.33333333       0.00000000       0.00000000 </v>
   <v>       0.33333333       0.33333333       0.00000000 </v>
  </varray>
  <varray name="weights" >
   <v>       0.11111111 </v>
   <v>       0.44444444 </v>
   <v>       0.44444444 </v>
  </varray>
 </kpoints>
 <parameters>
  <separator name="general" >
   <i type="string" name="SYSTEM">unknown system</i>
   <i type="logical" name="LCOMPAT"> F  </i>
  </separator>
  <separator name="electronic" >
   <i type="string" name="PREC">normal</i>
   <i name="ENMAX">    400.00000000</i>
   <i name="ENAUG">    586.98000000</i>
   <i name="EDIFF">      0.00020000</i>
   <i type="int" name="IALGO">    38</i>
   <i type="int" name="IWAVPR">    11</i>
   <i type="int" name="NBANDS">   116</i>
   <i type="int" name="NBANDSLOW">    -1</i>
   <i type="int" name="NBANDSHIGH">    -1</i>
   <i name="NELECT">    178.00000000</i>
   <i type="int" name="TURBO">     0</i>
   <i type="int" name="IRESTART">     0</i>
   <i type="int" name="NREBOOT">     0</i>
   <i type="int" name="NMIN">     0</i>
   <i name="EREF">      0.00000000</i>
   <separator name="electronic smearing" >
    <i type="int" name="ISMEAR">     1</i>
    <i name="SIGMA">      0.20000000</i>
    <i name="KSPACING">      0.50000000</i>
    <i type="logical" name="KGAMMA"> T  </i>
    <i type="logical" name="KBLOWUP"> T  </i>
   </separator>
   <separator name="electronic projectors" >
    <i type="logical" name="LREAL"> F  </i>
    <v name="ROPT">      0.00000000      0.00000000</v>
    <i type="int" name="LMAXPAW">  -100</i>
    <i type="int" name="LMAXMIX">     2</i>
    <i type="logical" name="NLSPLINE"> F  </i>
   </separator>
   <separator name="electronic startup" >
    <i type="int" name="ISTART">     0</i>
    <i type="int" name="ICHARG">     2</i>
    <i type="int" name="INIWAV">     1</i>
   </separator>
   <separator name="electronic spin" >
    <i type="int" name="ISPIN">     2</i>
    <i type="logical" name="LNONCOLLINEAR"> F  </i>
    <v name="MAGMOM">      1.00000000      1.00000000      1.00000000      1.00000000      1.00000000      1.00000000      1.00000000      1.00000000      1.00000000      1.00000000      1.00000000      1.00000000      1.00000000      1.00000000      1.00000000      1.00000000      1.00000000      1.00000000</v>
    <i name="NUPDOWN">     -1.00000000</i>
    <i type="logical" name="LSORBIT"> F  </i>
    <v name="SAXIS">      0.00000000      0.00000000      1.00000000</v>
    <i type="logical" name="LSPIRAL"> F  </i>
    <v name="QSPIRAL">      0.00000000      0.00000000      0.00000000</v>
    <i type="logical" name="LZEROZ"> F  </i>
   </separator>
   <separator name="electronic exchange-correlation" >
    <i type="logical" name="LASPH"> F  </i>
    <i type="logical" name="LMETAGGA"> F  </i>
   </separator>
   <separator name="electronic convergence" >
    <i type="int" name="NELM">    60</i>
    <i type="int" name="NELMDL">    -5</i>
    <i type="int" name="NELMIN">     2</i>
    <i name="ENINI">    400.00000000</i>
    <separator name="electronic convergence detail" >
     <i type="logical" name="LDIAG"> T  </i>
     <i type="logical" name="LSUBROT"> F  </i>
     <i name="WEIMIN">      0.00100000</i>
     <i name="EBREAK">      0.00000043</i>
     <i name="DEPER">      0.30000000</i>
     <i type="int" name="NRMM">     4</i>
     <i name="TIME">      0.40000000</i>
    </separator>
   </separator>
   <separator name="electronic mixer" >
    <i name="AMIX">      0.40000000</i>
    <i name="BMIX">      1.00000000</i>
    <i name="AMIN">      0.10000000</i>
    <i name="AMIX_MAG">      1.60000000</i>
    <i name="BMIX_MAG">      1.00000000</i>
    <separator name="electronic mixer details" >
     <i type="int" name="IMIX">     4</i>
     <i type="logical" name="MIXFIRST"> F  </i>
     <i type="int" name="MAXMIX">   -45</i>
     <i name="WC">    100.00000000</i>
     <i type="int" name="INIMIX">     1</i>
     <i type="int" name="MIXPRE">     1</i>
     <i type="int" name="MREMOVE">     5</i>
    </separator>
   </separator>
   <separator name="electronic dipolcorrection" >
    <i type="logical" name="LDIPOL"> F  </i>
    <i type="logical" name="LMONO"> F  </i>
    <i type="int" name="IDIPOL">     0</i>
    <i name="EPSILON">      1.00000000</i>
    <v name="DIPOL">   -100.00000000   -100.00000000   -100.00000000</v>
    <i name="EFIELD">      0.00000000</i>
   </separator>
  </separator>
  <separator name="grids" >
   <i type="int" name="NGX">    18</i>
   <i type="int" name="NGY">    18</i>
   <i type="int" name="NGZ">   140</i>
   <i type="int" name="NGXF">    36</i>
   <i type="int" name="NGYF">    36</i>
   <i type="int" name="NGZF">   280</i>
   <i type="logical" name="ADDGRID"> F  </i>
  </separator>
  <separator name="ionic" >
   <i type="int" name="NSW">   800</i>
   <i type="int" name="IBRION">     2</i>
   <i type="int" name="MDALGO">     0</i>
   <i type="int" name="ISIF">     2</i>
   <i name="PSTRESS">      0.00000000</i>
   <i name="EDIFFG">     -0.03000000</i>
   <i type="int" name="NFREE">     1</i>
   <i name="POTIM">      0.50000000</i>
   <i name="SMASS">     -3.00000000</i>
   <i name="SCALEE">      1.00000000</i>
  </separator>
  <separator name="ionic md" >
   <i name="TEBEG">      0.00010000</i>
   <i name="TEEND">      0.00010000</i>
   <i type="int" name="NBLOCK">     1</i>
   <i type="int" name="KBLOCK">   800</i>
   <i type="int" name="NPACO">   256</i>
   <i name="APACO">     10.00000000</i>
  </separator>
  <separator name="symmetry" >
   <i type="int" name="ISYM">     1</i>
   <i name="SYMPREC">      0.00001000</i>
  </separator>
  <separator name="dos" >
   <i type="int" name="LORBIT">     0</i>
   <v name="RWIGS">     -1.00000000     -1.00000000</v>
   <i type="int" name="NEDOS">   301</i>
   <i name="EMIN">     10.00000000</i>
   <i name="EMAX">    -10.00000000</i>
   <i name="EFERMI">      0.00000000</i>
  </separator>
  <separator name="writing" >
   <i type="int" name="NWRITE">     2</i>
   <i type="logical" name="LWAVE"> F  </i>
   <i type="logical" name="LDOWNSAMPLE"> F  </i>
   <i type="logical" name="LCHARG"> F  </i>
   <i type="logical" name="LPARD"> F  </i>
   <i type="logical" name="LVTOT"> F  </i>
   <i type="logical" name="LVHAR"> F  </i>
   <i type="logical" name="LELF"> F  </i>
   <i type="logical" name="LOPTICS"> F  </i>
   <v name="STM">      0.00000000      0.00000000      0.00000000      0.00000000      0.00000000      0.00000000      0.00000000</v>
  </separator>
  <separator name="performance" >
   <i type="int" name="NPAR">     4</i>
   <i type="int" name="NSIM">     4</i>
   <i type="int" name="NBLK">    -1</i>
   <i type="logical" name="LPLANE"> T  </i>
   <i type="logical" name="LSCALAPACK"> T  </i>
   <i type="logical" name="LSCAAWARE"> F  </i>
   <i type="logical" name="LSCALU"> F  </i>
   <i type="logical" name="LASYNC"> F  </i>
   <i type="logical" name="LORBITALREAL"> F  </i>
  </separator>
  <separator name="miscellaneous" >
   <i type="int" name="IDIOT">     3</i>
   <i type="int" name="PHON_NSTRUCT">    -1</i>
   <i type="logical" name="LMUSIC"> F  </i>
   <v name="POMASS">     63.54600000      1.00000000</v>
   <v name="DARWINR">      0.00000000      0.00000000</v>
   <v name="DARWINV">      1.00000000      1.00000000</v>
   <i type="logical" name="LCORR"> T  </i>
  </separator>
  <i type="logical" name="GGA_COMPAT"> T  </i>
  <i type="logical" name="LBERRY"> F  </i>
  <i type="int" name="ICORELEVEL">     0</i>
  <i type="logical" name="LDAU"> F  </i>
  <i type="int" name="I_CONSTRAINED_M">     0</i>
  <separator name="electronic exchange-correlation" >
   <i type="string" name="GGA">PE</i>
   <i type="int" name="VOSKOWN">     0</i>
   <i type="logical" name="LHFCALC"> F  </i>
   <i type="string" name="PRECFOCK"></i>
   <i type="logical" name="LSYMGRAD"> F  </i>
   <i type="logical" name="LHFONE"> F  </i>
   <i type="logical" name="LRHFCALC"> F  </i>
   <i type="logical" name="LTHOMAS"> F  </i>
   <i type="logical" name="LMODELHF"> F  </i>
   <i type="logical" name="LFOCKACE"> F  </i>
   <i name="ENCUT4O">     -1.00000000</i>
   <i type="int" name="EXXOEP">     0</i>
   <i type="int" name="FOURORBIT">     0</i>
   <i name="AEXX">      0.00000000</i>
   <i name="HFALPHA">      0.00000000</i>
   <i name="MCALPHA">      0.00000000</i>
   <i name="ALDAX">      1.00000000</i>
   <i name="AGGAX">      1.00000000</i>
   <i name="ALDAC">      1.00000000</i>
   <i name="AGGAC">      1.00000000</i>
   <i type="int" name="NKREDX">     1</i>
   <i type="int" name="NKREDY">     1</i>
   <i type="int" name="NKREDZ">     1</i>
   <i type="logical" name="SHIFTRED"> F  </i>
   <i type="logical" name="ODDONLY"> F  </i>
   <i type="logical" name="EVENONLY"> F  </i>
   <i type="int" name="LMAXFOCK">     0</i>
   <i type="int" name="NMAXFOCKAE">     0</i>
   <i type="logical" name="LFOCKAEDFT"> F  </i>
   <i name="HFSCREEN">      0.00000000</i>
   <i name="HFSCREENC">      0.00000000</i>
   <i type="int" name="NBANDSGWLOW">     0</i>
  </separator>
  <separator name="vdW DFT" >
   <i type="logical" name="LUSE_VDW"> F  </i>
   <i name="Zab_VDW">     -0.84910000</i>
   <i name="PARAM1">      0.12340000</i>
   <i name="PARAM2">      1.00000000</i>
   <i name="PARAM3">      0.00000000</i>
  </separator>
  <separator name="model GW" >
   <i type="int" name="MODEL_GW">     0</i>
   <i name="MODEL_EPS0">     12.16886788</i>
   <i name="MODEL_ALPHA">      1.00000000</i>
  </separator>
  <separator name="linear response parameters" >
   <i type="logical" name="LEPSILON"> F  </i>
   <i type="logical" name="LRPA"> F  </i>
   <i type="logical" name="LNABLA"> F  </i>
   <i type="logical" name="LVEL"> F  </i>
   <i name="CSHIFT">      0.10000000</i>
   <i name="OMEGAMAX">     -1.00000000</i>
   <i name="DEG_THRESHOLD">      0.00200000</i>
   <i name="RTIME">     -0.10000000</i>
   <i name="WPLASMAI">      0.00000000</i>
   <v name="DFIELD">      0.00000000      0.00000000      0.00000000</v>
   <v name="WPLASMA">      0.00000000      0.00000000      0.00000000      0.00000000      0.00000000      0.00000000      0.00000000      0.00000000      0.00000000</v>
  </separator>
  <separator name="orbital magnetization" >
   <i type="logical" name="NUCIND"> F  </i>
   <v name="MAGPOS">      0.00000000      0.00000000      0.00000000</v>
   <i type="logical" name="LNICSALL"> T  </i>
   <i type="logical" name="ORBITALMAG"> F  </i>
   <i type="logical" name="LMAGBLOCH"> F  </i>
   <i type="logical" name="LCHIMAG"> F  </i>
   <i type="logical" name="LGAUGE"> T  </i>
   <i type="int" name="MAGATOM">     0</i>
   <v name="MAGDIPOL">      0.00000000      0.00000000      0.00000000</v>
   <v name="AVECCONST">      0.00000000      0.00000000      0.00000000</v>
  </separator>
  <separator name="response functions" >
   <i type="logical" name="LFINITE_TEMPERATURE"> F  </i>
   <i type="logical" name="LADDER"> F  </i>
   <i type="logical" name="LRPAFORCE"> F  </i>
   <i type="logical" name="LFXC"> F  </i>
   <i type="logical" name="LHARTREE"> T  </i>
   <i type="int" name="IBSE">     0</i>
   <v type="int" name="KPOINT">    -1     0     0     0</v>
   <i type="logical" name="LTCTC"> F  </i>
   <i type="logical" name="LTCTE"> F  </i>
   <i type="logical" name="LTETE"> F  </i>
   <i type="logical" name="LTRIPLET"> F  </i>
   <i type="logical" name="LFXCEPS"> F  </i>
   <i type="logical" name="LFXHEG"> F  </i>
   <i type="int" name="NATURALO">     2</i>
   <i type="logical" name="LHOLEGF"> F  </i>
   <i type="logical" name="L2ORDER"> F  </i>
   <i type="logical" name="LDMP1"> F  </i>
   <i type="logical" name="LMP2LT"> F  </i>
   <i type="logical" name="LSMP2LT"> F  </i>
   <i type="logical" name="LGWLF"> F  </i>
   <i name="ENCUTGW">     -2.00000000</i>
   <i name="ENCUTGWSOFT">     -2.00000000</i>
   <i name="ENCUTLF">     -1.00000000</i>
   <i type="logical" name="LESF_SPLINES"> F  </i>
   <i type="int" name="LMAXMP2">    -1</i>
   <i name="SCISSOR">      0.00000000</i>
   <i type="int" name="NOMEGA">     0</i>
   <i type="int" name="NOMEGAR">     0</i>
   <i type="int" name="NBANDSGW">    -1</i>
   <i type="int" name="NBANDSO">    -1</i>
   <i type="int" name="NBANDSV">    -1</i>
   <i type="int" name="NELMGW">     1</i>
   <i type="int" name="NELMHF">     1</i>
   <i type="int" name="DIM">     3</i>
   <i type="int" name="IESPILON">     4</i>
   <i type="int" name="ANTIRES">     0</i>
   <i name="OMEGAMAX">    -30.00000000</i>
   <i name="OMEGAMIN">    -30.00000000</i>
   <i name="OMEGATL">   -200.00000000</i>
   <i type="int" name="OMEGAGRID">     0</i>
   <i name="CSHIFT">     -0.10000000</i>
   <i type="logical" name="LSELFENERGY"> F  </i>
   <i type="logical" name="LSPECTRAL"> F  </i>
   <i type="logical" name="LSPECTRALGW"> F  </i>
   <i type="logical" name="LSINGLES"> F  </i>
   <i type="logical" name="LFERMIGW"> F  </i>
   <i type="logical" name="ODDONLYGW"> F  </i>
   <i type="logical" name="EVENONLYGW"> F  </i>
   <i type="int" name="NKREDLFX">     1</i>
   <i type="int" name="NKREDLFY">     1</i>
   <i type="int" name="NKREDLFZ">     1</i>
   <i type="int" name="MAXMEM">  2800</i>
   <i type="int" name="TELESCOPE">     0</i>
   <i type="int" name="NTAUPAR">    -1</i>
   <i type="int" name="NOMEGAPAR">    -1</i>
   <i name="DAMP_NEWTON">      0.80000001</i>
   <i name="LAMBDA">      1.00000000</i>
  </separator>
  <separator name="External order field" >
   <i name="OFIELD_KAPPA">      0.00000000</i>
   <v name="OFIELD_K">      0.00000000      0.00000000      0.00000000</v>
   <i name="OFIELD_Q6_NEAR">      0.00000000</i>
   <i name="OFIELD_Q6_FAR">      0.00000000</i>
   <i name="OFIELD_A">      0.00000000</i>
  </separator>
  <separator name="optional k-points parameters" >
   <i type="int" name="KPOINTS_OPT_MODE">     1</i>
   <i type="logical" name="LKPOINTS_OPT"> F  </i>
  </separator>
 </parameters>
 <atominfo>
  <atoms>      18 </atoms>
  <types>       2 </types>
  <array name="atoms" >
   <dimension dim="1">ion</dimension>
   <field type="string">element</field>
   <field type="int">atomtype</field>
   <set>
    <rc><c>Cu</c><c>   1</c></rc>
    <rc><c>Cu</c><c>   1</c></rc>
    <rc><c>Cu</c><c>   1</c></rc>
    <rc><c>Cu</c><c>   1</c></rc>
    <rc><c>Cu</c><c>   1</c></rc>
    <rc><c>Cu</c><c>   1</c></rc>
    <rc><c>Cu</c><c>   1</c></rc>
    <rc><c>Cu</c><c>   1</c></rc>
    <rc><c>Cu</c><c>   1</c></rc>
    <rc><c>Cu</c><c>   1</c></rc>
    <rc><c>Cu</c><c>   1</c></rc>
    <rc><c>Cu</c><c>   1</c></rc>
    <rc><c>Cu</c><c>   1</c></rc>
    <rc><c>Cu</c><c>   1</c></rc>
    <rc><c>Cu</c><c>   1</c></rc>
    <rc><c>Cu</c><c>   1</c></rc>
    <rc><c>H </c><c>   2</c></rc>
    <rc><c>H </c><c>   2</c></rc>
   </set>
  </array>
  <array name="atomtypes" >
   <dimension dim="1">type</dimension>
   <field type="int">atomspertype</field>
   <field type="string">element</field>
   <field>mass</field>
   <field>valence</field>
   <field type="string">pseudopotential</field>
   <set>
    <rc><c>  16</c><c>Cu</c><c>     63.54600000</c><c>     11.00000000</c><c>  PAW_PBE Cu 22Jun2005                  </c></rc>
    <rc><c>   2</c><c>H </c><c>      1.00000000</c><c>      1.00000000</c><c>  PAW_PBE H 15Jun2001                   </c></rc>
   </set>
  </array>
 </atominfo>
 <structure name="initialpos" >
  <crystal>
   <varray name="basis" >
    <v>       3.63000011       0.00000000       0.00000000 </v>
    <v>       0.00000000       3.63000011       0.00000000 </v>
    <v>       0.00000000       0.00000000      27.70499992 </v>
   </varray>
   <i name="volume">    365.06603650 </i>
   <varray name="rec_basis" >
    <v>       0.27548208       0.00000000       0.00000000 </v>
    <v>       0.00000000       0.27548208       0.00000000 </v>
    <v>       0.00000000       0.00000000       0.03609457 </v>
   </varray>
  </crystal>
  <varray name="positions" >
   <v>       0.00000000       0.00000000       0.00000000 </v>
   <v>       0.50000000       0.50000000       0.00000000 </v>
   <v>       0.00000000       0.50000000       0.06551164 </v>
   <v>       0.50000000       0.00000000       0.06551164 </v>
   <v>       0.00000000       0.00000000       0.12876120 </v>
   <v>       0.50000000       0.50000000       0.12876120 </v>
   <v>       0.00000000       0.50000000       0.19193187 </v>
   <v>       0.50000000       0.00000000       0.19193187 </v>
   <v>       0.00000000       0.00000000       0.25406550 </v>
   <v>       0.50000000       0.50000000       0.25406550 </v>
   <v>       0.00000000       0.50000000       0.31747855 </v>
   <v>       0.50000000       0.00000000       0.31747855 </v>
   <v>       0.00000000       0.00000000       0.38132233 </v>
   <v>       0.50000000       0.50000000       0.38132233 </v>
   <v>       0.00000000       0.50000000       0.44440075 </v>
   <v>       0.50000000       0.00000000       0.44440075 </v>
   <v>       1.00000000       0.50000000       0.50150658 </v>
   <v>       1.00000000       0.50000000       0.52843313 </v>
  </varray>
 </structure>
 <calculation>
  <scstep>
   <time name="dav">    0.83    0.84</time>
   <time name="total">    0.87    0.88</time>
   <energy>
    <i name="alphaZ">    521.04204123 </i>
    <i name="ewald"> 102572.35727455 </i>
    <i name="hartreedc">-124479.47574799 </i>
    <i name="XCdc">    738.53132000 </i>
    <i name="pawpsdc">  19653.14859652 </i>
    <i name="pawaedc"> -21346.34030725 </i>
    <i name="eentropy">      0.00399072 </i>
    <i name="bandstr">   1721.14858225 </i>
    <i name="atom">  22280.27950853 </i>
    <i name="e_fr_energy">   1660.69525857 </i>
    <i name="e_wo_entrp">   1660.69126785 </i>
    <i name="e_0_energy">   1660.69392833 </i>
   </energy>
  </scstep>
  <scstep>
   <time name="dav">    0.84    0.85</time>
   <time name="total">    0.84    0.85</time>
   <energy>
    <i name="e_fr_energy">    195.89309573 </i>
    <i name="e_wo_entrp">    195.88494395 </i>
    <i name="e_0_energy">    195.89037847 </i>
   </energy>
  </scstep>
  <scstep>
   <time name="dav">    0.83    0.83</time>
   <time name="total">    0.83    0.84</time>
   <energy>
    <i name="e_fr_energy">    -53.62979236 </i>
    <i name="e_wo_entrp">    -53.64048877 </i>
    <i name="e_0_energy">    -53.63335783 </i>
   </energy>
  </scstep>
  <scstep>
   <time name="dav">    0.92    0.93</time>
   <time name="total">    0.92    0.93</time>
   <energy>
    <i name="e_fr_energy">    -69.11501859 </i>
    <i name="e_wo_entrp">    -69.12497749 </i>
    <i name="e_0_energy">    -69.11833822 </i>
   </energy>
  </scstep>
  <scstep>
   <time name="dav">    0.91    0.91</time>
   <time name="total">    1.02    1.02</time>
   <energy>
    <i name="e_fr_energy">    -69.45439960 </i>
    <i name="e_wo_entrp">    -69.46438486 </i>
    <i name="e_0_energy">    -69.45772802 </i>
   </energy>
  </scstep>
  <scstep>
   <time name="dav">    0.90    0.91</time>
   <time name="total">    1.04    1.05</time>
   <energy>
    <i name="e_fr_energy">    -57.23227532 </i>
    <i name="e_wo_entrp">    -57.21415778 </i>
    <i name="e_0_energy">    -57.22623614 </i>
   </energy>
  </scstep>
  <scstep>
   <time name="dav">    0.93    0.94</time>
   <time name="total">    1.07    1.08</time>
   <energy>
    <i name="e_fr_energy">    -51.25104459 </i>
    <i name="e_wo_entrp">    -51.23727910 </i>
    <i name="e_0_energy">    -51.24645609 </i>
   </energy>
  </scstep>
  <scstep>
   <time name="dav">    0.98    0.99</time>
   <time name="total">    1.11    1.12</time>
   <energy>
    <i name="e_fr_energy">    -52.54153857 </i>
    <i name="e_wo_entrp">    -52.56856556 </i>
    <i name="e_0_energy">    -52.55054757 </i>
   </energy>
  </scstep>
  <scstep>
   <time name="dav">    1.04    1.04</time>
   <time name="total">    1.16    1.17</time>
   <energy>
    <i name="e_fr_energy">    -50.28304564 </i>
    <i name="e_wo_entrp">    -50.25756837 </i>
    <i name="e_0_energy">    -50.27455322 </i>
   </energy>
  </scstep>
  <scstep>
   <time name="dav">    1.25    1.26</time>
   <time name="total">    1.39    1.40</time>
   <energy>
    <i name="e_fr_energy">    -50.01970493 </i>
    <i name="e_wo_entrp">    -50.00647874 </i>
    <i name="e_0_energy">    -50.01529620 </i>
   </energy>
  </scstep>
  <scstep>
   <time name="dav">    1.07    1.08</time>
   <time name="total">    1.20    1.21</time>
   <energy>
    <i name="e_fr_energy">    -51.42667280 </i>
    <i name="e_wo_entrp">    -51.40524368 </i>
    <i name="e_0_energy">    -51.41952976 </i>
   </energy>
  </scstep>
  <scstep>
   <time name="dav">    0.98    0.99</time>
   <time name="total">    1.11    1.12</time>
   <energy>
    <i name="e_fr_energy">    -51.63172867 </i>
    <i name="e_wo_entrp">    -51.60394708 </i>
    <i name="e_0_energy">    -51.62246814 </i>
   </energy>
  </scstep>
  <scstep>
   <time name="dav">    1.07    1.08</time>
   <time name="total">    1.20    1.21</time>
   <energy>
    <i name="e_fr_energy">    -53.41662648 </i>
    <i name="e_wo_entrp">    -53.40462474 </i>
    <i name="e_0_energy">    -53.41262590 </i>
   </energy>
  </scstep>
  <scstep>
   <time name="dav">    0.99    0.99</time>
   <time name="total">    1.12    1.13</time>
   <energy>
    <i name="e_fr_energy">    -54.31545269 </i>
    <i name="e_wo_entrp">    -54.30031569 </i>
    <i name="e_0_energy">    -54.31040702 </i>
   </energy>
  </scstep>
  <scstep>
   <time name="dav">    0.97    0.98</time>
   <time name="total">    1.11    1.12</time>
   <energy>
    <i name="e_fr_energy">    -58.57257177 </i>
    <i name="e_wo_entrp">    -58.55563407 </i>
    <i name="e_0_energy">    -58.56692587 </i>
   </energy>
  </scstep>
  <scstep>
   <time name="dav">    1.01    1.02</time>
   <time name="total">    1.15    1.16</time>
   <energy>
    <i name="e_fr_energy">    -59.96847861 </i>
    <i name="e_wo_entrp">    -59.95727134 </i>
    <i name="e_0_energy">    -59.96474286 </i>
   </energy>
  </scstep>
  <scstep>
   <time name="dav">    1.02    1.03</time>
   <time name="total">    1.15    1.16</time>
   <energy>
    <i name="e_fr_energy">    -60.18482653 </i>
    <i name="e_wo_entrp">    -60.16925070 </i>
    <i name="e_0_energy">    -60.17963459 </i>
   </energy>
  </scstep>
  <scstep>
   <time name="dav">    0.98    0.99</time>
   <time name="total">    1.11    1.12</time>
   <energy>
    <i name="e_fr_energy">    -60.56062915 </i>
    <i name="e_wo_entrp">    -60.53949289 </i>
    <i name="e_0_energy">    -60.55358373 </i>
   </energy>
  </scstep>
  <scstep>
   <time name="dav">    1.01    1.02</time>
   <time name="total">    1.14    1.15</time>
   <energy>
    <i name="e_fr_energy">    -60.85011102 </i>
    <i name="e_wo_entrp">    -60.82282639 </i>
    <i name="e_0_energy">    -60.84101614 </i>
   </energy>
  </scstep>
  <scstep>
   <time name="dav">    0.93    0.94</time>
   <time name="total">    1.06    1.07</time>
   <energy>
    <i name="e_fr_energy">    -61.22007095 </i>
    <i name="e_wo_entrp">    -61.19296381 </i>
    <i name="e_0_energy">    -61.21103524 </i>
   </energy>
  </scstep>
  <scstep>
   <time name="dav">    1.07    1.08</time>
   <time name="total">    1.20    1.21</time>
   <energy>
    <i name="e_fr_energy">    -61.49281829 </i>
    <i name="e_wo_entrp">    -61.46436076 </i>
    <i name="e_0_energy">    -61.48333245 </i>
   </energy>
  </scstep>
  <scstep>
   <time name="dav">    1.04    1.05</time>
   <time name="total">    1.18    1.19</time>
   <energy>
    <i name="e_fr_energy">    -61.72665127 </i>
    <i name="e_wo_entrp">    -61.69409102 </i>
    <i name="e_0_energy">    -61.71579785 </i>
   </energy>
  </scstep>
  <scstep>
   <time name="dav">    0.97    0.98</time>
   <time name="total">    1.10    1.11</time>
   <energy>
    <i name="e_fr_energy">    -62.08006793 </i>
    <i name="e_wo_entrp">    -62.04682072 </i>
    <i name="e_0_energy">    -62.06898552 </i>
   </energy>
  </scstep>
  <scstep>
   <time name="dav">    0.94    0.95</time>
   <time name="total">    1.07    1.08</time>
   <energy>
    <i name="e_fr_energy">    -62.29623084 </i>
    <i name="e_wo_entrp">    -62.26348145 </i>
    <i name="e_0_energy">    -62.28531438 </i>
   </energy>
  </scstep>
  <scstep>
   <time name="dav">    0.94    0.95</time>
   <time name="total">    1.07    1.08</time>
   <energy>
    <i name="e_fr_energy">    -62.45773843 </i>
    <i name="e_wo_entrp">    -62.42503846 </i>
    <i name="e_0_energy">    -62.44683844 </i>
   </energy>
  </scstep>
  <scstep>
   <time name="dav">    0.92    0.93</time>
   <time name="total">    1.06    1.06</time>
   <energy>
    <i name="e_fr_energy">    -62.57595708 </i>
    <i name="e_wo_entrp">    -62.54182949 </i>
    <i name="e_0_energy">    -62.56458122 </i>
   </energy>
  </scstep>
  <scstep>
   <time name="dav">    0.87    0.87</time>
   <time name="total">    1.00    1.01</time>
   <energy>
    <i name="e_fr_energy">    -62.62686640 </i>
    <i name="e_wo_entrp">    -62.59212078 </i>
    <i name="e_0_energy">    -62.61528453 </i>
   </energy>
  </scstep>
  <scstep>
   <time name="dav">    0.85    0.86</time>
   <time name="total">    0.99    1.00</time>
   <energy>
    <i name="e_fr_energy">    -62.67463694 </i>
    <i name="e_wo_entrp">    -62.64083389 </i>
    <i name="e_0_energy">    -62.66336926 </i>
   </energy>
  </scstep>
  <scstep>
   <time name="dav">    0.85    0.86</time>
   <time name="total">    0.99    1.00</time>
   <energy>
    <i name="e_fr_energy">    -62.69087730 </i>
    <i name="e_wo_entrp">    -62.65717394 </i>
    <i name="e_0_energy">    -62.67964284 </i>
   </energy>
  </scstep>
  <scstep>
   <time name="dav">    0.67    0.67</time>
   <time name="total">    0.80    0.81</time>
   <energy>
    <i name="e_fr_energy">    -62.69338401 </i>
    <i name="e_wo_entrp">    -62.65955194 </i>
    <i name="e_0_energy">    -62.68210665 </i>
   </energy>
  </scstep>
  <scstep>
   <time name="dav">    0.64    0.64</time>
   <time name="total">    0.77    0.79</time>
   <energy>
    <i name="e_fr_energy">    -62.69463915 </i>
    <i name="e_wo_entrp">    -62.66067142 </i>
    <i name="e_0_energy">    -62.68331657 </i>
   </energy>
  </scstep>
  <scstep>
   <time name="dav">    0.63    0.63</time>
   <time name="total">    0.66    0.67</time>
   <energy>
    <i name="alphaZ">    521.04204123 </i>
    <i name="ewald"> 102572.35727455 </i>
    <i name="hartreedc">-124260.42551938 </i>
    <i name="XCdc">    719.60834349 </i>
    <i name="pawpsdc">  21094.63866744 </i>
    <i name="pawaedc"> -22821.06129263 </i>
    <i name="eentropy">     -0.03374241 </i>
    <i name="bandstr">   -169.10004918 </i>
    <i name="atom">  22280.27950853 </i>
    <i name="e_fr_energy">    -62.69476834 </i>
    <i name="e_wo_entrp">    -62.66102593 </i>
    <i name="e_0_energy">    -62.68352087 </i>
   </energy>
  </scstep>
  <structure>
   <crystal>
    <varray name="basis" >
     <v>       3.63000011       0.00000000       0.00000000 </v>
     <v>       0.00000000       3.63000011       0.00000000 </v>
     <v>       0.00000000       0.00000000      27.70499992 </v>
    </varray>
    <i name="volume">    365.06603650 </i>
    <varray name="rec_basis" >
     <v>       0.27548208       0.00000000       0.00000000 </v>
     <v>       0.00000000       0.27548208       0.00000000 </v>
     <v>       0.00000000       0.00000000       0.03609457 </v>
    </varray>
   </crystal>
   <varray name="positions" >
    <v>       0.00000000       0.00000000       0.00000000 </v>
    <v>       0.50000000       0.50000000       0.00000000 </v>
    <v>       0.00000000       0.50000000       0.06551164 </v>
    <v>       0.50000000       0.00000000       0.06551164 </v>
    <v>       0.00000000       0.00000000       0.12876120 </v>
    <v>       0.50000000       0.50000000       0.12876120 </v>
    <v>       0.00000000       0.50000000       0.19193187 </v>
    <v>       0.50000000       0.00000000       0.19193187 </v>
    <v>       0.00000000       0.00000000       0.25406550 </v>
    <v>       0.50000000       0.50000000       0.25406550 </v>
    <v>       0.00000000       0.50000000       0.31747855 </v>
    <v>       0.50000000       0.00000000       0.31747855 </v>
    <v>       0.00000000       0.00000000       0.38132233 </v>
    <v>       0.50000000       0.50000000       0.38132233 </v>
    <v>       0.00000000       0.50000000       0.44440075 </v>
    <v>       0.50000000       0.00000000       0.44440075 </v>
    <v>       1.00000000       0.50000000       0.50150658 </v>
    <v>       1.00000000       0.50000000       0.52843313 </v>
   </varray>
  </structure>
  <varray name="forces" >
   <v>       0.00000000       0.00000000       0.24649675 </v>
   <v>       0.00000000       0.00000000       0.24649675 </v>
   <v>       0.00000000       0.00000000      -0.23533153 </v>
   <v>       0.00000000       0.00000000      -0.24960450 </v>
   <v>       0.00000000       0.00000000       0.01120346 </v>
   <v>       0.00000000       0.00000000       0.01120346 </v>
   <v>       0.00000000       0.00000000       0.00490503 </v>
   <v>       0.00000000       0.00000000      -0.01793150 </v>
   <v>       0.00000000       0.00000000       0.02735793 </v>
   <v>       0.00000000       0.00000000       0.02735793 </v>
   <v>       0.00000000       0.00000000       0.04963914 </v>
   <v>       0.00000000       0.00000000      -0.03019731 </v>
   <v>       0.00000000       0.00000000       0.00129397 </v>
   <v>       0.00000000       0.00000000       0.00129397 </v>
   <v>       0.00000000       0.00000000      -1.33665699 </v>
   <v>       0.00000000       0.00000000      -0.35928130 </v>
   <v>       0.00000000       0.00000000       0.28586538 </v>
   <v>       0.00000000       0.00000000       1.31588935 </v>
  </varray>
  <varray name="stress" >
   <v>     -18.88089020       0.00000000       0.00000000 </v>
   <v>       0.00000000     -18.88089020       0.00000000 </v>
   <v>       0.00000000       0.00000000       6.69218494 </v>
  </varray>
  <energy>
   <i name="e_fr_energy">    -69.62826888 </i>
   <i name="e_wo_entrp">    -69.59452647 </i>
   <i name="e_0_energy">    -69.61702141 </i>
  </energy>
  <time name="totalsc">   35.02   35.34</time>
 </calculation>
 <calculation>
  <scstep>
   <time name="dav">    0.87    0.87</time>
   <time name="total">    1.00    1.01</time>
   <energy>
    <i name="alphaZ">    521.04204123 </i>
    <i name="ewald"> 103021.09909225 </i>
    <i name="hartreedc">-124709.54940531 </i>
    <i name="XCdc">    719.66133845 </i>
    <i name="pawpsdc">  21095.09172491 </i>
    <i name="pawaedc"> -22821.56878650 </i>
    <i name="eentropy">     -0.03569969 </i>
    <i name="bandstr">   -168.76768096 </i>
    <i name="atom">  22280.27950853 </i>
    <i name="e_fr_energy">    -62.74786710 </i>
    <i name="e_wo_entrp">    -62.71216741 </i>
    <i name="e_0_energy">    -62.73596721 </i>
   </energy>
  </scstep>
  <scstep>
   <time name="dav">    1.14    1.15</time>
   <time name="total">    1.28    1.29</time>
   <energy>
    <i name="e_fr_energy">    -62.83772641 </i>
    <i name="e_wo_entrp">    -62.81543981 </i>
    <i name="e_0_energy">    -62.83029754 </i>
   </energy>
  </scstep>
  <scstep>
   <time name="dav">    0.99    1.00</time>
   <time name="total">    1.13    1.13</time>
   <energy>
    <i name="e_fr_energy">    -62.82611175 </i>
    <i name="e_wo_entrp">    -62.79905869 </i>
    <i name="e_0_energy">    -62.81709406 </i>
   </energy>
  </scstep>
  <scstep>
   <time name="dav">    0.98    0.99</time>
   <time name="total">    1.11    1.12</time>
   <energy>
    <i name="e_fr_energy">    -62.80551032 </i>
    <i name="e_wo_entrp">    -62.77248104 </i>
    <i name="e_0_energy">    -62.79450056 </i>
   </energy>
  </scstep>
  <scstep>
   <time name="dav">    1.10    1.11</time>
   <time name="total">    1.24    1.25</time>
   <energy>
    <i name="e_fr_energy">    -62.80543027 </i>
    <i name="e_wo_entrp">    -62.76471944 </i>
    <i name="e_0_energy">    -62.79185999 </i>
   </energy>
  </scstep>
  <scstep>
   <time name="dav">    0.96    0.96</time>
   <time name="total">    1.09    1.10</time>
   <energy>
    <i name="e_fr_energy">    -62.80582965 </i>
    <i name="e_wo_entrp">    -62.77736935 </i>
    <i name="e_0_energy">    -62.79634288 </i>
   </energy>
  </scstep>
  <scstep>
   <time name="dav">    1.14    1.15</time>
   <time name="total">    1.28    1.29</time>
   <energy>
    <i name="e_fr_energy">    -62.80341001 </i>
    <i name="e_wo_entrp">    -62.76624135 </i>
    <i name="e_0_energy">    -62.79102046 </i>
   </energy>
  </scstep>
  <scstep>
   <time name="dav">    1.01    1.02</time>
   <time name="total">    1.15    1.15</time>
   <energy>
    <i name="e_fr_energy">    -62.80334647 </i>
    <i name="e_wo_entrp">    -62.76807107 </i>
    <i name="e_0_energy">    -62.79158800 </i>
   </energy>
  </scstep>
  <scstep>
   <time name="dav">    0.84    0.85</time>
   <time name="total">    0.87    0.88</time>
   <energy>
    <i name="alphaZ">    521.04204123 </i>
    <i name="ewald"> 103021.09909225 </i>
    <i name="hartreedc">-124701.91019062 </i>
    <i name="XCdc">    719.56877451 </i>
    <i name="pawpsdc">  21105.24476022 </i>
    <i name="pawaedc"> -22832.02811953 </i>
    <i name="eentropy">     -0.03544287 </i>
    <i name="bandstr">   -176.06382356 </i>
    <i name="atom">  22280.27950853 </i>
    <i name="e_fr_energy">    -62.80339984 </i>
    <i name="e_wo_entrp">    -62.76795698 </i>
    <i name="e_0_energy">    -62.79158555 </i>
   </energy>
  </scstep>
  <structure>
   <crystal>
    <varray name="basis" >
     <v>       3.63000011       0.00000000       0.00000000 </v>
     <v>       0.00000000       3.63000011       0.00000000 </v>
     <v>       0.00000000       0.00000000      27.70499992 </v>
    </varray>
    <i name="volume">    365.06603650 </i>
    <varray name="rec_basis" >
     <v>       0.27548208       0.00000000       0.00000000 </v>
     <v>       0.00000000       0.27548208       0.00000000 </v>
     <v>       0.00000000       0.00000000       0.03609457 </v>
    </varray>
   </crystal>
   <varray name="positions" >
    <v>       0.00000000       0.00000000       0.00042922 </v>
    <v>       0.50000000       0.50000000       0.00042922 </v>
    <v>       0.00000000       0.50000000       0.06510186 </v>
    <v>       0.50000000       0.00000000       0.06507701 </v>
    <v>       0.00000000       0.00000000       0.12878071 </v>
    <v>       0.50000000       0.50000000       0.12878071 </v>
    <v>       0.00000000       0.50000000       0.19194041 </v>
    <v>       0.50000000       0.00000000       0.19190064 </v>
    <v>       0.00000000       0.00000000       0.25411314 </v>
    <v>       0.50000000       0.50000000       0.25411314 </v>
    <v>       0.00000000       0.50000000       0.31756499 </v>
    <v>       0.50000000       0.00000000       0.31742597 </v>
    <v>       0.00000000       0.00000000       0.38132458 </v>
    <v>       0.50000000       0.50000000       0.38132458 </v>
    <v>       0.00000000       0.50000000       0.44207323 </v>
    <v>       0.50000000       0.00000000       0.44377513 </v>
    <v>       1.00000000       0.50000000       0.50200436 </v>
    <v>       1.00000000       0.50000000       0.53072448 </v>
   </varray>
  </structure>
  <varray name="forces" >
   <v>       0.00000000       0.00000000       0.15613862 </v>
   <v>       0.00000000       0.00000000       0.15613862 </v>
   <v>       0.00000000       0.00000000      -0.11683460 </v>
   <v>       0.00000000       0.00000000      -0.12146304 </v>
   <v>       0.00000000       0.00000000      -0.03774840 </v>
   <v>       0.00000000       0.00000000      -0.03774840 </v>
   <v>       0.00000000       0.00000000       0.00572909 </v>
   <v>       0.00000000       0.00000000       0.00059911 </v>
   <v>       0.00000000       0.00000000       0.01870206 </v>
   <v>       0.00000000       0.00000000       0.01870206 </v>
   <v>       0.00000000       0.00000000       0.03060258 </v>
   <v>       0.00000000       0.00000000      -0.01086611 </v>
   <v>       0.00000000       0.00000000      -0.17244517 </v>
   <v>       0.00000000       0.00000000      -0.17244517 </v>
   <v>       0.00000000       0.00000000      -0.56044885 </v>
   <v>       0.00000000       0.00000000      -0.24627238 </v>
   <v>       0.00000000       0.00000000       1.20648304 </v>
   <v>       0.00000000       0.00000000      -0.11682307 </v>
  </varray>
  <varray name="stress" >
   <v>     -20.52550663       0.00000000       0.00000000 </v>
   <v>       0.00000000     -20.52550663       0.00000000 </v>
   <v>       0.00000000       0.00000000      -1.67556935 </v>
  </varray>
  <energy>
   <i name="e_fr_energy">    -69.74938761 </i>
   <i name="e_wo_entrp">    -69.71394474 </i>
   <i name="e_0_energy">    -69.73757332 </i>
  </energy>
  <time name="totalsc">   11.64   11.79</time>
 </calculation>
 <calculation>
  <scstep>
   <time name="dav">    0.86    0.86</time>
   <time name="total">    0.99    1.00</time>
   <energy>
    <i name="alphaZ">    521.04204123 </i>
    <i name="ewald"> 103252.14379882 </i>
    <i name="hartreedc">-124932.96934613 </i>
    <i name="XCdc">    719.59886863 </i>
    <i name="pawpsdc">  21105.36865399 </i>
    <i name="pawaedc"> -22832.14066242 </i>
    <i name="eentropy">     -0.03680784 </i>
    <i name="bandstr">   -176.08181919 </i>
    <i name="atom">  22280.27950853 </i>
    <i name="e_fr_energy">    -62.79576438 </i>
    <i name="e_wo_entrp">    -62.75895654 </i>
    <i name="e_0_energy">    -62.78349510 </i>
   </energy>
  </scstep>
  <scstep>
   <time name="dav">    1.15    1.16</time>
   <time name="total">    1.29    1.30</time>
   <energy>
    <i name="e_fr_energy">    -62.81992058 </i>
    <i name="e_wo_entrp">    -62.78803668 </i>
    <i name="e_0_energy">    -62.80929262 </i>
   </energy>
  </scstep>
  <scstep>
   <time name="dav">    0.95    0.96</time>
   <time name="total">    1.08    1.09</time>
   <energy>
    <i name="e_fr_energy">    -62.81269008 </i>
    <i name="e_wo_entrp">    -62.77793118 </i>
    <i name="e_0_energy">    -62.80110378 </i>
   </energy>
  </scstep>
  <scstep>
   <time name="dav">    0.91    0.92</time>
   <time name="total">    1.04    1.05</time>
   <energy>
    <i name="e_fr_energy">    -62.80991166 </i>
    <i name="e_wo_entrp">    -62.77335194 </i>
    <i name="e_0_energy">    -62.79772509 </i>
   </energy>
  </scstep>
  <scstep>
   <time name="dav">    0.93    0.94</time>
   <time name="total">    1.07    1.07</time>
   <energy>
    <i name="e_fr_energy">    -62.80975549 </i>
    <i name="e_wo_entrp">    -62.77360885 </i>
    <i name="e_0_energy">    -62.79770661 </i>
   </energy>
  </scstep>
  <scstep>
   <time name="dav">    0.95    0.95</time>
   <time name="total">    1.08    1.09</time>
   <energy>
    <i name="e_fr_energy">    -62.80970409 </i>
    <i name="e_wo_entrp">    -62.77114965 </i>
    <i name="e_0_energy">    -62.79685261 </i>
   </energy>
  </scstep>
  <scstep>
   <time name="dav">    0.90    0.91</time>
   <time name="total">    1.04    1.05</time>
   <energy>
    <i name="e_fr_energy">    -62.80988062 </i>
    <i name="e_wo_entrp">    -62.77555429 </i>
    <i name="e_0_energy">    -62.79843851 </i>
   </energy>
  </scstep>
  <scstep>
   <time name="dav">    0.73    0.73</time>
   <time name="total">    0.86    0.87</time>
   <energy>
    <i name="e_fr_energy">    -62.80958649 </i>
    <i name="e_wo_entrp">    -62.77242127 </i>
    <i name="e_0_energy">    -62.79719808 </i>
   </energy>
  </scstep>
  <scstep>
   <time name="dav">    0.61    0.62</time>
   <time name="total">    0.65    0.65</time>
   <energy>
    <i name="alphaZ">    521.04204123 </i>
    <i name="ewald"> 103252.14379882 </i>
    <i name="hartreedc">-124928.98573058 </i>
    <i name="XCdc">    719.55005881 </i>
    <i name="pawpsdc">  21112.65278881 </i>
    <i name="pawaedc"> -22839.58421618 </i>
    <i name="eentropy">     -0.03675850 </i>
    <i name="bandstr">   -179.87110844 </i>
    <i name="atom">  22280.27950853 </i>
    <i name="e_fr_energy">    -62.80961751 </i>
    <i name="e_wo_entrp">    -62.77285901 </i>
    <i name="e_0_energy">    -62.79736468 </i>
   </energy>
  </scstep>
  <structure>
   <crystal>
    <varray name="basis" >
     <v>       3.63000011       0.00000000       0.00000000 </v>
     <v>       0.00000000       3.63000011       0.00000000 </v>
     <v>       0.00000000       0.00000000      27.70499992 </v>
    </varray>
    <i name="volume">    365.06603650 </i>
    <varray name="rec_basis" >
     <v>       0.27548208       0.00000000       0.00000000 </v>
     <v>       0.00000000       0.27548208       0.00000000 </v>
     <v>       0.00000000       0.00000000       0.03609457 </v>
    </varray>
   </crystal>
   <varray name="positions" >
    <v>       0.00000000       0.00000000       0.00064906 </v>
    <v>       0.50000000       0.50000000       0.00064906 </v>
    <v>       0.00000000       0.50000000       0.06489198 </v>
    <v>       0.50000000       0.00000000       0.06485440 </v>
    <v>       0.00000000       0.00000000       0.12879070 </v>
    <v>       0.50000000       0.50000000       0.12879070 </v>
    <v>       0.00000000       0.50000000       0.19194478 </v>
    <v>       0.50000000       0.00000000       0.19188465 </v>
    <v>       0.00000000       0.00000000       0.25413754 </v>
    <v>       0.50000000       0.50000000       0.25413754 </v>
    <v>       0.00000000       0.50000000       0.31760926 </v>
    <v>       0.50000000       0.00000000       0.31739904 </v>
    <v>       0.00000000       0.00000000       0.38132573 </v>
    <v>       0.50000000       0.50000000       0.38132573 </v>
    <v>       0.00000000       0.50000000       0.44088114 </v>
    <v>       0.50000000       0.00000000       0.44345471 </v>
    <v>       1.00000000       0.50000000       0.50225930 </v>
    <v>       1.00000000       0.50000000       0.53189805 </v>
   </varray>
  </structure>
  <varray name="forces" >
   <v>       0.00000000       0.00000000       0.11497654 </v>
   <v>       0.00000000       0.00000000       0.11497654 </v>
   <v>       0.00000000       0.00000000      -0.05191309 </v>
   <v>       0.00000000       0.00000000      -0.05152252 </v>
   <v>       0.00000000       0.00000000      -0.06027685 </v>
   <v>       0.00000000       0.00000000      -0.06027685 </v>
   <v>       0.00000000       0.00000000       0.00722817 </v>
   <v>       0.00000000       0.00000000       0.01064107 </v>
   <v>       0.00000000       0.00000000       0.01369839 </v>
   <v>       0.00000000       0.00000000       0.01369839 </v>
   <v>       0.00000000       0.00000000       0.02073088 </v>
   <v>       0.00000000       0.00000000      -0.00347996 </v>
   <v>       0.00000000       0.00000000      -0.27219177 </v>
   <v>       0.00000000       0.00000000      -0.27219177 </v>
   <v>       0.00000000       0.00000000      -0.22454399 </v>
   <v>       0.00000000       0.00000000      -0.18499105 </v>
   <v>       0.00000000       0.00000000       1.50791038 </v>
   <v>       0.00000000       0.00000000      -0.62247252 </v>
  </varray>
  <varray name="stress" >
   <v>     -18.89297990       0.00000000       0.00000000 </v>
   <v>       0.00000000     -18.89297990       0.00000000 </v>
   <v>       0.00000000       0.00000000      -2.88826830 </v>
  </varray>
  <energy>
   <i name="e_fr_energy">    -69.76476964 </i>
   <i name="e_wo_entrp">    -69.72801113 </i>
   <i name="e_0_energy">    -69.75251680 </i>
  </energy>
  <time name="totalsc">   10.62   10.78</time>
 </calculation>
 <calculation>
  <scstep>
   <time name="dav">    0.84    0.85</time>
   <time name="total">    0.98    0.99</time>
   <energy>
    <i name="alphaZ">    521.04204123 </i>
    <i name="ewald"> 103720.94201604 </i>
    <i name="hartreedc">-125396.53272827 </i>
    <i name="XCdc">    719.66987881 </i>
    <i name="pawpsdc">  21112.76140106 </i>
    <i name="pawaedc"> -22839.68706241 </i>
    <i name="eentropy">     -0.03745188 </i>
    <i name="bandstr">   -181.26842422 </i>
    <i name="atom">  22280.27950853 </i>
    <i name="e_fr_energy">    -62.83082111 </i>
    <i name="e_wo_entrp">    -62.79336923 </i>
    <i name="e_0_energy">    -62.81833715 </i>
   </energy>
  </scstep>
  <scstep>
   <time name="dav">    1.13    1.14</time>
   <time name="total">    1.27    1.28</time>
   <energy>
    <i name="e_fr_energy">    -62.90764651 </i>
    <i name="e_wo_entrp">    -62.87853752 </i>
    <i name="e_0_energy">    -62.89794351 </i>
   </energy>
  </scstep>
  <scstep>
   <time name="dav">    1.04    1.05</time>
   <time name="total">    1.18    1.19</time>
   <energy>
    <i name="e_fr_energy">    -62.88932071 </i>
    <i name="e_wo_entrp">    -62.85519369 </i>
    <i name="e_0_energy">    -62.87794504 </i>
   </energy>
  </scstep>
  <scstep>
   <time name="dav">    0.98    0.99</time>
   <time name="total">    1.12    1.13</time>
   <energy>
    <i name="e_fr_energy">    -62.88233628 </i>
    <i name="e_wo_entrp">    -62.84695030 </i>
    <i name="e_0_energy">    -62.87054095 </i>
   </energy>
  </scstep>
  <scstep>
   <time name="dav">    1.11    1.12</time>
   <time name="total">    1.24    1.25</time>
   <energy>
    <i name="e_fr_energy">    -62.88375795 </i>
    <i name="e_wo_entrp">    -62.83835011 </i>
    <i name="e_0_energy">    -62.86862200 </i>
   </energy>
  </scstep>
  <scstep>
   <time name="dav">    0.98    0.99</time>
   <time name="total">    1.11    1.12</time>
   <energy>
    <i name="e_fr_energy">    -62.88284281 </i>
    <i name="e_wo_entrp">    -62.85229228 </i>
    <i name="e_0_energy">    -62.87265930 </i>
   </energy>
  </scstep>
  <scstep>
   <time name="dav">    1.15    1.16</time>
   <time name="total">    1.29    1.30</time>
   <energy>
    <i name="e_fr_energy">    -62.87972075 </i>
    <i name="e_wo_entrp">    -62.84144479 </i>
    <i name="e_0_energy">    -62.86696210 </i>
   </energy>
  </scstep>
  <scstep>
   <time name="dav">    1.13    1.14</time>
   <time name="total">    1.27    1.28</time>
   <energy>
    <i name="e_fr_energy">    -62.87981808 </i>
    <i name="e_wo_entrp">    -62.84214811 </i>
    <i name="e_0_energy">    -62.86726143 </i>
   </energy>
  </scstep>
  <scstep>
   <time name="dav">    0.80    0.81</time>
   <time name="total">    0.83    0.84</time>
   <energy>
    <i name="alphaZ">    521.04204123 </i>
    <i name="ewald"> 103720.94201604 </i>
    <i name="hartreedc">-125396.28272816 </i>
    <i name="XCdc">    719.71752814 </i>
    <i name="pawpsdc">  21129.59851034 </i>
    <i name="pawaedc"> -22856.83693104 </i>
    <i name="eentropy">     -0.03762005 </i>
    <i name="bandstr">   -181.30213653 </i>
    <i name="atom">  22280.27950853 </i>
    <i name="e_fr_energy">    -62.87981150 </i>
    <i name="e_wo_entrp">    -62.84219145 </i>
    <i name="e_0_energy">    -62.86727148 </i>
   </energy>
  </scstep>
  <structure>
   <crystal>
    <varray name="basis" >
     <v>       3.63000011       0.00000000       0.00000000 </v>
     <v>       0.00000000       3.63000011       0.00000000 </v>
     <v>       0.00000000       0.00000000      27.70499992 </v>
    </varray>
    <i name="volume">    365.06603650 </i>
    <varray name="rec_basis" >
     <v>       0.27548208       0.00000000       0.00000000 </v>
     <v>       0.00000000       0.27548208       0.00000000 </v>
     <v>       0.00000000       0.00000000       0.03609457 </v>
    </varray>
   </crystal>
   <varray name="positions" >
    <v>       0.00000000       0.00000000       0.00108773 </v>
    <v>       0.50000000       0.50000000       0.00108773 </v>
    <v>       0.00000000       0.50000000       0.06455972 </v>
    <v>       0.50000000       0.00000000       0.06450728 </v>
    <v>       0.00000000       0.00000000       0.12871266 </v>
    <v>       0.50000000       0.50000000       0.12871266 </v>
    <v>       0.00000000       0.50000000       0.19196090 </v>
    <v>       0.50000000       0.00000000       0.19188117 </v>
    <v>       0.00000000       0.00000000       0.25418763 </v>
    <v>       0.50000000       0.50000000       0.25418763 </v>
    <v>       0.00000000       0.50000000       0.31769397 </v>
    <v>       0.50000000       0.00000000       0.31736116 </v>
    <v>       0.00000000       0.00000000       0.38091999 </v>
    <v>       0.50000000       0.50000000       0.38091999 </v>
    <v>       0.00000000       0.50000000       0.43909915 </v>
    <v>       0.50000000       0.00000000       0.44278930 </v>
    <v>       1.00000000       0.50000000       0.50482411 </v>
    <v>       1.00000000       0.50000000       0.53239061 </v>
   </varray>
  </structure>
  <varray name="forces" >
   <v>       0.00000000       0.00000000       0.04018325 </v>
   <v>       0.00000000       0.00000000       0.04018325 </v>
   <v>       0.00000000       0.00000000       0.04621241 </v>
   <v>       0.00000000       0.00000000       0.05175495 </v>
   <v>       0.00000000       0.00000000      -0.07329613 </v>
   <v>       0.00000000       0.00000000      -0.07329613 </v>
   <v>       0.00000000       0.00000000      -0.00328455 </v>
   <v>       0.00000000       0.00000000       0.00722243 </v>
   <v>       0.00000000       0.00000000       0.00566979 </v>
   <v>       0.00000000       0.00000000       0.00566979 </v>
   <v>       0.00000000       0.00000000      -0.03408285 </v>
   <v>       0.00000000       0.00000000      -0.03223260 </v>
   <v>       0.00000000       0.00000000      -0.33821563 </v>
   <v>       0.00000000       0.00000000      -0.33821563 </v>
   <v>       0.00000000       0.00000000       0.22776951 </v>
   <v>       0.00000000       0.00000000      -0.12791107 </v>
   <v>       0.00000000       0.00000000       0.13941080 </v>
   <v>       0.00000000       0.00000000       0.45645840 </v>
  </varray>
  <varray name="stress" >
   <v>     -17.05544084       0.00000000       0.00000000 </v>
   <v>       0.00000000     -17.05544084       0.00000000 </v>
   <v>       0.00000000       0.00000000       1.79377894 </v>
  </varray>
  <energy>
   <i name="e_fr_energy">    -69.83758300 </i>
   <i name="e_wo_entrp">    -69.79996295 </i>
   <i name="e_0_energy">    -69.82504298 </i>
  </energy>
  <time name="totalsc">   11.78   11.89</time>
 </calculation>
 <calculation>
  <scstep>
   <time name="dav">    0.83    0.84</time>
   <time name="total">    0.96    0.97</time>
   <energy>
    <i name="alphaZ">    521.04204123 </i>
    <i name="ewald"> 103775.17900646 </i>
    <i name="hartreedc">-125450.52647676 </i>
    <i name="XCdc">    719.73066236 </i>
    <i name="pawpsdc">  21129.62620815 </i>
    <i name="pawaedc"> -22856.84912128 </i>
    <i name="eentropy">     -0.03791459 </i>
    <i name="bandstr">   -181.32337808 </i>
    <i name="atom">  22280.27950853 </i>
    <i name="e_fr_energy">    -62.87946396 </i>
    <i name="e_wo_entrp">    -62.84154937 </i>
    <i name="e_0_energy">    -62.86682576 </i>
   </energy>
  </scstep>
  <scstep>
   <time name="dav">    1.14    1.15</time>
   <time name="total">    1.27    1.28</time>
   <energy>
    <i name="e_fr_energy">    -62.88072837 </i>
    <i name="e_wo_entrp">    -62.84330136 </i>
    <i name="e_0_energy">    -62.86825270 </i>
   </energy>
  </scstep>
  <scstep>
   <time name="dav">    0.80    0.81</time>
   <time name="total">    0.93    0.94</time>
   <energy>
    <i name="e_fr_energy">    -62.88011585 </i>
    <i name="e_wo_entrp">    -62.84259721 </i>
    <i name="e_0_energy">    -62.86760964 </i>
   </energy>
  </scstep>
  <scstep>
   <time name="dav">    0.64    0.64</time>
   <time name="total">    0.67    0.68</time>
   <energy>
    <i name="alphaZ">    521.04204123 </i>
    <i name="ewald"> 103775.17900646 </i>
    <i name="hartreedc">-125450.66109172 </i>
    <i name="XCdc">    719.73412546 </i>
    <i name="pawpsdc">  21130.63353007 </i>
    <i name="pawaedc"> -22857.86342856 </i>
    <i name="eentropy">     -0.03837672 </i>
    <i name="bandstr">   -181.18540545 </i>
    <i name="atom">  22280.27950853 </i>
    <i name="e_fr_energy">    -62.88009069 </i>
    <i name="e_wo_entrp">    -62.84171397 </i>
    <i name="e_0_energy">    -62.86729845 </i>
   </energy>
  </scstep>
  <structure>
   <crystal>
    <varray name="basis" >
     <v>       3.63000011       0.00000000       0.00000000 </v>
     <v>       0.00000000       3.63000011       0.00000000 </v>
     <v>       0.00000000       0.00000000      27.70499992 </v>
    </varray>
    <i name="volume">    365.06603650 </i>
    <varray name="rec_basis" >
     <v>       0.27548208       0.00000000       0.00000000 </v>
     <v>       0.00000000       0.27548208       0.00000000 </v>
     <v>       0.00000000       0.00000000       0.03609457 </v>
    </varray>
   </crystal>
   <varray name="positions" >
    <v>       0.00000000       0.00000000       0.00113829 </v>
    <v>       0.50000000       0.50000000       0.00113829 </v>
    <v>       0.00000000       0.50000000       0.06452142 </v>
    <v>       0.50000000       0.00000000       0.06446727 </v>
    <v>       0.00000000       0.00000000       0.12870366 </v>
    <v>       0.50000000       0.50000000       0.12870366 </v>
    <v>       0.00000000       0.50000000       0.19196276 </v>
    <v>       0.50000000       0.00000000       0.19188077 </v>
    <v>       0.00000000       0.00000000       0.25419340 </v>
    <v>       0.50000000       0.50000000       0.25419340 </v>
    <v>       0.00000000       0.50000000       0.31770374 </v>
    <v>       0.50000000       0.00000000       0.31735680 </v>
    <v>       0.00000000       0.00000000       0.38087322 </v>
    <v>       0.50000000       0.50000000       0.38087322 </v>
    <v>       0.00000000       0.50000000       0.43889373 </v>
    <v>       0.50000000       0.00000000       0.44271259 </v>
    <v>       1.00000000       0.50000000       0.50511977 </v>
    <v>       1.00000000       0.50000000       0.53244739 </v>
   </varray>
  </structure>
  <varray name="forces" >
   <v>       0.00000000       0.00000000       0.02468428 </v>
   <v>       0.00000000       0.00000000       0.02468428 </v>
   <v>       0.00000000       0.00000000       0.06058698 </v>
   <v>       0.00000000       0.00000000       0.06764387 </v>
   <v>       0.00000000       0.00000000      -0.07463536 </v>
   <v>       0.00000000       0.00000000      -0.07463536 </v>
   <v>       0.00000000       0.00000000      -0.00733804 </v>
   <v>       0.00000000       0.00000000       0.00469613 </v>
   <v>       0.00000000       0.00000000      -0.00377141 </v>
   <v>       0.00000000       0.00000000      -0.00377141 </v>
   <v>       0.00000000       0.00000000      -0.05065570 </v>
   <v>       0.00000000       0.00000000      -0.04307781 </v>
   <v>       0.00000000       0.00000000      -0.34262536 </v>
   <v>       0.00000000       0.00000000      -0.34262536 </v>
   <v>       0.00000000       0.00000000       0.28418931 </v>
   <v>       0.00000000       0.00000000      -0.11252458 </v>
   <v>       0.00000000       0.00000000      -0.03922895 </v>
   <v>       0.00000000       0.00000000       0.62840449 </v>
  </varray>
  <varray name="stress" >
   <v>     -15.94904245       0.00000000       0.00000000 </v>
   <v>       0.00000000     -15.94904245       0.00000000 </v>
   <v>       0.00000000       0.00000000       3.20885420 </v>
  </varray>
  <energy>
   <i name="e_fr_energy">    -69.83863359 </i>
   <i name="e_wo_entrp">    -69.80025688 </i>
   <i name="e_0_energy">    -69.82584135 </i>
  </energy>
  <time name="totalsc">    5.32    5.43</time>
 </calculation>
 <calculation>
  <scstep>
   <time name="dav">    0.86    0.87</time>
   <time name="total">    1.00    1.01</time>
   <energy>
    <i name="alphaZ">    521.04204123 </i>
    <i name="ewald"> 104039.85477679 </i>
    <i name="hartreedc">-125715.05161798 </i>
    <i name="XCdc">    719.74887748 </i>
    <i name="pawpsdc">  21131.00230843 </i>
    <i name="pawaedc"> -22858.23568302 </i>
    <i name="eentropy">     -0.03638222 </i>
    <i name="bandstr">   -181.49695100 </i>
    <i name="atom">  22280.27950853 </i>
    <i name="e_fr_energy">    -62.89312177 </i>
    <i name="e_wo_entrp">    -62.85673955 </i>
    <i name="e_0_energy">    -62.88099436 </i>
   </energy>
  </scstep>
  <scstep>
   <time name="dav">    1.09    1.10</time>
   <time name="total">    1.23    1.24</time>
   <energy>
    <i name="e_fr_energy">    -62.90740733 </i>
    <i name="e_wo_entrp">    -62.86370407 </i>
    <i name="e_0_energy">    -62.89283958 </i>
   </energy>
  </scstep>
  <scstep>
   <time name="dav">    0.98    0.98</time>
   <time name="total">    1.11    1.12</time>
   <energy>
    <i name="e_fr_energy">    -62.90719463 </i>
    <i name="e_wo_entrp">    -62.87038341 </i>
    <i name="e_0_energy">    -62.89492422 </i>
   </energy>
  </scstep>
  <scstep>
   <time name="dav">    0.92    0.93</time>
   <time name="total">    1.05    1.06</time>
   <energy>
    <i name="e_fr_energy">    -62.90486434 </i>
    <i name="e_wo_entrp">    -62.86892756 </i>
    <i name="e_0_energy">    -62.89288542 </i>
   </energy>
  </scstep>
  <scstep>
   <time name="dav">    0.91    0.92</time>
   <time name="total">    1.04    1.05</time>
   <energy>
    <i name="e_fr_energy">    -62.90434352 </i>
    <i name="e_wo_entrp">    -62.86527697 </i>
    <i name="e_0_energy">    -62.89132134 </i>
   </energy>
  </scstep>
  <scstep>
   <time name="dav">    0.91    0.92</time>
   <time name="total">    1.04    1.05</time>
   <energy>
    <i name="e_fr_energy">    -62.90424856 </i>
    <i name="e_wo_entrp">    -62.86672274 </i>
    <i name="e_0_energy">    -62.89173995 </i>
   </energy>
  </scstep>
  <scstep>
   <time name="dav">    0.91    0.92</time>
   <time name="total">    1.04    1.05</time>
   <energy>
    <i name="e_fr_energy">    -62.90388074 </i>
    <i name="e_wo_entrp">    -62.86556443 </i>
    <i name="e_0_energy">    -62.89110864 </i>
   </energy>
  </scstep>
  <scstep>
   <time name="dav">    0.70    0.71</time>
   <time name="total">    0.73    0.74</time>
   <energy>
    <i name="alphaZ">    521.04204123 </i>
    <i name="ewald"> 104039.85477679 </i>
    <i name="hartreedc">-125713.67829000 </i>
    <i name="XCdc">    719.73987923 </i>
    <i name="pawpsdc">  21134.97163726 </i>
    <i name="pawaedc"> -22862.31565919 </i>
    <i name="eentropy">     -0.03800156 </i>
    <i name="bandstr">   -182.75974249 </i>
    <i name="atom">  22280.27950853 </i>
    <i name="e_fr_energy">    -62.90385020 </i>
    <i name="e_wo_entrp">    -62.86584864 </i>
    <i name="e_0_energy">    -62.89118301 </i>
   </energy>
  </scstep>
  <structure>
   <crystal>
    <varray name="basis" >
     <v>       3.63000011       0.00000000       0.00000000 </v>
     <v>       0.00000000       3.63000011       0.00000000 </v>
     <v>       0.00000000       0.00000000      27.70499992 </v>
    </varray>
    <i name="volume">    365.06603650 </i>
    <varray name="rec_basis" >
     <v>       0.27548208       0.00000000       0.00000000 </v>
     <v>       0.00000000       0.27548208       0.00000000 </v>
     <v>       0.00000000       0.00000000       0.03609457 </v>
    </varray>
   </crystal>
   <varray name="positions" >
    <v>       0.00000000       0.00000000       0.00133660 </v>
    <v>       0.50000000       0.50000000       0.00133660 </v>
    <v>       0.00000000       0.50000000       0.06449255 </v>
    <v>       0.50000000       0.00000000       0.06444376 </v>
    <v>       0.00000000       0.00000000       0.12856089 </v>
    <v>       0.50000000       0.50000000       0.12856089 </v>
    <v>       0.00000000       0.50000000       0.19195743 </v>
    <v>       0.50000000       0.00000000       0.19188668 </v>
    <v>       0.00000000       0.00000000       0.25420596 </v>
    <v>       0.50000000       0.50000000       0.25420596 </v>
    <v>       0.00000000       0.50000000       0.31765722 </v>
    <v>       0.50000000       0.00000000       0.31727702 </v>
    <v>       0.00000000       0.00000000       0.38020042 </v>
    <v>       0.50000000       0.50000000       0.38020042 </v>
    <v>       0.00000000       0.50000000       0.43867650 </v>
    <v>       0.50000000       0.00000000       0.44229689 </v>
    <v>       1.00000000       0.50000000       0.50599832 </v>
    <v>       1.00000000       0.50000000       0.53358928 </v>
   </varray>
  </structure>
  <varray name="forces" >
   <v>       0.00000000       0.00000000       0.00327327 </v>
   <v>       0.00000000       0.00000000       0.00327327 </v>
   <v>       0.00000000       0.00000000       0.06327742 </v>
   <v>       0.00000000       0.00000000       0.06960766 </v>
   <v>       0.00000000       0.00000000      -0.04034666 </v>
   <v>       0.00000000       0.00000000      -0.04034666 </v>
   <v>       0.00000000       0.00000000      -0.01768107 </v>
   <v>       0.00000000       0.00000000      -0.00882870 </v>
   <v>       0.00000000       0.00000000      -0.00931471 </v>
   <v>       0.00000000       0.00000000      -0.00931471 </v>
   <v>       0.00000000       0.00000000      -0.10767926 </v>
   <v>       0.00000000       0.00000000      -0.08794724 </v>
   <v>       0.00000000       0.00000000      -0.23416993 </v>
   <v>       0.00000000       0.00000000      -0.23416993 </v>
   <v>       0.00000000       0.00000000       0.26691072 </v>
   <v>       0.00000000       0.00000000      -0.11569750 </v>
   <v>       0.00000000       0.00000000       0.12545068 </v>
   <v>       0.00000000       0.00000000       0.37370334 </v>
  </varray>
  <varray name="stress" >
   <v>     -15.58779630       0.00000000       0.00000000 </v>
   <v>       0.00000000     -15.58779630       0.00000000 </v>
   <v>       0.00000000       0.00000000       2.54713200 </v>
  </varray>
  <energy>
   <i name="e_fr_energy">    -69.86707878 </i>
   <i name="e_wo_entrp">    -69.82907722 </i>
   <i name="e_0_energy">    -69.85441159 </i>
  </energy>
  <time name="totalsc">    9.73    9.86</time>
 </calculation>
 <calculation>
  <scstep>
   <time name="dav">    0.85    0.86</time>
   <time name="total">    0.99    0.99</time>
   <energy>
    <i name="alphaZ">    521.04204123 </i>
    <i name="ewald"> 104807.35793577 </i>
    <i name="hartreedc">-126481.42650837 </i>
    <i name="XCdc">    719.80327451 </i>
    <i name="pawpsdc">  21135.08554492 </i>
    <i name="pawaedc"> -22862.41500843 </i>
    <i name="eentropy">     -0.03727201 </i>
    <i name="bandstr">   -182.51844635 </i>
    <i name="atom">  22280.27950853 </i>
    <i name="e_fr_energy">    -62.82893020 </i>
    <i name="e_wo_entrp">    -62.79165819 </i>
    <i name="e_0_energy">    -62.81650620 </i>
   </energy>
  </scstep>
  <scstep>
   <time name="dav">    1.07    1.08</time>
   <time name="total">    1.21    1.22</time>
   <energy>
    <i name="e_fr_energy">    -62.94905706 </i>
    <i name="e_wo_entrp">    -62.90591228 </i>
    <i name="e_0_energy">    -62.93467547 </i>
   </energy>
  </scstep>
  <scstep>
   <time name="dav">    0.95    0.96</time>
   <time name="total">    1.09    1.10</time>
   <energy>
    <i name="e_fr_energy">    -62.96345968 </i>
    <i name="e_wo_entrp">    -62.93942844 </i>
    <i name="e_0_energy">    -62.95544927 </i>
   </energy>
  </scstep>
  <scstep>
   <time name="dav">    0.93    0.94</time>
   <time name="total">    1.06    1.07</time>
   <energy>
    <i name="e_fr_energy">    -62.93557109 </i>
    <i name="e_wo_entrp">    -62.90326626 </i>
    <i name="e_0_energy">    -62.92480281 </i>
   </energy>
  </scstep>
  <scstep>
   <time name="dav">    1.11    1.12</time>
   <time name="total">    1.24    1.25</time>
   <energy>
    <i name="e_fr_energy">    -62.93254375 </i>
    <i name="e_wo_entrp">    -62.88761840 </i>
    <i name="e_0_energy">    -62.91756864 </i>
   </energy>
  </scstep>
  <scstep>
   <time name="dav">    1.05    1.06</time>
   <time name="total">    1.18    1.19</time>
   <energy>
    <i name="e_fr_energy">    -62.92994926 </i>
    <i name="e_wo_entrp">    -62.89521364 </i>
    <i name="e_0_energy">    -62.91837072 </i>
   </energy>
  </scstep>
  <scstep>
   <time name="dav">    1.04    1.05</time>
   <time name="total">    1.17    1.18</time>
   <energy>
    <i name="e_fr_energy">    -62.92741341 </i>
    <i name="e_wo_entrp">    -62.88766353 </i>
    <i name="e_0_energy">    -62.91416345 </i>
   </energy>
  </scstep>
  <scstep>
   <time name="dav">    1.01    1.02</time>
   <time name="total">    1.14    1.15</time>
   <energy>
    <i name="e_fr_energy">    -62.92724727 </i>
    <i name="e_wo_entrp">    -62.88832440 </i>
    <i name="e_0_energy">    -62.91427298 </i>
   </energy>
  </scstep>
  <scstep>
   <time name="dav">    0.83    0.84</time>
   <time name="total">    0.86    0.87</time>
   <energy>
    <i name="alphaZ">    521.04204123 </i>
    <i name="ewald"> 104807.35793577 </i>
    <i name="hartreedc">-126475.93776376 </i>
    <i name="XCdc">    719.75782906 </i>
    <i name="pawpsdc">  21147.79540785 </i>
    <i name="pawaedc"> -22875.41270382 </i>
    <i name="eentropy">     -0.03847557 </i>
    <i name="bandstr">   -187.77089763 </i>
    <i name="atom">  22280.27950853 </i>
    <i name="e_fr_energy">    -62.92711833 </i>
    <i name="e_wo_entrp">    -62.88864276 </i>
    <i name="e_0_energy">    -62.91429314 </i>
   </energy>
  </scstep>
  <structure>
   <crystal>
    <varray name="basis" >
     <v>       3.63000011       0.00000000       0.00000000 </v>
     <v>       0.00000000       3.63000011       0.00000000 </v>
     <v>       0.00000000       0.00000000      27.70499992 </v>
    </varray>
    <i name="volume">    365.06603650 </i>
    <varray name="rec_basis" >
     <v>       0.27548208       0.00000000       0.00000000 </v>
     <v>       0.00000000       0.27548208       0.00000000 </v>
     <v>       0.00000000       0.00000000       0.03609457 </v>
    </varray>
   </crystal>
   <varray name="positions" >
    <v>       0.00000000       0.00000000       0.00190848 </v>
    <v>       0.50000000       0.50000000       0.00190848 </v>
    <v>       0.00000000       0.50000000       0.06440929 </v>
    <v>       0.50000000       0.00000000       0.06437596 </v>
    <v>       0.00000000       0.00000000       0.12814914 </v>
    <v>       0.50000000       0.50000000       0.12814914 </v>
    <v>       0.00000000       0.50000000       0.19194206 </v>
    <v>       0.50000000       0.00000000       0.19190373 </v>
    <v>       0.00000000       0.00000000       0.25424218 </v>
    <v>       0.50000000       0.50000000       0.25424218 </v>
    <v>       0.00000000       0.50000000       0.31752307 </v>
    <v>       0.50000000       0.00000000       0.31704693 </v>
    <v>       0.00000000       0.00000000       0.37826013 </v>
    <v>       0.50000000       0.50000000       0.37826013 </v>
    <v>       0.00000000       0.50000000       0.43805005 </v>
    <v>       0.50000000       0.00000000       0.44109804 </v>
    <v>       1.00000000       0.50000000       0.50853199 </v>
    <v>       1.00000000       0.50000000       0.53688241 </v>
   </varray>
  </structure>
  <varray name="forces" >
   <v>       0.00000000       0.00000000      -0.05895388 </v>
   <v>       0.00000000       0.00000000      -0.05895388 </v>
   <v>       0.00000000       0.00000000       0.10001408 </v>
   <v>       0.00000000       0.00000000       0.10560307 </v>
   <v>       0.00000000       0.00000000       0.05155087 </v>
   <v>       0.00000000       0.00000000       0.05155087 </v>
   <v>       0.00000000       0.00000000      -0.05387361 </v>
   <v>       0.00000000       0.00000000      -0.04959412 </v>
   <v>       0.00000000       0.00000000      -0.04497800 </v>
   <v>       0.00000000       0.00000000      -0.04497800 </v>
   <v>       0.00000000       0.00000000      -0.31937878 </v>
   <v>       0.00000000       0.00000000      -0.26109188 </v>
   <v>       0.00000000       0.00000000       0.11963070 </v>
   <v>       0.00000000       0.00000000       0.11963070 </v>
   <v>       0.00000000       0.00000000       0.20315380 </v>
   <v>       0.00000000       0.00000000      -0.16648534 </v>
   <v>       0.00000000       0.00000000       0.59727958 </v>
   <v>       0.00000000       0.00000000      -0.29012621 </v>
  </varray>
  <varray name="stress" >
   <v>     -14.43537560       0.00000000       0.00000000 </v>
   <v>       0.00000000     -14.43537560       0.00000000 </v>
   <v>       0.00000000       0.00000000       0.52639329 </v>
  </varray>
  <energy>
   <i name="e_fr_energy">    -69.90478689 </i>
   <i name="e_wo_entrp">    -69.86631132 </i>
   <i name="e_0_energy">    -69.89196170 </i>
  </energy>
  <time name="totalsc">   11.43   11.57</time>
 </calculation>
 <calculation>
  <scstep>
   <time name="dav">    0.84    0.84</time>
   <time name="total">    0.97    0.98</time>
   <energy>
    <i name="alphaZ">    521.04204123 </i>
    <i name="ewald"> 105068.26247205 </i>
    <i name="hartreedc">-126736.53484044 </i>
    <i name="XCdc">    719.78421323 </i>
    <i name="pawpsdc">  21147.90475292 </i>
    <i name="pawaedc"> -22875.50456568 </i>
    <i name="eentropy">     -0.03689254 </i>
    <i name="bandstr">   -188.12943294 </i>
    <i name="atom">  22280.27950853 </i>
    <i name="e_fr_energy">    -62.93274364 </i>
    <i name="e_wo_entrp">    -62.89585110 </i>
    <i name="e_0_energy">    -62.92044613 </i>
   </energy>
  </scstep>
  <scstep>
   <time name="dav">    1.06    1.07</time>
   <time name="total">    1.20    1.21</time>
   <energy>
    <i name="e_fr_energy">    -62.94536904 </i>
    <i name="e_wo_entrp">    -62.90366560 </i>
    <i name="e_0_energy">    -62.93146790 </i>
   </energy>
  </scstep>
  <scstep>
   <time name="dav">    0.97    0.98</time>
   <time name="total">    1.11    1.12</time>
   <energy>
    <i name="e_fr_energy">    -62.94484544 </i>
    <i name="e_wo_entrp">    -62.90891587 </i>
    <i name="e_0_energy">    -62.93286892 </i>
   </energy>
  </scstep>
  <scstep>
   <time name="dav">    0.96    0.97</time>
   <time name="total">    1.09    1.10</time>
   <energy>
    <i name="e_fr_energy">    -62.94602518 </i>
    <i name="e_wo_entrp">    -62.91142925 </i>
    <i name="e_0_energy">    -62.93449320 </i>
   </energy>
  </scstep>
  <scstep>
   <time name="dav">    0.92    0.92</time>
   <time name="total">    1.05    1.06</time>
   <energy>
    <i name="e_fr_energy">    -62.94398617 </i>
    <i name="e_wo_entrp">    -62.90328024 </i>
    <i name="e_0_energy">    -62.93041753 </i>
   </energy>
  </scstep>
  <scstep>
   <time name="dav">    0.97    0.98</time>
   <time name="total">    1.10    1.11</time>
   <energy>
    <i name="e_fr_energy">    -62.94349385 </i>
    <i name="e_wo_entrp">    -62.90645223 </i>
    <i name="e_0_energy">    -62.93114665 </i>
   </energy>
  </scstep>
  <scstep>
   <time name="dav">    0.94    0.94</time>
   <time name="total">    1.07    1.08</time>
   <energy>
    <i name="e_fr_energy">    -62.94329970 </i>
    <i name="e_wo_entrp">    -62.90490047 </i>
    <i name="e_0_energy">    -62.93049995 </i>
   </energy>
  </scstep>
  <scstep>
   <time name="dav">    0.66    0.66</time>
   <time name="total">    0.69    0.69</time>
   <energy>
    <i name="alphaZ">    521.04204123 </i>
    <i name="ewald"> 105068.26247205 </i>
    <i name="hartreedc">-126736.09817284 </i>
    <i name="XCdc">    719.81047379 </i>
    <i name="pawpsdc">  21152.63485920 </i>
    <i name="pawaedc"> -22880.28247313 </i>
    <i name="eentropy">     -0.03827228 </i>
    <i name="bandstr">   -188.55371897 </i>
    <i name="atom">  22280.27950853 </i>
    <i name="e_fr_energy">    -62.94328242 </i>
    <i name="e_wo_entrp">    -62.90501014 </i>
    <i name="e_0_energy">    -62.93052500 </i>
   </energy>
  </scstep>
  <structure>
   <crystal>
    <varray name="basis" >
     <v>       3.63000011       0.00000000       0.00000000 </v>
     <v>       0.00000000       3.63000011       0.00000000 </v>
     <v>       0.00000000       0.00000000      27.70499992 </v>
    </varray>
    <i name="volume">    365.06603650 </i>
    <varray name="rec_basis" >
     <v>       0.27548208       0.00000000       0.00000000 </v>
     <v>       0.00000000       0.27548208       0.00000000 </v>
     <v>       0.00000000       0.00000000       0.03609457 </v>
    </varray>
   </crystal>
   <varray name="positions" >
    <v>       0.00000000       0.00000000       0.00202423 </v>
    <v>       0.50000000       0.50000000       0.00202423 </v>
    <v>       0.00000000       0.50000000       0.06449601 </v>
    <v>       0.50000000       0.00000000       0.06447395 </v>
    <v>       0.00000000       0.00000000       0.12807613 </v>
    <v>       0.50000000       0.50000000       0.12807613 </v>
    <v>       0.00000000       0.50000000       0.19187612 </v>
    <v>       0.50000000       0.00000000       0.19185299 </v>
    <v>       0.00000000       0.00000000       0.25420278 </v>
    <v>       0.50000000       0.50000000       0.25420278 </v>
    <v>       0.00000000       0.50000000       0.31711844 </v>
    <v>       0.50000000       0.00000000       0.31667772 </v>
    <v>       0.00000000       0.00000000       0.37777637 </v>
    <v>       0.50000000       0.50000000       0.37777637 </v>
    <v>       0.00000000       0.50000000       0.43808024 </v>
    <v>       0.50000000       0.00000000       0.44052680 </v>
    <v>       1.00000000       0.50000000       0.51001729 </v>
    <v>       1.00000000       0.50000000       0.53760481 </v>
   </varray>
  </structure>
  <varray name="forces" >
   <v>       0.00000000       0.00000000      -0.06667059 </v>
   <v>       0.00000000       0.00000000      -0.06667059 </v>
   <v>       0.00000000       0.00000000       0.06945215 </v>
   <v>       0.00000000       0.00000000       0.07189144 </v>
   <v>       0.00000000       0.00000000       0.07356795 </v>
   <v>       0.00000000       0.00000000       0.07356795 </v>
   <v>       0.00000000       0.00000000      -0.04601298 </v>
   <v>       0.00000000       0.00000000      -0.04639207 </v>
   <v>       0.00000000       0.00000000      -0.08534350 </v>
   <v>       0.00000000       0.00000000      -0.08534350 </v>
   <v>       0.00000000       0.00000000      -0.28699943 </v>
   <v>       0.00000000       0.00000000      -0.23408591 </v>
   <v>       0.00000000       0.00000000       0.17119360 </v>
   <v>       0.00000000       0.00000000       0.17119360 </v>
   <v>       0.00000000       0.00000000       0.14539122 </v>
   <v>       0.00000000       0.00000000      -0.13574504 </v>
   <v>       0.00000000       0.00000000       0.07066099 </v>
   <v>       0.00000000       0.00000000       0.20634473 </v>
  </varray>
  <varray name="stress" >
   <v>     -13.29593206       0.00000000       0.00000000 </v>
   <v>       0.00000000     -13.29593206       0.00000000 </v>
   <v>       0.00000000       0.00000000       3.23543047 </v>
  </varray>
  <energy>
   <i name="e_fr_energy">    -69.92313948 </i>
   <i name="e_wo_entrp">    -69.88486720 </i>
   <i name="e_0_energy">    -69.91038205 </i>
  </energy>
  <time name="totalsc">    9.77    9.88</time>
 </calculation>
 <calculation>
  <scstep>
   <time name="dav">    0.84    0.85</time>
   <time name="total">    0.97    0.98</time>
   <energy>
    <i name="alphaZ">    521.04204123 </i>
    <i name="ewald"> 105253.71929241 </i>
    <i name="hartreedc">-126921.43358512 </i>
    <i name="XCdc">    719.83031264 </i>
    <i name="pawpsdc">  21152.79577696 </i>
    <i name="pawaedc"> -22880.43131578 </i>
    <i name="eentropy">     -0.03698243 </i>
    <i name="bandstr">   -188.70515377 </i>
    <i name="atom">  22280.27950853 </i>
[...]
       <r>     8.1747     1.7467   104.1655 </r>
       <r>     8.2503     2.5918   104.3614 </r>
       <r>     8.3259     3.4002   104.6184 </r>
       <r>     8.4015     3.2886   104.8669 </r>
       <r>     8.4771     2.4909   105.0552 </r>
       <r>     8.5526     1.7901   105.1905 </r>
       <r>     8.6282     1.5155   105.3050 </r>
       <r>     8.7038     1.9959   105.4559 </r>
       <r>     8.7794     3.6902   105.7348 </r>
       <r>     8.8550     6.0401   106.1913 </r>
       <r>     8.9305     7.4783   106.7565 </r>
       <r>     9.0061     7.1732   107.2986 </r>
       <r>     9.0817     5.8015   107.7371 </r>
       <r>     9.1573     4.3976   108.0695 </r>
       <r>     9.2328     3.3297   108.3211 </r>
       <r>     9.3084     2.5698   108.5153 </r>
       <r>     9.3840     2.1907   108.6809 </r>
       <r>     9.4596     2.3863   108.8613 </r>
       <r>     9.5352     3.3124   109.1116 </r>
       <r>     9.6107     4.6822   109.4655 </r>
       <r>     9.6863     5.5203   109.8827 </r>
       <r>     9.7619     4.9913   110.2599 </r>
       <r>     9.8375     3.5721   110.5299 </r>
       <r>     9.9131     2.6295   110.7286 </r>
       <r>     9.9886     2.6839   110.9315 </r>
       <r>    10.0642     2.9865   111.1572 </r>
       <r>    10.1398     2.9033   111.3766 </r>
       <r>    10.2154     2.7321   111.5831 </r>
       <r>    10.2910     3.0915   111.8168 </r>
       <r>    10.3665     4.3141   112.1428 </r>
       <r>    10.4421     6.2656   112.6164 </r>
       <r>    10.5177     8.0379   113.2239 </r>
       <r>    10.5933     8.2715   113.8490 </r>
       <r>    10.6688     6.4637   114.3376 </r>
       <r>    10.7444     3.5648   114.6070 </r>
       <r>    10.8200     1.0416   114.6857 </r>
       <r>    10.8956    -0.1979   114.6707 </r>
       <r>    10.9712     0.0934   114.6778 </r>
       <r>    11.0467     1.7388   114.8092 </r>
       <r>    11.1223     3.8711   115.1018 </r>
       <r>    11.1979     4.9996   115.4797 </r>
       <r>    11.2735     4.2660   115.8021 </r>
       <r>    11.3491     2.3707   115.9813 </r>
       <r>    11.4246     0.6964   116.0339 </r>
       <r>    11.5002    -0.0847   116.0275 </r>
       <r>    11.5758    -0.2036   116.0121 </r>
       <r>    11.6514    -0.1122   116.0036 </r>
       <r>    11.7269    -0.0375   116.0008 </r>
       <r>    11.8025    -0.0086   116.0001 </r>
       <r>    11.8781    -0.0014   116.0000 </r>
       <r>    11.9537    -0.0002   116.0000 </r>
       <r>    12.0293    -0.0000   116.0000 </r>
       <r>    12.1048    -0.0000   116.0000 </r>
       <r>    12.1804    -0.0000   116.0000 </r>
       <r>    12.2560    -0.0000   116.0000 </r>
       <r>    12.3316    -0.0000   116.0000 </r>
       <r>    12.4072    -0.0000   116.0000 </r>
       <r>    12.4827    -0.0000   116.0000 </r>
       <r>    12.5583     0.0000   116.0000 </r>
       <r>    12.6339     0.0000   116.0000 </r>
       <r>    12.7095     0.0000   116.0000 </r>
       <r>    12.7851     0.0000   116.0000 </r>
       <r>    12.8606     0.0000   116.0000 </r>
       <r>    12.9362     0.0000   116.0000 </r>
       <r>    13.0118     0.0000   116.0000 </r>
       <r>    13.0874     0.0000   116.0000 </r>
       <r>    13.1629     0.0000   116.0000 </r>
       <r>    13.2385     0.0000   116.0000 </r>
      </set>
      <set comment="spin 2">
       <r>    -9.4351     0.0000     0.0000 </r>
       <r>    -9.3596     0.0000     0.0000 </r>
       <r>    -9.2840     0.0000     0.0000 </r>
       <r>    -9.2084     0.0000     0.0000 </r>
       <r>    -9.1328     0.0000     0.0000 </r>
       <r>    -9.0572    -0.0000    -0.0000 </r>
       <r>    -8.9817    -0.0000    -0.0000 </r>
       <r>    -8.9061    -0.0000    -0.0000 </r>
       <r>    -8.8305    -0.0000    -0.0000 </r>
       <r>    -8.7549    -0.0000    -0.0000 </r>
       <r>    -8.6793    -0.0000    -0.0000 </r>
       <r>    -8.6038    -0.0000    -0.0000 </r>
       <r>    -8.5282    -0.0000    -0.0000 </r>
       <r>    -8.4526    -0.0000    -0.0000 </r>
       <r>    -8.3770    -0.0000    -0.0000 </r>
       <r>    -8.3014    -0.0000    -0.0000 </r>
       <r>    -8.2259    -0.0000    -0.0000 </r>
       <r>    -8.1503    -0.0000    -0.0000 </r>
       <r>    -8.0747    -0.0000    -0.0000 </r>
       <r>    -7.9991    -0.0003    -0.0000 </r>
       <r>    -7.9236    -0.0018    -0.0002 </r>
       <r>    -7.8480    -0.0073    -0.0007 </r>
       <r>    -7.7724    -0.0187    -0.0021 </r>
       <r>    -7.6968    -0.0226    -0.0038 </r>
       <r>    -7.6212     0.0267    -0.0018 </r>
       <r>    -7.5457     0.1744     0.0114 </r>
       <r>    -7.4701     0.3703     0.0394 </r>
       <r>    -7.3945     0.4582     0.0740 </r>
       <r>    -7.3189     0.3481     0.1003 </r>
       <r>    -7.2433     0.1388     0.1108 </r>
       <r>    -7.1678     0.0019     0.1109 </r>
       <r>    -7.0922     0.0295     0.1132 </r>
       <r>    -7.0166     0.2045     0.1286 </r>
       <r>    -6.9410     0.4016     0.1590 </r>
       <r>    -6.8654     0.4512     0.1931 </r>
       <r>    -6.7899     0.3118     0.2166 </r>
       <r>    -6.7143     0.1162     0.2254 </r>
       <r>    -6.6387    -0.0054     0.2250 </r>
       <r>    -6.5631    -0.0541     0.2209 </r>
       <r>    -6.4876    -0.0964     0.2136 </r>
       <r>    -6.4120    -0.1212     0.2045 </r>
       <r>    -6.3364     0.0633     0.2092 </r>
       <r>    -6.2608     0.7079     0.2627 </r>
       <r>    -6.1852     1.6738     0.3892 </r>
       <r>    -6.1097     2.2502     0.5593 </r>
       <r>    -6.0341     1.8722     0.7008 </r>
       <r>    -5.9585     0.8892     0.7680 </r>
       <r>    -5.8829     0.1993     0.7831 </r>
       <r>    -5.8073     0.3430     0.8090 </r>
       <r>    -5.7318     1.1137     0.8932 </r>
       <r>    -5.6562     1.7571     1.0260 </r>
       <r>    -5.5806     1.6450     1.1503 </r>
       <r>    -5.5050     0.9161     1.2195 </r>
       <r>    -5.4295     0.2003     1.2347 </r>
       <r>    -5.3539    -0.1651     1.2222 </r>
       <r>    -5.2783    -0.2594     1.2026 </r>
       <r>    -5.2027    -0.0809     1.1965 </r>
       <r>    -5.1271     0.6742     1.2474 </r>
       <r>    -5.0516     2.1102     1.4069 </r>
       <r>    -4.9760     3.4919     1.6709 </r>
       <r>    -4.9004     3.6930     1.9500 </r>
       <r>    -4.8248     2.6075     2.1470 </r>
       <r>    -4.7492     1.4600     2.2574 </r>
       <r>    -4.6737     1.2822     2.3543 </r>
       <r>    -4.5981     1.7592     2.4872 </r>
       <r>    -4.5225     2.0474     2.6420 </r>
       <r>    -4.4469     2.0396     2.7961 </r>
       <r>    -4.3713     2.1610     2.9595 </r>
       <r>    -4.2958     2.4665     3.1459 </r>
       <r>    -4.2202     2.6522     3.3463 </r>
       <r>    -4.1446     2.6476     3.5464 </r>
       <r>    -4.0690     2.7242     3.7523 </r>
       <r>    -3.9935     3.0508     3.9829 </r>
       <r>    -3.9179     3.3101     4.2331 </r>
       <r>    -3.8423     2.9480     4.4559 </r>
       <r>    -3.7667     1.8611     4.5965 </r>
       <r>    -3.6911     0.6959     4.6491 </r>
       <r>    -3.6156     0.3984     4.6792 </r>
       <r>    -3.5400     1.3741     4.7831 </r>
       <r>    -3.4644     2.8591     4.9992 </r>
       <r>    -3.3888     3.3926     5.2556 </r>
       <r>    -3.3132     2.4771     5.4428 </r>
       <r>    -3.2377     1.3659     5.5460 </r>
       <r>    -3.1621     1.6568     5.6713 </r>
       <r>    -3.0865     3.7190     5.9523 </r>
       <r>    -3.0109     6.8623     6.4710 </r>
       <r>    -2.9353    10.2061     7.2423 </r>
       <r>    -2.8598    12.6881     8.2013 </r>
       <r>    -2.7842    13.0301     9.1861 </r>
       <r>    -2.7086    11.1554    10.0292 </r>
       <r>    -2.6330     9.1305    10.7193 </r>
       <r>    -2.5575     9.1377    11.4099 </r>
       <r>    -2.4819    11.3131    12.2649 </r>
       <r>    -2.4063    14.5485    13.3645 </r>
       <r>    -2.3307    17.9239    14.7191 </r>
       <r>    -2.2551    20.5721    16.2740 </r>
       <r>    -2.1796    21.2905    17.8831 </r>
       <r>    -2.1040    19.3465    19.3453 </r>
       <r>    -2.0284    15.7085    20.5325 </r>
       <r>    -1.9528    12.6189    21.4862 </r>
       <r>    -1.8772    11.7776    22.3763 </r>
       <r>    -1.8017    13.3371    23.3843 </r>
       <r>    -1.7261    16.1699    24.6065 </r>
       <r>    -1.6505    18.7129    26.0208 </r>
       <r>    -1.5749    19.8411    27.5203 </r>
       <r>    -1.4994    19.5062    28.9946 </r>
       <r>    -1.4238    18.9119    30.4239 </r>
       <r>    -1.3482    19.5555    31.9019 </r>
       <r>    -1.2726    21.9483    33.5607 </r>
       <r>    -1.1970    25.6812    35.5017 </r>
       <r>    -1.1215    29.9287    37.7637 </r>
       <r>    -1.0459    33.1836    40.2716 </r>
       <r>    -0.9703    33.7229    42.8204 </r>
       <r>    -0.8947    31.5011    45.2012 </r>
       <r>    -0.8191    28.4486    47.3513 </r>
       <r>    -0.7436    25.9985    49.3162 </r>
       <r>    -0.6680    24.2187    51.1467 </r>
       <r>    -0.5924    23.5413    52.9259 </r>
       <r>    -0.5168    24.3189    54.7639 </r>
       <r>    -0.4412    25.2230    56.6702 </r>
       <r>    -0.3657    25.1784    58.5732 </r>
       <r>    -0.2901    25.6419    60.5112 </r>
       <r>    -0.2145    28.5359    62.6679 </r>
       <r>    -0.1389    33.0930    65.1690 </r>
       <r>    -0.0634    36.3813    67.9187 </r>
       <r>     0.0122    36.6987    70.6923 </r>
       <r>     0.0878    35.5315    73.3777 </r>
       <r>     0.1634    35.4505    76.0570 </r>
       <r>     0.2390    36.2816    78.7992 </r>
       <r>     0.3145    34.6678    81.4193 </r>
       <r>     0.3901    28.0958    83.5428 </r>
       <r>     0.4657    18.1009    84.9108 </r>
       <r>     0.5413     8.6238    85.5626 </r>
       <r>     0.6169     2.4175    85.7453 </r>
       <r>     0.6924    -0.1928    85.7307 </r>
       <r>     0.7680    -0.1313    85.7208 </r>
       <r>     0.8436     1.5468    85.8377 </r>
       <r>     0.9192     3.5947    86.1094 </r>
       <r>     0.9948     4.6237    86.4588 </r>
       <r>     1.0703     4.0294    86.7634 </r>
       <r>     1.1459     2.4307    86.9471 </r>
       <r>     1.2215     0.9063    87.0156 </r>
       <r>     1.2971     0.0917    87.0225 </r>
       <r>     1.3726    -0.0522    87.0186 </r>
       <r>     1.4482     0.0973    87.0259 </r>
       <r>     1.5238     0.3495    87.0523 </r>
       <r>     1.5994     0.9733    87.1259 </r>
       <r>     1.6750     2.3837    87.3061 </r>
       <r>     1.7505     4.4389    87.6415 </r>
       <r>     1.8261     6.1659    88.1076 </r>
       <r>     1.9017     6.6134    88.6074 </r>
       <r>     1.9773     5.8849    89.0522 </r>
       <r>     2.0529     4.6127    89.4008 </r>
       <r>     2.1284     3.0028    89.6277 </r>
       <r>     2.2040     1.4961    89.7408 </r>
       <r>     2.2796     1.3107    89.8399 </r>
       <r>     2.3552     2.9738    90.0646 </r>
       <r>     2.4308     5.0502    90.4463 </r>
       <r>     2.5063     5.5688    90.8672 </r>
       <r>     2.5819     4.3768    91.1980 </r>
       <r>     2.6575     3.0247    91.4266 </r>
       <r>     2.7331     2.7737    91.6362 </r>
       <r>     2.8086     3.4688    91.8984 </r>
       <r>     2.8842     3.8863    92.1921 </r>
       <r>     2.9598     3.1215    92.4280 </r>
       <r>     3.0354     1.7663    92.5615 </r>
       <r>     3.1110     1.1056    92.6451 </r>
       <r>     3.1865     1.3580    92.7477 </r>
       <r>     3.2621     1.6052    92.8690 </r>
       <r>     3.3377     1.2755    92.9655 </r>
       <r>     3.4133     0.7819    93.0245 </r>
       <r>     3.4889     0.6520    93.0738 </r>
       <r>     3.5644     0.8808    93.1404 </r>
       <r>     3.6400     1.3212    93.2402 </r>
       <r>     3.7156     1.9439    93.3872 </r>
       <r>     3.7912     2.5458    93.5796 </r>
       <r>     3.8667     2.8064    93.7917 </r>
       <r>     3.9423     2.5998    93.9882 </r>
       <r>     4.0179     1.9538    94.1358 </r>
       <r>     4.0935     1.0427    94.2146 </r>
       <r>     4.1691     0.2455    94.2332 </r>
       <r>     4.2446    -0.1313    94.2233 </r>
       <r>     4.3202    -0.0472    94.2197 </r>
       <r>     4.3958     0.4303    94.2522 </r>
       <r>     4.4714     1.1905    94.3422 </r>
       <r>     4.5470     1.9374    94.4886 </r>
       <r>     4.6225     2.2139    94.6560 </r>
       <r>     4.6981     1.8293    94.7942 </r>
       <r>     4.7737     1.2542    94.8890 </r>
       <r>     4.8493     1.1618    94.9768 </r>
       <r>     4.9249     1.5420    95.0934 </r>
       <r>     5.0004     1.8573    95.2337 </r>
       <r>     5.0760     1.9628    95.3821 </r>
       <r>     5.1516     2.1300    95.5431 </r>
       <r>     5.2272     2.3846    95.7233 </r>
       <r>     5.3027     2.4958    95.9119 </r>
       <r>     5.3783     2.3885    96.0924 </r>
       <r>     5.4539     2.2038    96.2590 </r>
       <r>     5.5295     2.0510    96.4140 </r>
       <r>     5.6051     1.9388    96.5605 </r>
       <r>     5.6806     2.1150    96.7204 </r>
       <r>     5.7562     3.1140    96.9557 </r>
       <r>     5.8318     4.9895    97.3329 </r>
       <r>     5.9074     6.6438    97.8350 </r>
       <r>     5.9830     6.5235    98.3280 </r>
       <r>     6.0585     4.3786    98.6590 </r>
       <r>     6.1341     1.8367    98.7978 </r>
       <r>     6.2097     0.7070    98.8512 </r>
       <r>     6.2853     1.1602    98.9389 </r>
       <r>     6.3609     1.9198    99.0840 </r>
       <r>     6.4364     1.9395    99.2306 </r>
       <r>     6.5120     1.4896    99.3432 </r>
       <r>     6.5876     1.3972    99.4488 </r>
       <r>     6.6632     1.8049    99.5852 </r>
       <r>     6.7387     2.3567    99.7633 </r>
       <r>     6.8143     3.0164    99.9913 </r>
       <r>     6.8899     3.9286   100.2882 </r>
       <r>     6.9655     4.8244   100.6528 </r>
       <r>     7.0411     5.0487   101.0344 </r>
       <r>     7.1166     4.2147   101.3529 </r>
       <r>     7.1922     2.7749   101.5627 </r>
       <r>     7.2678     1.7104   101.6919 </r>
       <r>     7.3434     1.6343   101.8155 </r>
       <r>     7.4190     2.4582   102.0012 </r>
       <r>     7.4945     3.7684   102.2861 </r>
       <r>     7.5701     5.0412   102.6671 </r>
       <r>     7.6457     5.5009   103.0828 </r>
       <r>     7.7213     4.5430   103.4262 </r>
       <r>     7.7968     2.6847   103.6291 </r>
       <r>     7.8724     1.3189   103.7288 </r>
       <r>     7.9480     1.1169   103.8132 </r>
       <r>     8.0236     1.4110   103.9198 </r>
       <r>     8.0992     1.5044   104.0335 </r>
       <r>     8.1747     1.7467   104.1655 </r>
       <r>     8.2503     2.5919   104.3614 </r>
       <r>     8.3259     3.4002   104.6184 </r>
       <r>     8.4015     3.2886   104.8669 </r>
       <r>     8.4771     2.4909   105.0552 </r>
       <r>     8.5526     1.7901   105.1905 </r>
       <r>     8.6282     1.5156   105.3050 </r>
       <r>     8.7038     1.9960   105.4559 </r>
       <r>     8.7794     3.6902   105.7348 </r>
       <r>     8.8550     6.0402   106.1913 </r>
       <r>     8.9305     7.4782   106.7565 </r>
       <r>     9.0061     7.1731   107.2986 </r>
       <r>     9.0817     5.8015   107.7371 </r>
       <r>     9.1573     4.3975   108.0695 </r>
       <r>     9.2328     3.3297   108.3211 </r>
       <r>     9.3084     2.5698   108.5153 </r>
       <r>     9.3840     2.1907   108.6809 </r>
       <r>     9.4596     2.3863   108.8613 </r>
       <r>     9.5352     3.3124   109.1116 </r>
       <r>     9.6107     4.6822   109.4655 </r>
       <r>     9.6863     5.5203   109.8827 </r>
       <r>     9.7619     4.9913   110.2599 </r>
       <r>     9.8375     3.5720   110.5299 </r>
       <r>     9.9131     2.6295   110.7286 </r>
       <r>     9.9886     2.6839   110.9315 </r>
       <r>    10.0642     2.9865   111.1572 </r>
       <r>    10.1398     2.9033   111.3766 </r>
       <r>    10.2154     2.7321   111.5831 </r>
       <r>    10.2910     3.0915   111.8168 </r>
       <r>    10.3665     4.3141   112.1428 </r>
       <r>    10.4421     6.2656   112.6164 </r>
       <r>    10.5177     8.0379   113.2239 </r>
       <r>    10.5933     8.2715   113.8490 </r>
       <r>    10.6688     6.4637   114.3376 </r>
       <r>    10.7444     3.5648   114.6070 </r>
       <r>    10.8200     1.0416   114.6857 </r>
       <r>    10.8956    -0.1979   114.6707 </r>
       <r>    10.9712     0.0934   114.6778 </r>
       <r>    11.0467     1.7388   114.8092 </r>
       <r>    11.1223     3.8711   115.1018 </r>
       <r>    11.1979     4.9996   115.4797 </r>
       <r>    11.2735     4.2660   115.8021 </r>
       <r>    11.3491     2.3707   115.9813 </r>
       <r>    11.4246     0.6964   116.0339 </r>
       <r>    11.5002    -0.0847   116.0275 </r>
       <r>    11.5758    -0.2036   116.0121 </r>
       <r>    11.6514    -0.1122   116.0036 </r>
       <r>    11.7269    -0.0375   116.0008 </r>
       <r>    11.8025    -0.0086   116.0001 </r>
       <r>    11.8781    -0.0014   116.0000 </r>
       <r>    11.9537    -0.0002   116.0000 </r>
       <r>    12.0293    -0.0000   116.0000 </r>
       <r>    12.1048    -0.0000   116.0000 </r>
       <r>    12.1804    -0.0000   116.0000 </r>
       <r>    12.2560    -0.0000   116.0000 </r>
       <r>    12.3316    -0.0000   116.0000 </r>
       <r>    12.4072    -0.0000   116.0000 </r>
       <r>    12.4827    -0.0000   116.0000 </r>
       <r>    12.5583     0.0000   116.0000 </r>
       <r>    12.6339     0.0000   116.0000 </r>
       <r>    12.7095     0.0000   116.0000 </r>
       <r>    12.7851     0.0000   116.0000 </r>
       <r>    12.8606     0.0000   116.0000 </r>
       <r>    12.9362     0.0000   116.0000 </r>
       <r>    13.0118     0.0000   116.0000 </r>
       <r>    13.0874     0.0000   116.0000 </r>
       <r>    13.1629     0.0000   116.0000 </r>
       <r>    13.2385     0.0000   116.0000 </r>
      </set>
     </set>
    </array>
   </total>
  </dos>
 </calculation>
 <structure name="finalpos" >
  <crystal>
   <varray name="basis" >
    <v>       3.63000011       0.00000000       0.00000000 </v>
    <v>       0.00000000       3.63000011       0.00000000 </v>
    <v>       0.00000000       0.00000000      27.70499992 </v>
   </varray>
   <i name="volume">    365.06603650 </i>
   <varray name="rec_basis" >
    <v>       0.27548208       0.00000000       0.00000000 </v>
    <v>       0.00000000       0.27548208       0.00000000 </v>
    <v>       0.00000000       0.00000000       0.03609457 </v>
   </varray>
  </crystal>
  <varray name="positions" >
   <v>       0.00000000       0.00000000      -0.00023218 </v>
   <v>       0.50000000       0.50000000      -0.00023218 </v>
   <v>       0.00000000       0.50000000       0.06267242 </v>
   <v>       0.50000000       0.00000000       0.06266531 </v>
   <v>       0.00000000       0.00000000       0.12585991 </v>
   <v>       0.50000000       0.50000000       0.12585991 </v>
   <v>       0.00000000       0.50000000       0.18892916 </v>
   <v>       0.50000000       0.00000000       0.18890903 </v>
   <v>       0.00000000       0.00000000       0.25081729 </v>
   <v>       0.50000000       0.50000000       0.25081729 </v>
   <v>       0.00000000       0.50000000       0.31387701 </v>
   <v>       0.50000000       0.00000000       0.31385207 </v>
   <v>       0.00000000       0.00000000       0.37710572 </v>
   <v>       0.50000000       0.50000000       0.37710572 </v>
   <v>       0.00000000       0.50000000       0.43986431 </v>
   <v>       0.50000000       0.00000000       0.43966108 </v>
   <v>       1.00000000       0.50000000       0.52597252 </v>
   <v>       1.00000000       0.50000000       0.55337899 </v>
  </varray>
 </structure>
</modeling>
