unknown system                          
           1
     3.630000    0.000000    0.000000
     0.000000    3.630000    0.000000
     0.000000    0.000000   27.705000
   Cu   H 
    16     2
Direct configuration=     1
   0.00000000  0.00000000  0.00000000
   0.50000000  0.50000000  0.00000000
   0.00000000  0.50000000  0.06551164
   0.50000000  0.00000000  0.06551164
   0.00000000  0.00000000  0.12876120
   0.50000000  0.50000000  0.12876120
   0.00000000  0.50000000  0.19193187
   0.50000000  0.00000000  0.19193187
   0.00000000  0.00000000  0.25406550
   0.50000000  0.50000000  0.25406550
   0.00000000  0.50000000  0.31747855
   0.50000000  0.00000000  0.31747855
   0.00000000  0.00000000  0.38132233
   0.50000000  0.50000000  0.38132233
   0.00000000  0.50000000  0.44440075
   0.50000000  0.00000000  0.44440075
   1.00000000  0.50000000  0.50150658
   1.00000000  0.50000000  0.52843313
Direct configuration=     2
   0.00000000  0.00000000  0.00042922
   0.50000000  0.50000000  0.00042922
   0.00000000  0.50000000  0.06510186
   0.50000000  0.00000000  0.06507701
   0.00000000  0.00000000  0.12878071
   0.50000000  0.50000000  0.12878071
   0.00000000  0.50000000  0.19194041
   0.50000000  0.00000000  0.19190064
   0.00000000  0.00000000  0.25411314
   0.50000000  0.50000000  0.25411314
   0.00000000  0.50000000  0.31756499
   0.50000000  0.00000000  0.31742597
   0.00000000  0.00000000  0.38132458
   0.50000000  0.50000000  0.38132458
   0.00000000  0.50000000  0.44207323
   0.50000000  0.00000000  0.44377513
   1.00000000  0.50000000  0.50200436
   1.00000000  0.50000000  0.53072448
Direct configuration=     3
   0.00000000  0.00000000  0.00064906
   0.50000000  0.50000000  0.00064906
   0.00000000  0.50000000  0.06489198
   0.50000000  0.00000000  0.06485440
   0.00000000  0.00000000  0.12879070
   0.50000000  0.50000000  0.12879070
   0.00000000  0.50000000  0.19194478
   0.50000000  0.00000000  0.19188465
   0.00000000  0.00000000  0.25413754
   0.50000000  0.50000000  0.25413754
   0.00000000  0.50000000  0.31760926
   0.50000000  0.00000000  0.31739904
   0.00000000  0.00000000  0.38132573
   0.50000000  0.50000000  0.38132573
   0.00000000  0.50000000  0.44088114
   0.50000000  0.00000000  0.44345471
   1.00000000  0.50000000  0.50225930
   1.00000000  0.50000000  0.53189805
Direct configuration=     4
   0.00000000  0.00000000  0.00108773
   0.50000000  0.50000000  0.00108773
   0.00000000  0.50000000  0.06455972
   0.50000000  0.00000000  0.06450728
   0.00000000  0.00000000  0.12871266
   0.50000000  0.50000000  0.12871266
   0.00000000  0.50000000  0.19196090
   0.50000000  0.00000000  0.19188117
   0.00000000  0.00000000  0.25418763
   0.50000000  0.50000000  0.25418763
   0.00000000  0.50000000  0.31769397
   0.50000000  0.00000000  0.31736116
   0.00000000  0.00000000  0.38091999
   0.50000000  0.50000000  0.38091999
   0.00000000  0.50000000  0.43909915
   0.50000000  0.00000000  0.44278930
   1.00000000  0.50000000  0.50482411
   1.00000000  0.50000000  0.53239061
Direct configuration=     5
   0.00000000  0.00000000  0.00113829
   0.50000000  0.50000000  0.00113829
   0.00000000  0.50000000  0.06452142
   0.50000000  0.00000000  0.06446727
   0.00000000  0.00000000  0.12870366
   0.50000000  0.50000000  0.12870366
   0.00000000  0.50000000  0.19196276
   0.50000000  0.00000000  0.19188077
   0.00000000  0.00000000  0.25419340
   0.50000000  0.50000000  0.25419340
   0.00000000  0.50000000  0.31770374
   0.50000000  0.00000000  0.31735680
   0.00000000  0.00000000  0.38087322
   0.50000000  0.50000000  0.38087322
   0.00000000  0.50000000  0.43889373
   0.50000000  0.00000000  0.44271259
   1.00000000  0.50000000  0.50511977
   1.00000000  0.50000000  0.53244739
Direct configuration=     6
   0.00000000  0.00000000  0.00133660
   0.50000000  0.50000000  0.00133660
   0.00000000  0.50000000  0.06449255
   0.50000000  0.00000000  0.06444376
   0.00000000  0.00000000  0.12856089
   0.50000000  0.50000000  0.12856089
   0.00000000  0.50000000  0.19195743
   0.50000000  0.00000000  0.19188668
   0.00000000  0.00000000  0.25420596
   0.50000000  0.50000000  0.25420596
   0.00000000  0.50000000  0.31765722
   0.50000000  0.00000000  0.31727702
   0.00000000  0.00000000  0.38020042
   0.50000000  0.50000000  0.38020042
   0.00000000  0.50000000  0.43867650
   0.50000000  0.00000000  0.44229689
   1.00000000  0.50000000  0.50599832
   1.00000000  0.50000000  0.53358928
Direct configuration=     7
   0.00000000  0.00000000  0.00190848
   0.50000000  0.50000000  0.00190848
   0.00000000  0.50000000  0.06440929
   0.50000000  0.00000000  0.06437596
   0.00000000  0.00000000  0.12814914
   0.50000000  0.50000000  0.12814914
   0.00000000  0.50000000  0.19194206
   0.50000000  0.00000000  0.19190373
   0.00000000  0.00000000  0.25424218
   0.50000000  0.50000000  0.25424218
   0.00000000  0.50000000  0.31752307
   0.50000000  0.00000000  0.31704693
   0.00000000  0.00000000  0.37826013
   0.50000000  0.50000000  0.37826013
   0.00000000  0.50000000  0.43805005
   0.50000000  0.00000000  0.44109804
   1.00000000  0.50000000  0.50853199
   1.00000000  0.50000000  0.53688241
Direct configuration=     8
   0.00000000  0.00000000  0.00202423
   0.50000000  0.50000000  0.00202423
   0.00000000  0.50000000  0.06449601
   0.50000000  0.00000000  0.06447395
   0.00000000  0.00000000  0.12807613
   0.50000000  0.50000000  0.12807613
   0.00000000  0.50000000  0.19187612
   0.50000000  0.00000000  0.19185299
   0.00000000  0.00000000  0.25420278
   0.50000000  0.50000000  0.25420278
   0.00000000  0.50000000  0.31711844
   0.50000000  0.00000000  0.31667772
   0.00000000  0.00000000  0.37777637
   0.50000000  0.50000000  0.37777637
   0.00000000  0.50000000  0.43808024
   0.50000000  0.00000000  0.44052680
   1.00000000  0.50000000  0.51001729
   1.00000000  0.50000000  0.53760481
Direct configuration=     9
   0.00000000  0.00000000  0.00210633
   0.50000000  0.50000000  0.00210633
   0.00000000  0.50000000  0.06455753
   0.50000000  0.00000000  0.06454346
   0.00000000  0.00000000  0.12802433
   0.50000000  0.50000000  0.12802433
   0.00000000  0.50000000  0.19182935
   0.50000000  0.00000000  0.19181699
   0.00000000  0.00000000  0.25417484
   0.50000000  0.50000000  0.25417484
   0.00000000  0.50000000  0.31683143
   0.50000000  0.00000000  0.31641582
   0.00000000  0.00000000  0.37743322
   0.50000000  0.50000000  0.37743322
   0.00000000  0.50000000  0.43810166
   0.50000000  0.00000000  0.44012160
   1.00000000  0.50000000  0.51107087
   1.00000000  0.50000000  0.53811723
Direct configuration=    10
   0.00000000  0.00000000  0.00214823
   0.50000000  0.50000000  0.00214823
   0.00000000  0.50000000  0.06466687
   0.50000000  0.00000000  0.06466207
   0.00000000  0.00000000  0.12802884
   0.50000000  0.50000000  0.12802884
   0.00000000  0.50000000  0.19174599
   0.50000000  0.00000000  0.19174339
   0.00000000  0.00000000  0.25406160
   0.50000000  0.50000000  0.25406160
   0.00000000  0.50000000  0.31633538
   0.50000000  0.00000000  0.31598179
   0.00000000  0.00000000  0.37719820
   0.50000000  0.50000000  0.37719820
   0.00000000  0.50000000  0.43819762
   0.50000000  0.00000000  0.43959446
   1.00000000  0.50000000  0.51196805
   1.00000000  0.50000000  0.53911402
Direct configuration=    11
   0.00000000  0.00000000  0.00227393
   0.50000000  0.50000000  0.00227393
   0.00000000  0.50000000  0.06499488
   0.50000000  0.00000000  0.06501791
   0.00000000  0.00000000  0.12804236
   0.50000000  0.50000000  0.12804236
   0.00000000  0.50000000  0.19149592
   0.50000000  0.00000000  0.19152257
   0.00000000  0.00000000  0.25372188
   0.50000000  0.50000000  0.25372188
   0.00000000  0.50000000  0.31484723
   0.50000000  0.00000000  0.31467969
   0.00000000  0.00000000  0.37649315
   0.50000000  0.50000000  0.37649315
   0.00000000  0.50000000  0.43848550
   0.50000000  0.00000000  0.43801305
   1.00000000  0.50000000  0.51465959
   1.00000000  0.50000000  0.54210439
Direct configuration=    12
   0.00000000  0.00000000  0.00231674
   0.50000000  0.50000000  0.00231674
   0.00000000  0.50000000  0.06510657
   0.50000000  0.00000000  0.06513908
   0.00000000  0.00000000  0.12804696
   0.50000000  0.50000000  0.12804696
   0.00000000  0.50000000  0.19141077
   0.50000000  0.00000000  0.19144737
   0.00000000  0.00000000  0.25360619
   0.50000000  0.50000000  0.25360619
   0.00000000  0.50000000  0.31434048
   0.50000000  0.00000000  0.31423630
   0.00000000  0.00000000  0.37625307
   0.50000000  0.50000000  0.37625307
   0.00000000  0.50000000  0.43858353
   0.50000000  0.00000000  0.43747454
   1.00000000  0.50000000  0.51557614
   1.00000000  0.50000000  0.54312269
Direct configuration=    13
   0.00000000  0.00000000  0.00230646
   0.50000000  0.50000000  0.00230646
   0.00000000  0.50000000  0.06511113
   0.50000000  0.00000000  0.06513497
   0.00000000  0.00000000  0.12817986
   0.50000000  0.50000000  0.12817986
   0.00000000  0.50000000  0.19135753
   0.50000000  0.00000000  0.19138017
   0.00000000  0.00000000  0.25317772
   0.50000000  0.50000000  0.25317772
   0.00000000  0.50000000  0.31426491
   0.50000000  0.00000000  0.31420063
   0.00000000  0.00000000  0.37621443
   0.50000000  0.50000000  0.37621443
   0.00000000  0.50000000  0.43860422
   0.50000000  0.00000000  0.43740759
   1.00000000  0.50000000  0.51601732
   1.00000000  0.50000000  0.54364796
Direct configuration=    14
   0.00000000  0.00000000  0.00227565
   0.50000000  0.50000000  0.00227565
   0.00000000  0.50000000  0.06512482
   0.50000000  0.00000000  0.06512262
   0.00000000  0.00000000  0.12857854
   0.50000000  0.50000000  0.12857854
   0.00000000  0.50000000  0.19119783
   0.50000000  0.00000000  0.19117858
   0.00000000  0.00000000  0.25189230
   0.50000000  0.50000000  0.25189230
   0.00000000  0.50000000  0.31403821
   0.50000000  0.00000000  0.31409361
   0.00000000  0.00000000  0.37609853
   0.50000000  0.50000000  0.37609853
   0.00000000  0.50000000  0.43866627
   0.50000000  0.00000000  0.43720673
   1.00000000  0.50000000  0.51734088
   1.00000000  0.50000000  0.54522379
Direct configuration=    15
   0.00000000  0.00000000  0.00223794
   0.50000000  0.50000000  0.00223794
   0.00000000  0.50000000  0.06516694
   0.50000000  0.00000000  0.06514811
   0.00000000  0.00000000  0.12866970
   0.50000000  0.50000000  0.12866970
   0.00000000  0.50000000  0.19093484
   0.50000000  0.00000000  0.19089382
   0.00000000  0.00000000  0.25146283
   0.50000000  0.50000000  0.25146283
   0.00000000  0.50000000  0.31387413
   0.50000000  0.00000000  0.31393855
   0.00000000  0.00000000  0.37611374
   0.50000000  0.50000000  0.37611374
   0.00000000  0.50000000  0.43866782
   0.50000000  0.00000000  0.43735845
   1.00000000  0.50000000  0.51839310
   1.00000000  0.50000000  0.54553920
Direct configuration=    16
   0.00000000  0.00000000  0.00225135
   0.50000000  0.50000000  0.00225135
   0.00000000  0.50000000  0.06515196
   0.50000000  0.00000000  0.06513905
   0.00000000  0.00000000  0.12863728
   0.50000000  0.50000000  0.12863728
   0.00000000  0.50000000  0.19102837
   0.50000000  0.00000000  0.19099510
   0.00000000  0.00000000  0.25161558
   0.50000000  0.50000000  0.25161558
   0.00000000  0.50000000  0.31393249
   0.50000000  0.00000000  0.31399370
   0.00000000  0.00000000  0.37610833
   0.50000000  0.50000000  0.37610833
   0.00000000  0.50000000  0.43866727
   0.50000000  0.00000000  0.43730449
   1.00000000  0.50000000  0.51801887
   1.00000000  0.50000000  0.54542702
Direct configuration=    17
   0.00000000  0.00000000  0.00223232
   0.50000000  0.50000000  0.00223232
   0.00000000  0.50000000  0.06519784
   0.50000000  0.00000000  0.06517737
   0.00000000  0.00000000  0.12854177
   0.50000000  0.50000000  0.12854177
   0.00000000  0.50000000  0.19078706
   0.50000000  0.00000000  0.19074863
   0.00000000  0.00000000  0.25163336
   0.50000000  0.50000000  0.25163336
   0.00000000  0.50000000  0.31379931
   0.50000000  0.00000000  0.31382555
   0.00000000  0.00000000  0.37615607
   0.50000000  0.50000000  0.37615607
   0.00000000  0.50000000  0.43865036
   0.50000000  0.00000000  0.43755091
   1.00000000  0.50000000  0.51828095
   1.00000000  0.50000000  0.54573837
Direct configuration=    18
   0.00000000  0.00000000  0.00217522
   0.50000000  0.50000000  0.00217522
   0.00000000  0.50000000  0.06533547
   0.50000000  0.00000000  0.06529232
   0.00000000  0.00000000  0.12825526
   0.50000000  0.50000000  0.12825526
   0.00000000  0.50000000  0.19006313
   0.50000000  0.00000000  0.19000922
   0.00000000  0.00000000  0.25168671
   0.50000000  0.50000000  0.25168671
   0.00000000  0.50000000  0.31339980
   0.50000000  0.00000000  0.31332110
   0.00000000  0.00000000  0.37629928
   0.50000000  0.50000000  0.37629928
   0.00000000  0.50000000  0.43859965
   0.50000000  0.00000000  0.43829017
   1.00000000  0.50000000  0.51906717
   1.00000000  0.50000000  0.54667241
Direct configuration=    19
   0.00000000  0.00000000  0.00218637
   0.50000000  0.50000000  0.00218637
   0.00000000  0.50000000  0.06530859
   0.50000000  0.00000000  0.06526987
   0.00000000  0.00000000  0.12831122
   0.50000000  0.50000000  0.12831122
   0.00000000  0.50000000  0.19020451
   0.50000000  0.00000000  0.19015363
   0.00000000  0.00000000  0.25167629
   0.50000000  0.50000000  0.25167629
   0.00000000  0.50000000  0.31347782
   0.50000000  0.00000000  0.31341962
   0.00000000  0.00000000  0.37627131
   0.50000000  0.50000000  0.37627131
   0.00000000  0.50000000  0.43860955
   0.50000000  0.00000000  0.43814579
   1.00000000  0.50000000  0.51891363
   1.00000000  0.50000000  0.54648999
Direct configuration=    20
   0.00000000  0.00000000  0.00219444
   0.50000000  0.50000000  0.00219444
   0.00000000  0.50000000  0.06525510
   0.50000000  0.00000000  0.06521464
   0.00000000  0.00000000  0.12803677
   0.50000000  0.50000000  0.12803677
   0.00000000  0.50000000  0.19002256
   0.50000000  0.00000000  0.18997699
   0.00000000  0.00000000  0.25151879
   0.50000000  0.50000000  0.25151879
   0.00000000  0.50000000  0.31347689
   0.50000000  0.00000000  0.31336997
   0.00000000  0.00000000  0.37629405
   0.50000000  0.50000000  0.37629405
   0.00000000  0.50000000  0.43863349
   0.50000000  0.00000000  0.43857928
   1.00000000  0.50000000  0.51942903
   1.00000000  0.50000000  0.54683734
Direct configuration=    21
   0.00000000  0.00000000  0.00221863
   0.50000000  0.50000000  0.00221863
   0.00000000  0.50000000  0.06509463
   0.50000000  0.00000000  0.06504892
   0.00000000  0.00000000  0.12721344
   0.50000000  0.50000000  0.12721344
   0.00000000  0.50000000  0.18947672
   0.50000000  0.00000000  0.18944710
   0.00000000  0.00000000  0.25104629
   0.50000000  0.50000000  0.25104629
   0.00000000  0.50000000  0.31347410
   0.50000000  0.00000000  0.31322103
   0.00000000  0.00000000  0.37636225
   0.50000000  0.50000000  0.37636225
   0.00000000  0.50000000  0.43870529
   0.50000000  0.00000000  0.43987972
   1.00000000  0.50000000  0.52097526
   1.00000000  0.50000000  0.54787937
Direct configuration=    22
   0.00000000  0.00000000  0.00220494
   0.50000000  0.50000000  0.00220494
   0.00000000  0.50000000  0.06518543
   0.50000000  0.00000000  0.06514269
   0.00000000  0.00000000  0.12767933
   0.50000000  0.50000000  0.12767933
   0.00000000  0.50000000  0.18978559
   0.50000000  0.00000000  0.18974694
   0.00000000  0.00000000  0.25131366
   0.50000000  0.50000000  0.25131366
   0.00000000  0.50000000  0.31347568
   0.50000000  0.00000000  0.31330531
   0.00000000  0.00000000  0.37632366
   0.50000000  0.50000000  0.37632366
   0.00000000  0.50000000  0.43866466
   0.50000000  0.00000000  0.43914385
   1.00000000  0.50000000  0.52010032
   1.00000000  0.50000000  0.54728973
Direct configuration=    23
   0.00000000  0.00000000  0.00220646
   0.50000000  0.50000000  0.00220646
   0.00000000  0.50000000  0.06511484
   0.50000000  0.00000000  0.06507412
   0.00000000  0.00000000  0.12754801
   0.50000000  0.50000000  0.12754801
   0.00000000  0.50000000  0.18971374
   0.50000000  0.00000000  0.18967969
   0.00000000  0.00000000  0.25121222
   0.50000000  0.50000000  0.25121222
   0.00000000  0.50000000  0.31349594
   0.50000000  0.00000000  0.31330927
   0.00000000  0.00000000  0.37634519
   0.50000000  0.50000000  0.37634519
   0.00000000  0.50000000  0.43868534
   0.50000000  0.00000000  0.43933554
   1.00000000  0.50000000  0.52026718
   1.00000000  0.50000000  0.54758400
Direct configuration=    24
   0.00000000  0.00000000  0.00221100
   0.50000000  0.50000000  0.00221100
   0.00000000  0.50000000  0.06490305
   0.50000000  0.00000000  0.06486840
   0.00000000  0.00000000  0.12715403
   0.50000000  0.50000000  0.12715403
   0.00000000  0.50000000  0.18949818
   0.50000000  0.00000000  0.18947793
   0.00000000  0.00000000  0.25090789
   0.50000000  0.50000000  0.25090789
   0.00000000  0.50000000  0.31355672
   0.50000000  0.00000000  0.31332114
   0.00000000  0.00000000  0.37640979
   0.50000000  0.50000000  0.37640979
   0.00000000  0.50000000  0.43874738
   0.50000000  0.00000000  0.43991060
   1.00000000  0.50000000  0.52076776
   1.00000000  0.50000000  0.54846682
Direct configuration=    25
   0.00000000  0.00000000  0.00220949
   0.50000000  0.50000000  0.00220949
   0.00000000  0.50000000  0.06497348
   0.50000000  0.00000000  0.06493681
   0.00000000  0.00000000  0.12728504
   0.50000000  0.50000000  0.12728504
   0.00000000  0.50000000  0.18956986
   0.50000000  0.00000000  0.18954502
   0.00000000  0.00000000  0.25100909
   0.50000000  0.50000000  0.25100909
   0.00000000  0.50000000  0.31353651
   0.50000000  0.00000000  0.31331719
   0.00000000  0.00000000  0.37638831
   0.50000000  0.50000000  0.37638831
   0.00000000  0.50000000  0.43872675
   0.50000000  0.00000000  0.43971937
   1.00000000  0.50000000  0.52060129
   1.00000000  0.50000000  0.54817325
Direct configuration=    26
   0.00000000  0.00000000  0.00220907
   0.50000000  0.50000000  0.00220907
   0.00000000  0.50000000  0.06499280
   0.50000000  0.00000000  0.06495557
   0.00000000  0.00000000  0.12732098
   0.50000000  0.50000000  0.12732098
   0.00000000  0.50000000  0.18958952
   0.50000000  0.00000000  0.18956343
   0.00000000  0.00000000  0.25103685
   0.50000000  0.50000000  0.25103685
   0.00000000  0.50000000  0.31353096
   0.50000000  0.00000000  0.31331611
   0.00000000  0.00000000  0.37638242
   0.50000000  0.50000000  0.37638242
   0.00000000  0.50000000  0.43872109
   0.50000000  0.00000000  0.43966691
   1.00000000  0.50000000  0.52055563
   1.00000000  0.50000000  0.54809272
Direct configuration=    27
   0.00000000  0.00000000  0.00220932
   0.50000000  0.50000000  0.00220932
   0.00000000  0.50000000  0.06498121
   0.50000000  0.00000000  0.06494432
   0.00000000  0.00000000  0.12729943
   0.50000000  0.50000000  0.12729943
   0.00000000  0.50000000  0.18957773
   0.50000000  0.00000000  0.18955239
   0.00000000  0.00000000  0.25102020
   0.50000000  0.50000000  0.25102020
   0.00000000  0.50000000  0.31353429
   0.50000000  0.00000000  0.31331676
   0.00000000  0.00000000  0.37638595
   0.50000000  0.50000000  0.37638595
   0.00000000  0.50000000  0.43872448
   0.50000000  0.00000000  0.43969838
   1.00000000  0.50000000  0.52058302
   1.00000000  0.50000000  0.54814102
Direct configuration=    28
   0.00000000  0.00000000  0.00220913
   0.50000000  0.50000000  0.00220913
   0.00000000  0.50000000  0.06499009
   0.50000000  0.00000000  0.06495295
   0.00000000  0.00000000  0.12731595
   0.50000000  0.50000000  0.12731595
   0.00000000  0.50000000  0.18958677
   0.50000000  0.00000000  0.18956085
   0.00000000  0.00000000  0.25103296
   0.50000000  0.50000000  0.25103296
   0.00000000  0.50000000  0.31353174
   0.50000000  0.00000000  0.31331626
   0.00000000  0.00000000  0.37638324
   0.50000000  0.50000000  0.37638324
   0.00000000  0.50000000  0.43872188
   0.50000000  0.00000000  0.43967426
   1.00000000  0.50000000  0.52056202
   1.00000000  0.50000000  0.54810400
Direct configuration=    29
   0.00000000  0.00000000  0.00220923
   0.50000000  0.50000000  0.00220923
   0.00000000  0.50000000  0.06498565
   0.50000000  0.00000000  0.06494863
   0.00000000  0.00000000  0.12730769
   0.50000000  0.50000000  0.12730769
   0.00000000  0.50000000  0.18958225
   0.50000000  0.00000000  0.18955662
   0.00000000  0.00000000  0.25102658
   0.50000000  0.50000000  0.25102658
   0.00000000  0.50000000  0.31353301
   0.50000000  0.00000000  0.31331651
   0.00000000  0.00000000  0.37638460
   0.50000000  0.50000000  0.37638460
   0.00000000  0.50000000  0.43872318
   0.50000000  0.00000000  0.43968632
   1.00000000  0.50000000  0.52057252
   1.00000000  0.50000000  0.54812251
Direct configuration=    30
   0.00000000  0.00000000  0.00220916
   0.50000000  0.50000000  0.00220916
   0.00000000  0.50000000  0.06498876
   0.50000000  0.00000000  0.06495166
   0.00000000  0.00000000  0.12731348
   0.50000000  0.50000000  0.12731348
   0.00000000  0.50000000  0.18958542
   0.50000000  0.00000000  0.18955959
   0.00000000  0.00000000  0.25103105
   0.50000000  0.50000000  0.25103105
   0.00000000  0.50000000  0.31353212
   0.50000000  0.00000000  0.31331634
   0.00000000  0.00000000  0.37638365
   0.50000000  0.50000000  0.37638365
   0.00000000  0.50000000  0.43872227
   0.50000000  0.00000000  0.43967786
   1.00000000  0.50000000  0.52056516
   1.00000000  0.50000000  0.54810953
Direct configuration=    31
   0.00000000  0.00000000  0.00219518
   0.50000000  0.50000000  0.00219518
   0.00000000  0.50000000  0.06490639
   0.50000000  0.00000000  0.06487385
   0.00000000  0.00000000  0.12729316
   0.50000000  0.50000000  0.12729316
   0.00000000  0.50000000  0.18956513
   0.50000000  0.00000000  0.18954257
   0.00000000  0.00000000  0.25098767
   0.50000000  0.50000000  0.25098767
   0.00000000  0.50000000  0.31354872
   0.50000000  0.00000000  0.31334169
   0.00000000  0.00000000  0.37642223
   0.50000000  0.50000000  0.37642223
   0.00000000  0.50000000  0.43874973
   0.50000000  0.00000000  0.43968424
   1.00000000  0.50000000  0.52067537
   1.00000000  0.50000000  0.54819923
Direct configuration=    32
   0.00000000  0.00000000  0.00216542
   0.50000000  0.50000000  0.00216542
   0.00000000  0.50000000  0.06473112
   0.50000000  0.00000000  0.06470830
   0.00000000  0.00000000  0.12724992
   0.50000000  0.50000000  0.12724992
   0.00000000  0.50000000  0.18952195
   0.50000000  0.00000000  0.18950635
   0.00000000  0.00000000  0.25089537
   0.50000000  0.50000000  0.25089537
   0.00000000  0.50000000  0.31358403
   0.50000000  0.00000000  0.31339563
   0.00000000  0.00000000  0.37650432
   0.50000000  0.50000000  0.37650432
   0.00000000  0.50000000  0.43880815
   0.50000000  0.00000000  0.43969779
   1.00000000  0.50000000  0.52090989
   1.00000000  0.50000000  0.54839010
Direct configuration=    33
   0.00000000  0.00000000  0.00210591
   0.50000000  0.50000000  0.00210591
   0.00000000  0.50000000  0.06438056
   0.50000000  0.00000000  0.06437720
   0.00000000  0.00000000  0.12716345
   0.50000000  0.50000000  0.12716345
   0.00000000  0.50000000  0.18943559
   0.50000000  0.00000000  0.18943391
   0.00000000  0.00000000  0.25071076
   0.50000000  0.50000000  0.25071076
   0.00000000  0.50000000  0.31365465
   0.50000000  0.00000000  0.31350353
   0.00000000  0.00000000  0.37666852
   0.50000000  0.50000000  0.37666852
   0.00000000  0.50000000  0.43892501
   0.50000000  0.00000000  0.43972491
   1.00000000  0.50000000  0.52137891
   1.00000000  0.50000000  0.54877184
Direct configuration=    34
   0.00000000  0.00000000  0.00197091
   0.50000000  0.50000000  0.00197091
   0.00000000  0.50000000  0.06426375
   0.50000000  0.00000000  0.06426679
   0.00000000  0.00000000  0.12711950
   0.50000000  0.50000000  0.12711950
   0.00000000  0.50000000  0.18938891
   0.50000000  0.00000000  0.18938786
   0.00000000  0.00000000  0.25073174
   0.50000000  0.50000000  0.25073174
   0.00000000  0.50000000  0.31365485
   0.50000000  0.00000000  0.31353310
   0.00000000  0.00000000  0.37675306
   0.50000000  0.50000000  0.37675306
   0.00000000  0.50000000  0.43901490
   0.50000000  0.00000000  0.43963189
   1.00000000  0.50000000  0.52153984
   1.00000000  0.50000000  0.54905108
Direct configuration=    35
   0.00000000  0.00000000  0.00169608
   0.50000000  0.50000000  0.00169608
   0.00000000  0.50000000  0.06402595
   0.50000000  0.00000000  0.06404201
   0.00000000  0.00000000  0.12703002
   0.50000000  0.50000000  0.12703002
   0.00000000  0.50000000  0.18929387
   0.50000000  0.00000000  0.18929410
   0.00000000  0.00000000  0.25077444
   0.50000000  0.50000000  0.25077444
   0.00000000  0.50000000  0.31365524
   0.50000000  0.00000000  0.31359330
   0.00000000  0.00000000  0.37692517
   0.50000000  0.50000000  0.37692517
   0.00000000  0.50000000  0.43919790
   0.50000000  0.00000000  0.43944253
   1.00000000  0.50000000  0.52186748
   1.00000000  0.50000000  0.54961958
Direct configuration=    36
   0.00000000  0.00000000  0.00162661
   0.50000000  0.50000000  0.00162661
   0.00000000  0.50000000  0.06398571
   0.50000000  0.00000000  0.06400330
   0.00000000  0.00000000  0.12700471
   0.50000000  0.50000000  0.12700471
   0.00000000  0.50000000  0.18927768
   0.50000000  0.00000000  0.18927742
   0.00000000  0.00000000  0.25078872
   0.50000000  0.50000000  0.25078872
   0.00000000  0.50000000  0.31365716
   0.50000000  0.00000000  0.31360659
   0.00000000  0.00000000  0.37695330
   0.50000000  0.50000000  0.37695330
   0.00000000  0.50000000  0.43924120
   0.50000000  0.00000000  0.43940319
   1.00000000  0.50000000  0.52198219
   1.00000000  0.50000000  0.54970224
Direct configuration=    37
   0.00000000  0.00000000  0.00141823
   0.50000000  0.50000000  0.00141823
   0.00000000  0.50000000  0.06386499
   0.50000000  0.00000000  0.06388718
   0.00000000  0.00000000  0.12692877
   0.50000000  0.50000000  0.12692877
   0.00000000  0.50000000  0.18922911
   0.50000000  0.00000000  0.18922739
   0.00000000  0.00000000  0.25083156
   0.50000000  0.50000000  0.25083156
   0.00000000  0.50000000  0.31366292
   0.50000000  0.00000000  0.31364646
   0.00000000  0.00000000  0.37703772
   0.50000000  0.50000000  0.37703772
   0.00000000  0.50000000  0.43937111
   0.50000000  0.00000000  0.43928516
   1.00000000  0.50000000  0.52232631
   1.00000000  0.50000000  0.54995021
Direct configuration=    38
   0.00000000  0.00000000  0.00100145
   0.50000000  0.50000000  0.00100145
   0.00000000  0.50000000  0.06362357
   0.50000000  0.00000000  0.06365492
   0.00000000  0.00000000  0.12677689
   0.50000000  0.50000000  0.12677689
   0.00000000  0.50000000  0.18913196
   0.50000000  0.00000000  0.18912733
   0.00000000  0.00000000  0.25091723
   0.50000000  0.50000000  0.25091723
   0.00000000  0.50000000  0.31367444
   0.50000000  0.00000000  0.31372620
   0.00000000  0.00000000  0.37720654
   0.50000000  0.50000000  0.37720654
   0.00000000  0.50000000  0.43963091
   0.50000000  0.00000000  0.43904911
   1.00000000  0.50000000  0.52301455
   1.00000000  0.50000000  0.55044616
Direct configuration=    39
   0.00000000  0.00000000  0.00093248
   0.50000000  0.50000000  0.00093248
   0.00000000  0.50000000  0.06361001
   0.50000000  0.00000000  0.06363745
   0.00000000  0.00000000  0.12673571
   0.50000000  0.50000000  0.12673571
   0.00000000  0.50000000  0.18914860
   0.50000000  0.00000000  0.18914156
   0.00000000  0.00000000  0.25091674
   0.50000000  0.50000000  0.25091674
   0.00000000  0.50000000  0.31370177
   0.50000000  0.00000000  0.31374711
   0.00000000  0.00000000  0.37717899
   0.50000000  0.50000000  0.37717899
   0.00000000  0.50000000  0.43965670
   0.50000000  0.00000000  0.43908045
   1.00000000  0.50000000  0.52310885
   1.00000000  0.50000000  0.55052302
Direct configuration=    40
   0.00000000  0.00000000  0.00080139
   0.50000000  0.50000000  0.00080139
   0.00000000  0.50000000  0.06358424
   0.50000000  0.00000000  0.06360426
   0.00000000  0.00000000  0.12665744
   0.50000000  0.50000000  0.12665744
   0.00000000  0.50000000  0.18918022
   0.50000000  0.00000000  0.18916862
   0.00000000  0.00000000  0.25091581
   0.50000000  0.50000000  0.25091581
   0.00000000  0.50000000  0.31375370
   0.50000000  0.00000000  0.31378685
   0.00000000  0.00000000  0.37712663
   0.50000000  0.50000000  0.37712663
   0.00000000  0.50000000  0.43970572
   0.50000000  0.00000000  0.43914003
   1.00000000  0.50000000  0.52328810
   1.00000000  0.50000000  0.55066912
Direct configuration=    41
   0.00000000  0.00000000  0.00053920
   0.50000000  0.50000000  0.00053920
   0.00000000  0.50000000  0.06353271
   0.50000000  0.00000000  0.06353786
   0.00000000  0.00000000  0.12650089
   0.50000000  0.50000000  0.12650089
   0.00000000  0.50000000  0.18924348
   0.50000000  0.00000000  0.18922273
   0.00000000  0.00000000  0.25091395
   0.50000000  0.50000000  0.25091395
   0.00000000  0.50000000  0.31385757
   0.50000000  0.00000000  0.31386632
   0.00000000  0.00000000  0.37702191
   0.50000000  0.50000000  0.37702191
   0.00000000  0.50000000  0.43980375
   0.50000000  0.00000000  0.43925919
   1.00000000  0.50000000  0.52364658
   1.00000000  0.50000000  0.55096130
Direct configuration=    42
   0.00000000  0.00000000  0.00046878
   0.50000000  0.50000000  0.00046878
   0.00000000  0.50000000  0.06351887
   0.50000000  0.00000000  0.06352003
   0.00000000  0.00000000  0.12645884
   0.50000000  0.50000000  0.12645884
   0.00000000  0.50000000  0.18926047
   0.50000000  0.00000000  0.18923726
   0.00000000  0.00000000  0.25091346
   0.50000000  0.50000000  0.25091346
   0.00000000  0.50000000  0.31388546
   0.50000000  0.00000000  0.31388767
   0.00000000  0.00000000  0.37699378
   0.50000000  0.50000000  0.37699378
   0.00000000  0.50000000  0.43983008