  34  34   0   0
  0.2629040E+02  0.7260000E-09  0.5133596E-09  0.2398379E-08  0.5000000E-15
  1.000000000000000E-004
  CAR 
 unknown system                          
     11.87738653    -10.22112028  301      0.85568356      1.00000000
    -10.221  0.0000E+00  0.0000E+00  0.0000E+00  0.0000E+00
    -10.147  0.0000E+00  0.0000E+00  0.0000E+00  0.0000E+00
    -10.074  0.0000E+00  0.0000E+00  0.0000E+00  0.0000E+00
    -10.000  0.0000E+00  0.0000E+00  0.0000E+00  0.0000E+00
     -9.926  0.0000E+00  0.0000E+00  0.0000E+00  0.0000E+00
     -9.853 -0.5378E-31 -0.5378E-31 -0.3961E-32 -0.3961E-32
     -9.779 -0.1821E-28 -0.1821E-28 -0.1345E-29 -0.1345E-29
     -9.705 -0.4700E-26 -0.4700E-26 -0.3476E-27 -0.3476E-27
     -9.632 -0.9223E-24 -0.9223E-24 -0.6828E-25 -0.6828E-25
     -9.558 -0.1375E-21 -0.1375E-21 -0.1020E-22 -0.1020E-22
     -9.485 -0.1558E-19 -0.1558E-19 -0.1158E-20 -0.1158E-20
     -9.411 -0.1340E-17 -0.1340E-17 -0.9990E-19 -0.9990E-19
     -9.337 -0.8467E-16 -0.8467E-16 -0.6337E-17 -0.6337E-17
     -9.264 -0.4173E-14 -0.4173E-14 -0.3137E-15 -0.3137E-15
     -9.190 -0.1555E-12 -0.1555E-12 -0.1177E-13 -0.1177E-13
     -9.116 -0.4374E-11 -0.4374E-11 -0.3340E-12 -0.3340E-12
     -9.043 -0.9273E-10 -0.9273E-10 -0.7164E-11 -0.7164E-11
     -8.969 -0.1476E-08 -0.1476E-08 -0.1159E-09 -0.1159E-09
     -8.895 -0.1756E-07 -0.1756E-07 -0.1410E-08 -0.1410E-08
     -8.822 -0.1551E-06 -0.1551E-06 -0.1284E-07 -0.1284E-07
     -8.748 -0.1006E-05 -0.1006E-05 -0.8693E-07 -0.8693E-07
     -8.674 -0.4700E-05 -0.4700E-05 -0.4332E-06 -0.4332E-06
     -8.601 -0.1526E-04 -0.1526E-04 -0.1557E-05 -0.1557E-05
     -8.527 -0.3150E-04 -0.3150E-04 -0.3878E-05 -0.3878E-05
     -8.453 -0.2828E-04 -0.2828E-04 -0.5961E-05 -0.5961E-05
     -8.380  0.4388E-04  0.4388E-04 -0.2729E-05 -0.2729E-05
     -8.306  0.1960E-03  0.1960E-03  0.1171E-04  0.1171E-04
     -8.232  0.3569E-03  0.3569E-03  0.3800E-04  0.3800E-04
     -8.159  0.5310E-03  0.5310E-03  0.7712E-04  0.7712E-04
     -8.085  0.1020E-02  0.1020E-02  0.1523E-03  0.1523E-03
     -8.011  0.2207E-02  0.2207E-02  0.3148E-03  0.3148E-03
     -7.938  0.3889E-02  0.3889E-02  0.6013E-03  0.6013E-03
     -7.864  0.5052E-02  0.5052E-02  0.9734E-03  0.9734E-03
     -7.790  0.4756E-02  0.4756E-02  0.1324E-02  0.1324E-02
     -7.717  0.3210E-02  0.3210E-02  0.1560E-02  0.1560E-02
     -7.643  0.1598E-02  0.1598E-02  0.1678E-02  0.1678E-02
     -7.569  0.8226E-03  0.8226E-03  0.1739E-02  0.1739E-02
     -7.496  0.7756E-03  0.7756E-03  0.1796E-02  0.1796E-02
     -7.422  0.8612E-03  0.8612E-03  0.1859E-02  0.1859E-02
     -7.348  0.9553E-03  0.9553E-03  0.1929E-02  0.1929E-02
     -7.275  0.1422E-02  0.1422E-02  0.2034E-02  0.2034E-02
     -7.201  0.2203E-02  0.2203E-02  0.2196E-02  0.2196E-02
     -7.127  0.2587E-02  0.2587E-02  0.2387E-02  0.2387E-02
     -7.054  0.2230E-02  0.2230E-02  0.2551E-02  0.2551E-02
     -6.980  0.1727E-02  0.1727E-02  0.2679E-02  0.2679E-02
     -6.906  0.1719E-02  0.1719E-02  0.2805E-02  0.2805E-02
     -6.833  0.1958E-02  0.1958E-02  0.2949E-02  0.2949E-02
     -6.759  0.1800E-02  0.1800E-02  0.3082E-02  0.3082E-02
     -6.685  0.1216E-02  0.1216E-02  0.3172E-02  0.3172E-02
     -6.612  0.7592E-03  0.7592E-03  0.3227E-02  0.3227E-02
     -6.538  0.7659E-03  0.7659E-03  0.3284E-02  0.3284E-02
     -6.464  0.1193E-02  0.1193E-02  0.3372E-02  0.3372E-02
     -6.391  0.2082E-02  0.2082E-02  0.3525E-02  0.3525E-02
     -6.317  0.3363E-02  0.3363E-02  0.3773E-02  0.3773E-02
     -6.243  0.4267E-02  0.4267E-02  0.4087E-02  0.4087E-02
     -6.170  0.3926E-02  0.3926E-02  0.4376E-02  0.4376E-02
     -6.096  0.2619E-02  0.2619E-02  0.4569E-02  0.4569E-02
     -6.022  0.1459E-02  0.1459E-02  0.4677E-02  0.4677E-02
     -5.949  0.1004E-02  0.1004E-02  0.4751E-02  0.4751E-02
     -5.875  0.9916E-03  0.9916E-03  0.4824E-02  0.4824E-02
     -5.801  0.1123E-02  0.1123E-02  0.4907E-02  0.4907E-02
     -5.728  0.1384E-02  0.1384E-02  0.5008E-02  0.5008E-02
     -5.654  0.1977E-02  0.1977E-02  0.5154E-02  0.5154E-02
     -5.580  0.3281E-02  0.3281E-02  0.5396E-02  0.5396E-02
     -5.507  0.5153E-02  0.5153E-02  0.5775E-02  0.5775E-02
     -5.433  0.6317E-02  0.6317E-02  0.6241E-02  0.6241E-02
     -5.359  0.5549E-02  0.5549E-02  0.6649E-02  0.6649E-02
     -5.286  0.3352E-02  0.3352E-02  0.6896E-02  0.6896E-02
     -5.212  0.1501E-02  0.1501E-02  0.7007E-02  0.7007E-02
     -5.138  0.1304E-02  0.1304E-02  0.7103E-02  0.7103E-02
     -5.065  0.2992E-02  0.2992E-02  0.7323E-02  0.7323E-02
     -4.991  0.5882E-02  0.5882E-02  0.7757E-02  0.7757E-02
     -4.917  0.8439E-02  0.8439E-02  0.8378E-02  0.8378E-02
     -4.844  0.9151E-02  0.9151E-02  0.9052E-02  0.9052E-02
     -4.770  0.7799E-02  0.7799E-02  0.9627E-02  0.9627E-02
     -4.696  0.5280E-02  0.5280E-02  0.1002E-01  0.1002E-01
     -4.623  0.2594E-02  0.2594E-02  0.1021E-01  0.1021E-01
     -4.549  0.6277E-03  0.6277E-03  0.1025E-01  0.1025E-01
     -4.476  0.2703E-03  0.2703E-03  0.1027E-01  0.1027E-01
     -4.402  0.2032E-02  0.2032E-02  0.1042E-01  0.1042E-01
     -4.328  0.5522E-02  0.5522E-02  0.1083E-01  0.1083E-01
     -4.255  0.9338E-02  0.9338E-02  0.1152E-01  0.1152E-01
     -4.181  0.1175E-01  0.1175E-01  0.1238E-01  0.1238E-01
     -4.107  0.1212E-01  0.1212E-01  0.1328E-01  0.1328E-01
     -4.034  0.1176E-01  0.1176E-01  0.1414E-01  0.1414E-01
     -3.960  0.1280E-01  0.1280E-01  0.1508E-01  0.1508E-01
     -3.886  0.1582E-01  0.1582E-01  0.1625E-01  0.1625E-01
     -3.813  0.1915E-01  0.1915E-01  0.1766E-01  0.1766E-01
     -3.739  0.2110E-01  0.2110E-01  0.1921E-01  0.1921E-01
     -3.665  0.2217E-01  0.2217E-01  0.2085E-01  0.2085E-01
     -3.592  0.2369E-01  0.2369E-01  0.2259E-01  0.2259E-01
     -3.518  0.2532E-01  0.2532E-01  0.2446E-01  0.2446E-01
     -3.444  0.2632E-01  0.2632E-01  0.2640E-01  0.2640E-01
     -3.371  0.2819E-01  0.2819E-01  0.2847E-01  0.2847E-01
     -3.297  0.3307E-01  0.3307E-01  0.3091E-01  0.3091E-01
     -3.223  0.3962E-01  0.3962E-01  0.3383E-01  0.3383E-01
     -3.150  0.4357E-01  0.4357E-01  0.3704E-01  0.3704E-01
     -3.076  0.4304E-01  0.4304E-01  0.4021E-01  0.4021E-01
     -3.002  0.4045E-01  0.4045E-01  0.4319E-01  0.4319E-01
     -2.929  0.3839E-01  0.3839E-01  0.4601E-01  0.4601E-01
     -2.855  0.3701E-01  0.3701E-01  0.4874E-01  0.4874E-01
     -2.781  0.3645E-01  0.3645E-01  0.5143E-01  0.5143E-01
     -2.708  0.3854E-01  0.3854E-01  0.5427E-01  0.5427E-01
     -2.634  0.4404E-01  0.4404E-01  0.5751E-01  0.5751E-01
     -2.560  0.5065E-01  0.5065E-01  0.6124E-01  0.6124E-01
     -2.487  0.5527E-01  0.5527E-01  0.6531E-01  0.6531E-01
     -2.413  0.5701E-01  0.5701E-01  0.6951E-01  0.6951E-01
     -2.339  0.5745E-01  0.5745E-01  0.7374E-01  0.7374E-01
     -2.266  0.5900E-01  0.5900E-01  0.7809E-01  0.7809E-01
     -2.192  0.6327E-01  0.6327E-01  0.8275E-01  0.8275E-01
     -2.118  0.7004E-01  0.7004E-01  0.8791E-01  0.8791E-01
     -2.045  0.7712E-01  0.7712E-01  0.9359E-01  0.9359E-01
     -1.971  0.8126E-01  0.8126E-01  0.9957E-01  0.9957E-01
     -1.897  0.8012E-01  0.8012E-01  0.1055E+00  0.1055E+00
     -1.824  0.7442E-01  0.7442E-01  0.1110E+00  0.1110E+00
     -1.750  0.6725E-01  0.6725E-01  0.1159E+00  0.1159E+00
     -1.676  0.6133E-01  0.6133E-01  0.1204E+00  0.1204E+00
     -1.603  0.5782E-01  0.5782E-01  0.1247E+00  0.1247E+00
     -1.529  0.5748E-01  0.5748E-01  0.1289E+00  0.1289E+00
     -1.455  0.6073E-01  0.6073E-01  0.1334E+00  0.1334E+00
     -1.382  0.6612E-01  0.6612E-01  0.1383E+00  0.1383E+00
     -1.308  0.7075E-01  0.7075E-01  0.1435E+00  0.1435E+00
     -1.234  0.7344E-01  0.7344E-01  0.1489E+00  0.1489E+00
     -1.161  0.7556E-01  0.7556E-01  0.1545E+00  0.1545E+00
     -1.087  0.7793E-01  0.7793E-01  0.1602E+00  0.1602E+00
     -1.013  0.7979E-01  0.7979E-01  0.1661E+00  0.1661E+00
     -0.940  0.8199E-01  0.8199E-01  0.1721E+00  0.1721E+00
     -0.866  0.8782E-01  0.8782E-01  0.1786E+00  0.1786E+00
     -0.792  0.9751E-01  0.9751E-01  0.1858E+00  0.1858E+00
     -0.719  0.1041E+00  0.1041E+00  0.1934E+00  0.1934E+00
     -0.645  0.9804E-01  0.9804E-01  0.2007E+00  0.2007E+00
     -0.571  0.7678E-01  0.7678E-01  0.2063E+00  0.2063E+00
     -0.498  0.4839E-01  0.4839E-01  0.2099E+00  0.2099E+00
     -0.424  0.2477E-01  0.2477E-01  0.2117E+00  0.2117E+00
     -0.350  0.1207E-01  0.1207E-01  0.2126E+00  0.2126E+00
     -0.277  0.8401E-02  0.8401E-02  0.2132E+00  0.2132E+00
     -0.203  0.8513E-02  0.8513E-02  0.2138E+00  0.2138E+00
     -0.129  0.8554E-02  0.8554E-02  0.2145E+00  0.2145E+00
     -0.056  0.7047E-02  0.7047E-02  0.2150E+00  0.2150E+00
      0.018  0.4235E-02  0.4235E-02  0.2153E+00  0.2153E+00
      0.092  0.1533E-02  0.1533E-02  0.2154E+00  0.2154E+00
      0.165  0.5771E-03  0.5771E-03  0.2154E+00  0.2154E+00
      0.239  0.1954E-02  0.1954E-02  0.2156E+00  0.2156E+00
      0.313  0.4728E-02  0.4728E-02  0.2159E+00  0.2159E+00
      0.386  0.7275E-02  0.7275E-02  0.2165E+00  0.2165E+00
      0.460  0.8763E-02  0.8763E-02  0.2171E+00  0.2171E+00
      0.533  0.9742E-02  0.9742E-02  0.2178E+00  0.2178E+00
      0.607  0.1103E-01  0.1103E-01  0.2187E+00  0.2187E+00
      0.681  0.1216E-01  0.1216E-01  0.2195E+00  0.2195E+00
      0.754  0.1165E-01  0.1165E-01  0.2204E+00  0.2204E+00
      0.828  0.8989E-02  0.8989E-02  0.2211E+00  0.2211E+00
      0.902  0.5685E-02  0.5685E-02  0.2215E+00  0.2215E+00
      0.975  0.3920E-02  0.3920E-02  0.2218E+00  0.2218E+00
      1.049  0.4502E-02  0.4502E-02  0.2221E+00  0.2221E+00
      1.123  0.6308E-02  0.6308E-02  0.2226E+00  0.2226E+00
      1.196  0.7584E-02  0.7584E-02  0.2231E+00  0.2231E+00
      1.270  0.7490E-02  0.7490E-02  0.2237E+00  0.2237E+00
      1.344  0.6221E-02  0.6221E-02  0.2241E+00  0.2241E+00
      1.417  0.4515E-02  0.4515E-02  0.2245E+00  0.2245E+00
      1.491  0.3631E-02  0.3631E-02  0.2247E+00  0.2247E+00
      1.565  0.4534E-02  0.4534E-02  0.2251E+00  0.2251E+00
      1.638  0.6338E-02  0.6338E-02  0.2255E+00  0.2255E+00
      1.712  0.6976E-02  0.6976E-02  0.2261E+00  0.2261E+00
      1.786  0.5973E-02  0.5973E-02  0.2265E+00  0.2265E+00
      1.859  0.5029E-02  0.5029E-02  0.2269E+00  0.2269E+00
      1.933  0.5505E-02  0.5505E-02  0.2273E+00  0.2273E+00
      2.007  0.6944E-02  0.6944E-02  0.2278E+00  0.2278E+00
      2.080  0.8171E-02  0.8171E-02  0.2284E+00  0.2284E+00
      2.154  0.8454E-02  0.8454E-02  0.2290E+00  0.2290E+00
      2.228  0.7689E-02  0.7689E-02  0.2296E+00  0.2296E+00
      2.301  0.6464E-02  0.6464E-02  0.2300E+00  0.2300E+00
      2.375  0.5838E-02  0.5838E-02  0.2305E+00  0.2305E+00
      2.449  0.6379E-02  0.6379E-02  0.2309E+00  0.2309E+00
      2.522  0.7384E-02  0.7384E-02  0.2315E+00  0.2315E+00
      2.596  0.7489E-02  0.7489E-02  0.2320E+00  0.2320E+00
      2.670  0.6166E-02  0.6166E-02  0.2325E+00  0.2325E+00
      2.743  0.4336E-02  0.4336E-02  0.2328E+00  0.2328E+00
      2.817  0.3258E-02  0.3258E-02  0.2331E+00  0.2331E+00
      2.891  0.3199E-02  0.3199E-02  0.2333E+00  0.2333E+00
      2.964  0.3804E-02  0.3804E-02  0.2336E+00  0.2336E+00
      3.038  0.5052E-02  0.5052E-02  0.2339E+00  0.2339E+00
      3.112  0.6686E-02  0.6686E-02  0.2344E+00  0.2344E+00
      3.185  0.7487E-02  0.7487E-02  0.2350E+00  0.2350E+00
      3.259  0.6649E-02  0.6649E-02  0.2355E+00  0.2355E+00
      3.333  0.5258E-02  0.5258E-02  0.2359E+00  0.2359E+00
      3.406  0.4998E-02  0.4998E-02  0.2362E+00  0.2362E+00
      3.480  0.5957E-02  0.5957E-02  0.2367E+00  0.2367E+00
      3.554  0.6712E-02  0.6712E-02  0.2372E+00  0.2372E+00
      3.627  0.6136E-02  0.6136E-02  0.2376E+00  0.2376E+00
      3.701  0.4605E-02  0.4605E-02  0.2380E+00  0.2380E+00
      3.775  0.3541E-02  0.3541E-02  0.2382E+00  0.2382E+00
      3.848  0.3816E-02  0.3816E-02  0.2385E+00  0.2385E+00
      3.922  0.4992E-02  0.4992E-02  0.2389E+00  0.2389E+00
      3.996  0.6233E-02  0.6233E-02  0.2393E+00  0.2393E+00
      4.069  0.7158E-02  0.7158E-02  0.2399E+00  0.2399E+00
      4.143  0.7487E-02  0.7487E-02  0.2404E+00  0.2404E+00
      4.217  0.6971E-02  0.6971E-02  0.2409E+00  0.2409E+00
      4.290  0.6102E-02  0.6102E-02  0.2414E+00  0.2414E+00
      4.364  0.5725E-02  0.5725E-02  0.2418E+00  0.2418E+00
      4.438  0.5743E-02  0.5743E-02  0.2422E+00  0.2422E+00
      4.511  0.5347E-02  0.5347E-02  0.2426E+00  0.2426E+00
      4.585  0.4464E-02  0.4464E-02  0.2429E+00  0.2429E+00
      4.659  0.3996E-02  0.3996E-02  0.2432E+00  0.2432E+00
      4.732  0.4683E-02  0.4683E-02  0.2436E+00  0.2436E+00
      4.806  0.6196E-02  0.6196E-02  0.2440E+00  0.2440E+00
      4.880  0.7395E-02  0.7394E-02  0.2446E+00  0.2446E+00
      4.953  0.7486E-02  0.7486E-02  0.2451E+00  0.2451E+00
      5.027  0.6622E-02  0.6622E-02  0.2456E+00  0.2456E+00
      5.101  0.5301E-02  0.5301E-02  0.2460E+00  0.2460E+00
      5.174  0.3958E-02  0.3958E-02  0.2463E+00  0.2463E+00
      5.248  0.3327E-02  0.3327E-02  0.2465E+00  0.2465E+00
      5.321  0.4226E-02  0.4226E-02  0.2469E+00  0.2469E+00
      5.395  0.6536E-02  0.6536E-02  0.2473E+00  0.2473E+00
      5.469  0.8977E-02  0.8977E-02  0.2480E+00  0.2480E+00
      5.542  0.1030E-01  0.1030E-01  0.2488E+00  0.2488E+00
      5.616  0.1044E-01  0.1044E-01  0.2495E+00  0.2495E+00
      5.690  0.1022E-01  0.1022E-01  0.2503E+00  0.2503E+00
      5.763  0.1019E-01  0.1019E-01  0.2510E+00  0.2510E+00
      5.837  0.1007E-01  0.1007E-01  0.2518E+00  0.2518E+00
      5.911  0.9616E-02  0.9616E-02  0.2525E+00  0.2525E+00
      5.984  0.9148E-02  0.9148E-02  0.2532E+00  0.2532E+00
      6.058  0.8974E-02  0.8974E-02  0.2538E+00  0.2538E+00
      6.132  0.9055E-02  0.9055E-02  0.2545E+00  0.2545E+00
      6.205  0.9287E-02  0.9287E-02  0.2552E+00  0.2552E+00
      6.279  0.9440E-02  0.9440E-02  0.2559E+00  0.2559E+00
      6.353  0.9169E-02  0.9169E-02  0.2565E+00  0.2565E+00
      6.426  0.8575E-02  0.8575E-02  0.2572E+00  0.2572E+00
      6.500  0.8262E-02  0.8262E-02  0.2578E+00  0.2578E+00
      6.574  0.8492E-02  0.8492E-02  0.2584E+00  0.2584E+00
      6.647  0.8776E-02  0.8776E-02  0.2590E+00  0.2590E+00
      6.721  0.8655E-02  0.8655E-02  0.2597E+00  0.2597E+00
      6.795  0.8352E-02  0.8352E-02  0.2603E+00  0.2603E+00
      6.868  0.8447E-02  0.8447E-02  0.2609E+00  0.2609E+00
      6.942  0.9242E-02  0.9242E-02  0.2616E+00  0.2616E+00
      7.016  0.1021E-01  0.1021E-01  0.2624E+00  0.2624E+00
      7.089  0.1033E-01  0.1033E-01  0.2631E+00  0.2631E+00
      7.163  0.9657E-02  0.9656E-02  0.2638E+00  0.2638E+00
      7.237  0.9476E-02  0.9476E-02  0.2645E+00  0.2645E+00
      7.310  0.1029E-01  0.1029E-01  0.2653E+00  0.2653E+00
      7.384  0.1100E-01  0.1100E-01  0.2661E+00  0.2661E+00
      7.458  0.1052E-01  0.1052E-01  0.2669E+00  0.2669E+00
      7.531  0.9167E-02  0.9167E-02  0.2675E+00  0.2675E+00
      7.605  0.7973E-02  0.7973E-02  0.2681E+00  0.2681E+00
      7.679  0.7818E-02  0.7818E-02  0.2687E+00  0.2687E+00
      7.752  0.8946E-02  0.8945E-02  0.2694E+00  0.2694E+00
      7.826  0.1082E-01  0.1082E-01  0.2702E+00  0.2702E+00
      7.900  0.1255E-01  0.1255E-01  0.2711E+00  0.2711E+00
      7.973  0.1344E-01  0.1344E-01  0.2721E+00  0.2721E+00
      8.047  0.1316E-01  0.1316E-01  0.2730E+00  0.2730E+00
      8.121  0.1177E-01  0.1177E-01  0.2739E+00  0.2739E+00
      8.194  0.1012E-01  0.1012E-01  0.2747E+00  0.2747E+00
      8.268  0.9405E-02  0.9405E-02  0.2754E+00  0.2754E+00
      8.342  0.9648E-02  0.9648E-02  0.2761E+00  0.2761E+00
      8.415  0.9629E-02  0.9629E-02  0.2768E+00  0.2768E+00
      8.489  0.8769E-02  0.8769E-02  0.2774E+00  0.2774E+00
      8.563  0.8037E-02  0.8037E-02  0.2780E+00  0.2780E+00
      8.636  0.8665E-02  0.8664E-02  0.2786E+00  0.2786E+00
      8.710  0.1055E-01  0.1055E-01  0.2794E+00  0.2794E+00
      8.784  0.1220E-01  0.1220E-01  0.2803E+00  0.2803E+00
      8.857  0.1245E-01  0.1245E-01  0.2812E+00  0.2812E+00
      8.931  0.1171E-01  0.1171E-01  0.2821E+00  0.2821E+00
      9.005  0.1099E-01  0.1099E-01  0.2829E+00  0.2829E+00
      9.078  0.1036E-01  0.1036E-01  0.2837E+00  0.2837E+00
      9.152  0.9432E-02  0.9432E-02  0.2844E+00  0.2844E+00
      9.226  0.8533E-02  0.8533E-02  0.2850E+00  0.2850E+00
      9.299  0.8177E-02  0.8177E-02  0.2856E+00  0.2856E+00
      9.373  0.8203E-02  0.8204E-02  0.2862E+00  0.2862E+00
      9.447  0.8212E-02  0.8212E-02  0.2868E+00  0.2868E+00
      9.520  0.8190E-02  0.8190E-02  0.2874E+00  0.2874E+00
      9.594  0.8265E-02  0.8265E-02  0.2880E+00  0.2880E+00
      9.668  0.8114E-02  0.8114E-02  0.2886E+00  0.2886E+00
      9.741  0.7139E-02  0.7139E-02  0.2891E+00  0.2891E+00
      9.815  0.5382E-02  0.5382E-02  0.2895E+00  0.2895E+00
      9.889  0.3533E-02  0.3534E-02  0.2898E+00  0.2898E+00
      9.962  0.2020E-02  0.2021E-02  0.2900E+00  0.2900E+00
     10.036  0.8666E-03  0.8667E-03  0.2900E+00  0.2900E+00
     10.110  0.1340E-03  0.1341E-03  0.2900E+00  0.2900E+00
     10.183 -0.1420E-03 -0.1420E-03  0.2900E+00  0.2900E+00
     10.257 -0.1352E-03 -0.1352E-03  0.2900E+00  0.2900E+00
     10.330 -0.6293E-04 -0.6294E-04  0.2900E+00  0.2900E+00
     10.404 -0.1907E-04 -0.1907E-04  0.2900E+00  0.2900E+00
     10.478 -0.4051E-05 -0.4052E-05  0.2900E+00  0.2900E+00
     10.551 -0.6225E-06 -0.6227E-06  0.2900E+00  0.2900E+00
     10.625 -0.7036E-07 -0.7038E-07  0.2900E+00  0.2900E+00
     10.699 -0.5908E-08 -0.5910E-08  0.2900E+00  0.2900E+00
     10.772 -0.3709E-09 -0.3711E-09  0.2900E+00  0.2900E+00
     10.846 -0.1749E-10 -0.1750E-10  0.2900E+00  0.2900E+00
     10.920 -0.6217E-12 -0.6220E-12  0.2900E+00  0.2900E+00
     10.993 -0.1668E-13 -0.1669E-13  0.2900E+00  0.2900E+00
     11.067 -0.3383E-15 -0.3383E-15  0.2900E+00  0.2900E+00
     11.141 -0.5024E-17 -0.5024E-17  0.2900E+00  0.2900E+00
     11.214  0.0000E+00  0.0000E+00  0.2900E+00  0.2900E+00
     11.288  0.0000E+00  0.0000E+00  0.2900E+00  0.2900E+00
     11.362  0.0000E+00  0.0000E+00  0.2900E+00  0.2900E+00
     11.435  0.0000E+00  0.0000E+00  0.2900E+00  0.2900E+00
     11.509  0.0000E+00  0.0000E+00  0.2900E+00  0.2900E+00
     11.583  0.0000E+00  0.0000E+00  0.2900E+00  0.2900E+00
     11.656  0.0000E+00  0.0000E+00  0.2900E+00  0.2900E+00
     11.730  0.0000E+00  0.0000E+00  0.2900E+00  0.2900E+00
     11.804  0.0000E+00  0.0000E+00  0.2900E+00  0.2900E+00
     11.877  0.0000E+00  0.0000E+00  0.2900E+00  0.2900E+00
