       N       E                     dE             d eps       ncg     rms          rms(c)
DAV:   1     0.327202113279E+04    0.32720E+04   -0.12739E+05  3712   0.172E+03
DAV:   2     0.383549687109E+03   -0.28885E+04   -0.27611E+04  3712   0.406E+02
DAV:   3    -0.100866999529E+03   -0.48442E+03   -0.43722E+03  3720   0.209E+02
DAV:   4    -0.134128472753E+03   -0.33261E+02   -0.32303E+02  4200   0.771E+01
DAV:   5    -0.134914953997E+03   -0.78648E+00   -0.78430E+00  4200   0.111E+01    0.523E+01
DAV:   6    -0.107448890653E+03    0.27466E+02   -0.32244E+02  4104   0.121E+02    0.265E+01
DAV:   7    -0.944796838687E+02    0.12969E+02   -0.83290E+01  4120   0.780E+01    0.134E+01
DAV:   8    -0.934158217403E+02    0.10639E+01   -0.21839E+01  4304   0.711E+01    0.132E+01
DAV:   9    -0.915204898173E+02    0.18953E+01   -0.63289E+00  5160   0.391E+01    0.101E+01
DAV:  10    -0.931411017801E+02   -0.16206E+01   -0.55175E+00  5144   0.506E+01    0.102E+01
DAV:  11    -0.930314817771E+02    0.10962E+00   -0.73697E+00  5400   0.491E+01    0.775E+00
DAV:  12    -0.947578422316E+02   -0.17264E+01   -0.35817E+00  5184   0.339E+01    0.625E+00
DAV:  13    -0.100016666660E+03   -0.52588E+01   -0.33298E+00  4920   0.225E+01    0.409E+00
DAV:  14    -0.105248438110E+03   -0.52318E+01   -0.34949E+00  4680   0.199E+01    0.270E+00
DAV:  15    -0.110366577828E+03   -0.51181E+01   -0.43688E+00  4744   0.118E+01    0.202E+00
DAV:  16    -0.112870597331E+03   -0.25040E+01   -0.22532E+00  4112   0.835E+00    0.137E+00
DAV:  17    -0.114273891666E+03   -0.14033E+01   -0.87047E-01  4160   0.612E+00    0.113E+00
DAV:  18    -0.115914327216E+03   -0.16404E+01   -0.11749E+00  4464   0.443E+00    0.740E-01
DAV:  19    -0.116618285599E+03   -0.70396E+00   -0.38371E-01  4504   0.292E+00    0.555E-01
DAV:  20    -0.116908870568E+03   -0.29058E+00   -0.88658E-02  4304   0.265E+00    0.466E-01
DAV:  21    -0.117125070892E+03   -0.21620E+00   -0.49878E-02  4352   0.161E+00    0.347E-01
DAV:  22    -0.117414882869E+03   -0.28981E+00   -0.43529E-02  4424   0.105E+00    0.283E-01
DAV:  23    -0.117564797635E+03   -0.14991E+00   -0.13158E-02  4304   0.845E-01    0.244E-01
DAV:  24    -0.117682994421E+03   -0.11820E+00   -0.56405E-03  4024   0.106E+00    0.192E-01
DAV:  25    -0.117852697764E+03   -0.16970E+00   -0.53908E-03  4944   0.731E-01    0.144E-01
DAV:  26    -0.118004553030E+03   -0.15186E+00   -0.63916E-03  5008   0.739E-01    0.107E-01
DAV:  27    -0.118072310087E+03   -0.67757E-01   -0.13248E-03  4096   0.445E-01    0.669E-02
DAV:  28    -0.118099498929E+03   -0.27189E-01   -0.70338E-04  3144   0.291E-01    0.410E-02
DAV:  29    -0.118108195213E+03   -0.86963E-02   -0.73784E-04  3264   0.166E-01    0.339E-02
DAV:  30    -0.118110515764E+03   -0.23206E-02   -0.14567E-04  2584   0.141E-01    0.194E-02
DAV:  31    -0.118111857433E+03   -0.13417E-02   -0.99288E-05  2536   0.927E-02    0.143E-02
DAV:  32    -0.118112029809E+03   -0.17238E-03   -0.52173E-05  2488   0.777E-02
   1 F= -.13048880E+03 E0= -.13050094E+03  d E =-.130489E+03  mag=     0.0015
       N       E                     dE             d eps       ncg     rms          rms(c)
DAV:   1    -0.118162026828E+03   -0.50169E-01   -0.19110E+01  3920   0.825E+00    0.687E-01
DAV:   2    -0.118197587928E+03   -0.35561E-01   -0.42070E-01  5560   0.418E+00    0.639E-01
DAV:   3    -0.118193892356E+03    0.36956E-02   -0.27835E-02  4272   0.311E+00    0.367E-01
DAV:   4    -0.118192991166E+03    0.90119E-03   -0.86049E-03  4704   0.127E+00    0.187E-01
DAV:   5    -0.118193357066E+03   -0.36590E-03   -0.52989E-03  4320   0.158E+00    0.162E-01
DAV:   6    -0.118193136659E+03    0.22041E-03   -0.31065E-03  4072   0.141E+00    0.990E-02
DAV:   7    -0.118192907804E+03    0.22885E-03   -0.10802E-03  3544   0.733E-01    0.295E-02
DAV:   8    -0.118192939637E+03   -0.31833E-04   -0.34986E-04  2640   0.208E-01
   2 F= -.13058143E+03 E0= -.13059390E+03  d E =-.926350E-01  mag=     0.0008
       N       E                     dE             d eps       ncg     rms          rms(c)
DAV:   1    -0.118193573392E+03   -0.66559E-03   -0.15421E-02  4104   0.281E-01    0.203E-02
DAV:   2    -0.118193607883E+03   -0.34490E-04   -0.25356E-04  2592   0.123E-01
   3 F= -.13058152E+03 E0= -.13059398E+03  d E =-.927217E-01  mag=     0.0007
       N       E                     dE             d eps       ncg     rms          rms(c)
DAV:   1    -0.118236670130E+03   -0.43097E-01   -0.13541E+01  3760   0.712E+00    0.485E-01
DAV:   2    -0.118266232040E+03   -0.29562E-01   -0.33382E-01  5328   0.263E+00    0.485E-01
DAV:   3    -0.118264891132E+03    0.13409E-02   -0.14232E-02  4232   0.181E+00    0.313E-01
DAV:   4    -0.118264091534E+03    0.79960E-03   -0.38993E-03  4760   0.118E+00    0.196E-01
DAV:   5    -0.118264344926E+03   -0.25339E-03   -0.34603E-03  4608   0.142E+00    0.157E-01
DAV:   6    -0.118263948243E+03    0.39668E-03   -0.25677E-03  4200   0.126E+00    0.738E-02
DAV:   7    -0.118263838854E+03    0.10939E-03   -0.74836E-04  2976   0.633E-01
   4 F= -.13065342E+03 E0= -.13066651E+03  d E =-.719008E-01  mag=     0.0004
       N       E                     dE             d eps       ncg     rms          rms(c)
DAV:   1    -0.118265139216E+03   -0.11910E-02   -0.31879E+00  3784   0.347E+00    0.227E-01
DAV:   2    -0.118271540044E+03   -0.64008E-02   -0.71839E-02  5272   0.112E+00    0.206E-01
DAV:   3    -0.118271397336E+03    0.14271E-03   -0.33172E-03  4184   0.824E-01    0.147E-01
DAV:   4    -0.118271386386E+03    0.10950E-04   -0.14915E-03  4088   0.914E-01
   5 F= -.13066304E+03 E0= -.13067637E+03  d E =-.815180E-01  mag=     0.0003
       N       E                     dE             d eps       ncg     rms          rms(c)
DAV:   1    -0.118294080448E+03   -0.22683E-01   -0.65532E+00  3872   0.541E+00    0.245E-01
DAV:   2    -0.118307961980E+03   -0.13882E-01   -0.12097E-01  6056   0.296E+00    0.349E-01
DAV:   3    -0.118305936271E+03    0.20257E-02   -0.24836E-02  4088   0.307E+00    0.236E-01
DAV:   4    -0.118305834297E+03    0.10197E-03   -0.66534E-03  4200   0.871E-01    0.135E-01
DAV:   5    -0.118305883580E+03   -0.49284E-04   -0.24035E-03  4008   0.593E-01    0.118E-01
DAV:   6    -0.118305865737E+03    0.17843E-04   -0.17043E-03  3968   0.656E-01
   6 F= -.13069636E+03 E0= -.13070954E+03  d E =-.333192E-01  mag=     0.0002
       N       E                     dE             d eps       ncg     rms          rms(c)
DAV:   1    -0.118300396457E+03    0.54871E-02   -0.12958E+01  3816   0.739E+00    0.333E-01
DAV:   2    -0.118325903451E+03   -0.25507E-01   -0.26428E-01  5480   0.267E+00    0.403E-01
DAV:   3    -0.118324977807E+03    0.92564E-03   -0.13340E-02  4136   0.212E+00    0.246E-01
DAV:   4    -0.118324990262E+03   -0.12455E-04   -0.53406E-03  4120   0.164E+00    0.233E-01
DAV:   5    -0.118324331166E+03    0.65910E-03   -0.32702E-03  4584   0.128E+00    0.155E-01
DAV:   6    -0.118324161527E+03    0.16964E-03   -0.24303E-03  5696   0.694E-01    0.568E-02
DAV:   7    -0.118324157763E+03    0.37639E-05   -0.69324E-04  3568   0.450E-01
   7 F= -.13071410E+03 E0= -.13072685E+03  d E =-.510598E-01  mag=     0.0001
       N       E                     dE             d eps       ncg     rms          rms(c)
DAV:   1    -0.118341991900E+03   -0.17830E-01   -0.38823E+00  3784   0.392E+00    0.184E-01
DAV:   2    -0.118349530403E+03   -0.75385E-02   -0.77461E-02  5368   0.110E+00    0.193E-01
DAV:   3    -0.118349459794E+03    0.70609E-04   -0.32535E-03  4168   0.101E+00    0.148E-01
DAV:   4    -0.118349378535E+03    0.81259E-04   -0.13047E-03  2656   0.883E-01
   8 F= -.13073476E+03 E0= -.13074747E+03  d E =-.206656E-01  mag=     0.0001
       N       E                     dE             d eps       ncg     rms          rms(c)
DAV:   1    -0.118356544094E+03   -0.70843E-02   -0.12431E+00  3808   0.236E+00    0.147E-01
DAV:   2    -0.118359183897E+03   -0.26398E-02   -0.24518E-02  5496   0.139E+00    0.176E-01
DAV:   3    -0.118358765253E+03    0.41864E-03   -0.44201E-03  3952   0.138E+00    0.126E-01
DAV:   4    -0.118358730218E+03    0.35035E-04   -0.19655E-03  4008   0.638E-01
   9 F= -.13074193E+03 E0= -.13075452E+03  d E =-.278344E-01  mag=     0.0001
       N       E                     dE             d eps       ncg     rms          rms(c)
DAV:   1    -0.118361324749E+03   -0.25595E-02   -0.49365E+00  3776   0.441E+00    0.200E-01
DAV:   2    -0.118370915705E+03   -0.95910E-02   -0.97347E-02  5464   0.149E+00    0.240E-01
DAV:   3    -0.118370749793E+03    0.16591E-03   -0.56299E-03  4112   0.121E+00    0.167E-01
DAV:   4    -0.118370703224E+03    0.46570E-04   -0.16736E-03  3808   0.875E-01
  10 F= -.13075002E+03 E0= -.13076252E+03  d E =-.359260E-01  mag=     0.0000
       N       E                     dE             d eps       ncg     rms          rms(c)
DAV:   1    -0.118385766713E+03   -0.15017E-01   -0.52462E+00  3832   0.480E+00    0.233E-01
DAV:   2    -0.118395660028E+03   -0.98933E-02   -0.99210E-02  5632   0.202E+00    0.294E-01
DAV:   3    -0.118395001084E+03    0.65894E-03   -0.11432E-02  4016   0.196E+00    0.205E-01
DAV:   4    -0.118394784638E+03    0.21645E-03   -0.32533E-03  3960   0.851E-01    0.146E-01
DAV:   5    -0.118394819300E+03   -0.34661E-04   -0.20787E-03  4328   0.816E-01    0.123E-01
DAV:   6    -0.118394708728E+03    0.11057E-03   -0.14364E-03  4184   0.715E-01
  11 F= -.13077036E+03 E0= -.13078263E+03  d E =-.203324E-01  mag=     0.0000
       N       E                     dE             d eps       ncg     rms          rms(c)
DAV:   1    -0.118397334600E+03   -0.25153E-02   -0.71397E-01  3856   0.176E+00    0.867E-02
DAV:   2    -0.118398663429E+03   -0.13288E-02   -0.13983E-02  5472   0.538E-01    0.832E-02
DAV:   3    -0.118398686425E+03   -0.22997E-04   -0.10069E-03  3800   0.564E-01
  12 F= -.13077326E+03 E0= -.13078550E+03  d E =-.232332E-01  mag=     0.0000
       N       E                     dE             d eps       ncg     rms          rms(c)
DAV:   1    -0.118399195718E+03   -0.53229E-03   -0.88802E-02  4464   0.751E-01    0.694E-02
DAV:   2    -0.118399442419E+03   -0.24670E-03   -0.16275E-03  3832   0.730E-01    0.935E-02
DAV:   3    -0.118399259921E+03    0.18250E-03   -0.10245E-03  2800   0.723E-01
  13 F= -.13077351E+03 E0= -.13078573E+03  d E =-.234876E-01  mag=     0.0000
       N       E                     dE             d eps       ncg     rms          rms(c)
DAV:   1    -0.118408467501E+03   -0.90251E-02   -0.52992E+00  3856   0.483E+00    0.172E-01
DAV:   2    -0.118418580951E+03   -0.10113E-01   -0.10419E-01  5488   0.148E+00    0.227E-01
DAV:   3    -0.118418321508E+03    0.25944E-03   -0.45053E-03  4112   0.920E-01    0.143E-01
DAV:   4    -0.118418263740E+03    0.57769E-04   -0.75406E-04  3544   0.352E-01
  14 F= -.13078727E+03 E0= -.13079947E+03  d E =-.137631E-01  mag=     0.0000
       N       E                     dE             d eps       ncg     rms          rms(c)
DAV:   1    -0.118422706177E+03   -0.43847E-02   -0.15034E+00  3896   0.267E+00    0.150E-01
DAV:   2    -0.118427158168E+03   -0.44520E-02   -0.30021E-02  6632   0.247E+00    0.296E-01
DAV:   3    -0.118424791181E+03    0.23670E-02   -0.91795E-03  4808   0.205E+00    0.128E-01
DAV:   4    -0.118424927166E+03   -0.13598E-03   -0.31157E-03  3992   0.367E-01    0.943E-02
DAV:   5    -0.118424898907E+03    0.28259E-04   -0.92237E-04  3912   0.492E-01
  15 F= -.13079125E+03 E0= -.13080347E+03  d E =-.177367E-01  mag=     0.0000
       N       E                     dE             d eps       ncg     rms          rms(c)
DAV:   1    -0.118421012062E+03    0.39151E-02   -0.59879E+00  3856   0.521E+00    0.178E-01
DAV:   2    -0.118432720025E+03   -0.11708E-01   -0.12076E-01  5456   0.141E+00    0.215E-01
DAV:   3    -0.118432455833E+03    0.26419E-03   -0.42956E-03  3984   0.941E-01    0.145E-01
DAV:   4    -0.118432378815E+03    0.77019E-04   -0.79562E-04  3568   0.464E-01
  16 F= -.13079362E+03 E0= -.13080574E+03  d E =-.201059E-01  mag=     0.0000
       N       E                     dE             d eps       ncg     rms          rms(c)
DAV:   1    -0.118429176355E+03    0.32795E-02   -0.73064E-01  3904   0.190E+00    0.109E-01
DAV:   2    -0.118431698064E+03   -0.25217E-02   -0.16356E-02  6672   0.178E+00    0.189E-01
DAV:   3    -0.118430492697E+03    0.12054E-02   -0.55323E-03  4576   0.175E+00    0.677E-02
DAV:   4    -0.118430528513E+03   -0.35816E-04   -0.13549E-03  3808   0.429E-01
  17 F= -.13079353E+03 E0= -.13080569E+03  d E =-.200222E-01  mag=     0.0000
       N       E                     dE             d eps       ncg     rms          rms(c)
DAV:   1    -0.118436177928E+03   -0.56852E-02   -0.14639E+00  3816   0.256E+00    0.155E-01
DAV:   2    -0.118438777296E+03   -0.25994E-02   -0.29157E-02  5448   0.757E-01    0.138E-01
DAV:   3    -0.118438916604E+03   -0.13931E-03   -0.30715E-03  3952   0.104E+00    0.139E-01
DAV:   4    -0.118438668487E+03    0.24812E-03   -0.12448E-03  2888   0.841E-01    0.779E-02
DAV:   5    -0.118438625900E+03    0.42587E-04   -0.42407E-04  2384   0.516E-01
  18 F= -.13079959E+03 E0= -.13081179E+03  d E =-.606103E-02  mag=     0.0000
       N       E                     dE             d eps       ncg     rms          rms(c)
DAV:   1    -0.118438495888E+03    0.17260E-03   -0.37811E-03  5280   0.384E-01    0.258E-02
DAV:   2    -0.118438543811E+03   -0.47923E-04   -0.28500E-04  2352   0.400E-01
  19 F= -.13079960E+03 E0= -.13081178E+03  d E =-.606559E-02  mag=     0.0000
       N       E                     dE             d eps       ncg     rms          rms(c)
DAV:   1    -0.118442633283E+03   -0.41374E-02   -0.13617E+00  3928   0.249E+00    0.109E-01
DAV:   2    -0.118445192060E+03   -0.25588E-02   -0.27402E-02  5296   0.768E-01    0.116E-01
DAV:   3    -0.118445149173E+03    0.42886E-04   -0.16258E-03  4176   0.564E-01
  20 F= -.13080521E+03 E0= -.13081733E+03  d E =-.561375E-02  mag=     0.0000
       N       E                     dE             d eps       ncg     rms          rms(c)
DAV:   1    -0.118446944008E+03   -0.17519E-02   -0.20202E+00  3896   0.303E+00    0.166E-01
DAV:   2    -0.118450580916E+03   -0.36369E-02   -0.40451E-02  5288   0.977E-01    0.166E-01
DAV:   3    -0.118450574838E+03    0.60782E-05   -0.34180E-03  3960   0.102E+00    0.142E-01
DAV:   4    -0.118450405336E+03    0.16950E-03   -0.10635E-03  2856   0.744E-01
  21 F= -.13080928E+03 E0= -.13082132E+03  d E =-.968534E-02  mag=     0.0000
       N       E                     dE             d eps       ncg     rms          rms(c)
DAV:   1    -0.118436878124E+03    0.13697E-01   -0.80579E+00  3912   0.608E+00    0.275E-01
DAV:   2    -0.118452561161E+03   -0.15683E-01   -0.16892E-01  5344   0.173E+00    0.277E-01
DAV:   3    -0.118452185342E+03    0.37582E-03   -0.69392E-03  4064   0.130E+00    0.210E-01
DAV:   4    -0.118451994243E+03    0.19110E-03   -0.19013E-03  3920   0.103E+00
  22 F= -.13080856E+03 E0= -.13082045E+03  d E =-.896087E-02  mag=     0.0000
       N       E                     dE             d eps       ncg     rms          rms(c)
DAV:   1    -0.118442392015E+03    0.97933E-02   -0.46907E+00  3936   0.483E+00    0.194E-01
DAV:   2    -0.118456471493E+03   -0.14079E-01   -0.10370E-01  6512   0.374E+00    0.414E-01
DAV:   3    -0.118451159290E+03    0.53122E-02   -0.22997E-02  4224   0.344E+00    0.170E-01
DAV:   4    -0.118451604840E+03   -0.44555E-03   -0.91622E-03  4040   0.851E-01    0.984E-02
DAV:   5    -0.118451750291E+03   -0.14545E-03   -0.23391E-03  3872   0.323E-01    0.805E-02
DAV:   6    -0.118451722054E+03    0.28237E-04   -0.52010E-04  2960   0.395E-01
  23 F= -.13081006E+03 E0= -.13082203E+03  d E =-.104567E-01  mag=     0.0000
       N       E                     dE             d eps       ncg     rms          rms(c)
DAV:   1    -0.118456834685E+03   -0.50844E-02   -0.11206E+00  3760   0.223E+00    0.106E-01
DAV:   2    -0.118458917022E+03   -0.20823E-02   -0.21965E-02  5264   0.705E-01    0.112E-01
DAV:   3    -0.118458917908E+03   -0.88637E-06   -0.18404E-03  3944   0.810E-01
  24 F= -.13081497E+03 E0= -.13082691E+03  d E =-.491234E-02  mag=     0.0000
       N       E                     dE             d eps       ncg     rms          rms(c)
DAV:   1    -0.118457202962E+03    0.17141E-02   -0.10109E+01  3760   0.672E+00    0.385E-01
DAV:   2    -0.118476305049E+03   -0.19102E-01   -0.21096E-01  5296   0.208E+00    0.366E-01
DAV:   3    -0.118475762766E+03    0.54228E-03   -0.13738E-02  4048   0.193E+00    0.279E-01
DAV:   4    -0.118475493303E+03    0.26946E-03   -0.48548E-03  4096   0.162E+00    0.226E-01
DAV:   5    -0.118475431032E+03    0.62271E-04   -0.50728E-03  4544   0.187E+00    0.169E-01
DAV:   6    -0.118474679065E+03    0.75197E-03   -0.25043E-03  3680   0.122E+00    0.529E-02
DAV:   7    -0.118474727914E+03   -0.48849E-04   -0.12238E-03  3792   0.454E-01
  25 F= -.13082412E+03 E0= -.13083587E+03  d E =-.140627E-01  mag=     0.0000
       N       E                     dE             d eps       ncg     rms          rms(c)
DAV:   1    -0.118400730554E+03    0.73949E-01   -0.40529E+01  3776   0.137E+01    0.723E-01
DAV:   2    -0.118484624591E+03   -0.83894E-01   -0.89245E-01  5360   0.446E+00    0.724E-01
DAV:   3    -0.118484446903E+03    0.17769E-03   -0.73145E-02  4032   0.520E+00    0.630E-01
DAV:   4    -0.118480719115E+03    0.37278E-02   -0.24086E-02  4064   0.366E+00    0.414E-01
DAV:   5    -0.118479370597E+03    0.13485E-02   -0.11996E-02  5792   0.220E+00    0.277E-01
DAV:   6    -0.118478661377E+03    0.70922E-03   -0.85552E-03  5840   0.162E+00    0.131E-01
DAV:   7    -0.118478624518E+03    0.36859E-04   -0.26921E-03  3952   0.101E+00    0.884E-02
DAV:   8    -0.118478603613E+03    0.20905E-04   -0.15229E-03  3936   0.592E-01
  26 F= -.13081543E+03 E0= -.13082660E+03  d E =-.537738E-02  mag=     0.0000
       N       E                     dE             d eps       ncg     rms          rms(c)
DAV:   1    -0.118435189604E+03    0.43435E-01   -0.24512E+01  3808   0.105E+01    0.549E-01
DAV:   2    -0.118483694860E+03   -0.48505E-01   -0.50767E-01  5344   0.413E+00    0.623E-01
DAV:   3    -0.118482421056E+03    0.12738E-02   -0.45955E-02  4080   0.445E+00    0.453E-01
DAV:   4    -0.118479938739E+03    0.24823E-02   -0.13698E-02  4080   0.262E+00    0.317E-01
DAV:   5    -0.118479190169E+03    0.74857E-03   -0.87968E-03  4576   0.169E+00    0.212E-01
DAV:   6    -0.118478930588E+03    0.25958E-03   -0.61123E-03  4480   0.116E+00    0.537E-02
DAV:   7    -0.118479034466E+03   -0.10388E-03   -0.17238E-03  4000   0.529E-01
  27 F= -.13082556E+03 E0= -.13083712E+03  d E =-.155039E-01  mag=     0.0000
       N       E                     dE             d eps       ncg     rms          rms(c)
DAV:   1    -0.118483259534E+03   -0.43289E-02   -0.75222E-01  3728   0.180E+00    0.135E-01
DAV:   2    -0.118484841228E+03   -0.15817E-02   -0.18439E-02  5408   0.710E-01    0.129E-01
DAV:   3    -0.118484806871E+03    0.34357E-04   -0.17305E-03  3904   0.893E-01
  28 F= -.13082901E+03 E0= -.13084046E+03  d E =-.344942E-02  mag=     0.0000
       N       E                     dE             d eps       ncg     rms          rms(c)
DAV:   1    -0.118487304358E+03   -0.24631E-02   -0.98174E-01  3776   0.215E+00    0.209E-01
DAV:   2    -0.118489551715E+03   -0.22474E-02   -0.24361E-02  6336   0.149E+00    0.201E-01
DAV:   3    -0.118489398477E+03    0.15324E-03   -0.49895E-03  4288   0.180E+00    0.177E-01
DAV:   4    -0.118488928684E+03    0.46979E-03   -0.21600E-03  3872   0.112E+00    0.108E-01
DAV:   5    -0.118488852358E+03    0.76326E-04   -0.10403E-03  3952   0.582E-01
  29 F= -.13083042E+03 E0= -.13084169E+03  d E =-.485888E-02  mag=     0.0000
       N       E                     dE             d eps       ncg     rms          rms(c)
DAV:   1    -0.118489626398E+03   -0.69771E-03   -0.20699E-01  3848   0.104E+00    0.641E-02
DAV:   2    -0.118490200693E+03   -0.57430E-03   -0.59058E-03  5296   0.575E-01    0.722E-02
DAV:   3    -0.118490174998E+03    0.25695E-04   -0.63597E-04  3136   0.511E-01
  30 F= -.13083053E+03 E0= -.13084167E+03  d E =-.496872E-02  mag=     0.0000
       N       E                     dE             d eps       ncg     rms          rms(c)
DAV:   1    -0.118494477880E+03   -0.42772E-02   -0.93414E-01  3728   0.201E+00    0.163E-01
DAV:   2    -0.118496384324E+03   -0.19064E-02   -0.21437E-02  5744   0.938E-01    0.145E-01
DAV:   3    -0.118496511593E+03   -0.12727E-03   -0.31004E-03  3952   0.129E+00    0.144E-01
DAV:   4    -0.118496248630E+03    0.26296E-03   -0.13655E-03  3472   0.930E-01    0.858E-02
DAV:   5    -0.118496190558E+03    0.58072E-04   -0.54759E-04  2704   0.562E-01
  31 F= -.13083361E+03 E0= -.13084461E+03  d E =-.307975E-02  mag=     0.0000
       N       E                     dE             d eps       ncg     rms          rms(c)
DAV:   1    -0.118491013738E+03    0.52349E-02   -0.74650E+00  3744   0.568E+00    0.396E-01
DAV:   2    -0.118507233504E+03   -0.16220E-01   -0.18363E-01  5296   0.182E+00    0.329E-01
DAV:   3    -0.118506985101E+03    0.24840E-03   -0.13424E-02  4016   0.185E+00    0.267E-01
DAV:   4    -0.118506488333E+03    0.49677E-03   -0.35084E-03  4208   0.120E+00    0.159E-01
DAV:   5    -0.118507464605E+03   -0.97627E-03   -0.40657E-03  4272   0.176E+00    0.191E-01
DAV:   6    -0.118506393148E+03    0.10715E-02   -0.30355E-03  3280   0.160E+00    0.603E-02
DAV:   7    -0.118506304295E+03    0.88854E-04   -0.36992E-04  2384   0.514E-01
  32 F= -.13083561E+03 E0= -.13084611E+03  d E =-.507851E-02  mag=     0.0000
       N       E                     dE             d eps       ncg     rms          rms(c)
DAV:   1    -0.118501692473E+03    0.47007E-02   -0.11683E+00  3744   0.220E+00    0.165E-01
DAV:   2    -0.118503895394E+03   -0.22029E-02   -0.26184E-02  5392   0.840E-01    0.143E-01
DAV:   3    -0.118503810243E+03    0.85151E-04   -0.22738E-03  4024   0.847E-01    0.107E-01
DAV:   4    -0.118503698935E+03    0.11131E-03   -0.55465E-04  3136   0.433E-01
  33 F= -.13083618E+03 E0= -.13084682E+03  d E =-.565049E-02  mag=     0.0000
       N       E                     dE             d eps       ncg     rms          rms(c)
DAV:   1    -0.118504596654E+03   -0.78641E-03   -0.71773E-02  5248   0.765E-01    0.777E-02
DAV:   2    -0.118506090331E+03   -0.14937E-02   -0.41122E-03  4032   0.188E+00    0.219E-01
DAV:   3    -0.118504520023E+03    0.15703E-02   -0.26288E-03  2720   0.154E+00    0.338E-02
DAV:   4    -0.118504517490E+03    0.25330E-05   -0.16423E-04  2256   0.255E-01
  34 F= -.13083621E+03 E0= -.13084684E+03  d E =-.568353E-02  mag=     0.0000
       N       E                     dE             d eps       ncg     rms          rms(c)
DAV:   1    -0.118505096588E+03   -0.57657E-03   -0.29901E-01  4080   0.115E+00    0.492E-02
DAV:   2    -0.118505607322E+03   -0.51073E-03   -0.53702E-03  5296   0.311E-01    0.490E-02
DAV:   3    -0.118505613410E+03   -0.60872E-05   -0.34087E-04  2352   0.317E-01
  35 F= -.13083810E+03 E0= -.13084880E+03  d E =-.189131E-02  mag=     0.0000
       N       E                     dE             d eps       ncg     rms          rms(c)
DAV:   1    -0.118505033023E+03    0.57430E-03   -0.49464E-01  4064   0.149E+00    0.846E-02
DAV:   2    -0.118505817632E+03   -0.78461E-03   -0.89291E-03  5328   0.403E-01    0.752E-02
DAV:   3    -0.118505818675E+03   -0.10429E-05   -0.70398E-04  3552   0.438E-01
  36 F= -.13083933E+03 E0= -.13085016E+03  d E =-.312112E-02  mag=     0.0000
       N       E                     dE             d eps       ncg     rms          rms(c)
DAV:   1    -0.118506084063E+03   -0.26643E-03   -0.30905E-01  4000   0.125E+00    0.541E-02
DAV:   2    -0.118506916775E+03   -0.83271E-03   -0.56302E-03  5808   0.984E-01    0.116E-01
DAV:   3    -0.118506524100E+03    0.39267E-03   -0.14879E-03  3600   0.856E-01    0.506E-02
DAV:   4    -0.118506562827E+03   -0.38727E-04   -0.66935E-04  3440   0.175E-01
  37 F= -.13084087E+03 E0= -.13085167E+03  d E =-.154223E-02  mag=     0.0000
       N       E                     dE             d eps       ncg     rms          rms(c)
DAV:   1    -0.118501666434E+03    0.48577E-02   -0.27657E+00  4016   0.348E+00    0.118E-01
DAV:   2    -0.118506156132E+03   -0.44897E-02   -0.46660E-02  5376   0.993E-01    0.147E-01
DAV:   3    -0.118506107539E+03    0.48593E-04   -0.21405E-03  3936   0.676E-01    0.111E-01
DAV:   4    -0.118506050598E+03    0.56941E-04   -0.48549E-04  2576   0.465E-01
  38 F= -.13084281E+03 E0= -.13085363E+03  d E =-.347337E-02  mag=     0.0000
       N       E                     dE             d eps       ncg     rms          rms(c)
DAV:   1    -0.118506230346E+03   -0.12281E-03   -0.15110E-01  4320   0.938E-01    0.732E-02
DAV:   2    -0.118506658491E+03   -0.42814E-03   -0.29537E-03  4912   0.969E-01    0.971E-02
DAV:   3    -0.118506487278E+03    0.17121E-03   -0.13659E-03  3216   0.945E-01
  39 F= -.13084266E+03 E0= -.13085346E+03  d E =-.332473E-02  mag=     0.0000
       N       E                     dE             d eps       ncg     rms          rms(c)
DAV:   1    -0.118506110549E+03    0.54794E-03   -0.51626E-02  5280   0.626E-01    0.212E-02
DAV:   2    -0.118506133341E+03   -0.22792E-04   -0.27921E-04  2592   0.158E-01
  40 F= -.13084264E+03 E0= -.13085347E+03  d E =-.331059E-02  mag=     0.0000
       N       E                     dE             d eps       ncg     rms          rms(c)
DAV:   1    -0.118505054546E+03    0.10560E-02   -0.54069E-01  4048   0.155E+00    0.506E-02
DAV:   2    -0.118505959125E+03   -0.90458E-03   -0.94347E-03  5408   0.375E-01    0.568E-02
DAV:   3    -0.118505931982E+03    0.27142E-04   -0.14390E-04  2288   0.154E-01
  41 F= -.13084358E+03 E0= -.13085447E+03  d E =-.939492E-03  mag=     0.0000
       N       E                     dE             d eps       ncg     rms          rms(c)
DAV:   1    -0.118505496039E+03    0.46309E-03   -0.12426E-01  4080   0.750E-01    0.476E-02
DAV:   2    -0.118505642198E+03   -0.14616E-03   -0.17464E-03  4864   0.313E-01
  42 F= -.13084383E+03 E0= -.13085477E+03  d E =-.119178E-02  mag=     0.0000
       N       E                     dE             d eps       ncg     rms          rms(c)
DAV:   1    -0.118504019896E+03    0.14761E-02   -0.49009E-01  4048   0.152E+00    0.661E-02
DAV:   2    -0.118504986204E+03   -0.96631E-03   -0.86582E-03  5952   0.838E-01    0.110E-01
DAV:   3    -0.118504783770E+03    0.20243E-03   -0.14474E-03  3664   0.732E-01    0.630E-02
DAV:   4    -0.118504795477E+03   -0.11707E-04   -0.55932E-04  2912   0.184E-01
  43 F= -.13084407E+03 E0= -.13085503E+03  d E =-.142833E-02  mag=     0.0000
       N       E                     dE             d eps       ncg     rms          rms(c)
DAV:   1    -0.118504755876E+03    0.27895E-04   -0.31391E-02  3840   0.400E-01    0.354E-02
DAV:   2    -0.118504870586E+03   -0.11471E-03   -0.54605E-04  2384   0.518E-01
  44 F= -.13084442E+03 E0= -.13085539E+03  d E =-.348136E-03  mag=     0.0000
       N       E                     dE             d eps       ncg     rms          rms(c)
DAV:   1    -0.118504751632E+03    0.42440E-05   -0.22392E-02  5296   0.568E-01    0.319E-02
DAV:   2    -0.118504807156E+03   -0.55524E-04   -0.32891E-04  2304   0.344E-01
  45 F= -.13084458E+03 E0= -.13085550E+03  d E =-.507798E-03  mag=     0.0000
       N       E                     dE             d eps       ncg     rms          rms(c)
DAV:   1    -0.118504421717E+03    0.32991E-03   -0.84472E-02  4384   0.710E-01    0.506E-02
DAV:   2    -0.118504608367E+03   -0.18665E-03   -0.14683E-03  4096   0.530E-01
  46 F= -.13084483E+03 E0= -.13085579E+03  d E =-.759908E-03  mag=     0.0000
       N       E                     dE             d eps       ncg     rms          rms(c)
DAV:   1    -0.118504457094E+03   -0.35377E-04   -0.76945E-03  5424   0.549E-01    0.444E-02
DAV:   2    -0.118504601042E+03   -0.14395E-03   -0.55678E-04  2304   0.585E-01
  47 F= -.13084509E+03 E0= -.13085601E+03  d E =-.261212E-03  mag=     0.0000
       N       E                     dE             d eps       ncg     rms          rms(c)
DAV:   1    -0.118504041701E+03    0.41539E-03   -0.64677E-02  5152   0.753E-01    0.645E-02
DAV:   2    -0.118504188754E+03   -0.14705E-03   -0.15053E-03  3440   0.454E-01
  48 F= -.13084549E+03 E0= -.13085640E+03  d E =-.655366E-03  mag=     0.0000
       N       E                     dE             d eps       ncg     rms          rms(c)
DAV:   1    -0.118502287496E+03    0.17542E-02   -0.25124E-01  4016   0.117E+00    0.123E-01
DAV:   2    -0.118503194397E+03   -0.90690E-03   -0.75015E-03  5632   0.109E+00    0.147E-01
DAV:   3    -0.118502782216E+03    0.41218E-03   -0.19031E-03  3712   0.112E+00    0.898E-02
DAV:   4    -0.118502742725E+03    0.39491E-04   -0.67696E-04  3424   0.465E-01
  49 F= -.13084566E+03 E0= -.13085653E+03  d E =-.825815E-03  mag=     0.0000
       N       E                     dE             d eps       ncg     rms          rms(c)
DAV:   1    -0.118503265206E+03   -0.48299E-03   -0.22919E-02  5408   0.462E-01    0.454E-02
DAV:   2    -0.118503301489E+03   -0.36283E-04   -0.60806E-04  2864   0.408E-01
  50 F= -.13084574E+03 E0= -.13085664E+03  d E =-.905225E-03  mag=     0.0000
       N       E                     dE             d eps       ncg     rms          rms(c)
DAV:   1    -0.118502716535E+03    0.54867E-03   -0.26193E-02  5120   0.452E-01    0.246E-02
DAV:   2    -0.118502804969E+03   -0.88434E-04   -0.54448E-04  2544   0.374E-01
  51 F= -.13084602E+03 E0= -.13085692E+03  d E =-.281452E-03  mag=     0.0000
       N       E                     dE             d eps       ncg     rms          rms(c)
DAV:   1    -0.118501982997E+03    0.73354E-03   -0.43843E-02  4912   0.516E-01    0.493E-02
DAV:   2    -0.118502045821E+03   -0.62823E-04   -0.80502E-04  2864   0.241E-01
  52 F= -.13084625E+03 E0= -.13085713E+03  d E =-.516314E-03  mag=     0.0000
       N       E                     dE             d eps       ncg     rms          rms(c)
DAV:   1    -0.118500005563E+03    0.19774E-02   -0.17106E-01  3776   0.879E-01    0.108E-01
DAV:   2    -0.118500696039E+03   -0.69048E-03   -0.47608E-03  5136   0.106E+00    0.130E-01
DAV:   3    -0.118500311442E+03    0.38460E-03   -0.15475E-03  3024   0.110E+00    0.790E-02
DAV:   4    -0.118500286133E+03    0.25309E-04   -0.59955E-04  2736   0.424E-01
  53 F= -.13084649E+03 E0= -.13085739E+03  d E =-.752865E-03  mag=     0.0000
       N       E                     dE             d eps       ncg     rms          rms(c)
DAV:   1    -0.118499195647E+03    0.11158E-02   -0.76983E-02  4672   0.622E-01    0.499E-02
DAV:   2    -0.118499323882E+03   -0.12824E-03   -0.14378E-03  3456   0.288E-01
  54 F= -.13084695E+03 E0= -.13085783E+03  d E =-.458606E-03  mag=     0.0000
       N       E                     dE             d eps       ncg     rms          rms(c)
DAV:   1    -0.118497419005E+03    0.17766E-02   -0.16202E-01  3808   0.861E-01    0.992E-02
DAV:   2    -0.118497881996E+03   -0.46299E-03   -0.41283E-03  4608   0.719E-01    0.104E-01
DAV:   3    -0.118497746797E+03    0.13520E-03   -0.12977E-03  3400   0.864E-01
  55 F= -.13084743E+03 E0= -.13085830E+03  d E =-.941576E-03  mag=     0.0000
       N       E                     dE             d eps       ncg     rms          rms(c)
DAV:   1    -0.118492656663E+03    0.52253E-02   -0.64260E-01  3712   0.159E+00    0.176E-01
DAV:   2    -0.118494021906E+03   -0.13652E-02   -0.17107E-02  5552   0.835E-01    0.140E-01
DAV:   3    -0.118493942522E+03    0.79384E-04   -0.17319E-03  4112   0.828E-01
  56 F= -.13084775E+03 E0= -.13085858E+03  d E =-.125613E-02  mag=     0.0000
       N       E                     dE             d eps       ncg     rms          rms(c)
DAV:   1    -0.118491549910E+03    0.24720E-02   -0.43585E-01  4176   0.158E+00    0.126E-01
DAV:   2    -0.118494654407E+03   -0.31045E-02   -0.12334E-02  6064   0.242E+00    0.283E-01
DAV:   3    -0.118492044507E+03    0.26099E-02   -0.52630E-03  4640   0.205E+00    0.750E-02
DAV:   4    -0.118492108314E+03   -0.63807E-04   -0.11622E-03  3696   0.378E-01
  57 F= -.13084828E+03 E0= -.13085911E+03  d E =-.536431E-03  mag=     0.0000
       N       E                     dE             d eps       ncg     rms          rms(c)
DAV:   1    -0.118488453076E+03    0.35914E-02   -0.58900E-01  3808   0.160E+00    0.975E-02
DAV:   2    -0.118489651872E+03   -0.11988E-02   -0.12750E-02  5200   0.511E-01    0.898E-02
DAV:   3    -0.118489680314E+03   -0.28442E-04   -0.87792E-04  3616   0.623E-01
  58 F= -.13084861E+03 E0= -.13085950E+03  d E =-.867529E-03  mag=     0.0000
       N       E                     dE             d eps       ncg     rms          rms(c)
DAV:   1    -0.118490429364E+03   -0.77749E-03   -0.71885E-02  4800   0.748E-01    0.369E-02
DAV:   2    -0.118490808733E+03   -0.37937E-03   -0.14068E-03  2768   0.838E-01    0.979E-02
DAV:   3    -0.118490505158E+03    0.30358E-03   -0.77863E-04  2928   0.710E-01    0.180E-02
DAV:   4    -0.118490522133E+03   -0.16975E-04   -0.17309E-04  2288   0.159E-01
  59 F= -.13084849E+03 E0= -.13085937E+03  d E =-.741876E-03  mag=     0.0000
       N       E                     dE             d eps       ncg     rms          rms(c)
DAV:   1    -0.118490085377E+03    0.41978E-03   -0.15101E-02  3840   0.280E-01    0.175E-02
DAV:   2    -0.118490104816E+03   -0.19439E-04   -0.18236E-04  2352   0.118E-01
  60 F= -.13084851E+03 E0= -.13085938E+03  d E =-.767315E-03  mag=     0.0000
       N       E                     dE             d eps       ncg     rms          rms(c)
DAV:   1    -0.118490355677E+03   -0.27030E-03   -0.45346E-03  5264   0.214E-01    0.111E-02
DAV:   2    -0.118490407928E+03   -0.52251E-04   -0.13899E-04  2368   0.326E-01
  61 F= -.13084857E+03 E0= -.13085942E+03  d E =-.824780E-03  mag=     0.0000
       N       E                     dE             d eps       ncg     rms          rms(c)
DAV:   1    -0.118485840358E+03    0.45153E-02   -0.10297E+00  3936   0.208E+00    0.816E-02
DAV:   2    -0.118487615047E+03   -0.17747E-02   -0.18410E-02  5344   0.663E-01    0.105E-01
DAV:   3    -0.118487572149E+03    0.42899E-04   -0.98830E-04  3712   0.553E-01
  62 F= -.13084906E+03 E0= -.13085997E+03  d E =-.490457E-03  mag=     0.0000
       N       E                     dE             d eps       ncg     rms          rms(c)
DAV:   1    -0.118488343626E+03   -0.72858E-03   -0.10308E-01  4064   0.740E-01    0.507E-02
DAV:   2    -0.118488586254E+03   -0.24263E-03   -0.12433E-03  3184   0.602E-01    0.735E-02
DAV:   3    -0.118488511124E+03    0.75131E-04   -0.13349E-03  4032   0.644E-01
  63 F= -.13084894E+03 E0= -.13085984E+03  d E =-.365415E-03  mag=     0.0000
       N       E                     dE             d eps       ncg     rms          rms(c)
DAV:   1    -0.118488002709E+03    0.58355E-03   -0.24351E-02  3920   0.353E-01    0.188E-02
DAV:   2    -0.118488041264E+03   -0.38555E-04   -0.24517E-04  2528   0.240E-01
  64 F= -.13084898E+03 E0= -.13085987E+03  d E =-.409841E-03  mag=     0.0000
       N       E                     dE             d eps       ncg     rms          rms(c)
DAV:   1    -0.118488300266E+03   -0.29756E-03   -0.64032E-03  5248   0.295E-01    0.820E-03
DAV:   2    -0.118488313262E+03   -0.12996E-04   -0.54983E-05  2272   0.131E-01
  65 F= -.13084899E+03 E0= -.13085988E+03  d E =-.415658E-03  mag=     0.0000
       N       E                     dE             d eps       ncg     rms          rms(c)
DAV:   1    -0.118488170316E+03    0.12995E-03   -0.14845E-03  4656   0.157E-01    0.835E-03
DAV:   2    -0.118488180357E+03   -0.10041E-04   -0.94419E-05  2256   0.103E-01
  66 F= -.13084899E+03 E0= -.13085988E+03  d E =-.415837E-03  mag=     0.0000
       N       E                     dE             d eps       ncg     rms          rms(c)
DAV:   1    -0.118488221239E+03   -0.50923E-04   -0.11365E-04  2256   0.104E-01    0.995E-03
DAV:   2    -0.118488247757E+03   -0.26518E-04   -0.12755E-04  2240   0.229E-01
  67 F= -.13084900E+03 E0= -.13085989E+03  d E =-.428106E-03  mag=     0.0000
       N       E                     dE             d eps       ncg     rms          rms(c)
DAV:   1    -0.118488189453E+03    0.31786E-04   -0.46471E-05  2256   0.175E-01    0.442E-03
DAV:   2    -0.118488193060E+03   -0.36072E-05   -0.24157E-05  2224   0.370E-02
  68 F= -.13084899E+03 E0= -.13085989E+03  d E =-.419214E-03  mag=     0.0000
       N       E                     dE             d eps       ncg     rms          rms(c)
DAV:   1    -0.118488215606E+03   -0.26152E-04   -0.21133E-05  1952   0.531E-02    0.422E-03
DAV:   2    -0.118488218147E+03   -0.25417E-05   -0.12838E-05  2304   0.694E-02
  69 F= -.13084899E+03 E0= -.13085989E+03  d E =-.421398E-03  mag=     0.0000
       N       E                     dE             d eps       ncg     rms          rms(c)
DAV:   1    -0.118488205493E+03    0.10113E-04   -0.57521E-06  2016   0.598E-02    0.169E-03
DAV:   2    -0.118488208098E+03   -0.26057E-05   -0.51003E-06  2240   0.624E-02
  70 F= -.13084899E+03 E0= -.13085989E+03  d E =-.423863E-03  mag=     0.0000
       N       E                     dE             d eps       ncg     rms          rms(c)
DAV:   1    -0.118485665625E+03    0.25399E-02   -0.39321E-01  3968   0.131E+00    0.467E-02
DAV:   2    -0.118486361322E+03   -0.69570E-03   -0.72275E-03  5264   0.348E-01    0.531E-02
DAV:   3    -0.118486355073E+03    0.62488E-05   -0.26244E-04  2288   0.284E-01
  71 F= -.13084945E+03 E0= -.13086045E+03  d E =-.456178E-03  mag=     0.0000
       N       E                     dE             d eps       ncg     rms          rms(c)
DAV:   1    -0.118486561959E+03   -0.20064E-03   -0.46953E-03  5296   0.249E-01    0.309E-02
DAV:   2    -0.118486611024E+03   -0.49065E-04   -0.15867E-04  2304   0.351E-01
  72 F= -.13084944E+03 E0= -.13086042E+03  d E =-.449689E-03  mag=     0.0000
