<?xml version="1.0" encoding="ISO-8859-1"?>
<modeling>
 <generator>
  <i name="program" type="string">vasp </i>
  <i name="version" type="string">6.3.2  </i>
  <i name="subversion" type="string">27Jun22 (build Aug 17 2022 15:43:34) complex                          parallel </i>
  <i name="platform" type="string">tv2STDVTST </i>
  <i name="date" type="string">2025 02 17 </i>
  <i name="time" type="string">18:52:43 </i>
 </generator>
 <incar>
  <i type="int" name="ISTART">     0</i>
  <i type="string" name="PREC">Normal</i>
  <i type="int" name="ISPIN">     2</i>
  <i type="int" name="ICHARG">     2</i>
  <i type="int" name="IBRION">     2</i>
  <i name="EDIFF">      0.00020000</i>
  <i name="EDIFFG">     -0.03000000</i>
  <i type="int" name="NSW">   800</i>
  <i type="int" name="ISIF">     2</i>
  <i type="int" name="ISYM">     1</i>
  <i name="ENCUT">    400.00000000</i>
  <i name="POTIM">      0.50000000</i>
  <i type="logical" name="LREAL"> F  </i>
  <i type="int" name="ISMEAR">     1</i>
  <i name="SIGMA">      0.20000000</i>
  <i type="logical" name="LWAVE"> F  </i>
  <i type="logical" name="LCHARG"> F  </i>
  <i type="string" name="GGA">PE</i>
  <i type="int" name="IVDW">    11</i>
 </incar>
 <primitive_cell>
  <structure name="primitive_cell" >
   <crystal>
    <varray name="basis" >
     <v>       7.26000023       0.00000000       0.00000000 </v>
     <v>       0.00000000       5.13359547       0.00000000 </v>
     <v>       0.00000000       0.00000000      23.98379135 </v>
    </varray>
    <i name="volume">    893.87360752 </i>
    <varray name="rec_basis" >
     <v>       0.13774104       0.00000000       0.00000000 </v>
     <v>       0.00000000       0.19479525       0.00000000 </v>
     <v>       0.00000000       0.00000000       0.04169483 </v>
    </varray>
   </crystal>
   <varray name="positions" >
    <v>       0.00000000       0.00000000       0.00000000 </v>
    <v>       0.00000000       0.50000000       0.00000000 </v>
    <v>       0.50000000       0.00000000       0.00000000 </v>
    <v>       0.50000000       0.50000000       0.00000000 </v>
    <v>       0.25000000       0.25000000       0.05351109 </v>
    <v>       0.25000000       0.75000000       0.05351109 </v>
    <v>       0.75000000       0.25000000       0.05351109 </v>
    <v>       0.75000000       0.75000000       0.05351109 </v>
    <v>       0.00000000       0.00000000       0.10541371 </v>
    <v>       0.00000000       0.50000000       0.10541371 </v>
    <v>       0.50000000       0.00000000       0.10541371 </v>
    <v>       0.50000000       0.50000000       0.10541371 </v>
    <v>       0.25000000       0.25000000       0.15715010 </v>
    <v>       0.25000000       0.75000000       0.15715010 </v>
    <v>       0.75000000       0.25000000       0.15715010 </v>
    <v>       0.75000000       0.75000000       0.15715010 </v>
    <v>       0.00000000       0.00000000       0.20866257 </v>
    <v>       0.00000000       0.50000000       0.20866257 </v>
    <v>       0.50000000       0.00000000       0.20866257 </v>
    <v>       0.50000000       0.50000000       0.20866257 </v>
    <v>       0.25000000       0.25000000       0.25947965 </v>
    <v>       0.25000000       0.75000000       0.25947965 </v>
    <v>       0.75000000       0.25000000       0.25947965 </v>
    <v>       0.75000000       0.75000000       0.25947965 </v>
    <v>       0.00000000       0.00000000       0.31415415 </v>
    <v>       0.00000000       0.50000000       0.31415415 </v>
    <v>       0.50000000       0.00000000       0.31415415 </v>
    <v>       0.50000000       0.50000000       0.31415415 </v>
    <v>       0.25000000       0.25000000       0.36181799 </v>
    <v>       0.25000000       0.75000000       0.36181799 </v>
    <v>       0.75000000       0.25000000       0.36181799 </v>
    <v>       0.75000000       0.75000000       0.36181799 </v>
    <v>       0.75000000       0.75000000       0.42690792 </v>
    <v>       0.75000000       0.85275482       0.44890201 </v>
   </varray>
  </structure>
  <varray name="primitive_index" >
   <v type="int" >        1 </v>
   <v type="int" >        2 </v>
   <v type="int" >        3 </v>
   <v type="int" >        4 </v>
   <v type="int" >        5 </v>
   <v type="int" >        6 </v>
   <v type="int" >        7 </v>
   <v type="int" >        8 </v>
   <v type="int" >        9 </v>
   <v type="int" >       10 </v>
   <v type="int" >       11 </v>
   <v type="int" >       12 </v>
   <v type="int" >       13 </v>
   <v type="int" >       14 </v>
   <v type="int" >       15 </v>
   <v type="int" >       16 </v>
   <v type="int" >       17 </v>
   <v type="int" >       18 </v>
   <v type="int" >       19 </v>
   <v type="int" >       20 </v>
   <v type="int" >       21 </v>
   <v type="int" >       22 </v>
   <v type="int" >       23 </v>
   <v type="int" >       24 </v>
   <v type="int" >       25 </v>
   <v type="int" >       26 </v>
   <v type="int" >       27 </v>
   <v type="int" >       28 </v>
   <v type="int" >       29 </v>
   <v type="int" >       30 </v>
   <v type="int" >       31 </v>
   <v type="int" >       32 </v>
   <v type="int" >       33 </v>
   <v type="int" >       34 </v>
  </varray>
 </primitive_cell>
 <kpoints>
  <generation param="Monkhorst-Pack">
   <v type="int" name="divisions">       3        3        1 </v>
   <v name="usershift">      0.00000000       0.00000000       0.00000000 </v>
   <v name="genvec1">      0.33333333       0.00000000       0.00000000 </v>
   <v name="genvec2">      0.00000000       0.33333333       0.00000000 </v>
   <v name="genvec3">      0.00000000       0.00000000       1.00000000 </v>
   <v name="shift">      0.00000000       0.00000000       0.00000000 </v>
  </generation>
  <varray name="kpointlist" >
   <v>       0.00000000       0.00000000       0.00000000 </v>
   <v>       0.33333333       0.00000000       0.00000000 </v>
   <v>       0.00000000       0.33333333       0.00000000 </v>
   <v>       0.33333333       0.33333333       0.00000000 </v>
  </varray>
  <varray name="weights" >
   <v>       0.11111111 </v>
   <v>       0.22222222 </v>
   <v>       0.22222222 </v>
   <v>       0.44444444 </v>
  </varray>
 </kpoints>
 <parameters>
  <separator name="general" >
   <i type="string" name="SYSTEM">unknown system</i>
   <i type="logical" name="LCOMPAT"> F  </i>
  </separator>
  <separator name="electronic" >
   <i type="string" name="PREC">normal</i>
   <i name="ENMAX">    400.00000000</i>
   <i name="ENAUG">    586.98000000</i>
   <i name="EDIFF">      0.00020000</i>
   <i type="int" name="IALGO">    38</i>
   <i type="int" name="IWAVPR">    11</i>
   <i type="int" name="NBANDS">   232</i>
   <i type="int" name="NBANDSLOW">    -1</i>
   <i type="int" name="NBANDSHIGH">    -1</i>
   <i name="NELECT">    354.00000000</i>
   <i type="int" name="TURBO">     0</i>
   <i type="int" name="IRESTART">     0</i>
   <i type="int" name="NREBOOT">     0</i>
   <i type="int" name="NMIN">     0</i>
   <i name="EREF">      0.00000000</i>
   <separator name="electronic smearing" >
    <i type="int" name="ISMEAR">     1</i>
    <i name="SIGMA">      0.20000000</i>
    <i name="KSPACING">      0.50000000</i>
    <i type="logical" name="KGAMMA"> T  </i>
    <i type="logical" name="KBLOWUP"> T  </i>
   </separator>
   <separator name="electronic projectors" >
    <i type="logical" name="LREAL"> F  </i>
    <v name="ROPT">      0.00000000      0.00000000</v>
    <i type="int" name="LMAXPAW">  -100</i>
    <i type="int" name="LMAXMIX">     2</i>
    <i type="logical" name="NLSPLINE"> F  </i>
   </separator>
   <separator name="electronic startup" >
    <i type="int" name="ISTART">     0</i>
    <i type="int" name="ICHARG">     2</i>
    <i type="int" name="INIWAV">     1</i>
   </separator>
   <separator name="electronic spin" >
    <i type="int" name="ISPIN">     2</i>
    <i type="logical" name="LNONCOLLINEAR"> F  </i>
    <v name="MAGMOM">      1.00000000      1.00000000      1.00000000      1.00000000      1.00000000      1.00000000      1.00000000      1.00000000      1.00000000      1.00000000      1.00000000      1.00000000      1.00000000      1.00000000      1.00000000      1.00000000      1.00000000      1.00000000      1.00000000      1.00000000
      1.00000000      1.00000000      1.00000000      1.00000000      1.00000000      1.00000000      1.00000000      1.00000000      1.00000000      1.00000000      1.00000000      1.00000000      1.00000000      1.00000000</v>
    <i name="NUPDOWN">     -1.00000000</i>
    <i type="logical" name="LSORBIT"> F  </i>
    <v name="SAXIS">      0.00000000      0.00000000      1.00000000</v>
    <i type="logical" name="LSPIRAL"> F  </i>
    <v name="QSPIRAL">      0.00000000      0.00000000      0.00000000</v>
    <i type="logical" name="LZEROZ"> F  </i>
   </separator>
   <separator name="electronic exchange-correlation" >
    <i type="logical" name="LASPH"> F  </i>
    <i type="logical" name="LMETAGGA"> F  </i>
   </separator>
   <separator name="electronic convergence" >
    <i type="int" name="NELM">    60</i>
    <i type="int" name="NELMDL">    -5</i>
    <i type="int" name="NELMIN">     2</i>
    <i name="ENINI">    400.00000000</i>
    <separator name="electronic convergence detail" >
     <i type="logical" name="LDIAG"> T  </i>
     <i type="logical" name="LSUBROT"> F  </i>
     <i name="WEIMIN">      0.00100000</i>
     <i name="EBREAK">      0.00000022</i>
     <i name="DEPER">      0.30000000</i>
     <i type="int" name="NRMM">     4</i>
     <i name="TIME">      0.40000000</i>
    </separator>
   </separator>
   <separator name="electronic mixer" >
    <i name="AMIX">      0.40000000</i>
    <i name="BMIX">      1.00000000</i>
    <i name="AMIN">      0.10000000</i>
    <i name="AMIX_MAG">      1.60000000</i>
    <i name="BMIX_MAG">      1.00000000</i>
    <separator name="electronic mixer details" >
     <i type="int" name="IMIX">     4</i>
     <i type="logical" name="MIXFIRST"> F  </i>
     <i type="int" name="MAXMIX">   -45</i>
     <i name="WC">    100.00000000</i>
     <i type="int" name="INIMIX">     1</i>
     <i type="int" name="MIXPRE">     1</i>
     <i type="int" name="MREMOVE">     5</i>
    </separator>
   </separator>
   <separator name="electronic dipolcorrection" >
    <i type="logical" name="LDIPOL"> F  </i>
    <i type="logical" name="LMONO"> F  </i>
    <i type="int" name="IDIPOL">     0</i>
    <i name="EPSILON">      1.00000000</i>
    <v name="DIPOL">   -100.00000000   -100.00000000   -100.00000000</v>
    <i name="EFIELD">      0.00000000</i>
   </separator>
  </separator>
  <separator name="grids" >
   <i type="int" name="NGX">    36</i>
   <i type="int" name="NGY">    28</i>
   <i type="int" name="NGZ">   120</i>
   <i type="int" name="NGXF">    72</i>
   <i type="int" name="NGYF">    56</i>
   <i type="int" name="NGZF">   240</i>
   <i type="logical" name="ADDGRID"> F  </i>
  </separator>
  <separator name="ionic" >
   <i type="int" name="NSW">   800</i>
   <i type="int" name="IBRION">     2</i>
   <i type="int" name="MDALGO">     0</i>
   <i type="int" name="ISIF">     2</i>
   <i name="PSTRESS">      0.00000000</i>
   <i name="EDIFFG">     -0.03000000</i>
   <i type="int" name="NFREE">     1</i>
   <i name="POTIM">      0.50000000</i>
   <i name="SMASS">     -3.00000000</i>
   <i name="SCALEE">      1.00000000</i>
  </separator>
  <separator name="ionic md" >
   <i name="TEBEG">      0.00010000</i>
   <i name="TEEND">      0.00010000</i>
   <i type="int" name="NBLOCK">     1</i>
   <i type="int" name="KBLOCK">   800</i>
   <i type="int" name="NPACO">   256</i>
   <i name="APACO">     10.00000000</i>
  </separator>
  <separator name="symmetry" >
   <i type="int" name="ISYM">     1</i>
   <i name="SYMPREC">      0.00001000</i>
  </separator>
  <separator name="dos" >
   <i type="int" name="LORBIT">     0</i>
   <v name="RWIGS">     -1.00000000     -1.00000000</v>
   <i type="int" name="NEDOS">   301</i>
   <i name="EMIN">     10.00000000</i>
   <i name="EMAX">    -10.00000000</i>
   <i name="EFERMI">      0.00000000</i>
  </separator>
  <separator name="writing" >
   <i type="int" name="NWRITE">     2</i>
   <i type="logical" name="LWAVE"> F  </i>
   <i type="logical" name="LDOWNSAMPLE"> F  </i>
   <i type="logical" name="LCHARG"> F  </i>
   <i type="logical" name="LPARD"> F  </i>
   <i type="logical" name="LVTOT"> F  </i>
   <i type="logical" name="LVHAR"> F  </i>
   <i type="logical" name="LELF"> F  </i>
   <i type="logical" name="LOPTICS"> F  </i>
   <v name="STM">      0.00000000      0.00000000      0.00000000      0.00000000      0.00000000      0.00000000      0.00000000</v>
  </separator>
  <separator name="performance" >
   <i type="int" name="NPAR">     4</i>
   <i type="int" name="NSIM">     4</i>
   <i type="int" name="NBLK">    -1</i>
   <i type="logical" name="LPLANE"> T  </i>
   <i type="logical" name="LSCALAPACK"> T  </i>
   <i type="logical" name="LSCAAWARE"> F  </i>
   <i type="logical" name="LSCALU"> F  </i>
   <i type="logical" name="LASYNC"> F  </i>
   <i type="logical" name="LORBITALREAL"> F  </i>
  </separator>
  <separator name="miscellaneous" >
   <i type="int" name="IDIOT">     3</i>
   <i type="int" name="PHON_NSTRUCT">    -1</i>
   <i type="logical" name="LMUSIC"> F  </i>
   <v name="POMASS">     63.54600000      1.00000000</v>
   <v name="DARWINR">      0.00000000      0.00000000</v>
   <v name="DARWINV">      1.00000000      1.00000000</v>
   <i type="logical" name="LCORR"> T  </i>
  </separator>
  <i type="logical" name="GGA_COMPAT"> T  </i>
  <i type="logical" name="LBERRY"> F  </i>
  <i type="int" name="ICORELEVEL">     0</i>
  <i type="logical" name="LDAU"> F  </i>
  <i type="int" name="I_CONSTRAINED_M">     0</i>
  <separator name="electronic exchange-correlation" >
   <i type="string" name="GGA">PE</i>
   <i type="int" name="VOSKOWN">     0</i>
   <i type="logical" name="LHFCALC"> F  </i>
   <i type="string" name="PRECFOCK"></i>
   <i type="logical" name="LSYMGRAD"> F  </i>
   <i type="logical" name="LHFONE"> F  </i>
   <i type="logical" name="LRHFCALC"> F  </i>
   <i type="logical" name="LTHOMAS"> F  </i>
   <i type="logical" name="LMODELHF"> F  </i>
   <i type="logical" name="LFOCKACE"> F  </i>
   <i name="ENCUT4O">     -1.00000000</i>
   <i type="int" name="EXXOEP">     0</i>
   <i type="int" name="FOURORBIT">     0</i>
   <i name="AEXX">      0.00000000</i>
   <i name="HFALPHA">      0.00000000</i>
   <i name="MCALPHA">      0.00000000</i>
   <i name="ALDAX">      1.00000000</i>
   <i name="AGGAX">      1.00000000</i>
   <i name="ALDAC">      1.00000000</i>
   <i name="AGGAC">      1.00000000</i>
   <i type="int" name="NKREDX">     1</i>
   <i type="int" name="NKREDY">     1</i>
   <i type="int" name="NKREDZ">     1</i>
   <i type="logical" name="SHIFTRED"> F  </i>
   <i type="logical" name="ODDONLY"> F  </i>
   <i type="logical" name="EVENONLY"> F  </i>
   <i type="int" name="LMAXFOCK">     0</i>
   <i type="int" name="NMAXFOCKAE">     0</i>
   <i type="logical" name="LFOCKAEDFT"> F  </i>
   <i name="HFSCREEN">      0.00000000</i>
   <i name="HFSCREENC">      0.00000000</i>
   <i type="int" name="NBANDSGWLOW">     0</i>
  </separator>
  <separator name="vdW DFT" >
   <i type="logical" name="LUSE_VDW"> F  </i>
   <i name="Zab_VDW">     -0.84910000</i>
   <i name="PARAM1">      0.12340000</i>
   <i name="PARAM2">      1.00000000</i>
   <i name="PARAM3">      0.00000000</i>
  </separator>
  <separator name="model GW" >
   <i type="int" name="MODEL_GW">     0</i>
   <i name="MODEL_EPS0">     15.77424013</i>
   <i name="MODEL_ALPHA">      1.00000000</i>
  </separator>
  <separator name="linear response parameters" >
   <i type="logical" name="LEPSILON"> F  </i>
   <i type="logical" name="LRPA"> F  </i>
   <i type="logical" name="LNABLA"> F  </i>
   <i type="logical" name="LVEL"> F  </i>
   <i name="CSHIFT">      0.10000000</i>
   <i name="OMEGAMAX">     -1.00000000</i>
   <i name="DEG_THRESHOLD">      0.00200000</i>
   <i name="RTIME">     -0.10000000</i>
   <i name="WPLASMAI">      0.00000000</i>
   <v name="DFIELD">      0.00000000      0.00000000      0.00000000</v>
   <v name="WPLASMA">      0.00000000      0.00000000      0.00000000      0.00000000      0.00000000      0.00000000      0.00000000      0.00000000      0.00000000</v>
  </separator>
  <separator name="orbital magnetization" >
   <i type="logical" name="NUCIND"> F  </i>
   <v name="MAGPOS">      0.00000000      0.00000000      0.00000000</v>
   <i type="logical" name="LNICSALL"> T  </i>
   <i type="logical" name="ORBITALMAG"> F  </i>
   <i type="logical" name="LMAGBLOCH"> F  </i>
   <i type="logical" name="LCHIMAG"> F  </i>
   <i type="logical" name="LGAUGE"> T  </i>
   <i type="int" name="MAGATOM">     0</i>
   <v name="MAGDIPOL">      0.00000000      0.00000000      0.00000000</v>
   <v name="AVECCONST">      0.00000000      0.00000000      0.00000000</v>
  </separator>
  <separator name="response functions" >
   <i type="logical" name="LFINITE_TEMPERATURE"> F  </i>
   <i type="logical" name="LADDER"> F  </i>
   <i type="logical" name="LRPAFORCE"> F  </i>
   <i type="logical" name="LFXC"> F  </i>
   <i type="logical" name="LHARTREE"> T  </i>
   <i type="int" name="IBSE">     0</i>
   <v type="int" name="KPOINT">    -1     0     0     0</v>
   <i type="logical" name="LTCTC"> F  </i>
   <i type="logical" name="LTCTE"> F  </i>
   <i type="logical" name="LTETE"> F  </i>
   <i type="logical" name="LTRIPLET"> F  </i>
   <i type="logical" name="LFXCEPS"> F  </i>
   <i type="logical" name="LFXHEG"> F  </i>
   <i type="int" name="NATURALO">     2</i>
   <i type="logical" name="LHOLEGF"> F  </i>
   <i type="logical" name="L2ORDER"> F  </i>
   <i type="logical" name="LDMP1"> F  </i>
   <i type="logical" name="LMP2LT"> F  </i>
   <i type="logical" name="LSMP2LT"> F  </i>
   <i type="logical" name="LGWLF"> F  </i>
   <i name="ENCUTGW">     -2.00000000</i>
   <i name="ENCUTGWSOFT">     -2.00000000</i>
   <i name="ENCUTLF">     -1.00000000</i>
   <i type="logical" name="LESF_SPLINES"> F  </i>
   <i type="int" name="LMAXMP2">    -1</i>
   <i name="SCISSOR">      0.00000000</i>
   <i type="int" name="NOMEGA">     0</i>
   <i type="int" name="NOMEGAR">     0</i>
   <i type="int" name="NBANDSGW">    -1</i>
   <i type="int" name="NBANDSO">    -1</i>
   <i type="int" name="NBANDSV">    -1</i>
   <i type="int" name="NELMGW">     1</i>
   <i type="int" name="NELMHF">     1</i>
   <i type="int" name="DIM">     3</i>
   <i type="int" name="IESPILON">     4</i>
   <i type="int" name="ANTIRES">     0</i>
   <i name="OMEGAMAX">    -30.00000000</i>
   <i name="OMEGAMIN">    -30.00000000</i>
   <i name="OMEGATL">   -200.00000000</i>
   <i type="int" name="OMEGAGRID">     0</i>
   <i name="CSHIFT">     -0.10000000</i>
   <i type="logical" name="LSELFENERGY"> F  </i>
   <i type="logical" name="LSPECTRAL"> F  </i>
   <i type="logical" name="LSPECTRALGW"> F  </i>
   <i type="logical" name="LSINGLES"> F  </i>
   <i type="logical" name="LFERMIGW"> F  </i>
   <i type="logical" name="ODDONLYGW"> F  </i>
   <i type="logical" name="EVENONLYGW"> F  </i>
   <i type="int" name="NKREDLFX">     1</i>
   <i type="int" name="NKREDLFY">     1</i>
   <i type="int" name="NKREDLFZ">     1</i>
   <i type="int" name="MAXMEM">  2800</i>
   <i type="int" name="TELESCOPE">     0</i>
   <i type="int" name="NTAUPAR">    -1</i>
   <i type="int" name="NOMEGAPAR">    -1</i>
   <i name="DAMP_NEWTON">      0.80000001</i>
   <i name="LAMBDA">      1.00000000</i>
  </separator>
  <separator name="External order field" >
   <i name="OFIELD_KAPPA">      0.00000000</i>
   <v name="OFIELD_K">      0.00000000      0.00000000      0.00000000</v>
   <i name="OFIELD_Q6_NEAR">      0.00000000</i>
   <i name="OFIELD_Q6_FAR">      0.00000000</i>
   <i name="OFIELD_A">      0.00000000</i>
  </separator>
  <separator name="optional k-points parameters" >
   <i type="int" name="KPOINTS_OPT_MODE">     1</i>
   <i type="logical" name="LKPOINTS_OPT"> F  </i>
  </separator>
 </parameters>
 <atominfo>
  <atoms>      34 </atoms>
  <types>       2 </types>
  <array name="atoms" >
   <dimension dim="1">ion</dimension>
   <field type="string">element</field>
   <field type="int">atomtype</field>
   <set>
    <rc><c>Cu</c><c>   1</c></rc>
    <rc><c>Cu</c><c>   1</c></rc>
    <rc><c>Cu</c><c>   1</c></rc>
    <rc><c>Cu</c><c>   1</c></rc>
    <rc><c>Cu</c><c>   1</c></rc>
    <rc><c>Cu</c><c>   1</c></rc>
    <rc><c>Cu</c><c>   1</c></rc>
    <rc><c>Cu</c><c>   1</c></rc>
    <rc><c>Cu</c><c>   1</c></rc>
    <rc><c>Cu</c><c>   1</c></rc>
    <rc><c>Cu</c><c>   1</c></rc>
    <rc><c>Cu</c><c>   1</c></rc>
    <rc><c>Cu</c><c>   1</c></rc>
    <rc><c>Cu</c><c>   1</c></rc>
    <rc><c>Cu</c><c>   1</c></rc>
    <rc><c>Cu</c><c>   1</c></rc>
    <rc><c>Cu</c><c>   1</c></rc>
    <rc><c>Cu</c><c>   1</c></rc>
    <rc><c>Cu</c><c>   1</c></rc>
    <rc><c>Cu</c><c>   1</c></rc>
    <rc><c>Cu</c><c>   1</c></rc>
    <rc><c>Cu</c><c>   1</c></rc>
    <rc><c>Cu</c><c>   1</c></rc>
    <rc><c>Cu</c><c>   1</c></rc>
    <rc><c>Cu</c><c>   1</c></rc>
    <rc><c>Cu</c><c>   1</c></rc>
    <rc><c>Cu</c><c>   1</c></rc>
    <rc><c>Cu</c><c>   1</c></rc>
    <rc><c>Cu</c><c>   1</c></rc>
    <rc><c>Cu</c><c>   1</c></rc>
    <rc><c>Cu</c><c>   1</c></rc>
    <rc><c>Cu</c><c>   1</c></rc>
    <rc><c>H </c><c>   2</c></rc>
    <rc><c>H </c><c>   2</c></rc>
   </set>
  </array>
  <array name="atomtypes" >
   <dimension dim="1">type</dimension>
   <field type="int">atomspertype</field>
   <field type="string">element</field>
   <field>mass</field>
   <field>valence</field>
   <field type="string">pseudopotential</field>
   <set>
    <rc><c>  32</c><c>Cu</c><c>     63.54600000</c><c>     11.00000000</c><c>  PAW_PBE Cu 22Jun2005                  </c></rc>
    <rc><c>   2</c><c>H </c><c>      1.00000000</c><c>      1.00000000</c><c>  PAW_PBE H 15Jun2001                   </c></rc>
   </set>
  </array>
 </atominfo>
 <structure name="initialpos" >
  <crystal>
   <varray name="basis" >
    <v>       7.26000023       0.00000000       0.00000000 </v>
    <v>       0.00000000       5.13359547       0.00000000 </v>
    <v>       0.00000000       0.00000000      23.98379135 </v>
   </varray>
   <i name="volume">    893.87360752 </i>
   <varray name="rec_basis" >
    <v>       0.13774104       0.00000000       0.00000000 </v>
    <v>       0.00000000       0.19479525       0.00000000 </v>
    <v>       0.00000000       0.00000000       0.04169483 </v>
   </varray>
  </crystal>
  <varray name="positions" >
   <v>       0.00000000       0.00000000       0.00000000 </v>
   <v>       0.00000000       0.50000000       0.00000000 </v>
   <v>       0.50000000       0.00000000       0.00000000 </v>
   <v>       0.50000000       0.50000000       0.00000000 </v>
   <v>       0.25000000       0.25000000       0.05351109 </v>
   <v>       0.25000000       0.75000000       0.05351109 </v>
   <v>       0.75000000       0.25000000       0.05351109 </v>
   <v>       0.75000000       0.75000000       0.05351109 </v>
   <v>       0.00000000       0.00000000       0.10541371 </v>
   <v>       0.00000000       0.50000000       0.10541371 </v>
   <v>       0.50000000       0.00000000       0.10541371 </v>
   <v>       0.50000000       0.50000000       0.10541371 </v>
   <v>       0.25000000       0.25000000       0.15715010 </v>
   <v>       0.25000000       0.75000000       0.15715010 </v>
   <v>       0.75000000       0.25000000       0.15715010 </v>
   <v>       0.75000000       0.75000000       0.15715010 </v>
   <v>       0.00000000       0.00000000       0.20866257 </v>
   <v>       0.00000000       0.50000000       0.20866257 </v>
   <v>       0.50000000       0.00000000       0.20866257 </v>
   <v>       0.50000000       0.50000000       0.20866257 </v>
   <v>       0.25000000       0.25000000       0.25947965 </v>
   <v>       0.25000000       0.75000000       0.25947965 </v>
   <v>       0.75000000       0.25000000       0.25947965 </v>
   <v>       0.75000000       0.75000000       0.25947965 </v>
   <v>       0.00000000       0.00000000       0.31415415 </v>
   <v>       0.00000000       0.50000000       0.31415415 </v>
   <v>       0.50000000       0.00000000       0.31415415 </v>
   <v>       0.50000000       0.50000000       0.31415415 </v>
   <v>       0.25000000       0.25000000       0.36181799 </v>
   <v>       0.25000000       0.75000000       0.36181799 </v>
   <v>       0.75000000       0.25000000       0.36181799 </v>
   <v>       0.75000000       0.75000000       0.36181799 </v>
   <v>       0.75000000       0.75000000       0.42690792 </v>
   <v>       0.75000000       0.85275482       0.44890201 </v>
  </varray>
  <varray name="selective"  type="logical" >
   <v type="logical" >  F  F  F </v>
   <v type="logical" >  F  F  F </v>
   <v type="logical" >  F  F  F </v>
   <v type="logical" >  F  F  F </v>
   <v type="logical" >  F  F  F </v>
   <v type="logical" >  F  F  F </v>
   <v type="logical" >  F  F  F </v>
   <v type="logical" >  F  F  F </v>
   <v type="logical" >  F  F  F </v>
   <v type="logical" >  F  F  F </v>
   <v type="logical" >  F  F  F </v>
   <v type="logical" >  F  F  F </v>
   <v type="logical" >  T  T  T </v>
   <v type="logical" >  T  T  T </v>
   <v type="logical" >  T  T  T </v>
   <v type="logical" >  T  T  T </v>
   <v type="logical" >  T  T  T </v>
   <v type="logical" >  T  T  T </v>
   <v type="logical" >  T  T  T </v>
   <v type="logical" >  T  T  T </v>
   <v type="logical" >  T  T  T </v>
   <v type="logical" >  T  T  T </v>
   <v type="logical" >  T  T  T </v>
   <v type="logical" >  T  T  T </v>
   <v type="logical" >  T  T  T </v>
   <v type="logical" >  T  T  T </v>
   <v type="logical" >  T  T  T </v>
   <v type="logical" >  T  T  T </v>
   <v type="logical" >  T  T  T </v>
   <v type="logical" >  T  T  T </v>
   <v type="logical" >  T  T  T </v>
   <v type="logical" >  T  T  T </v>
   <v type="logical" >  T  T  T </v>
   <v type="logical" >  T  T  T </v>
  </varray>
  <nose>
   <v>      -3.00000000       0.00000000       0.00010000       0.00010000 </v>
  </nose>
 </structure>
 <calculation>
  <scstep>
   <time name="dav">    7.58    7.64</time>
   <time name="total">    7.66    7.73</time>
   <energy>
    <i name="alphaZ">    844.48149002 </i>
    <i name="ewald"> 173078.25412910 </i>
    <i name="hartreedc">-216213.41725937 </i>
    <i name="XCdc">   1468.64137776 </i>
    <i name="pawpsdc">  39302.70853331 </i>
    <i name="pawaedc"> -42689.07521165 </i>
    <i name="eentropy">     -0.00069141 </i>
    <i name="bandstr">   2944.82701330 </i>
    <i name="atom">  44535.60175172 </i>
    <i name="e_fr_energy">   3272.02113279 </i>
    <i name="e_wo_entrp">   3272.02182419 </i>
    <i name="e_0_energy">   3272.02136326 </i>
   </energy>
  </scstep>
  <scstep>
   <time name="dav">    7.47    7.54</time>
   <time name="total">    7.48    7.54</time>
   <energy>
    <i name="e_fr_energy">    383.54968711 </i>
    <i name="e_wo_entrp">    383.53556425 </i>
    <i name="e_0_energy">    383.54497949 </i>
   </energy>
  </scstep>
  <scstep>
   <time name="dav">    7.44    7.50</time>
   <time name="total">    7.45    7.51</time>
   <energy>
    <i name="e_fr_energy">   -100.86699953 </i>
    <i name="e_wo_entrp">   -100.89163654 </i>
    <i name="e_0_energy">   -100.87521187 </i>
   </energy>
  </scstep>
  <scstep>
   <time name="dav">    8.22    8.29</time>
   <time name="total">    8.22    8.29</time>
   <energy>
    <i name="e_fr_energy">   -134.12847275 </i>
    <i name="e_wo_entrp">   -134.15256330 </i>
    <i name="e_0_energy">   -134.13650293 </i>
   </energy>
  </scstep>
  <scstep>
   <time name="dav">    8.15    8.22</time>
   <time name="total">    8.54    8.61</time>
   <energy>
    <i name="e_fr_energy">   -134.91495400 </i>
    <i name="e_wo_entrp">   -134.94046228 </i>
    <i name="e_0_energy">   -134.92345676 </i>
   </energy>
  </scstep>
  <scstep>
   <time name="dav">    8.01    8.08</time>
   <time name="total">    8.46    8.53</time>
   <energy>
    <i name="e_fr_energy">   -107.44889065 </i>
    <i name="e_wo_entrp">   -107.44860890 </i>
    <i name="e_0_energy">   -107.44879673 </i>
   </energy>
  </scstep>
  <scstep>
   <time name="dav">    8.04    8.10</time>
   <time name="total">    8.47    8.54</time>
   <energy>
    <i name="e_fr_energy">    -94.47968387 </i>
    <i name="e_wo_entrp">    -94.46988018 </i>
    <i name="e_0_energy">    -94.47641597 </i>
   </energy>
  </scstep>
  <scstep>
   <time name="dav">    8.35    8.42</time>
   <time name="total">    8.80    8.87</time>
   <energy>
    <i name="e_fr_energy">    -93.41582174 </i>
    <i name="e_wo_entrp">    -93.42228914 </i>
    <i name="e_0_energy">    -93.41797754 </i>
   </energy>
  </scstep>
  <scstep>
   <time name="dav">    9.61    9.69</time>
   <time name="total">   10.04   10.12</time>
   <energy>
    <i name="e_fr_energy">    -91.52048982 </i>
    <i name="e_wo_entrp">    -91.51803201 </i>
    <i name="e_0_energy">    -91.51967055 </i>
   </energy>
  </scstep>
  <scstep>
   <time name="dav">    9.59    9.67</time>
   <time name="total">   10.04   10.12</time>
   <energy>
    <i name="e_fr_energy">    -93.14110178 </i>
    <i name="e_wo_entrp">    -93.14784199 </i>
    <i name="e_0_energy">    -93.14334852 </i>
   </energy>
  </scstep>
  <scstep>
   <time name="dav">    9.96   10.04</time>
   <time name="total">   10.40   10.48</time>
   <energy>
    <i name="e_fr_energy">    -93.03148178 </i>
    <i name="e_wo_entrp">    -93.01163665 </i>
    <i name="e_0_energy">    -93.02486673 </i>
   </energy>
  </scstep>
  <scstep>
   <time name="dav">    9.63    9.71</time>
   <time name="total">   10.08   10.17</time>
   <energy>
    <i name="e_fr_energy">    -94.75784223 </i>
    <i name="e_wo_entrp">    -94.72148572 </i>
    <i name="e_0_energy">    -94.74572340 </i>
   </energy>
  </scstep>
  <scstep>
   <time name="dav">    9.23    9.30</time>
   <time name="total">    9.68    9.76</time>
   <energy>
    <i name="e_fr_energy">   -100.01666666 </i>
    <i name="e_wo_entrp">    -99.99886755 </i>
    <i name="e_0_energy">   -100.01073362 </i>
   </energy>
  </scstep>
  <scstep>
   <time name="dav">    8.89    8.96</time>
   <time name="total">    9.34    9.42</time>
   <energy>
    <i name="e_fr_energy">   -105.24843811 </i>
    <i name="e_wo_entrp">   -105.24354722 </i>
    <i name="e_0_energy">   -105.24680781 </i>
   </energy>
  </scstep>
  <scstep>
   <time name="dav">    8.97    9.04</time>
   <time name="total">    9.42    9.50</time>
   <energy>
    <i name="e_fr_energy">   -110.36657783 </i>
    <i name="e_wo_entrp">   -110.39634645 </i>
    <i name="e_0_energy">   -110.37650070 </i>
   </energy>
  </scstep>
  <scstep>
   <time name="dav">    8.03    8.10</time>
   <time name="total">    8.49    8.56</time>
   <energy>
    <i name="e_fr_energy">   -112.87059733 </i>
    <i name="e_wo_entrp">   -112.91772182 </i>
    <i name="e_0_energy">   -112.88630549 </i>
   </energy>
  </scstep>
  <scstep>
   <time name="dav">    8.07    8.14</time>
   <time name="total">    8.53    8.60</time>
   <energy>
    <i name="e_fr_energy">   -114.27389167 </i>
    <i name="e_wo_entrp">   -114.32438309 </i>
    <i name="e_0_energy">   -114.29072214 </i>
   </energy>
  </scstep>
  <scstep>
   <time name="dav">    8.52    8.59</time>
   <time name="total">    8.96    9.03</time>
   <energy>
    <i name="e_fr_energy">   -115.91432722 </i>
    <i name="e_wo_entrp">   -115.94891248 </i>
    <i name="e_0_energy">   -115.92585564 </i>
   </energy>
  </scstep>
  <scstep>
   <time name="dav">    8.66    8.73</time>
   <time name="total">    9.11    9.19</time>
   <energy>
    <i name="e_fr_energy">   -116.61828560 </i>
    <i name="e_wo_entrp">   -116.65031114 </i>
    <i name="e_0_energy">   -116.62896078 </i>
   </energy>
  </scstep>
  <scstep>
   <time name="dav">    8.29    8.36</time>
   <time name="total">    8.73    8.80</time>
   <energy>
    <i name="e_fr_energy">   -116.90887057 </i>
    <i name="e_wo_entrp">   -116.94165891 </i>
    <i name="e_0_energy">   -116.91980002 </i>
   </energy>
  </scstep>
  <scstep>
   <time name="dav">    8.38    8.45</time>
   <time name="total">    8.83    8.90</time>
   <energy>
    <i name="e_fr_energy">   -117.12507089 </i>
    <i name="e_wo_entrp">   -117.15905154 </i>
    <i name="e_0_energy">   -117.13639778 </i>
   </energy>
  </scstep>
  <scstep>
   <time name="dav">    8.45    8.52</time>
   <time name="total">    8.91    8.99</time>
   <energy>
    <i name="e_fr_energy">   -117.41488287 </i>
    <i name="e_wo_entrp">   -117.44971630 </i>
    <i name="e_0_energy">   -117.42649401 </i>
   </energy>
  </scstep>
  <scstep>
   <time name="dav">    8.29    8.35</time>
   <time name="total">    8.74    8.81</time>
   <energy>
    <i name="e_fr_energy">   -117.56479763 </i>
    <i name="e_wo_entrp">   -117.60052478 </i>
    <i name="e_0_energy">   -117.57670668 </i>
   </energy>
  </scstep>
  <scstep>
   <time name="dav">    7.85    7.92</time>
   <time name="total">    8.31    8.38</time>
   <energy>
    <i name="e_fr_energy">   -117.68299442 </i>
    <i name="e_wo_entrp">   -117.71861480 </i>
    <i name="e_0_energy">   -117.69486788 </i>
   </energy>
  </scstep>
  <scstep>
   <time name="dav">    9.24    9.32</time>
   <time name="total">    9.70    9.78</time>
   <energy>
    <i name="e_fr_energy">   -117.85269776 </i>
    <i name="e_wo_entrp">   -117.88868300 </i>
    <i name="e_0_energy">   -117.86469284 </i>
   </energy>
  </scstep>
  <scstep>
   <time name="dav">    9.34    9.42</time>
   <time name="total">    9.81    9.89</time>
   <energy>
    <i name="e_fr_energy">   -118.00455303 </i>
    <i name="e_wo_entrp">   -118.04111070 </i>
    <i name="e_0_energy">   -118.01673892 </i>
   </energy>
  </scstep>
  <scstep>
   <time name="dav">    7.97    8.03</time>
   <time name="total">    8.42    8.49</time>
   <energy>
    <i name="e_fr_energy">   -118.07231009 </i>
    <i name="e_wo_entrp">   -118.10865599 </i>
    <i name="e_0_energy">   -118.08442539 </i>
   </energy>
  </scstep>
  <scstep>
   <time name="dav">    6.57    6.62</time>
   <time name="total">    7.01    7.07</time>
   <energy>
    <i name="e_fr_energy">   -118.09949893 </i>
    <i name="e_wo_entrp">   -118.13583299 </i>
    <i name="e_0_energy">   -118.11161028 </i>
   </energy>
  </scstep>
  <scstep>
   <time name="dav">    6.75    6.81</time>
   <time name="total">    7.21    7.27</time>
   <energy>
    <i name="e_fr_energy">   -118.10819521 </i>
    <i name="e_wo_entrp">   -118.14476606 </i>
    <i name="e_0_energy">   -118.12038549 </i>
   </energy>
  </scstep>
  <scstep>
   <time name="dav">    5.73    5.77</time>
   <time name="total">    6.19    6.24</time>
   <energy>
    <i name="e_fr_energy">   -118.11051576 </i>
    <i name="e_wo_entrp">   -118.14691242 </i>
    <i name="e_0_energy">   -118.12264798 </i>
   </energy>
  </scstep>
  <scstep>
   <time name="dav">    5.67    5.72</time>
   <time name="total">    6.13    6.18</time>
   <energy>
    <i name="e_fr_energy">   -118.11185743 </i>
    <i name="e_wo_entrp">   -118.14821894 </i>
    <i name="e_0_energy">   -118.12397793 </i>
   </energy>
  </scstep>
  <scstep>
   <time name="dav">    5.58    5.63</time>
   <time name="total">    5.67    5.71</time>
   <energy>
    <i name="alphaZ">    844.48149002 </i>
    <i name="ewald"> 173078.25412910 </i>
    <i name="hartreedc">-215850.50872791 </i>
    <i name="XCdc">   1431.99771972 </i>
    <i name="pawpsdc">  41977.85967423 </i>
    <i name="pawaedc"> -45426.21261227 </i>
    <i name="eentropy">      0.03642118 </i>
    <i name="bandstr">   -709.62187561 </i>
    <i name="atom">  44535.60175172 </i>
    <i name="e_fr_energy">   -118.11202981 </i>
    <i name="e_wo_entrp">   -118.14845099 </i>
    <i name="e_0_energy">   -118.12417020 </i>
   </energy>
  </scstep>
  <structure>
   <crystal>
    <varray name="basis" >
     <v>       7.26000023       0.00000000       0.00000000 </v>
     <v>       0.00000000       5.13359547       0.00000000 </v>
     <v>       0.00000000       0.00000000      23.98379135 </v>
    </varray>
    <i name="volume">    893.87360752 </i>
    <varray name="rec_basis" >
     <v>       0.13774104       0.00000000       0.00000000 </v>
     <v>       0.00000000       0.19479525       0.00000000 </v>
     <v>       0.00000000       0.00000000       0.04169483 </v>
    </varray>
   </crystal>
   <varray name="positions" >
    <v>       0.00000000       0.00000000       0.00000000 </v>
    <v>       0.00000000       0.50000000       0.00000000 </v>
    <v>       0.50000000       0.00000000       0.00000000 </v>
    <v>       0.50000000       0.50000000       0.00000000 </v>
    <v>       0.25000000       0.25000000       0.05351109 </v>
    <v>       0.25000000       0.75000000       0.05351109 </v>
    <v>       0.75000000       0.25000000       0.05351109 </v>
    <v>       0.75000000       0.75000000       0.05351109 </v>
    <v>       0.00000000       0.00000000       0.10541371 </v>
    <v>       0.00000000       0.50000000       0.10541371 </v>
    <v>       0.50000000       0.00000000       0.10541371 </v>
    <v>       0.50000000       0.50000000       0.10541371 </v>
    <v>       0.25000000       0.25000000       0.15715010 </v>
    <v>       0.25000000       0.75000000       0.15715010 </v>
    <v>       0.75000000       0.25000000       0.15715010 </v>
    <v>       0.75000000       0.75000000       0.15715010 </v>
    <v>       0.00000000       0.00000000       0.20866257 </v>
    <v>       0.00000000       0.50000000       0.20866257 </v>
    <v>       0.50000000       0.00000000       0.20866257 </v>
    <v>       0.50000000       0.50000000       0.20866257 </v>
    <v>       0.25000000       0.25000000       0.25947965 </v>
    <v>       0.25000000       0.75000000       0.25947965 </v>
    <v>       0.75000000       0.25000000       0.25947965 </v>
    <v>       0.75000000       0.75000000       0.25947965 </v>
    <v>       0.00000000       0.00000000       0.31415415 </v>
    <v>       0.00000000       0.50000000       0.31415415 </v>
    <v>       0.50000000       0.00000000       0.31415415 </v>
    <v>       0.50000000       0.50000000       0.31415415 </v>
    <v>       0.25000000       0.25000000       0.36181799 </v>
    <v>       0.25000000       0.75000000       0.36181799 </v>
    <v>       0.75000000       0.25000000       0.36181799 </v>
    <v>       0.75000000       0.75000000       0.36181799 </v>
    <v>       0.75000000       0.75000000       0.42690792 </v>
    <v>       0.75000000       0.85275482       0.44890201 </v>
   </varray>
  </structure>
  <varray name="forces" >
   <v>       0.02425525      -0.01200577       0.44390262 </v>
   <v>       0.01754935       0.01212201       0.44631293 </v>
   <v>      -0.02425525      -0.01200577       0.44390262 </v>
   <v>      -0.01754935       0.01212201       0.44631293 </v>
   <v>       0.00000000      -0.01004026      -0.47244328 </v>
   <v>       0.00000000       0.00994346      -0.49139463 </v>
   <v>       0.00000000       0.00309113      -0.42654946 </v>
   <v>       0.00000000      -0.00353685      -0.43227684 </v>
   <v>      -0.00194566       0.00051659      -0.02189727 </v>
   <v>       0.00291669      -0.00014713      -0.02440179 </v>
   <v>       0.00194566       0.00051659      -0.02189727 </v>
   <v>      -0.00291669      -0.00014713      -0.02440179 </v>
   <v>       0.00000000      -0.00377243      -0.00684303 </v>
   <v>       0.00000000       0.00426923       0.00096409 </v>
   <v>       0.00000000      -0.00011946       0.05651146 </v>
   <v>       0.00000000       0.00136038       0.03803202 </v>
   <v>       0.01605063       0.00687742      -0.00162177 </v>
   <v>       0.00246049      -0.00761164      -0.01103296 </v>
   <v>      -0.01605063       0.00687742      -0.00162177 </v>
   <v>      -0.00246049      -0.00761164      -0.01103296 </v>
   <v>       0.00000000       0.00666827      -0.02792776 </v>
   <v>       0.00000000      -0.00649568      -0.01113233 </v>
   <v>       0.00000000      -0.03566228       0.06079752 </v>
   <v>       0.00000000       0.02559545       0.10649267 </v>
   <v>       0.05250699       0.02748302      -0.06385382 </v>
   <v>       0.02795702      -0.01819805       0.00254751 </v>
   <v>      -0.05250699       0.02748302      -0.06385382 </v>
   <v>      -0.02795702      -0.01819805       0.00254751 </v>
   <v>       0.00000000       0.00083305       0.00983074 </v>
   <v>       0.00000000      -0.00194521      -0.01777035 </v>
   <v>       0.00000000       0.12002480      -0.15228030 </v>
   <v>       0.00000000       0.09764359      -1.06050812 </v>
   <v>       0.00000000      -1.14156947       0.62686344 </v>
   <v>       0.00000000       0.91563940       0.65972324 </v>
  </varray>
  <varray name="stress" >
   <v>     -32.06902380       0.00000000       0.00000000 </v>
   <v>       0.00000000     -27.75148932       0.20191301 </v>
   <v>       0.00000000       0.20191309      -3.73277890 </v>
  </varray>
  <energy>
   <i name="e_fr_energy">   -130.48879747 </i>
   <i name="e_wo_entrp">   -130.52521866 </i>
   <i name="e_0_energy">   -130.50093787 </i>
  </energy>
  <time name="totalsc">  287.81  290.16</time>
 </calculation>
 <calculation>
  <scstep>
   <time name="dav">    7.70    7.77</time>
   <time name="total">    8.16    8.23</time>
   <energy>
    <i name="alphaZ">    844.48149002 </i>
    <i name="ewald"> 173325.91683165 </i>
    <i name="hartreedc">-216099.60186855 </i>
    <i name="XCdc">   1431.95700890 </i>
    <i name="pawpsdc">  41977.77351340 </i>
    <i name="pawaedc"> -45426.09278126 </i>
    <i name="eentropy">      0.03765153 </i>
    <i name="bandstr">   -708.23562425 </i>
    <i name="atom">  44535.60175172 </i>
    <i name="e_fr_energy">   -118.16202683 </i>
    <i name="e_wo_entrp">   -118.19967836 </i>
    <i name="e_0_energy">   -118.17457734 </i>
   </energy>
  </scstep>
  <scstep>
   <time name="dav">   10.12   10.21</time>
   <time name="total">   10.58   10.66</time>
   <energy>
    <i name="e_fr_energy">   -118.19758793 </i>
    <i name="e_wo_entrp">   -118.23404759 </i>
    <i name="e_0_energy">   -118.20974115 </i>
   </energy>
  </scstep>
  <scstep>
   <time name="dav">    8.21    8.28</time>
   <time name="total">    8.66    8.73</time>
   <energy>
    <i name="e_fr_energy">   -118.19389236 </i>
    <i name="e_wo_entrp">   -118.23163312 </i>
    <i name="e_0_energy">   -118.20647261 </i>
   </energy>
  </scstep>
  <scstep>
   <time name="dav">    8.86    8.93</time>
   <time name="total">    9.32    9.39</time>
   <energy>
    <i name="e_fr_energy">   -118.19299117 </i>
    <i name="e_wo_entrp">   -118.22971473 </i>
    <i name="e_0_energy">   -118.20523235 </i>
   </energy>
  </scstep>
  <scstep>
   <time name="dav">    8.30    8.37</time>
   <time name="total">    8.75    8.82</time>
   <energy>
    <i name="e_fr_energy">   -118.19335707 </i>
    <i name="e_wo_entrp">   -118.23148064 </i>
    <i name="e_0_energy">   -118.20606492 </i>
   </energy>
  </scstep>
  <scstep>
   <time name="dav">    7.91    7.98</time>
   <time name="total">    8.37    8.44</time>
   <energy>
    <i name="e_fr_energy">   -118.19313666 </i>
    <i name="e_wo_entrp">   -118.23047344 </i>
    <i name="e_0_energy">   -118.20558225 </i>
   </energy>
  </scstep>
  <scstep>
   <time name="dav">    7.14    7.20</time>
   <time name="total">    7.59    7.64</time>
   <energy>
    <i name="e_fr_energy">   -118.19290780 </i>
    <i name="e_wo_entrp">   -118.23020720 </i>
    <i name="e_0_energy">   -118.20534093 </i>
   </energy>
  </scstep>
  <scstep>
   <time name="dav">    5.82    5.87</time>
   <time name="total">    5.90    5.96</time>
   <energy>
    <i name="alphaZ">    844.48149002 </i>
    <i name="ewald"> 173325.91683165 </i>
    <i name="hartreedc">-216094.58496608 </i>
    <i name="XCdc">   1431.86334121 </i>
    <i name="pawpsdc">  41978.96462922 </i>
    <i name="pawaedc"> -45427.40338908 </i>
    <i name="eentropy">      0.03741039 </i>
    <i name="bandstr">   -713.07003868 </i>
    <i name="atom">  44535.60175172 </i>
    <i name="e_fr_energy">   -118.19293964 </i>
    <i name="e_wo_entrp">   -118.23035002 </i>
    <i name="e_0_energy">   -118.20540977 </i>
   </energy>
  </scstep>
  <structure>
   <crystal>
    <varray name="basis" >
     <v>       7.26000023       0.00000000       0.00000000 </v>
     <v>       0.00000000       5.13359547       0.00000000 </v>
     <v>       0.00000000       0.00000000      23.98379135 </v>
    </varray>
    <i name="volume">    893.87360752 </i>
    <varray name="rec_basis" >
     <v>       0.13774104       0.00000000       0.00000000 </v>
     <v>       0.00000000       0.19479525       0.00000000 </v>
     <v>       0.00000000       0.00000000       0.04169483 </v>
    </varray>
   </crystal>
   <varray name="positions" >
    <v>       0.00000000       0.00000000       0.00000000 </v>
    <v>       0.00000000       0.50000000       0.00000000 </v>
    <v>       0.50000000       0.00000000       0.00000000 </v>
    <v>       0.50000000       0.50000000       0.00000000 </v>
    <v>       0.25000000       0.25000000       0.05351109 </v>
    <v>       0.25000000       0.75000000       0.05351109 </v>
    <v>       0.75000000       0.25000000       0.05351109 </v>
    <v>       0.75000000       0.75000000       0.05351109 </v>
    <v>       0.00000000       0.00000000       0.10541371 </v>
    <v>       0.00000000       0.50000000       0.10541371 </v>
    <v>       0.50000000       0.00000000       0.10541371 </v>
    <v>       0.50000000       0.50000000       0.10541371 </v>
    <v>       0.25000000       0.24996455       0.15713633 </v>
    <v>       0.25000000       0.75004012       0.15715204 </v>
    <v>       0.75000000       0.24999888       0.15726377 </v>
    <v>       0.75000000       0.75001278       0.15722660 </v>
    <v>       0.00010666       0.00006463       0.20865931 </v>
    <v>       0.00001635       0.49992847       0.20864038 </v>
    <v>       0.49989334       0.00006463       0.20865931 </v>
    <v>       0.49998365       0.49992847       0.20864038 </v>
    <v>       0.25000000       0.25006266       0.25942348 </v>
    <v>       0.25000000       0.74993896       0.25945726 </v>
    <v>       0.75000000       0.24966487       0.25960195 </v>
    <v>       0.75000000       0.75024053       0.25969386 </v>
    <v>       0.00034891       0.00025827       0.31402571 </v>
    <v>       0.00018577       0.49982898       0.31415927 </v>
    <v>       0.49965109       0.00025827       0.31402571 </v>
    <v>       0.49981423       0.49982898       0.31415927 </v>
    <v>       0.25000000       0.25000783       0.36183776 </v>
    <v>       0.25000000       0.74998172       0.36178224 </v>
    <v>       0.75000000       0.25112793       0.36151168 </v>
    <v>       0.75000000       0.75091760       0.35968481 </v>
    <v>       0.75000000       0.73927217       0.42816884 </v>
    <v>       0.75000000       0.86135948       0.45022902 </v>
   </varray>
  </structure>
  <varray name="forces" >
   <v>       0.02436525      -0.01092697       0.44274241 </v>
   <v>       0.01728180       0.01178435       0.44568250 </v>
   <v>      -0.02436525      -0.01092697       0.44274241 </v>
   <v>      -0.01728180       0.01178435       0.44568250 </v>
   <v>       0.00000000      -0.01010700      -0.47280326 </v>
   <v>       0.00000000       0.01085206      -0.49093205 </v>
   <v>       0.00000000       0.00359101      -0.42134760 </v>
   <v>       0.00000000      -0.00363097      -0.42959111 </v>
   <v>      -0.00547823       0.00111359      -0.02122946 </v>
   <v>      -0.00038958       0.00033524      -0.02471103 </v>
   <v>       0.00547823       0.00111359      -0.02122946 </v>
   <v>       0.00038958       0.00033524      -0.02471103 </v>
   <v>       0.00000000      -0.00033201      -0.01080010 </v>
   <v>       0.00000000       0.00144973      -0.00210453 </v>
   <v>       0.00000000      -0.00115370       0.03670945 </v>
   <v>       0.00000000       0.00195615       0.03153040 </v>
   <v>       0.00686669       0.00076115      -0.00695313 </v>
   <v>      -0.00511189      -0.00127517      -0.00287514 </v>
   <v>      -0.00686669       0.00076115      -0.00695313 </v>
   <v>       0.00511189      -0.00127517      -0.00287514 </v>
   <v>       0.00000000       0.00898370      -0.01766472 </v>
   <v>       0.00000000      -0.00731113      -0.01288624 </v>
   <v>       0.00000000      -0.01780334       0.01278622 </v>
   <v>       0.00000000       0.01027481      -0.12138454 </v>
   <v>       0.08518552       0.04540297      -0.06658866 </v>
   <v>       0.07157485      -0.02636104      -0.02557371 </v>
   <v>      -0.08518552       0.04540297      -0.06658866 </v>
   <v>      -0.07157485      -0.02636104      -0.02557371 </v>
   <v>       0.00000000       0.00017110       0.00893194 </v>
   <v>       0.00000000       0.00061909      -0.01021563 </v>
   <v>       0.00000000       0.08768688      -0.07474250 </v>
   <v>       0.00000000       0.11274325      -0.15438105 </v>
   <v>       0.00000000       0.23497048       1.29206154 </v>
   <v>       0.00000000      -0.47462834      -0.64415375 </v>
  </varray>
  <varray name="stress" >
   <v>     -30.51509852       0.00000000       0.00000000 </v>
   <v>       0.00000000     -28.01100053      -1.21007180 </v>
   <v>       0.00000000      -1.21007190      -4.74972117 </v>
  </varray>
  <energy>
   <i name="e_fr_energy">   -130.58143249 </i>
   <i name="e_wo_entrp">   -130.61884288 </i>
   <i name="e_0_energy">   -130.59390262 </i>
  </energy>
  <time name="totalsc">   82.32   83.00</time>
 </calculation>
 <calculation>
  <scstep>
   <time name="dav">    7.98    8.04</time>
   <time name="total">    8.43    8.50</time>
   <energy>
    <i name="alphaZ">    844.48149002 </i>
    <i name="ewald"> 173318.79495766 </i>
    <i name="hartreedc">-216087.35101519 </i>
    <i name="XCdc">   1431.86546864 </i>
    <i name="pawpsdc">  41979.11780190 </i>
    <i name="pawaedc"> -45427.56747332 </i>
    <i name="eentropy">      0.03731673 </i>
    <i name="bandstr">   -713.17387156 </i>
    <i name="atom">  44535.60175172 </i>
    <i name="e_fr_energy">   -118.19357339 </i>
    <i name="e_wo_entrp">   -118.23089012 </i>
    <i name="e_0_energy">   -118.20601230 </i>
   </energy>
  </scstep>
  <scstep>
   <time name="dav">    5.76    5.81</time>
   <time name="total">    5.84    5.89</time>
   <energy>
    <i name="alphaZ">    844.48149002 </i>
    <i name="ewald"> 173318.79495766 </i>
    <i name="hartreedc">-216087.13413371 </i>
    <i name="XCdc">   1431.86425447 </i>
    <i name="pawpsdc">  41979.13854457 </i>
    <i name="pawaedc"> -45427.57373043 </i>
    <i name="eentropy">      0.03738517 </i>
    <i name="bandstr">   -713.40412736 </i>
    <i name="atom">  44535.60175172 </i>
    <i name="e_fr_energy">   -118.19360788 </i>
    <i name="e_wo_entrp">   -118.23099305 </i>
    <i name="e_0_energy">   -118.20606961 </i>
   </energy>
  </scstep>
  <structure>
   <crystal>
    <varray name="basis" >
     <v>       7.26000023       0.00000000       0.00000000 </v>
     <v>       0.00000000       5.13359547       0.00000000 </v>
     <v>       0.00000000       0.00000000      23.98379135 </v>
    </varray>
    <i name="volume">    893.87360752 </i>
    <varray name="rec_basis" >
     <v>       0.13774104       0.00000000       0.00000000 </v>
     <v>       0.00000000       0.19479525       0.00000000 </v>
     <v>       0.00000000       0.00000000       0.04169483 </v>
    </varray>
   </crystal>
   <varray name="positions" >
    <v>       0.00000000       0.00000000       0.00000000 </v>
    <v>       0.00000000       0.50000000       0.00000000 </v>
    <v>       0.50000000       0.00000000       0.00000000 </v>
    <v>       0.50000000       0.50000000       0.00000000 </v>
    <v>       0.25000000       0.25000000       0.05351109 </v>
    <v>       0.25000000       0.75000000       0.05351109 </v>
    <v>       0.75000000       0.25000000       0.05351109 </v>
    <v>       0.75000000       0.75000000       0.05351109 </v>
    <v>       0.00000000       0.00000000       0.10541371 </v>
    <v>       0.00000000       0.50000000       0.10541371 </v>
    <v>       0.50000000       0.00000000       0.10541371 </v>
    <v>       0.50000000       0.50000000       0.10541371 </v>
    <v>       0.25000000       0.24996557       0.15713673 </v>
    <v>       0.25000000       0.75003897       0.15715198 </v>
    <v>       0.75000000       0.24999891       0.15726050 </v>
    <v>       0.75000000       0.75001242       0.15722440 </v>
    <v>       0.00010359       0.00006277       0.20865940 </v>
    <v>       0.00001588       0.49993052       0.20864101 </v>
    <v>       0.49989641       0.00006277       0.20865940 </v>
    <v>       0.49998412       0.49993052       0.20864101 </v>
    <v>       0.25000000       0.25006087       0.25942509 </v>
    <v>       0.25000000       0.74994071       0.25945790 </v>
    <v>       0.75000000       0.24967449       0.25959843 </v>
    <v>       0.75000000       0.75023363       0.25968771 </v>
    <v>       0.00033889       0.00025086       0.31402940 </v>
    <v>       0.00018044       0.49983389       0.31415913 </v>
    <v>       0.49966111       0.00025086       0.31402940 </v>
    <v>       0.49981956       0.49983389       0.31415913 </v>
    <v>       0.25000000       0.25000760       0.36183720 </v>
    <v>       0.25000000       0.74998224       0.36178327 </v>
    <v>       0.75000000       0.25109554       0.36152048 </v>
    <v>       0.75000000       0.75089126       0.35974605 </v>
    <v>       0.75000000       0.73958016       0.42813264 </v>
    <v>       0.75000000       0.86111245       0.45019093 </v>
   </varray>
  </structure>
  <varray name="forces" >
   <v>       0.02445316      -0.01153210       0.44378459 </v>
   <v>       0.01742361       0.01139972       0.44664092 </v>
   <v>      -0.02445316      -0.01153210       0.44378459 </v>
   <v>      -0.01742361       0.01139972       0.44664092 </v>
   <v>       0.00000000      -0.01060484      -0.47174021 </v>
   <v>       0.00000000       0.01035960      -0.48993495 </v>
   <v>       0.00000000       0.00305430      -0.42031241 </v>
   <v>       0.00000000      -0.00407195      -0.42840714 </v>
   <v>      -0.00540101       0.00056631      -0.01926419 </v>
   <v>      -0.00028258      -0.00011547      -0.02271296 </v>
   <v>       0.00540101       0.00056631      -0.01926419 </v>
   <v>       0.00028258      -0.00011547      -0.02271296 </v>
   <v>       0.00000000      -0.00178028      -0.00904531 </v>
   <v>       0.00000000       0.00204699       0.00084446 </v>
   <v>       0.00000000      -0.00167764       0.04939358 </v>
   <v>       0.00000000       0.00182887       0.04144655 </v>
   <v>       0.01018195       0.00139836      -0.00474728 </v>
   <v>      -0.00463592      -0.00300521      -0.00293844 </v>
   <v>      -0.01018195       0.00139836      -0.00474728 </v>
   <v>       0.00463592      -0.00300521      -0.00293844 </v>
   <v>       0.00000000       0.00968185      -0.02108146 </v>
   <v>       0.00000000      -0.00913157      -0.01304385 </v>
   <v>       0.00000000      -0.02383733       0.02247268 </v>
   <v>       0.00000000       0.01382182      -0.10164356 </v>
   <v>       0.09353265       0.04903294      -0.07502467 </v>
   <v>       0.07617395      -0.03046034      -0.02276624 </v>
   <v>      -0.09353265       0.04903294      -0.07502467 </v>
   <v>      -0.07617395      -0.03046034      -0.02276624 </v>
   <v>       0.00000000      -0.00022512       0.01051975 </v>
   <v>       0.00000000      -0.00030892      -0.01436083 </v>
   <v>       0.00000000       0.10141935      -0.09298020 </v>
   <v>       0.00000000       0.11522159      -0.21258889 </v>
   <v>       0.00000000       0.20374310       1.28523892 </v>
   <v>       0.00000000      -0.44410827      -0.62072062 </v>
  </varray>
  <varray name="stress" >
   <v>     -30.42695970       0.00000000       0.00000000 </v>
   <v>       0.00000000     -27.87730101      -1.18141920 </v>
   <v>       0.00000000      -1.18141906      -4.59716822 </v>
  </varray>
  <energy>
   <i name="e_fr_energy">   -130.58151920 </i>
   <i name="e_wo_entrp">   -130.61890438 </i>
   <i name="e_0_energy">   -130.59398093 </i>
  </energy>
  <time name="totalsc">   29.24   29.64</time>
 </calculation>
 <calculation>
  <scstep>
   <time name="dav">    7.46    7.52</time>
   <time name="total">    7.91    7.97</time>
   <energy>
    <i name="alphaZ">    844.48149002 </i>
    <i name="ewald"> 173558.36548238 </i>
    <i name="hartreedc">-216326.50361313 </i>
    <i name="XCdc">   1431.90327737 </i>
    <i name="pawpsdc">  41979.19785668 </i>
    <i name="pawaedc"> -45427.63907582 </i>
    <i name="eentropy">      0.03964555 </i>
    <i name="bandstr">   -713.68348491 </i>
    <i name="atom">  44535.60175172 </i>
    <i name="e_fr_energy">   -118.23667013 </i>
    <i name="e_wo_entrp">   -118.27631568 </i>
    <i name="e_0_energy">   -118.24988531 </i>
   </energy>
  </scstep>
  <scstep>
   <time name="dav">    9.80    9.88</time>
   <time name="total">   10.26   10.34</time>
   <energy>
    <i name="e_fr_energy">   -118.26623204 </i>
    <i name="e_wo_entrp">   -118.30494888 </i>
    <i name="e_0_energy">   -118.27913765 </i>
   </energy>
  </scstep>
  <scstep>
   <time name="dav">    8.15    8.22</time>
   <time name="total">    8.60    8.67</time>
   <energy>
    <i name="e_fr_energy">   -118.26489113 </i>
    <i name="e_wo_entrp">   -118.30454700 </i>
    <i name="e_0_energy">   -118.27810975 </i>
   </energy>
  </scstep>
  <scstep>
   <time name="dav">    8.95    9.02</time>
   <time name="total">    9.41    9.48</time>
   <energy>
    <i name="e_fr_energy">   -118.26409153 </i>
    <i name="e_wo_entrp">   -118.30279091 </i>
    <i name="e_0_energy">   -118.27699133 </i>
   </energy>
  </scstep>
  <scstep>
   <time name="dav">    8.75    8.83</time>
   <time name="total">    9.20    9.28</time>
   <energy>
    <i name="e_fr_energy">   -118.26434493 </i>
    <i name="e_wo_entrp">   -118.30416532 </i>
    <i name="e_0_energy">   -118.27761839 </i>
   </energy>
  </scstep>
  <scstep>
   <time name="dav">    8.10    8.16</time>
   <time name="total">    8.55    8.62</time>
   <energy>
    <i name="e_fr_energy">   -118.26394824 </i>
    <i name="e_wo_entrp">   -118.30355122 </i>
    <i name="e_0_energy">   -118.27714924 </i>
   </energy>
  </scstep>
  <scstep>
   <time name="dav">    6.31    6.36</time>
   <time name="total">    6.39    6.44</time>
   <energy>
    <i name="alphaZ">    844.48149002 </i>
    <i name="ewald"> 173558.36548238 </i>
    <i name="hartreedc">-216326.22091074 </i>
    <i name="XCdc">   1431.95338215 </i>
    <i name="pawpsdc">  41986.06649455 </i>
    <i name="pawaedc"> -45434.65225024 </i>
    <i name="eentropy">      0.03925792 </i>
    <i name="bandstr">   -713.89853661 </i>
    <i name="atom">  44535.60175172 </i>
    <i name="e_fr_energy">   -118.26383885 </i>
    <i name="e_wo_entrp">   -118.30309678 </i>
    <i name="e_0_energy">   -118.27692483 </i>
   </energy>
  </scstep>
  <structure>
   <crystal>
    <varray name="basis" >
     <v>       7.26000023       0.00000000       0.00000000 </v>
     <v>       0.00000000       5.13359547       0.00000000 </v>
     <v>       0.00000000       0.00000000      23.98379135 </v>
    </varray>
    <i name="volume">    893.87360752 </i>
    <varray name="rec_basis" >
     <v>       0.13774104       0.00000000       0.00000000 </v>
     <v>       0.00000000       0.19479525       0.00000000 </v>
     <v>       0.00000000       0.00000000       0.04169483 </v>
    </varray>
   </crystal>
   <varray name="positions" >
    <v>       0.00000000       0.00000000       0.00000000 </v>
    <v>       0.00000000       0.50000000       0.00000000 </v>
    <v>       0.50000000       0.00000000       0.00000000 </v>
    <v>       0.50000000       0.50000000       0.00000000 </v>
    <v>       0.25000000       0.25000000       0.05351109 </v>
    <v>       0.25000000       0.75000000       0.05351109 </v>
    <v>       0.75000000       0.25000000       0.05351109 </v>
    <v>       0.75000000       0.75000000       0.05351109 </v>
    <v>       0.00000000       0.00000000       0.10541371 </v>
    <v>       0.00000000       0.50000000       0.10541371 </v>
    <v>       0.50000000       0.00000000       0.10541371 </v>
    <v>       0.50000000       0.50000000       0.10541371 </v>
    <v>       0.25000000       0.24992893       0.15711087 </v>
    <v>       0.25000000       0.75008073       0.15715476 </v>
    <v>       0.75000000       0.24998260       0.15742341 </v>
    <v>       0.75000000       0.75003672       0.15735045 </v>
    <v>       0.00023103       0.00011230       0.20864807 </v>
    <v>      -0.00000552       0.49986209       0.20862262 </v>
    <v>       0.49976897       0.00011230       0.20864807 </v>
    <v>       0.50000552       0.49986209       0.20862262 </v>
    <v>       0.25000000       0.25018668       0.25935124 </v>
    <v>       0.25000000       0.74982095       0.25941918 </v>
    <v>       0.75000000       0.24926270       0.25971237 </v>
    <v>       0.75000000       0.75049846       0.25960527 </v>
    <v>       0.00115368       0.00085469       0.31380690 </v>
    <v>       0.00078851       0.49945281       0.31411649 </v>
    <v>       0.49884632       0.00085469       0.31380690 </v>
    <v>       0.49921149       0.49945281       0.31411649 </v>
    <v>       0.25000000       0.25000992       0.36186939 </v>
    <v>       0.25000000       0.74996905       0.36173439 </v>
    <v>       0.75000000       0.25267946       0.36116172 </v>
    <v>       0.75000000       0.75248548       0.35811749 </v>
    <v>       0.75000000       0.73543188       0.43141434 </v>
    <v>       0.75000000       0.86181713       0.44969815 </v>
   </varray>
  </structure>
  <varray name="forces" >
   <v>       0.02251110      -0.01029905       0.44147994 </v>
   <v>       0.01666744       0.01208176       0.44409894 </v>
   <v>      -0.02251110      -0.01029905       0.44147994 </v>
   <v>      -0.01666744       0.01208176       0.44409894 </v>
   <v>       0.00000000      -0.00816438      -0.47359120 </v>
   <v>       0.00000000       0.01013305      -0.49051853 </v>
   <v>       0.00000000       0.00347264      -0.41314395 </v>
   <v>       0.00000000      -0.00316943      -0.42367992 </v>
   <v>      -0.01107684       0.00188292      -0.01860991 </v>
   <v>      -0.00676922       0.00086171      -0.02165505 </v>
   <v>       0.01107684       0.00188292      -0.01860991 </v>
   <v>       0.00676922       0.00086171      -0.02165505 </v>
   <v>       0.00000000       0.00402556      -0.01231270 </v>
   <v>       0.00000000      -0.00218494      -0.00653566 </v>
   <v>       0.00000000      -0.00142056       0.00734784 </v>
   <v>       0.00000000       0.00141686      -0.00442998 </v>
   <v>       0.00455860      -0.00041100      -0.01963649 </v>
   <v>      -0.00256487       0.00051798      -0.00361613 </v>
   <v>      -0.00455860      -0.00041100      -0.01963649 </v>
   <v>       0.00256487       0.00051798      -0.00361613 </v>
   <v>       0.00000000       0.00929483      -0.02433481 </v>
   <v>       0.00000000      -0.00511274      -0.02459764 </v>
   <v>       0.00000000       0.00849400      -0.03133836 </v>
   <v>       0.00000000      -0.01142810      -0.22859186 </v>
   <v>       0.07334533       0.03773981      -0.04678042 </v>
   <v>       0.06787516      -0.00610453      -0.03916398 </v>
   <v>      -0.07334533       0.03773981      -0.04678042 </v>
   <v>      -0.06787516      -0.00610453      -0.03916398 </v>
   <v>       0.00000000       0.00015213       0.01515529 </v>
   <v>       0.00000000       0.00426445      -0.00231564 </v>
   <v>       0.00000000       0.04557720      -0.05001163 </v>
   <v>       0.00000000       0.06693768       0.42890288 </v>
   <v>       0.00000000      -0.14997796       0.48686221 </v>
   <v>       0.00000000      -0.04484952      -0.22510012 </v>
  </varray>
  <varray name="stress" >
   <v>     -30.47876428       0.00000000       0.00000000 </v>
   <v>       0.00000000     -27.72443749      -0.74567057 </v>
   <v>       0.00000000      -0.74567047      -4.82151697 </v>
  </varray>
  <energy>
   <i name="e_fr_energy">   -130.65342004 </i>
   <i name="e_wo_entrp">   -130.69267796 </i>
   <i name="e_0_energy">   -130.66650601 </i>
  </energy>
  <time name="totalsc">   75.29   75.98</time>
 </calculation>
 <calculation>
  <scstep>
   <time name="dav">    7.49    7.55</time>
   <time name="total">    7.95    8.02</time>
   <energy>
    <i name="alphaZ">    844.48149002 </i>
    <i name="ewald"> 173675.46500276 </i>
    <i name="hartreedc">-216443.13902320 </i>
    <i name="XCdc">   1431.97427328 </i>
    <i name="pawpsdc">  41986.15325756 </i>
    <i name="pawaedc"> -45434.73180546 </i>
    <i name="eentropy">      0.04038028 </i>
    <i name="bandstr">   -714.11046618 </i>
    <i name="atom">  44535.60175172 </i>
    <i name="e_fr_energy">   -118.26513922 </i>
    <i name="e_wo_entrp">   -118.30551950 </i>
    <i name="e_0_energy">   -118.27859931 </i>
   </energy>
  </scstep>
  <scstep>
   <time name="dav">    9.71    9.80</time>
   <time name="total">   10.16   10.25</time>
   <energy>
    <i name="e_fr_energy">   -118.27154004 </i>
    <i name="e_wo_entrp">   -118.31153628 </i>
    <i name="e_0_energy">   -118.28487212 </i>
   </energy>
  </scstep>
  <scstep>
   <time name="dav">    8.11    8.17</time>
   <time name="total">    8.57    8.63</time>
   <energy>
    <i name="e_fr_energy">   -118.27139734 </i>
    <i name="e_wo_entrp">   -118.31179740 </i>
    <i name="e_0_energy">   -118.28486402 </i>
   </energy>
  </scstep>
  <scstep>
   <time name="dav">    7.95    8.02</time>
   <time name="total">    8.03    8.10</time>
   <energy>
    <i name="alphaZ">    844.48149002 </i>
    <i name="ewald"> 173675.46500276 </i>
    <i name="hartreedc">-216442.98266346 </i>
    <i name="XCdc">   1431.99094504 </i>
    <i name="pawpsdc">  41989.13738625 </i>
    <i name="pawaedc"> -45437.77199749 </i>
    <i name="eentropy">      0.03999008 </i>
    <i name="bandstr">   -714.23329132 </i>
    <i name="atom">  44535.60175172 </i>
    <i name="e_fr_energy">   -118.27138639 </i>
    <i name="e_wo_entrp">   -118.31137647 </i>
    <i name="e_0_energy">   -118.28471641 </i>
   </energy>
  </scstep>
  <structure>
   <crystal>
    <varray name="basis" >
     <v>       7.26000023       0.00000000       0.00000000 </v>
     <v>       0.00000000       5.13359547       0.00000000 </v>
     <v>       0.00000000       0.00000000      23.98379135 </v>
    </varray>
    <i name="volume">    893.87360752 </i>
    <varray name="rec_basis" >
     <v>       0.13774104       0.00000000       0.00000000 </v>
     <v>       0.00000000       0.19479525       0.00000000 </v>
     <v>       0.00000000       0.00000000       0.04169483 </v>
    </varray>
   </crystal>
   <varray name="positions" >
    <v>       0.00000000       0.00000000       0.00000000 </v>
    <v>       0.00000000       0.50000000       0.00000000 </v>
    <v>       0.50000000       0.00000000       0.00000000 </v>
    <v>       0.50000000       0.50000000       0.00000000 </v>
    <v>       0.25000000       0.25000000       0.05351109 </v>
    <v>       0.25000000       0.75000000       0.05351109 </v>
    <v>       0.75000000       0.25000000       0.05351109 </v>
    <v>       0.75000000       0.75000000       0.05351109 </v>
    <v>       0.00000000       0.00000000       0.10541371 </v>
    <v>       0.00000000       0.50000000       0.10541371 </v>
    <v>       0.50000000       0.00000000       0.10541371 </v>
    <v>       0.50000000       0.50000000       0.10541371 </v>
    <v>       0.25000000       0.24991107       0.15709827 </v>
    <v>       0.25000000       0.75010109       0.15715612 </v>
    <v>       0.75000000       0.24997465       0.15750283 </v>
    <v>       0.75000000       0.75004856       0.15741190 </v>
    <v>       0.00029316       0.00013644       0.20864254 </v>
    <v>      -0.00001596       0.49982873       0.20861365 </v>
    <v>       0.49970684       0.00013644       0.20864254 </v>
    <v>       0.50001596       0.49982873       0.20861365 </v>
    <v>       0.25000000       0.25024801       0.25931523 </v>
    <v>       0.25000000       0.74976257       0.25940031 </v>
    <v>       0.75000000       0.24906195       0.25976791 </v>
    <v>       0.75000000       0.75062757       0.25956508 </v>
    <v>       0.00155090       0.00114907       0.31369842 </v>
    <v>       0.00108495       0.49926703       0.31409570 </v>
    <v>       0.49844910       0.00114907       0.31369842 </v>
    <v>       0.49891505       0.49926703       0.31409570 </v>
    <v>       0.25000000       0.25001104       0.36188509 </v>
    <v>       0.25000000       0.74996261       0.36171055 </v>
    <v>       0.75000000       0.25345164       0.36098683 </v>
    <v>       0.75000000       0.75326268       0.35732354 </v>
    <v>       0.75000000       0.73340953       0.43301421 </v>
    <v>       0.75000000       0.86216067       0.44945791 </v>
   </varray>
  </structure>
  <varray name="forces" >
   <v>       0.02172257      -0.01008730       0.43912710 </v>
   <v>       0.01622165       0.01175898       0.44190300 </v>
   <v>      -0.02172257      -0.01008730       0.43912710 </v>
   <v>      -0.01622165       0.01175898       0.44190300 </v>
   <v>       0.00000000      -0.00750788      -0.47522255 </v>
   <v>       0.00000000       0.00950744      -0.49154736 </v>
   <v>       0.00000000       0.00324071      -0.41087207 </v>
   <v>       0.00000000      -0.00342489      -0.42185556 </v>
   <v>      -0.01383931       0.00199765      -0.01885174 </v>
   <v>      -0.00989848       0.00080609      -0.02163717 </v>
   <v>       0.01383931       0.00199765      -0.01885174 </v>
   <v>       0.00989848       0.00080609      -0.02163717 </v>
   <v>       0.00000000       0.00606740      -0.01496640 </v>
   <v>       0.00000000      -0.00438511      -0.01038381 </v>
   <v>       0.00000000      -0.00172140      -0.00815705 </v>
   <v>       0.00000000       0.00070616      -0.02355712 </v>
   <v>       0.00280556      -0.00163813      -0.02584211 </v>
   <v>      -0.00227674       0.00142490      -0.00329270 </v>
   <v>      -0.00280556      -0.00163813      -0.02584211 </v>
   <v>       0.00227674       0.00142490      -0.00329270 </v>
   <v>       0.00000000       0.01000233      -0.02544872 </v>
   <v>       0.00000000      -0.00519398      -0.02801193 </v>
   <v>       0.00000000       0.02099576      -0.05302098 </v>
   <v>       0.00000000      -0.02335640      -0.30424197 </v>
   <v>       0.07081105       0.03552304      -0.03738153 </v>
   <v>       0.06951565       0.00217559      -0.04723139 </v>
   <v>      -0.07081105       0.03552304      -0.03738153 </v>
   <v>      -0.06951565       0.00217559      -0.04723139 </v>
   <v>       0.00000000      -0.00028544       0.01646942 </v>
   <v>       0.00000000       0.00570459      -0.00147724 </v>
   <v>       0.00000000       0.02638592      -0.03500603 </v>
   <v>       0.00000000       0.04059162       0.66896076 </v>
   <v>       0.00000000      -0.33767663       0.22528368 </v>
   <v>       0.00000000       0.17642815      -0.06053203 </v>
  </varray>
  <varray name="stress" >
   <v>     -29.87287939       0.00000000       0.00000000 </v>
   <v>       0.00000000     -27.00906438      -0.57564926 </v>
   <v>       0.00000000      -0.57564923      -4.27186385 </v>
  </varray>
  <energy>
   <i name="e_fr_energy">   -130.66303725 </i>
   <i name="e_wo_entrp">   -130.70302733 </i>
   <i name="e_0_energy">   -130.67636727 </i>
  </energy>
  <time name="totalsc">   49.67   50.08</time>
 </calculation>
 <calculation>
  <scstep>
   <time name="dav">    7.64    7.71</time>
   <time name="total">    8.10    8.17</time>
   <energy>
    <i name="alphaZ">    844.48149002 </i>
    <i name="ewald"> 173664.85461388 </i>
    <i name="hartreedc">-216432.64792303 </i>
    <i name="XCdc">   1431.94384124 </i>
    <i name="pawpsdc">  41989.67359344 </i>
    <i name="pawaedc"> -45438.32512008 </i>
    <i name="eentropy">      0.03966200 </i>
    <i name="bandstr">   -713.91598964 </i>
    <i name="atom">  44535.60175172 </i>
    <i name="e_fr_energy">   -118.29408045 </i>
    <i name="e_wo_entrp">   -118.33374244 </i>
    <i name="e_0_energy">   -118.30730111 </i>
   </energy>
  </scstep>
  <scstep>
   <time name="dav">   10.92   11.01</time>
   <time name="total">   11.37   11.46</time>
   <energy>
    <i name="e_fr_energy">   -118.30796198 </i>
    <i name="e_wo_entrp">   -118.34720482 </i>
    <i name="e_0_energy">   -118.32104293 </i>
   </energy>
  </scstep>
  <scstep>
   <time name="dav">    7.94    8.01</time>
   <time name="total">    8.41    8.48</time>
   <energy>
    <i name="e_fr_energy">   -118.30593627 </i>
    <i name="e_wo_entrp">   -118.34551217 </i>
    <i name="e_0_energy">   -118.31912824 </i>
   </energy>
  </scstep>
  <scstep>
   <time name="dav">    8.12    8.18</time>
   <time name="total">    8.57    8.64</time>
   <energy>
    <i name="e_fr_energy">   -118.30583430 </i>
    <i name="e_wo_entrp">   -118.34540074 </i>
    <i name="e_0_energy">   -118.31902311 </i>
   </energy>
  </scstep>
  <scstep>
   <time name="dav">    7.84    7.91</time>
   <time name="total">    8.30    8.37</time>
   <energy>
    <i name="e_fr_energy">   -118.30588358 </i>
    <i name="e_wo_entrp">   -118.34514589 </i>
    <i name="e_0_energy">   -118.31897102 </i>
   </energy>
  </scstep>
  <scstep>
   <time name="dav">    7.76    7.82</time>
   <time name="total">    7.84    7.90</time>
   <energy>
    <i name="alphaZ">    844.48149002 </i>
    <i name="ewald"> 173664.85461388 </i>
    <i name="hartreedc">-216432.75772508 </i>
    <i name="XCdc">   1431.93820300 </i>
    <i name="pawpsdc">  41984.37582458 </i>
    <i name="pawaedc"> -45432.92557449 </i>
    <i name="eentropy">      0.03955951 </i>
    <i name="bandstr">   -713.91400888 </i>
    <i name="atom">  44535.60175172 </i>
    <i name="e_fr_energy">   -118.30586574 </i>
    <i name="e_wo_entrp">   -118.34542525 </i>
    <i name="e_0_energy">   -118.31905224 </i>
   </energy>
  </scstep>
  <structure>
   <crystal>
    <varray name="basis" >
     <v>       7.26000023       0.00000000       0.00000000 </v>
     <v>       0.00000000       5.13359547       0.00000000 </v>
     <v>       0.00000000       0.00000000      23.98379135 </v>
    </varray>
    <i name="volume">    893.87360752 </i>
    <varray name="rec_basis" >
     <v>       0.13774104       0.00000000       0.00000000 </v>
     <v>       0.00000000       0.19479525       0.00000000 </v>
     <v>       0.00000000       0.00000000       0.04169483 </v>
    </varray>
   </crystal>
   <varray name="positions" >
    <v>       0.00000000       0.00000000       0.00000000 </v>
    <v>       0.00000000       0.50000000       0.00000000 </v>
    <v>       0.50000000       0.00000000       0.00000000 </v>
    <v>       0.50000000       0.50000000       0.00000000 </v>
    <v>       0.25000000       0.25000000       0.05351109 </v>
    <v>       0.25000000       0.75000000       0.05351109 </v>
    <v>       0.75000000       0.25000000       0.05351109 </v>
    <v>       0.75000000       0.75000000       0.05351109 </v>
    <v>       0.00000000       0.00000000       0.10541371 </v>
    <v>       0.00000000       0.50000000       0.10541371 </v>
    <v>       0.50000000       0.00000000       0.10541371 </v>
    <v>       0.50000000       0.50000000       0.10541371 </v>
    <v>       0.25000000       0.24996218       0.15705758 </v>
    <v>       0.25000000       0.75006878       0.15713417 </v>
    <v>       0.75000000       0.24995205       0.15753433 </v>
    <v>       0.75000000       0.75006317       0.15739841 </v>
    <v>       0.00035215       0.00013466       0.20858238 </v>
    <v>      -0.00003896       0.49982259       0.20860084 </v>
    <v>       0.49964785       0.00013466       0.20858238 </v>
    <v>       0.50003896       0.49982259       0.20860084 </v>
    <v>       0.25000000       0.25038873       0.25923698 </v>
    <v>       0.25000000       0.74967299       0.25932708 </v>
    <v>       0.75000000       0.24915239       0.25968608 </v>
    <v>       0.75000000       0.75046837       0.25887230 </v>
    <v>       0.00231142       0.00169644       0.31354891 </v>
    <v>       0.00177340       0.49917379       0.31397910 </v>
    <v>       0.49768858       0.00169644       0.31354891 </v>
    <v>       0.49822660       0.49917379       0.31397910 </v>
    <v>       0.25000000       0.25000882       0.36193100 </v>
    <v>       0.25000000       0.75001711       0.36169249 </v>
    <v>       0.75000000       0.25420250       0.36080121 </v>
    <v>       0.75000000       0.75416234       0.35829803 </v>
    <v>       0.75000000       0.72868895       0.43450380 </v>
    <v>       0.75000000       0.86418353       0.44917563 </v>
   </varray>
  </structure>
  <varray name="forces" >
   <v>       0.02221647      -0.01109793       0.44328530 </v>
   <v>       0.01674551       0.01189925       0.44593780 </v>
   <v>      -0.02221647      -0.01109793       0.44328530 </v>
   <v>      -0.01674551       0.01189925       0.44593780 </v>
   <v>       0.00000000      -0.00770217      -0.47788887 </v>
   <v>       0.00000000       0.00911635      -0.49350993 </v>
   <v>       0.00000000       0.00253560      -0.40792326 </v>
   <v>       0.00000000      -0.00403325      -0.42278820 </v>
   <v>      -0.01442894       0.00257069      -0.02307133 </v>
   <v>      -0.01152217      -0.00050865      -0.02279453 </v>
   <v>       0.01442894       0.00257069      -0.02307133 </v>
   <v>       0.01152217      -0.00050865      -0.02279453 </v>
   <v>       0.00000000       0.00415675      -0.01164803 </v>
   <v>       0.00000000      -0.00364702      -0.01120740 </v>
   <v>       0.00000000      -0.00161218      -0.01546767 </v>
   <v>       0.00000000      -0.00083029      -0.06316902 </v>
   <v>       0.01197642       0.00530180      -0.02398359 </v>
   <v>       0.01004928      -0.00619112      -0.01389074 </v>
   <v>      -0.01197642       0.00530180      -0.02398359 </v>
   <v>      -0.01004928      -0.00619112      -0.01389074 </v>
   <v>       0.00000000       0.00654306      -0.03186469 </v>
   <v>       0.00000000      -0.00000446      -0.02674672 </v>
   <v>       0.00000000       0.00822266      -0.02632688 </v>
   <v>       0.00000000      -0.00695347       0.01394051 </v>
   <v>      -0.00407193      -0.00309989      -0.02553721 </v>
   <v>      -0.00138000       0.03928110      -0.02805234 </v>
   <v>       0.00407193      -0.00309989      -0.02553721 </v>
   <v>       0.00138000       0.03928110      -0.02805234 </v>
   <v>       0.00000000       0.00263771       0.02668801 </v>
   <v>       0.00000000       0.00627757       0.00844419 </v>
   <v>       0.00000000       0.03277416      -0.03999997 </v>
   <v>       0.00000000       0.04683962       0.40065674 </v>
   <v>       0.00000000      -0.14044772       0.27856104 </v>
   <v>       0.00000000      -0.03018344      -0.20353661 </v>
  </varray>
  <varray name="stress" >
   <v>     -29.83653561       0.00000000       0.00000000 </v>
   <v>       0.00000000     -26.95926918      -0.74001916 </v>
   <v>       0.00000000      -0.74001905      -4.41626739 </v>
  </varray>
  <energy>
   <i name="e_fr_energy">   -130.69635642 </i>
   <i name="e_wo_entrp">   -130.73591593 </i>
   <i name="e_0_energy">   -130.70954293 </i>
  </energy>
  <time name="totalsc">   67.54   68.09</time>
 </calculation>
[...]
       <r>    10.5515    -0.0005   232.0000 </r>
       <r>    10.6251    -0.0001   232.0000 </r>
       <r>    10.6988    -0.0000   232.0000 </r>
       <r>    10.7725    -0.0000   232.0000 </r>
       <r>    10.8461    -0.0000   232.0000 </r>
       <r>    10.9198    -0.0000   232.0000 </r>
       <r>    10.9934    -0.0000   232.0000 </r>
       <r>    11.0671    -0.0000   232.0000 </r>
       <r>    11.1408    -0.0000   232.0000 </r>
       <r>    11.2144     0.0000   232.0000 </r>
       <r>    11.2881     0.0000   232.0000 </r>
       <r>    11.3618     0.0000   232.0000 </r>
       <r>    11.4354     0.0000   232.0000 </r>
       <r>    11.5091     0.0000   232.0000 </r>
       <r>    11.5827     0.0000   232.0000 </r>
       <r>    11.6564     0.0000   232.0000 </r>
       <r>    11.7301     0.0000   232.0000 </r>
       <r>    11.8037     0.0000   232.0000 </r>
       <r>    11.8774     0.0000   232.0000 </r>
      </set>
      <set comment="spin 2">
       <r>   -10.2211     0.0000     0.0000 </r>
       <r>   -10.1475     0.0000     0.0000 </r>
       <r>   -10.0738     0.0000     0.0000 </r>
       <r>   -10.0001     0.0000     0.0000 </r>
       <r>    -9.9265     0.0000     0.0000 </r>
       <r>    -9.8528    -0.0000    -0.0000 </r>
       <r>    -9.7792    -0.0000    -0.0000 </r>
       <r>    -9.7055    -0.0000    -0.0000 </r>
       <r>    -9.6318    -0.0000    -0.0000 </r>
       <r>    -9.5582    -0.0000    -0.0000 </r>
       <r>    -9.4845    -0.0000    -0.0000 </r>
       <r>    -9.4108    -0.0000    -0.0000 </r>
       <r>    -9.3372    -0.0000    -0.0000 </r>
       <r>    -9.2635    -0.0000    -0.0000 </r>
       <r>    -9.1899    -0.0000    -0.0000 </r>
       <r>    -9.1162    -0.0000    -0.0000 </r>
       <r>    -9.0425    -0.0000    -0.0000 </r>
       <r>    -8.9689    -0.0000    -0.0000 </r>
       <r>    -8.8952    -0.0000    -0.0000 </r>
       <r>    -8.8215    -0.0001    -0.0000 </r>
       <r>    -8.7479    -0.0008    -0.0001 </r>
       <r>    -8.6742    -0.0038    -0.0003 </r>
       <r>    -8.6006    -0.0122    -0.0012 </r>
       <r>    -8.5269    -0.0252    -0.0031 </r>
       <r>    -8.4532    -0.0226    -0.0048 </r>
       <r>    -8.3796     0.0351    -0.0022 </r>
       <r>    -8.3059     0.1568     0.0094 </r>
       <r>    -8.2323     0.2855     0.0304 </r>
       <r>    -8.1586     0.4248     0.0617 </r>
       <r>    -8.0849     0.8161     0.1218 </r>
       <r>    -8.0113     1.7657     0.2519 </r>
       <r>    -7.9376     3.1110     0.4810 </r>
       <r>    -7.8639     4.0418     0.7788 </r>
       <r>    -7.7903     3.8046     1.0590 </r>
       <r>    -7.7166     2.5684     1.2482 </r>
       <r>    -7.6430     1.2781     1.3424 </r>
       <r>    -7.5693     0.6580     1.3908 </r>
       <r>    -7.4956     0.6205     1.4365 </r>
       <r>    -7.4220     0.6889     1.4873 </r>
       <r>    -7.3483     0.7643     1.5436 </r>
       <r>    -7.2747     1.1376     1.6274 </r>
       <r>    -7.2010     1.7622     1.7572 </r>
       <r>    -7.1273     2.0699     1.9097 </r>
       <r>    -7.0537     1.7837     2.0410 </r>
       <r>    -6.9800     1.3819     2.1428 </r>
       <r>    -6.9063     1.3753     2.2441 </r>
       <r>    -6.8327     1.5661     2.3595 </r>
       <r>    -6.7590     1.4399     2.4656 </r>
       <r>    -6.6854     0.9730     2.5372 </r>
       <r>    -6.6117     0.6074     2.5820 </r>
       <r>    -6.5380     0.6127     2.6271 </r>
       <r>    -6.4644     0.9547     2.6974 </r>
       <r>    -6.3907     1.6654     2.8201 </r>
       <r>    -6.3171     2.6903     3.0183 </r>
       <r>    -6.2434     3.4132     3.2697 </r>
       <r>    -6.1697     3.1412     3.5011 </r>
       <r>    -6.0961     2.0950     3.6554 </r>
       <r>    -6.0224     1.1673     3.7414 </r>
       <r>    -5.9487     0.8035     3.8006 </r>
       <r>    -5.8751     0.7933     3.8590 </r>
       <r>    -5.8014     0.8987     3.9252 </r>
       <r>    -5.7278     1.1070     4.0068 </r>
       <r>    -5.6541     1.5817     4.1233 </r>
       <r>    -5.5804     2.6250     4.3166 </r>
       <r>    -5.5068     4.1220     4.6203 </r>
       <r>    -5.4331     5.0538     4.9926 </r>
       <r>    -5.3594     4.4392     5.3195 </r>
       <r>    -5.2858     2.6815     5.5171 </r>
       <r>    -5.2121     1.2008     5.6055 </r>
       <r>    -5.1385     1.0433     5.6824 </r>
       <r>    -5.0648     2.3935     5.8587 </r>
       <r>    -4.9911     4.7058     6.2053 </r>
       <r>    -4.9175     6.7514     6.7026 </r>
       <r>    -4.8438     7.3205     7.2419 </r>
       <r>    -4.7702     6.2391     7.7015 </r>
       <r>    -4.6965     4.2244     8.0126 </r>
       <r>    -4.6228     2.0751     8.1655 </r>
       <r>    -4.5492     0.5022     8.2025 </r>
       <r>    -4.4755     0.2163     8.2184 </r>
       <r>    -4.4018     1.6252     8.3381 </r>
       <r>    -4.3282     4.4178     8.6636 </r>
       <r>    -4.2545     7.4700     9.2138 </r>
       <r>    -4.1809     9.3980     9.9061 </r>
       <r>    -4.1072     9.6948    10.6202 </r>
       <r>    -4.0335     9.4112    11.3135 </r>
       <r>    -3.9599    10.2406    12.0678 </r>
       <r>    -3.8862    12.6537    12.9999 </r>
       <r>    -3.8126    15.3200    14.1284 </r>
       <r>    -3.7389    16.8796    15.3718 </r>
       <r>    -3.6652    17.7342    16.6781 </r>
       <r>    -3.5916    18.9503    18.0740 </r>
       <r>    -3.5179    20.2576    19.5662 </r>
       <r>    -3.4442    21.0559    21.1172 </r>
       <r>    -3.3706    22.5523    22.7785 </r>
       <r>    -3.2969    26.4542    24.7271 </r>
       <r>    -3.2233    31.6926    27.0617 </r>
       <r>    -3.1496    34.8566    29.6293 </r>
       <r>    -3.0759    34.4341    32.1657 </r>
       <r>    -3.0023    32.3570    34.5492 </r>
       <r>    -2.9286    30.7144    36.8117 </r>
       <r>    -2.8550    29.6084    38.9927 </r>
       <r>    -2.7813    29.1627    41.1409 </r>
       <r>    -2.7076    30.8322    43.4120 </r>
       <r>    -2.6340    35.2288    46.0070 </r>
       <r>    -2.5603    40.5175    48.9916 </r>
       <r>    -2.4866    44.2151    52.2486 </r>
       <r>    -2.4130    45.6117    55.6084 </r>
       <r>    -2.3393    45.9621    58.9941 </r>
       <r>    -2.2657    47.1962    62.4706 </r>
       <r>    -2.1920    50.6138    66.1989 </r>
       <r>    -2.1183    56.0324    70.3263 </r>
       <r>    -2.0447    61.6980    74.8711 </r>
       <r>    -1.9710    65.0042    79.6594 </r>
       <r>    -1.8973    64.0974    84.3810 </r>
       <r>    -1.8237    59.5358    88.7665 </r>
       <r>    -1.7500    53.8032    92.7297 </r>
       <r>    -1.6764    49.0608    96.3436 </r>
       <r>    -1.6027    46.2526    99.7507 </r>
       <r>    -1.5290    45.9836   103.1379 </r>
       <r>    -1.4554    48.5854   106.7168 </r>
       <r>    -1.3817    52.8970   110.6133 </r>
       <r>    -1.3081    56.6039   114.7828 </r>
       <r>    -1.2344    58.7548   119.1108 </r>
       <r>    -1.1607    60.4454   123.5633 </r>
       <r>    -1.0871    62.3446   128.1557 </r>
       <r>    -1.0134    63.8284   132.8574 </r>
       <r>    -0.9397    65.5925   137.6890 </r>
       <r>    -0.8661    70.2538   142.8641 </r>
       <r>    -0.7924    78.0044   148.6100 </r>
       <r>    -0.7188    83.2749   154.7442 </r>
       <r>    -0.6451    78.4303   160.5215 </r>
       <r>    -0.5714    61.4243   165.0461 </r>
       <r>    -0.4978    38.7137   167.8978 </r>
       <r>    -0.4241    19.8133   169.3573 </r>
       <r>    -0.3505     9.6596   170.0688 </r>
       <r>    -0.2768     6.7206   170.5639 </r>
       <r>    -0.2031     6.8101   171.0655 </r>
       <r>    -0.1295     6.8431   171.5696 </r>
       <r>    -0.0558     5.6379   171.9849 </r>
       <r>     0.0179     3.3882   172.2345 </r>
       <r>     0.0915     1.2263   172.3248 </r>
       <r>     0.1652     0.4617   172.3588 </r>
       <r>     0.2388     1.5635   172.4740 </r>
       <r>     0.3125     3.7827   172.7526 </r>
       <r>     0.3862     5.8202   173.1813 </r>
       <r>     0.4598     7.0101   173.6977 </r>
       <r>     0.5335     7.7937   174.2718 </r>
       <r>     0.6071     8.8217   174.9216 </r>
       <r>     0.6808     9.7269   175.6381 </r>
       <r>     0.7545     9.3201   176.3247 </r>
       <r>     0.8281     7.1909   176.8544 </r>
       <r>     0.9018     4.5482   177.1894 </r>
       <r>     0.9755     3.1362   177.4204 </r>
       <r>     1.0491     3.6014   177.6857 </r>
       <r>     1.1228     5.0461   178.0574 </r>
       <r>     1.1964     6.0674   178.5043 </r>
       <r>     1.2701     5.9923   178.9457 </r>
       <r>     1.3438     4.9768   179.3123 </r>
       <r>     1.4174     3.6120   179.5784 </r>
       <r>     1.4911     2.9051   179.7924 </r>
       <r>     1.5648     3.6269   180.0596 </r>
       <r>     1.6384     5.0706   180.4331 </r>
       <r>     1.7121     5.5806   180.8441 </r>
       <r>     1.7857     4.7784   181.1961 </r>
       <r>     1.8594     4.0234   181.4925 </r>
       <r>     1.9331     4.4041   181.8169 </r>
       <r>     2.0067     5.5553   182.2261 </r>
       <r>     2.0804     6.5366   182.7076 </r>
       <r>     2.1540     6.7631   183.2058 </r>
       <r>     2.2277     6.1516   183.6589 </r>
       <r>     2.3014     5.1709   184.0398 </r>
       <r>     2.3750     4.6702   184.3839 </r>
       <r>     2.4487     5.1032   184.7598 </r>
       <r>     2.5224     5.9070   185.1949 </r>
       <r>     2.5960     5.9913   185.6362 </r>
       <r>     2.6697     4.9329   185.9996 </r>
       <r>     2.7433     3.4689   186.2551 </r>
       <r>     2.8170     2.6061   186.4471 </r>
       <r>     2.8907     2.5592   186.6356 </r>
       <r>     2.9643     3.0435   186.8598 </r>
       <r>     3.0380     4.0414   187.1575 </r>
       <r>     3.1116     5.3486   187.5515 </r>
       <r>     3.1853     5.9895   187.9927 </r>
       <r>     3.2590     5.3192   188.3845 </r>
       <r>     3.3326     4.2067   188.6944 </r>
       <r>     3.4063     3.9985   188.9889 </r>
       <r>     3.4800     4.7653   189.3399 </r>
       <r>     3.5536     5.3699   189.7355 </r>
       <r>     3.6273     4.9084   190.0970 </r>
       <r>     3.7009     3.6838   190.3684 </r>
       <r>     3.7746     2.8324   190.5770 </r>
       <r>     3.8483     3.0532   190.8019 </r>
       <r>     3.9219     3.9936   191.0961 </r>
       <r>     3.9956     4.9864   191.4634 </r>
       <r>     4.0692     5.7267   191.8852 </r>
       <r>     4.1429     5.9897   192.3265 </r>
       <r>     4.2166     5.5766   192.7372 </r>
       <r>     4.2902     4.8814   193.0968 </r>
       <r>     4.3639     4.5801   193.4342 </r>
       <r>     4.4376     4.5945   193.7726 </r>
       <r>     4.5112     4.2776   194.0877 </r>
       <r>     4.5849     3.5708   194.3508 </r>
       <r>     4.6585     3.1965   194.5862 </r>
       <r>     4.7322     3.7466   194.8622 </r>
       <r>     4.8059     4.9564   195.2273 </r>
       <r>     4.8795     5.9156   195.6631 </r>
       <r>     4.9532     5.9885   196.1042 </r>
       <r>     5.0268     5.2975   196.4944 </r>
       <r>     5.1005     4.2408   196.8068 </r>
       <r>     5.1742     3.1660   197.0400 </r>
       <r>     5.2478     2.6616   197.2361 </r>
       <r>     5.3215     3.3809   197.4851 </r>
       <r>     5.3952     5.2288   197.8703 </r>
       <r>     5.4688     7.1817   198.3993 </r>
       <r>     5.5425     8.2391   199.0062 </r>
       <r>     5.6161     8.3483   199.6211 </r>
       <r>     5.6898     8.1792   200.2236 </r>
       <r>     5.7635     8.1502   200.8240 </r>
       <r>     5.8371     8.0532   201.4172 </r>
       <r>     5.9108     7.6927   201.9839 </r>
       <r>     5.9845     7.3186   202.5230 </r>
       <r>     6.0581     7.1790   203.0518 </r>
       <r>     6.1318     7.2443   203.5854 </r>
       <r>     6.2054     7.4296   204.1327 </r>
       <r>     6.2791     7.5520   204.6890 </r>
       <r>     6.3528     7.3356   205.2293 </r>
       <r>     6.4264     6.8597   205.7346 </r>
       <r>     6.5001     6.6096   206.2215 </r>
       <r>     6.5737     6.7938   206.7219 </r>
       <r>     6.6474     7.0205   207.2391 </r>
       <r>     6.7211     6.9241   207.7491 </r>
       <r>     6.7947     6.6815   208.2413 </r>
       <r>     6.8684     6.7574   208.7390 </r>
       <r>     6.9421     7.3936   209.2837 </r>
       <r>     7.0157     8.1640   209.8850 </r>
       <r>     7.0894     8.2626   210.4937 </r>
       <r>     7.1630     7.7252   211.0627 </r>
       <r>     7.2367     7.5804   211.6211 </r>
       <r>     7.3104     8.2354   212.2278 </r>
       <r>     7.3840     8.7968   212.8757 </r>
       <r>     7.4577     8.4193   213.4959 </r>
       <r>     7.5313     7.3334   214.0361 </r>
       <r>     7.6050     6.3781   214.5059 </r>
       <r>     7.6787     6.2543   214.9666 </r>
       <r>     7.7523     7.1562   215.4938 </r>
       <r>     7.8260     8.6592   216.1316 </r>
       <r>     7.8997    10.0385   216.8711 </r>
       <r>     7.9733    10.7516   217.6631 </r>
       <r>     8.0470    10.5288   218.4386 </r>
       <r>     8.1206     9.4154   219.1322 </r>
       <r>     8.1943     8.0958   219.7285 </r>
       <r>     8.2680     7.5242   220.2828 </r>
       <r>     8.3416     7.7181   220.8513 </r>
       <r>     8.4153     7.7031   221.4187 </r>
       <r>     8.4889     7.0155   221.9355 </r>
       <r>     8.5626     6.4296   222.4091 </r>
       <r>     8.6363     6.9315   222.9197 </r>
       <r>     8.7099     8.4363   223.5411 </r>
       <r>     8.7836     9.7594   224.2600 </r>
       <r>     8.8573     9.9578   224.9935 </r>
       <r>     8.9309     9.3654   225.6834 </r>
       <r>     9.0046     8.7919   226.3310 </r>
       <r>     9.0782     8.2874   226.9415 </r>
       <r>     9.1519     7.5458   227.4973 </r>
       <r>     9.2256     6.8265   228.0002 </r>
       <r>     9.2992     6.5420   228.4821 </r>
       <r>     9.3729     6.5631   228.9655 </r>
       <r>     9.4466     6.5695   229.4495 </r>
       <r>     9.5202     6.5516   229.9321 </r>
       <r>     9.5939     6.6120   230.4191 </r>
       <r>     9.6675     6.4912   230.8973 </r>
       <r>     9.7412     5.7116   231.3180 </r>
       <r>     9.8149     4.3059   231.6352 </r>
       <r>     9.8885     2.8270   231.8434 </r>
       <r>     9.9622     1.6165   231.9625 </r>
       <r>    10.0358     0.6934   232.0135 </r>
       <r>    10.1095     0.1073   232.0215 </r>
       <r>    10.1832    -0.1136   232.0131 </r>
       <r>    10.2568    -0.1082   232.0051 </r>
       <r>    10.3305    -0.0504   232.0014 </r>
       <r>    10.4042    -0.0153   232.0003 </r>
       <r>    10.4778    -0.0032   232.0000 </r>
       <r>    10.5515    -0.0005   232.0000 </r>
       <r>    10.6251    -0.0001   232.0000 </r>
       <r>    10.6988    -0.0000   232.0000 </r>
       <r>    10.7725    -0.0000   232.0000 </r>
       <r>    10.8461    -0.0000   232.0000 </r>
       <r>    10.9198    -0.0000   232.0000 </r>
       <r>    10.9934    -0.0000   232.0000 </r>
       <r>    11.0671    -0.0000   232.0000 </r>
       <r>    11.1408    -0.0000   232.0000 </r>
       <r>    11.2144     0.0000   232.0000 </r>
       <r>    11.2881     0.0000   232.0000 </r>
       <r>    11.3618     0.0000   232.0000 </r>
       <r>    11.4354     0.0000   232.0000 </r>
       <r>    11.5091     0.0000   232.0000 </r>
       <r>    11.5827     0.0000   232.0000 </r>
       <r>    11.6564     0.0000   232.0000 </r>
       <r>    11.7301     0.0000   232.0000 </r>
       <r>    11.8037     0.0000   232.0000 </r>
       <r>    11.8774     0.0000   232.0000 </r>
      </set>
     </set>
    </array>
   </total>
  </dos>
 </calculation>
 <structure name="finalpos" >
  <crystal>
   <varray name="basis" >
    <v>       7.26000023       0.00000000       0.00000000 </v>
    <v>       0.00000000       5.13359547       0.00000000 </v>
    <v>       0.00000000       0.00000000      23.98379135 </v>
   </varray>
   <i name="volume">    893.87360752 </i>
   <varray name="rec_basis" >
    <v>       0.13774104       0.00000000       0.00000000 </v>
    <v>       0.00000000       0.19479525       0.00000000 </v>
    <v>       0.00000000       0.00000000       0.04169483 </v>
   </varray>
  </crystal>
  <varray name="positions" >
   <v>       0.00000000       0.00000000       0.00000000 </v>
   <v>       0.00000000       0.50000000       0.00000000 </v>
   <v>       0.50000000       0.00000000       0.00000000 </v>
   <v>       0.50000000       0.50000000       0.00000000 </v>
   <v>       0.25000000       0.25000000       0.05351109 </v>
   <v>       0.25000000       0.75000000       0.05351109 </v>
   <v>       0.75000000       0.25000000       0.05351109 </v>
   <v>       0.75000000       0.75000000       0.05351109 </v>
   <v>       0.00000000       0.00000000       0.10541371 </v>
   <v>       0.00000000       0.50000000       0.10541371 </v>
   <v>       0.50000000       0.00000000       0.10541371 </v>
   <v>       0.50000000       0.50000000       0.10541371 </v>
   <v>       0.25000000       0.25081178       0.15715995 </v>
   <v>       0.25000000       0.75077051       0.15721470 </v>
   <v>       0.75000000       0.25076938       0.15762159 </v>
   <v>       0.75000000       0.75077867       0.15801244 </v>
   <v>      -0.00020381       0.00138026       0.20888455 </v>
   <v>      -0.00031776       0.50152763       0.20889771 </v>
   <v>       0.50020381       0.00138026       0.20888455 </v>
   <v>       0.50031776       0.50152763       0.20889771 </v>
   <v>       0.25000000       0.25211830       0.25942040 </v>
   <v>       0.25000000       0.75197569       0.25951436 </v>
   <v>       0.75000000       0.25182566       0.25996655 </v>
   <v>       0.75000000       0.75216056       0.26168498 </v>
   <v>       0.00107573       0.00317541       0.31425052 </v>
   <v>       0.00112491       0.50277390       0.31436520 </v>
   <v>       0.49892427       0.00317541       0.31425052 </v>
   <v>       0.49887509       0.50277390       0.31436520 </v>
   <v>       0.25000000       0.25298551       0.36221712 </v>
   <v>       0.25000000       0.75310724       0.36201016 </v>
   <v>       0.75000000       0.25460566       0.36131957 </v>
   <v>       0.75000000       0.75394538       0.36392600 </v>
   <v>       0.75000000       0.68786659       0.43525992 </v>
   <v>       0.75000000       0.84574649       0.43387728 </v>
  </varray>
  <varray name="selective"  type="logical" >
   <v type="logical" >  F  F  F </v>
   <v type="logical" >  F  F  F </v>
   <v type="logical" >  F  F  F </v>
   <v type="logical" >  F  F  F </v>
   <v type="logical" >  F  F  F </v>
   <v type="logical" >  F  F  F </v>
   <v type="logical" >  F  F  F </v>
   <v type="logical" >  F  F  F </v>
   <v type="logical" >  F  F  F </v>
   <v type="logical" >  F  F  F </v>
   <v type="logical" >  F  F  F </v>
   <v type="logical" >  F  F  F </v>
   <v type="logical" >  T  T  T </v>
   <v type="logical" >  T  T  T </v>
   <v type="logical" >  T  T  T </v>
   <v type="logical" >  T  T  T </v>
   <v type="logical" >  T  T  T </v>
   <v type="logical" >  T  T  T </v>
   <v type="logical" >  T  T  T </v>
   <v type="logical" >  T  T  T </v>
   <v type="logical" >  T  T  T </v>
   <v type="logical" >  T  T  T </v>
   <v type="logical" >  T  T  T </v>
   <v type="logical" >  T  T  T </v>
   <v type="logical" >  T  T  T </v>
   <v type="logical" >  T  T  T </v>
   <v type="logical" >  T  T  T </v>
   <v type="logical" >  T  T  T </v>
   <v type="logical" >  T  T  T </v>
   <v type="logical" >  T  T  T </v>
   <v type="logical" >  T  T  T </v>
   <v type="logical" >  T  T  T </v>
   <v type="logical" >  T  T  T </v>
   <v type="logical" >  T  T  T </v>
  </varray>
  <nose>
   <v>      -3.00000000       0.00000000       0.00010000       0.00010000 </v>
  </nose>
 </structure>
</modeling>
