unknown system                          
           1
     7.260000    0.000000    0.000000
     0.000000    5.133595    0.000000
     0.000000    0.000000   23.983791
   Cu   H 
    32     2
Direct configuration=     1
   0.00000000  0.00000000  0.00000000
   0.00000000  0.50000000  0.00000000
   0.50000000  0.00000000  0.00000000
   0.50000000  0.50000000  0.00000000
   0.25000000  0.25000000  0.05351109
   0.25000000  0.75000000  0.05351109
   0.75000000  0.25000000  0.05351109
   0.75000000  0.75000000  0.05351109
   0.00000000  0.00000000  0.10541371
   0.00000000  0.50000000  0.10541371
   0.50000000  0.00000000  0.10541371
   0.50000000  0.50000000  0.10541371
   0.25000000  0.25000000  0.15715010
   0.25000000  0.75000000  0.15715010
   0.75000000  0.25000000  0.15715010
   0.75000000  0.75000000  0.15715010
   0.00000000  0.00000000  0.20866257
   0.00000000  0.50000000  0.20866257
   0.50000000  0.00000000  0.20866257
   0.50000000  0.50000000  0.20866257
   0.25000000  0.25000000  0.25947965
   0.25000000  0.75000000  0.25947965
   0.75000000  0.25000000  0.25947965
   0.75000000  0.75000000  0.25947965
   0.00000000  0.00000000  0.31415415
   0.00000000  0.50000000  0.31415415
   0.50000000  0.00000000  0.31415415
   0.50000000  0.50000000  0.31415415
   0.25000000  0.25000000  0.36181799
   0.25000000  0.75000000  0.36181799
   0.75000000  0.25000000  0.36181799
   0.75000000  0.75000000  0.36181799
   0.75000000  0.75000000  0.42690792
   0.75000000  0.85275482  0.44890201
Direct configuration=     2
   0.00000000  0.00000000  0.00000000
   0.00000000  0.50000000  0.00000000
   0.50000000  0.00000000  0.00000000
   0.50000000  0.50000000  0.00000000
   0.25000000  0.25000000  0.05351109
   0.25000000  0.75000000  0.05351109
   0.75000000  0.25000000  0.05351109
   0.75000000  0.75000000  0.05351109
   0.00000000  0.00000000  0.10541371
   0.00000000  0.50000000  0.10541371
   0.50000000  0.00000000  0.10541371
   0.50000000  0.50000000  0.10541371
   0.25000000  0.24996455  0.15713633
   0.25000000  0.75004012  0.15715204
   0.75000000  0.24999888  0.15726377
   0.75000000  0.75001278  0.15722660
   0.00010666  0.00006463  0.20865931
   0.00001635  0.49992847  0.20864038
   0.49989334  0.00006463  0.20865931
   0.49998365  0.49992847  0.20864038
   0.25000000  0.25006266  0.25942348
   0.25000000  0.74993896  0.25945726
   0.75000000  0.24966487  0.25960195
   0.75000000  0.75024053  0.25969386
   0.00034891  0.00025827  0.31402571
   0.00018577  0.49982898  0.31415927
   0.49965109  0.00025827  0.31402571
   0.49981423  0.49982898  0.31415927
   0.25000000  0.25000783  0.36183776
   0.25000000  0.74998172  0.36178224
   0.75000000  0.25112793  0.36151168
   0.75000000  0.75091760  0.35968481
   0.75000000  0.73927217  0.42816884
   0.75000000  0.86135948  0.45022902
Direct configuration=     3
   0.00000000  0.00000000  0.00000000
   0.00000000  0.50000000  0.00000000
   0.50000000  0.00000000  0.00000000
   0.50000000  0.50000000  0.00000000
   0.25000000  0.25000000  0.05351109
   0.25000000  0.75000000  0.05351109
   0.75000000  0.25000000  0.05351109
   0.75000000  0.75000000  0.05351109
   0.00000000  0.00000000  0.10541371
   0.00000000  0.50000000  0.10541371
   0.50000000  0.00000000  0.10541371
   0.50000000  0.50000000  0.10541371
   0.25000000  0.24996557  0.15713673
   0.25000000  0.75003897  0.15715198
   0.75000000  0.24999891  0.15726050
   0.75000000  0.75001242  0.15722440
   0.00010359  0.00006277  0.20865940
   0.00001588  0.49993052  0.20864101
   0.49989641  0.00006277  0.20865940
   0.49998412  0.49993052  0.20864101
   0.25000000  0.25006087  0.25942509
   0.25000000  0.74994071  0.25945790
   0.75000000  0.24967449  0.25959843
   0.75000000  0.75023363  0.25968771
   0.00033889  0.00025086  0.31402940
   0.00018044  0.49983389  0.31415913
   0.49966111  0.00025086  0.31402940
   0.49981956  0.49983389  0.31415913
   0.25000000  0.25000760  0.36183720
   0.25000000  0.74998224  0.36178327
   0.75000000  0.25109554  0.36152048
   0.75000000  0.75089126  0.35974605
   0.75000000  0.73958016  0.42813264
   0.75000000  0.86111245  0.45019093
Direct configuration=     4
   0.00000000  0.00000000  0.00000000
   0.00000000  0.50000000  0.00000000
   0.50000000  0.00000000  0.00000000
   0.50000000  0.50000000  0.00000000
   0.25000000  0.25000000  0.05351109
   0.25000000  0.75000000  0.05351109
   0.75000000  0.25000000  0.05351109
   0.75000000  0.75000000  0.05351109
   0.00000000  0.00000000  0.10541371
   0.00000000  0.50000000  0.10541371
   0.50000000  0.00000000  0.10541371
   0.50000000  0.50000000  0.10541371
   0.25000000  0.24992893  0.15711087
   0.25000000  0.75008073  0.15715476
   0.75000000  0.24998260  0.15742341
   0.75000000  0.75003672  0.15735045
   0.00023103  0.00011230  0.20864807
  -0.00000552  0.49986209  0.20862262
   0.49976897  0.00011230  0.20864807
   0.50000552  0.49986209  0.20862262
   0.25000000  0.25018668  0.25935124
   0.25000000  0.74982095  0.25941918
   0.75000000  0.24926270  0.25971237
   0.75000000  0.75049846  0.25960527
   0.00115368  0.00085469  0.31380690
   0.00078851  0.49945281  0.31411649
   0.49884632  0.00085469  0.31380690
   0.49921149  0.49945281  0.31411649
   0.25000000  0.25000992  0.36186939
   0.25000000  0.74996905  0.36173439
   0.75000000  0.25267946  0.36116172
   0.75000000  0.75248548  0.35811749
   0.75000000  0.73543188  0.43141434
   0.75000000  0.86181713  0.44969815
Direct configuration=     5
   0.00000000  0.00000000  0.00000000
   0.00000000  0.50000000  0.00000000
   0.50000000  0.00000000  0.00000000
   0.50000000  0.50000000  0.00000000
   0.25000000  0.25000000  0.05351109
   0.25000000  0.75000000  0.05351109
   0.75000000  0.25000000  0.05351109
   0.75000000  0.75000000  0.05351109
   0.00000000  0.00000000  0.10541371
   0.00000000  0.50000000  0.10541371
   0.50000000  0.00000000  0.10541371
   0.50000000  0.50000000  0.10541371
   0.25000000  0.24991107  0.15709827
   0.25000000  0.75010109  0.15715612
   0.75000000  0.24997465  0.15750283
   0.75000000  0.75004856  0.15741190
   0.00029316  0.00013644  0.20864254
  -0.00001596  0.49982873  0.20861365
   0.49970684  0.00013644  0.20864254
   0.50001596  0.49982873  0.20861365
   0.25000000  0.25024801  0.25931523
   0.25000000  0.74976257  0.25940031
   0.75000000  0.24906195  0.25976791
   0.75000000  0.75062757  0.25956508
   0.00155090  0.00114907  0.31369842
   0.00108495  0.49926703  0.31409570
   0.49844910  0.00114907  0.31369842
   0.49891505  0.49926703  0.31409570
   0.25000000  0.25001104  0.36188509
   0.25000000  0.74996261  0.36171055
   0.75000000  0.25345164  0.36098683
   0.75000000  0.75326268  0.35732354
   0.75000000  0.73340953  0.43301421
   0.75000000  0.86216067  0.44945791
Direct configuration=     6
   0.00000000  0.00000000  0.00000000
   0.00000000  0.50000000  0.00000000
   0.50000000  0.00000000  0.00000000
   0.50000000  0.50000000  0.00000000
   0.25000000  0.25000000  0.05351109
   0.25000000  0.75000000  0.05351109
   0.75000000  0.25000000  0.05351109
   0.75000000  0.75000000  0.05351109
   0.00000000  0.00000000  0.10541371
   0.00000000  0.50000000  0.10541371
   0.50000000  0.00000000  0.10541371
   0.50000000  0.50000000  0.10541371
   0.25000000  0.24996218  0.15705758
   0.25000000  0.75006878  0.15713417
   0.75000000  0.24995205  0.15753433
   0.75000000  0.75006317  0.15739841
   0.00035215  0.00013466  0.20858238
  -0.00003896  0.49982259  0.20860084
   0.49964785  0.00013466  0.20858238
   0.50003896  0.49982259  0.20860084
   0.25000000  0.25038873  0.25923698
   0.25000000  0.74967299  0.25932708
   0.75000000  0.24915239  0.25968608
   0.75000000  0.75046837  0.25887230
   0.00231142  0.00169644  0.31354891
   0.00177340  0.49917379  0.31397910
   0.49768858  0.00169644  0.31354891
   0.49822660  0.49917379  0.31397910
   0.25000000  0.25000882  0.36193100
   0.25000000  0.75001711  0.36169249
   0.75000000  0.25420250  0.36080121
   0.75000000  0.75416234  0.35829803
   0.75000000  0.72868895  0.43450380
   0.75000000  0.86418353  0.44917563
Direct configuration=     7
   0.00000000  0.00000000  0.00000000
   0.00000000  0.50000000  0.00000000
   0.50000000  0.00000000  0.00000000
   0.50000000  0.50000000  0.00000000
   0.25000000  0.25000000  0.05351109
   0.25000000  0.75000000  0.05351109
   0.75000000  0.25000000  0.05351109
   0.75000000  0.75000000  0.05351109
   0.00000000  0.00000000  0.10541371
   0.00000000  0.50000000  0.10541371
   0.50000000  0.00000000  0.10541371
   0.50000000  0.50000000  0.10541371
   0.25000000  0.25003379  0.15700057
   0.25000000  0.75002352  0.15710342
   0.75000000  0.24992039  0.15757846
   0.75000000  0.75008364  0.15737952
   0.00043479  0.00013217  0.20849810
  -0.00007118  0.49981399  0.20858290
   0.49956521  0.00013217  0.20849810
   0.50007118  0.49981399  0.20858290
   0.25000000  0.25058590  0.25912734
   0.25000000  0.74954749  0.25922449
   0.75000000  0.24927910  0.25957143
   0.75000000  0.75024532  0.25790165
   0.00337698  0.00246336  0.31333942
   0.00273797  0.49904314  0.31381574
   0.49662302  0.00246336  0.31333942
   0.49726203  0.49904314  0.31381574
   0.25000000  0.25000570  0.36199532
   0.25000000  0.75009346  0.36166718
   0.75000000  0.25525453  0.36054114
   0.75000000  0.75542286  0.35966337
   0.75000000  0.72207497  0.43659086
   0.75000000  0.86701775  0.44878012
Direct configuration=     8
   0.00000000  0.00000000  0.00000000
   0.00000000  0.50000000  0.00000000
   0.50000000  0.00000000  0.00000000
   0.50000000  0.50000000  0.00000000
   0.25000000  0.25000000  0.05351109
   0.25000000  0.75000000  0.05351109
   0.75000000  0.25000000  0.05351109
   0.75000000  0.75000000  0.05351109
   0.00000000  0.00000000  0.10541371
   0.00000000  0.50000000  0.10541371
   0.50000000  0.00000000  0.10541371
   0.50000000  0.50000000  0.10541371
   0.25000000  0.25009321  0.15695953
   0.25000000  0.74998226  0.15706685
   0.75000000  0.24990123  0.15754744
   0.75000000  0.75007963  0.15718803
   0.00058270  0.00022606  0.20841910
   0.00004099  0.49971413  0.20853192
   0.49941730  0.00022606  0.20841910
   0.49995901  0.49971413  0.20853192
   0.25000000  0.25069594  0.25901445
   0.25000000  0.74954050  0.25913283
   0.75000000  0.24934368  0.25950622
   0.75000000  0.75018865  0.25791554
   0.00343941  0.00248564  0.31323503
   0.00279675  0.49954755  0.31372579
   0.49656059  0.00248564  0.31323503
   0.49720325  0.49954755  0.31372579
   0.25000000  0.25004750  0.36207179
   0.25000000  0.75018458  0.36167853
   0.75000000  0.25591102  0.36037943
   0.75000000  0.75625647  0.36057666
   0.75000000  0.72041985  0.43809447
   0.75000000  0.86576383  0.44807044
Direct configuration=     9
   0.00000000  0.00000000  0.00000000
   0.00000000  0.50000000  0.00000000
   0.50000000  0.00000000  0.00000000
   0.50000000  0.50000000  0.00000000
   0.25000000  0.25000000  0.05351109
   0.25000000  0.75000000  0.05351109
   0.75000000  0.25000000  0.05351109
   0.75000000  0.75000000  0.05351109
   0.00000000  0.00000000  0.10541371
   0.00000000  0.50000000  0.10541371
   0.50000000  0.00000000  0.10541371
   0.50000000  0.50000000  0.10541371
   0.25000000  0.25012672  0.15693638
   0.25000000  0.74995899  0.15704622
   0.75000000  0.24989042  0.15752995
   0.75000000  0.75007736  0.15708001
   0.00066613  0.00027903  0.20837453
   0.00010426  0.49965780  0.20850317
   0.49933387  0.00027903  0.20837453
   0.49989574  0.49965780  0.20850317
   0.25000000  0.25075801  0.25895076
   0.25000000  0.74953656  0.25908112
   0.75000000  0.24938011  0.25946943
   0.75000000  0.75015669  0.25792338
   0.00347462  0.00249820  0.31317614
   0.00282990  0.49983210  0.31367505
   0.49652538  0.00249820  0.31317614
   0.49717010  0.49983210  0.31367505
   0.25000000  0.25007108  0.36211493
   0.25000000  0.75023598  0.36168494
   0.75000000  0.25628136  0.36028821
   0.75000000  0.75672673  0.36109186
   0.75000000  0.71948617  0.43894270
   0.75000000  0.86505647  0.44767010
Direct configuration=    10
   0.00000000  0.00000000  0.00000000
   0.00000000  0.50000000  0.00000000
   0.50000000  0.00000000  0.00000000
   0.50000000  0.50000000  0.00000000
   0.25000000  0.25000000  0.05351109
   0.25000000  0.75000000  0.05351109
   0.75000000  0.25000000  0.05351109
   0.75000000  0.75000000  0.05351109
   0.00000000  0.00000000  0.10541371
   0.00000000  0.50000000  0.10541371
   0.50000000  0.00000000  0.10541371
   0.50000000  0.50000000  0.10541371
   0.25000000  0.25019375  0.15689008
   0.25000000  0.74991244  0.15700496
   0.75000000  0.24986880  0.15749496
   0.75000000  0.75007283  0.15686396
   0.00083300  0.00038496  0.20828540
   0.00023082  0.49954514  0.20844565
   0.49916700  0.00038496  0.20828540
   0.49976918  0.49954514  0.20844565
   0.25000000  0.25088216  0.25882339
   0.25000000  0.74952867  0.25897771
   0.75000000  0.24945298  0.25939584
   0.75000000  0.75009276  0.25793906
   0.00354506  0.00252333  0.31305837
   0.00289621  0.50040119  0.31357357
   0.49645494  0.00252333  0.31305837
   0.49710379  0.50040119  0.31357357
   0.25000000  0.25011825  0.36220120
   0.25000000  0.75033879  0.36169776
   0.75000000  0.25702205  0.36010577
   0.75000000  0.75766725  0.36212227
   0.75000000  0.71761881  0.44063914
   0.75000000  0.86364175  0.44686942
Direct configuration=    11
   0.00000000  0.00000000  0.00000000
   0.00000000  0.50000000  0.00000000
   0.50000000  0.00000000  0.00000000
   0.50000000  0.50000000  0.00000000
   0.25000000  0.25000000  0.05351109
   0.25000000  0.75000000  0.05351109
   0.75000000  0.25000000  0.05351109
   0.75000000  0.75000000  0.05351109
   0.00000000  0.00000000  0.10541371
   0.00000000  0.50000000  0.10541371
   0.50000000  0.00000000  0.10541371
   0.50000000  0.50000000  0.10541371
   0.25000000  0.25024663  0.15681158
   0.25000000  0.74988563  0.15693066
   0.75000000  0.24986218  0.15741802
   0.75000000  0.75004987  0.15667541
   0.00087620  0.00042676  0.20820118
   0.00028757  0.49951965  0.20836404
   0.49912380  0.00042676  0.20820118
   0.49971243  0.49951965  0.20836404
   0.25000000  0.25095643  0.25875588
   0.25000000  0.74965920  0.25889669
   0.75000000  0.24952066  0.25930718
   0.75000000  0.75017720  0.25857415
   0.00293000  0.00218221  0.31303108
   0.00235645  0.50139783  0.31353420
   0.49707000  0.00218221  0.31303108
   0.49764355  0.50139783  0.31353420
   0.25000000  0.25024989  0.36223170
   0.25000000  0.75050938  0.36171212
   0.75000000  0.25763808  0.35995209
   0.75000000  0.75847709  0.36292148
   0.75000000  0.71276627  0.44211584
   0.75000000  0.86481382  0.44600377
Direct configuration=    12
   0.00000000  0.00000000  0.00000000
   0.00000000  0.50000000  0.00000000
   0.50000000  0.00000000  0.00000000
   0.50000000  0.50000000  0.00000000
   0.25000000  0.25000000  0.05351109
   0.25000000  0.75000000  0.05351109
   0.75000000  0.25000000  0.05351109
   0.75000000  0.75000000  0.05351109
   0.00000000  0.00000000  0.10541371
   0.00000000  0.50000000  0.10541371
   0.50000000  0.00000000  0.10541371
   0.50000000  0.50000000  0.10541371
   0.25000000  0.25026612  0.15678264
   0.25000000  0.74987576  0.15690328
   0.75000000  0.24985974  0.15738966
   0.75000000  0.75004140  0.15660592
   0.00089213  0.00044217  0.20817013
   0.00030849  0.49951025  0.20833396
   0.49910787  0.00044217  0.20817013
   0.49969151  0.49951025  0.20833396
   0.25000000  0.25098381  0.25873099
   0.25000000  0.74970731  0.25886683
   0.75000000  0.24954561  0.25927450
   0.75000000  0.75020832  0.25880822
   0.00270331  0.00205649  0.31302102
   0.00215751  0.50176516  0.31351969
   0.49729669  0.00205649  0.31302102
   0.49784249  0.50176516  0.31351969
   0.25000000  0.25029842  0.36224294
   0.25000000  0.75057225  0.36171742
   0.75000000  0.25786513  0.35989545
   0.75000000  0.75877558  0.36321605
   0.75000000  0.71097777  0.44266011
   0.75000000  0.86524580  0.44568471
Direct configuration=    13
   0.00000000  0.00000000  0.00000000
   0.00000000  0.50000000  0.00000000
   0.50000000  0.00000000  0.00000000
   0.50000000  0.50000000  0.00000000
   0.25000000  0.25000000  0.05351109
   0.25000000  0.75000000  0.05351109
   0.75000000  0.25000000  0.05351109
   0.75000000  0.75000000  0.05351109
   0.00000000  0.00000000  0.10541371
   0.00000000  0.50000000  0.10541371
   0.50000000  0.00000000  0.10541371
   0.50000000  0.50000000  0.10541371
   0.25000000  0.25027291  0.15677255
   0.25000000  0.74987231  0.15689373
   0.75000000  0.24985889  0.15737977
   0.75000000  0.75003845  0.15658170
   0.00089768  0.00044754  0.20815931
   0.00031578  0.49950698  0.20832348
   0.49910232  0.00044754  0.20815931
   0.49968422  0.49950698  0.20832348
   0.25000000  0.25099335  0.25872232
   0.25000000  0.74972408  0.25885643
   0.75000000  0.24955430  0.25926311
   0.75000000  0.75021916  0.25888981
   0.00262430  0.00201267  0.31301751
   0.00208817  0.50189319  0.31351463
   0.49737570  0.00201267  0.31301751
   0.49791183  0.50189319  0.31351463
   0.25000000  0.25031533  0.36224686
   0.25000000  0.75059417  0.36171926
   0.75000000  0.25794427  0.35987570
   0.75000000  0.75887961  0.36331872
   0.75000000  0.71035438  0.44284982
   0.75000000  0.86539638  0.44557350
Direct configuration=    14
   0.00000000  0.00000000  0.00000000
   0.00000000  0.50000000  0.00000000
   0.50000000  0.00000000  0.00000000
   0.50000000  0.50000000  0.00000000
   0.25000000  0.25000000  0.05351109
   0.25000000  0.75000000  0.05351109
   0.75000000  0.25000000  0.05351109
   0.75000000  0.75000000  0.05351109
   0.00000000  0.00000000  0.10541371
   0.00000000  0.50000000  0.10541371
   0.50000000  0.00000000  0.10541371
   0.50000000  0.50000000  0.10541371
   0.25000000  0.25028592  0.15669047
   0.25000000  0.74987988  0.15681379
   0.75000000  0.24986307  0.15729601
   0.75000000  0.75000469  0.15662173
   0.00072141  0.00033255  0.20812352
   0.00019489  0.49966812  0.20826637
   0.49927859  0.00033255  0.20812352
   0.49980511  0.49966812  0.20826637
   0.25000000  0.25101740  0.25876903
   0.25000000  0.74996185  0.25883482
   0.75000000  0.24966113  0.25914662
   0.75000000  0.75040092  0.25975822
   0.00172700  0.00167896  0.31309176
   0.00131608  0.50284952  0.31354625
   0.49827300  0.00167896  0.31309176
   0.49868392  0.50284952  0.31354625
   0.25000000  0.25052428  0.36216159
   0.25000000  0.75081680  0.36170827
   0.75000000  0.25830398  0.35983649
   0.75000000  0.75933852  0.36390310
   0.75000000  0.70876151  0.44392191
   0.75000000  0.86357902  0.44456916
Direct configuration=    15
   0.00000000  0.00000000  0.00000000
   0.00000000  0.50000000  0.00000000
   0.50000000  0.00000000  0.00000000
   0.50000000  0.50000000  0.00000000
   0.25000000  0.25000000  0.05351109
   0.25000000  0.75000000  0.05351109
   0.75000000  0.25000000  0.05351109
   0.75000000  0.75000000  0.05351109
   0.00000000  0.00000000  0.10541371
   0.00000000  0.50000000  0.10541371
   0.50000000  0.00000000  0.10541371
   0.50000000  0.50000000  0.10541371
   0.25000000  0.25029283  0.15664681
   0.25000000  0.74988390  0.15677126
   0.75000000  0.24986529  0.15725146
   0.75000000  0.74998673  0.15664303
   0.00062765  0.00027139  0.20810448
   0.00013059  0.49975383  0.20823599
   0.49937235  0.00027139  0.20810448
   0.49986941  0.49975383  0.20823599
   0.25000000  0.25103020  0.25879387
   0.25000000  0.75008832  0.25882332
   0.75000000  0.24971796  0.25908465
   0.75000000  0.75049761  0.26022014
   0.00124970  0.00150145  0.31313126
   0.00090538  0.50335822  0.31356307
   0.49875030  0.00150145  0.31313126
   0.49909462  0.50335822  0.31356307
   0.25000000  0.25063542  0.36211623
   0.25000000  0.75093523  0.36170242
   0.75000000  0.25849532  0.35981564
   0.75000000  0.75958263  0.36421395
   0.75000000  0.70791422  0.44449218
   0.75000000  0.86261232  0.44403493
Direct configuration=    16
   0.00000000  0.00000000  0.00000000
   0.00000000  0.50000000  0.00000000
   0.50000000  0.00000000  0.00000000
   0.50000000  0.50000000  0.00000000
   0.25000000  0.25000000  0.05351109
   0.25000000  0.75000000  0.05351109
   0.75000000  0.25000000  0.05351109
   0.75000000  0.75000000  0.05351109
   0.00000000  0.00000000  0.10541371
   0.00000000  0.50000000  0.10541371
   0.50000000  0.00000000  0.10541371
   0.50000000  0.50000000  0.10541371
   0.25000000  0.25030667  0.15655949
   0.25000000  0.74989195  0.15668621
   0.75000000  0.24986973  0.15716235
   0.75000000  0.74995082  0.15668562
   0.00044013  0.00014907  0.20806640
   0.00000199  0.49992526  0.20817524
   0.49955987  0.00014907  0.20806640
   0.49999801  0.49992526  0.20817524
   0.25000000  0.25105579  0.25884356
   0.25000000  0.75034127  0.25880033
   0.75000000  0.24983161  0.25896072
   0.75000000  0.75069097  0.26114399
   0.00029511  0.00114643  0.31321025
   0.00008400  0.50437561  0.31359670
   0.49970489  0.00114643  0.31321025
   0.49991600  0.50437561  0.31359670
   0.25000000  0.25085771  0.36202551
   0.25000000  0.75117207  0.36169073
   0.75000000  0.25887800  0.35977392
   0.75000000  0.76007083  0.36483565
   0.75000000  0.70621965  0.44563271
   0.75000000  0.86067893  0.44296647
Direct configuration=    17
   0.00000000  0.00000000  0.00000000
   0.00000000  0.50000000  0.00000000
   0.50000000  0.00000000  0.00000000
   0.50000000  0.50000000  0.00000000
   0.25000000  0.25000000  0.05351109
   0.25000000  0.75000000  0.05351109
   0.75000000  0.25000000  0.05351109
   0.75000000  0.75000000  0.05351109
   0.00000000  0.00000000  0.10541371
   0.00000000  0.50000000  0.10541371
   0.50000000  0.00000000  0.10541371
   0.50000000  0.50000000  0.10541371
   0.25000000  0.25030180  0.15659021
   0.25000000  0.74988912  0.15671612
   0.75000000  0.24986817  0.15719369
   0.75000000  0.74996345  0.15667064
   0.00050608  0.00019209  0.20807979
   0.00004722  0.49986497  0.20819660
   0.49949392  0.00019209  0.20807979
   0.49995278  0.49986497  0.20819660
   0.25000000  0.25104679  0.25882608
   0.25000000  0.75025231  0.25880842
   0.75000000  0.24979164  0.25900431
   0.75000000  0.75062296  0.26081906
   0.00063084  0.00127129  0.31318246
   0.00037289  0.50401779  0.31358487
   0.49936916  0.00127129  0.31318246
   0.49962711  0.50401779  0.31358487
   0.25000000  0.25077953  0.36205742
   0.25000000  0.75108877  0.36169484
   0.75000000  0.25874341  0.35978859
   0.75000000  0.75989913  0.36461699
   0.75000000  0.70681565  0.44523158
   0.75000000  0.86135892  0.44334225
Direct configuration=    18
   0.00000000  0.00000000  0.00000000
   0.00000000  0.50000000  0.00000000
   0.50000000  0.00000000  0.00000000
   0.50000000  0.50000000  0.00000000
   0.25000000  0.25000000  0.05351109
   0.25000000  0.75000000  0.05351109
   0.75000000  0.25000000  0.05351109
   0.75000000  0.75000000  0.05351109
   0.00000000  0.00000000  0.10541371
   0.00000000  0.50000000  0.10541371
   0.50000000  0.00000000  0.10541371
   0.50000000  0.50000000  0.10541371
   0.25000000  0.25024888  0.15664220
   0.25000000  0.74993335  0.15673648
   0.75000000  0.24986588  0.15717732
   0.75000000  0.74995587  0.15705581
   0.00024406 -0.00000147  0.20816849
  -0.00016516  0.50012855  0.20827337
   0.49975594 -0.00000147  0.20816849
   0.50016516  0.50012855  0.20827337
   0.25000000  0.25105813  0.25893420
   0.25000000  0.75039177  0.25886908
   0.75000000  0.24999400  0.25894284
   0.75000000  0.75066997  0.26082628
   0.00069895  0.00175444  0.31330695
   0.00049514  0.50372577  0.31366074
   0.49930105  0.00175444  0.31330695
   0.49950486  0.50372577  0.31366074
   0.25000000  0.25094833  0.36187022
   0.25000000  0.75124023  0.36162497
   0.75000000  0.25857137  0.35992584
   0.75000000  0.75948514  0.36479944
   0.75000000  0.70833869  0.44504843
   0.75000000  0.85916181  0.44300595
Direct configuration=    19
   0.00000000  0.00000000  0.00000000
   0.00000000  0.50000000  0.00000000
   0.50000000  0.00000000  0.00000000
   0.50000000  0.50000000  0.00000000
   0.25000000  0.25000000  0.05351109
   0.25000000  0.75000000  0.05351109
   0.75000000  0.25000000  0.05351109
   0.75000000  0.75000000  0.05351109
   0.00000000  0.00000000  0.10541371
   0.00000000  0.50000000  0.10541371
   0.50000000  0.00000000  0.10541371
   0.50000000  0.50000000  0.10541371
   0.25000000  0.25025150  0.15663963
   0.25000000  0.74993116  0.15673547
   0.75000000  0.24986600  0.15717813
   0.75000000  0.74995624  0.15703674
   0.00025704  0.00000811  0.20816410
  -0.00015465  0.50011550  0.20826957
   0.49974296  0.00000811  0.20816410
   0.50015465  0.50011550  0.20826957
   0.25000000  0.25105757  0.25892884
   0.25000000  0.75038486  0.25886608
   0.75000000  0.24998398  0.25894589
   0.75000000  0.75066764  0.26082592
   0.00069557  0.00173052  0.31330079
   0.00048909  0.50374023  0.31365698
   0.49930443  0.00173052  0.31330079
   0.49951091  0.50374023  0.31365698
   0.25000000  0.25093998  0.36187949
   0.25000000  0.75123273  0.36162843
   0.75000000  0.25857989  0.35991904
   0.75000000  0.75950564  0.36479040
   0.75000000  0.70826328  0.44505750
   0.75000000  0.85927060  0.44302261
Direct configuration=    20
   0.00000000  0.00000000  0.00000000
   0.00000000  0.50000000  0.00000000
   0.50000000  0.00000000  0.00000000
   0.50000000  0.50000000  0.00000000
   0.25000000  0.25000000  0.05351109
   0.25000000  0.75000000  0.05351109
   0.75000000  0.25000000  0.05351109
   0.75000000  0.75000000  0.05351109
   0.00000000  0.00000000  0.10541371
   0.00000000  0.50000000  0.10541371
   0.50000000  0.00000000  0.10541371
   0.50000000  0.50000000  0.10541371
   0.25000000  0.25019756  0.15671799
   0.25000000  0.74997780  0.15677285
   0.75000000  0.24986609  0.15715926
   0.75000000  0.74995275  0.15741419
   0.00003136 -0.00013636  0.20826790
  -0.00032210  0.50034691  0.20835965
   0.49996864 -0.00013636  0.20826790
   0.50032210  0.50034691  0.20835965
   0.25000000  0.25107901  0.25901400
   0.25000000  0.75053355  0.25892675
   0.75000000  0.25020207  0.25891376
   0.75000000  0.75073600  0.26086501
   0.00073371  0.00220282  0.31343737
   0.00058956  0.50345120  0.31374225
   0.49926629  0.00220282  0.31343737
   0.49941044  0.50345120  0.31374225
   0.25000000  0.25114229  0.36169161
   0.25000000  0.75141011  0.36155604
   0.75000000  0.25835541  0.36006267
   0.75000000  0.75898671  0.36492647
   0.75000000  0.70748170  0.44484341
   0.75000000  0.85939596  0.44265621
Direct configuration=    21
   0.00000000  0.00000000  0.00000000
   0.00000000  0.50000000  0.00000000
   0.50000000  0.00000000  0.00000000
   0.50000000  0.50000000  0.00000000
   0.25000000  0.25000000  0.05351109
   0.25000000  0.75000000  0.05351109
   0.75000000  0.25000000  0.05351109
   0.75000000  0.75000000  0.05351109
   0.00000000  0.00000000  0.10541371
   0.00000000  0.50000000  0.10541371
   0.50000000  0.00000000  0.10541371
   0.50000000  0.50000000  0.10541371
   0.25000000  0.25013216  0.15681300
   0.25000000  0.75003434  0.15681817
   0.75000000  0.24986621  0.15713637
   0.75000000  0.74994852  0.15787185
  -0.00024227 -0.00031154  0.20839377
  -0.00052514  0.50062749  0.20846888
   0.50024227 -0.00031154  0.20839377
   0.50052514  0.50062749  0.20846888
   0.25000000  0.25110502  0.25911726
   0.25000000  0.75071382  0.25900030
   0.75000000  0.25046651  0.25887481
   0.75000000  0.75081887  0.26091240
   0.00077996  0.00277547  0.31360298
   0.00071139  0.50310076  0.31384564
   0.49922004  0.00277547  0.31360298
   0.49928861  0.50310076  0.31384564
   0.25000000  0.25138760  0.36146382
   0.25000000  0.75162518  0.36146826
   0.75000000  0.25808323  0.36023683
   0.75000000  0.75835750  0.36509145
   0.75000000  0.70653404  0.44458383
   0.75000000  0.85954796  0.44221196
Direct configuration=    22
   0.00000000  0.00000000  0.00000000
   0.00000000  0.50000000  0.00000000
   0.50000000  0.00000000  0.00000000
   0.50000000  0.50000000  0.00000000
   0.25000000  0.25000000  0.05351109
   0.25000000  0.75000000  0.05351109
   0.75000000  0.25000000  0.05351109
   0.75000000  0.75000000  0.05351109
   0.00000000  0.00000000  0.10541371
   0.00000000  0.50000000  0.10541371
   0.50000000  0.00000000  0.10541371
   0.50000000  0.50000000  0.10541371
   0.25000000  0.25000137  0.15700302
   0.25000000  0.75014743  0.15690882
   0.75000000  0.24986644  0.15709059
   0.75000000  0.74994005  0.15878717
  -0.00078953 -0.00066189  0.20864549
  -0.00093121  0.50118866  0.20868733
   0.50078953 -0.00066189  0.20864549
   0.50093121  0.50118866  0.20868733
   0.25000000  0.25115703  0.25932377
   0.25000000  0.75107438  0.25914742
   0.75000000  0.25099539  0.25879690
   0.75000000  0.75098462  0.26100718
   0.00087245  0.00392079  0.31393421
   0.00095504  0.50239986  0.31405241
   0.49912755  0.00392079  0.31393421
   0.49904496  0.50239986  0.31405241
   0.25000000  0.25187821  0.36100822
   0.25000000  0.75205533  0.36129271
   0.75000000  0.25753886  0.36058514
   0.75000000  0.75709908  0.36542140
   0.75000000  0.70463872  0.44406467
   0.75000000  0.85985196  0.44132346
Direct configuration=    23
   0.00000000  0.00000000  0.00000000
   0.00000000  0.50000000  0.00000000
   0.50000000  0.00000000  0.00000000
   0.50000000  0.50000000  0.00000000
   0.25000000  0.25000000  0.05351109
   0.25000000  0.75000000  0.05351109
   0.75000000  0.25000000  0.05351109
   0.75000000  0.75000000  0.05351109
   0.00000000  0.00000000  0.10541371
   0.00000000  0.50000000  0.10541371
   0.50000000  0.00000000  0.10541371
   0.50000000  0.50000000  0.10541371
   0.25000000  0.25010170  0.15685726
   0.25000000  0.75006068  0.15683929
   0.75000000  0.24986627  0.15712570
   0.75000000  0.74994655  0.15808505
  -0.00036973 -0.00039314  0.20845240
  -0.00061972  0.50075820  0.20851976
   0.50036973 -0.00039314  0.20845240