  34  34   0   0
  0.2629040E+02  0.7260000E-09  0.5133596E-09  0.2398379E-08  0.5000000E-15
  1.000000000000000E-004
  CAR 
 unknown system                          
     11.83605427    -10.27658179  301      0.75377582      1.00000000
    -10.277  0.0000E+00  0.0000E+00  0.0000E+00  0.0000E+00
    -10.203  0.0000E+00  0.0000E+00  0.0000E+00  0.0000E+00
    -10.129  0.0000E+00  0.0000E+00  0.0000E+00  0.0000E+00
    -10.055  0.0000E+00  0.0000E+00  0.0000E+00  0.0000E+00
     -9.982  0.0000E+00  0.0000E+00  0.0000E+00  0.0000E+00
     -9.908 -0.5478E-31 -0.5478E-31 -0.4038E-32 -0.4038E-32
     -9.834 -0.1860E-28 -0.1860E-28 -0.1375E-29 -0.1375E-29
     -9.761 -0.4812E-26 -0.4812E-26 -0.3561E-27 -0.3561E-27
     -9.687 -0.9462E-24 -0.9462E-24 -0.7010E-25 -0.7010E-25
     -9.613 -0.1414E-21 -0.1414E-21 -0.1049E-22 -0.1049E-22
     -9.539 -0.1604E-19 -0.1604E-19 -0.1193E-20 -0.1193E-20
     -9.466 -0.1381E-17 -0.1381E-17 -0.1030E-18 -0.1030E-18
     -9.392 -0.8727E-16 -0.8727E-16 -0.6535E-17 -0.6535E-17
     -9.318 -0.4303E-14 -0.4303E-14 -0.3237E-15 -0.3237E-15
     -9.245 -0.1603E-12 -0.1603E-12 -0.1214E-13 -0.1214E-13
     -9.171 -0.4508E-11 -0.4508E-11 -0.3444E-12 -0.3444E-12
     -9.097 -0.9547E-10 -0.9547E-10 -0.7381E-11 -0.7381E-11
     -9.024 -0.1518E-08 -0.1518E-08 -0.1192E-09 -0.1192E-09
     -8.950 -0.1802E-07 -0.1802E-07 -0.1447E-08 -0.1447E-08
     -8.876 -0.1587E-06 -0.1587E-06 -0.1314E-07 -0.1314E-07
     -8.802 -0.1024E-05 -0.1024E-05 -0.8861E-07 -0.8861E-07
     -8.729 -0.4742E-05 -0.4742E-05 -0.4381E-06 -0.4381E-06
     -8.655 -0.1508E-04 -0.1508E-04 -0.1550E-05 -0.1550E-05
     -8.581 -0.2921E-04 -0.2921E-04 -0.3703E-05 -0.3703E-05
     -8.508 -0.1605E-04 -0.1605E-04 -0.4886E-05 -0.4886E-05
     -8.434  0.8585E-04  0.8585E-04  0.1442E-05  0.1442E-05
     -8.360  0.2919E-03  0.2919E-03  0.2296E-04  0.2296E-04
     -8.286  0.4812E-03  0.4812E-03  0.5843E-04  0.5843E-04
     -8.213  0.5019E-03  0.5019E-03  0.9542E-04  0.9542E-04
     -8.139  0.4272E-03  0.4272E-03  0.1269E-03  0.1269E-03
     -8.065  0.5257E-03  0.5257E-03  0.1657E-03  0.1657E-03
     -7.992  0.8472E-03  0.8472E-03  0.2281E-03  0.2281E-03
     -7.918  0.1060E-02  0.1060E-02  0.3062E-03  0.3062E-03
     -7.844  0.9248E-03  0.9248E-03  0.3744E-03  0.3744E-03
     -7.770  0.6965E-03  0.6965E-03  0.4257E-03  0.4257E-03
     -7.697  0.7304E-03  0.7304E-03  0.4796E-03  0.4796E-03
     -7.623  0.9108E-03  0.9108E-03  0.5467E-03  0.5467E-03
     -7.549  0.9218E-03  0.9218E-03  0.6147E-03  0.6147E-03
     -7.476  0.9449E-03  0.9449E-03  0.6843E-03  0.6843E-03
     -7.402  0.1473E-02  0.1473E-02  0.7928E-03  0.7928E-03
     -7.328  0.2340E-02  0.2340E-02  0.9653E-03  0.9653E-03
     -7.255  0.2677E-02  0.2677E-02  0.1163E-02  0.1163E-02
     -7.181  0.2175E-02  0.2175E-02  0.1323E-02  0.1323E-02
     -7.107  0.1639E-02  0.1639E-02  0.1444E-02  0.1444E-02
     -7.033  0.1756E-02  0.1756E-02  0.1573E-02  0.1573E-02
     -6.960  0.2070E-02  0.2070E-02  0.1726E-02  0.1726E-02
     -6.886  0.1821E-02  0.1821E-02  0.1860E-02  0.1860E-02
     -6.812  0.1140E-02  0.1140E-02  0.1944E-02  0.1944E-02
     -6.739  0.7092E-03  0.7092E-03  0.1996E-02  0.1996E-02
     -6.665  0.7388E-03  0.7388E-03  0.2051E-02  0.2051E-02
     -6.591  0.1070E-02  0.1070E-02  0.2130E-02  0.2130E-02
     -6.517  0.1870E-02  0.1870E-02  0.2268E-02  0.2268E-02
     -6.444  0.3239E-02  0.3239E-02  0.2506E-02  0.2506E-02
     -6.370  0.4334E-02  0.4334E-02  0.2826E-02  0.2826E-02
     -6.296  0.4080E-02  0.4080E-02  0.3126E-02  0.3126E-02
     -6.223  0.2708E-02  0.2708E-02  0.3326E-02  0.3326E-02
     -6.149  0.1461E-02  0.1461E-02  0.3434E-02  0.3434E-02
     -6.075  0.9782E-03  0.9782E-03  0.3506E-02  0.3506E-02
     -6.001  0.9857E-03  0.9857E-03  0.3579E-02  0.3579E-02
     -5.928  0.1151E-02  0.1151E-02  0.3663E-02  0.3663E-02
     -5.854  0.1404E-02  0.1404E-02  0.3767E-02  0.3767E-02
     -5.780  0.1922E-02  0.1922E-02  0.3908E-02  0.3908E-02
     -5.707  0.3161E-02  0.3161E-02  0.4141E-02  0.4141E-02
     -5.633  0.5189E-02  0.5189E-02  0.4524E-02  0.4524E-02
     -5.559  0.7098E-02  0.7098E-02  0.5047E-02  0.5047E-02
     -5.486  0.7860E-02  0.7860E-02  0.5626E-02  0.5626E-02
     -5.412  0.7319E-02  0.7319E-02  0.6166E-02  0.6166E-02
     -5.338  0.5915E-02  0.5915E-02  0.6602E-02  0.6602E-02
     -5.264  0.4427E-02  0.4427E-02  0.6928E-02  0.6928E-02
     -5.191  0.4078E-02  0.4078E-02  0.7229E-02  0.7229E-02
     -5.117  0.5586E-02  0.5586E-02  0.7640E-02  0.7640E-02
     -5.043  0.7934E-02  0.7934E-02  0.8225E-02  0.8225E-02
     -4.970  0.9128E-02  0.9128E-02  0.8898E-02  0.8898E-02
     -4.896  0.8240E-02  0.8240E-02  0.9505E-02  0.9505E-02
     -4.822  0.5906E-02  0.5906E-02  0.9941E-02  0.9941E-02
     -4.748  0.3194E-02  0.3194E-02  0.1018E-01  0.1018E-01
     -4.675  0.1002E-02  0.1002E-02  0.1025E-01  0.1025E-01
     -4.601  0.1974E-03  0.1974E-03  0.1026E-01  0.1026E-01
     -4.527  0.1409E-02  0.1409E-02  0.1037E-01  0.1037E-01
     -4.454  0.4517E-02  0.4517E-02  0.1070E-01  0.1070E-01
     -4.380  0.8398E-02  0.8398E-02  0.1132E-01  0.1132E-01
     -4.306  0.1131E-01  0.1131E-01  0.1215E-01  0.1215E-01
     -4.232  0.1215E-01  0.1215E-01  0.1305E-01  0.1305E-01
     -4.159  0.1170E-01  0.1170E-01  0.1391E-01  0.1391E-01
     -4.085  0.1215E-01  0.1215E-01  0.1481E-01  0.1481E-01
     -4.011  0.1473E-01  0.1473E-01  0.1589E-01  0.1589E-01
     -3.938  0.1819E-01  0.1819E-01  0.1723E-01  0.1723E-01
     -3.864  0.2044E-01  0.2044E-01  0.1874E-01  0.1874E-01
     -3.790  0.2143E-01  0.2143E-01  0.2032E-01  0.2032E-01
     -3.716  0.2275E-01  0.2275E-01  0.2200E-01  0.2200E-01
     -3.643  0.2466E-01  0.2466E-01  0.2382E-01  0.2382E-01
     -3.569  0.2602E-01  0.2602E-01  0.2573E-01  0.2573E-01
     -3.495  0.2745E-01  0.2745E-01  0.2776E-01  0.2776E-01
     -3.422  0.3129E-01  0.3129E-01  0.3006E-01  0.3006E-01
     -3.348  0.3756E-01  0.3756E-01  0.3283E-01  0.3283E-01
     -3.274  0.4249E-01  0.4249E-01  0.3596E-01  0.3596E-01
     -3.201  0.4292E-01  0.4292E-01  0.3913E-01  0.3913E-01
     -3.127  0.4020E-01  0.4020E-01  0.4209E-01  0.4209E-01
     -3.053  0.3755E-01  0.3755E-01  0.4486E-01  0.4486E-01
     -2.979  0.3583E-01  0.3583E-01  0.4750E-01  0.4750E-01
     -2.906  0.3459E-01  0.3459E-01  0.5005E-01  0.5005E-01
     -2.832  0.3528E-01  0.3528E-01  0.5265E-01  0.5265E-01
     -2.758  0.3996E-01  0.3996E-01  0.5559E-01  0.5559E-01
     -2.685  0.4758E-01  0.4758E-01  0.5910E-01  0.5910E-01
     -2.611  0.5420E-01  0.5420E-01  0.6310E-01  0.6310E-01
     -2.537  0.5712E-01  0.5712E-01  0.6731E-01  0.6731E-01
     -2.463  0.5731E-01  0.5731E-01  0.7153E-01  0.7153E-01
     -2.390  0.5799E-01  0.5799E-01  0.7580E-01  0.7580E-01
     -2.316  0.6171E-01  0.6171E-01  0.8035E-01  0.8035E-01
     -2.242  0.6844E-01  0.6844E-01  0.8540E-01  0.8540E-01
     -2.169  0.7573E-01  0.7573E-01  0.9098E-01  0.9098E-01
     -2.095  0.8010E-01  0.8010E-01  0.9688E-01  0.9688E-01
     -2.021  0.7921E-01  0.7921E-01  0.1027E+00  0.1027E+00
     -1.947  0.7368E-01  0.7368E-01  0.1082E+00  0.1082E+00
     -1.874  0.6664E-01  0.6664E-01  0.1131E+00  0.1131E+00
     -1.800  0.6096E-01  0.6096E-01  0.1176E+00  0.1176E+00
     -1.726  0.5788E-01  0.5788E-01  0.1218E+00  0.1218E+00
     -1.653  0.5770E-01  0.5770E-01  0.1261E+00  0.1261E+00
     -1.579  0.6081E-01  0.6081E-01  0.1306E+00  0.1306E+00
     -1.505  0.6645E-01  0.6645E-01  0.1355E+00  0.1355E+00
     -1.432  0.7162E-01  0.7162E-01  0.1407E+00  0.1407E+00
     -1.358  0.7398E-01  0.7398E-01  0.1462E+00  0.1462E+00
     -1.284  0.7505E-01  0.7505E-01  0.1517E+00  0.1517E+00
     -1.210  0.7727E-01  0.7727E-01  0.1574E+00  0.1574E+00
     -1.137  0.7990E-01  0.7990E-01  0.1633E+00  0.1633E+00
     -1.063  0.8191E-01  0.8191E-01  0.1693E+00  0.1693E+00
     -0.989  0.8618E-01  0.8618E-01  0.1757E+00  0.1757E+00
     -0.916  0.9530E-01  0.9530E-01  0.1827E+00  0.1827E+00
     -0.842  0.1045E+00  0.1045E+00  0.1904E+00  0.1904E+00
     -0.768  0.1037E+00  0.1037E+00  0.1981E+00  0.1981E+00
     -0.694  0.8722E-01  0.8722E-01  0.2045E+00  0.2045E+00
     -0.621  0.5991E-01  0.5991E-01  0.2089E+00  0.2089E+00
     -0.547  0.3338E-01  0.3338E-01  0.2114E+00  0.2114E+00
     -0.473  0.1623E-01  0.1623E-01  0.2126E+00  0.2126E+00
     -0.400  0.9269E-02  0.9269E-02  0.2133E+00  0.2133E+00
     -0.326  0.8181E-02  0.8181E-02  0.2139E+00  0.2139E+00
     -0.252  0.8257E-02  0.8257E-02  0.2145E+00  0.2145E+00
     -0.178  0.6954E-02  0.6954E-02  0.2150E+00  0.2150E+00
     -0.105  0.4231E-02  0.4231E-02  0.2153E+00  0.2153E+00
     -0.031  0.1570E-02  0.1570E-02  0.2154E+00  0.2154E+00
      0.043  0.4777E-03  0.4777E-03  0.2154E+00  0.2154E+00
      0.116  0.1460E-02  0.1460E-02  0.2155E+00  0.2155E+00
      0.190  0.3857E-02  0.3857E-02  0.2158E+00  0.2158E+00
      0.264  0.6403E-02  0.6403E-02  0.2163E+00  0.2163E+00
      0.337  0.8222E-02  0.8222E-02  0.2169E+00  0.2169E+00
      0.411  0.9480E-02  0.9480E-02  0.2176E+00  0.2176E+00
      0.485  0.1083E-01  0.1083E-01  0.2184E+00  0.2184E+00
      0.559  0.1202E-01  0.1202E-01  0.2193E+00  0.2193E+00
      0.632  0.1181E-01  0.1181E-01  0.2202E+00  0.2202E+00
      0.706  0.9777E-02  0.9777E-02  0.2209E+00  0.2209E+00
      0.780  0.7230E-02  0.7230E-02  0.2214E+00  0.2214E+00
      0.853  0.5677E-02  0.5677E-02  0.2218E+00  0.2218E+00
      0.927  0.5440E-02  0.5440E-02  0.2222E+00  0.2222E+00
      1.001  0.6053E-02  0.6053E-02  0.2227E+00  0.2227E+00
      1.075  0.6901E-02  0.6901E-02  0.2232E+00  0.2232E+00
      1.148  0.7158E-02  0.7158E-02  0.2237E+00  0.2237E+00
      1.222  0.6104E-02  0.6104E-02  0.2242E+00  0.2242E+00
      1.296  0.4057E-02  0.4057E-02  0.2245E+00  0.2245E+00
      1.369  0.2513E-02  0.2513E-02  0.2247E+00  0.2247E+00
      1.443  0.2878E-02  0.2878E-02  0.2249E+00  0.2249E+00
      1.517  0.4906E-02  0.4906E-02  0.2252E+00  0.2252E+00
      1.591  0.6666E-02  0.6666E-02  0.2257E+00  0.2257E+00
      1.664  0.6703E-02  0.6703E-02  0.2262E+00  0.2262E+00
      1.738  0.5859E-02  0.5859E-02  0.2266E+00  0.2266E+00
      1.812  0.5881E-02  0.5881E-02  0.2271E+00  0.2271E+00
      1.885  0.6868E-02  0.6868E-02  0.2276E+00  0.2276E+00
      1.959  0.7576E-02  0.7576E-02  0.2281E+00  0.2281E+00
      2.033  0.7574E-02  0.7574E-02  0.2287E+00  0.2287E+00
      2.106  0.7473E-02  0.7473E-02  0.2293E+00  0.2293E+00
      2.180  0.7502E-02  0.7502E-02  0.2298E+00  0.2298E+00
      2.254  0.7260E-02  0.7260E-02  0.2303E+00  0.2303E+00
      2.328  0.6677E-02  0.6677E-02  0.2308E+00  0.2308E+00
      2.401  0.6324E-02  0.6324E-02  0.2313E+00  0.2313E+00
      2.475  0.6549E-02  0.6549E-02  0.2318E+00  0.2318E+00
      2.549  0.6784E-02  0.6784E-02  0.2323E+00  0.2323E+00
      2.622  0.6216E-02  0.6216E-02  0.2327E+00  0.2327E+00
      2.696  0.4940E-02  0.4940E-02  0.2331E+00  0.2331E+00
      2.770  0.3898E-02  0.3898E-02  0.2334E+00  0.2334E+00
      2.844  0.4016E-02  0.4016E-02  0.2337E+00  0.2337E+00
      2.917  0.5601E-02  0.5601E-02  0.2341E+00  0.2341E+00
      2.991  0.7764E-02  0.7764E-02  0.2347E+00  0.2347E+00
      3.065  0.8522E-02  0.8522E-02  0.2353E+00  0.2353E+00
      3.138  0.6771E-02  0.6771E-02  0.2358E+00  0.2358E+00
      3.212  0.3946E-02  0.3946E-02  0.2361E+00  0.2361E+00
      3.286  0.2502E-02  0.2502E-02  0.2363E+00  0.2363E+00
      3.360  0.3238E-02  0.3238E-02  0.2365E+00  0.2365E+00
      3.433  0.4979E-02  0.4979E-02  0.2369E+00  0.2369E+00
      3.507  0.6219E-02  0.6219E-02  0.2373E+00  0.2373E+00
      3.581  0.6332E-02  0.6332E-02  0.2378E+00  0.2378E+00
      3.654  0.5766E-02  0.5766E-02  0.2382E+00  0.2382E+00
      3.728  0.5447E-02  0.5447E-02  0.2386E+00  0.2386E+00
      3.802  0.5755E-02  0.5755E-02  0.2391E+00  0.2391E+00
      3.876  0.6281E-02  0.6281E-02  0.2395E+00  0.2395E+00
      3.949  0.6540E-02  0.6540E-02  0.2400E+00  0.2400E+00
      4.023  0.6377E-02  0.6377E-02  0.2405E+00  0.2405E+00
      4.097  0.5815E-02  0.5815E-02  0.2409E+00  0.2409E+00
      4.170  0.4989E-02  0.4989E-02  0.2413E+00  0.2413E+00
      4.244  0.4260E-02  0.4260E-02  0.2416E+00  0.2416E+00
      4.318  0.4133E-02  0.4133E-02  0.2419E+00  0.2419E+00
      4.391  0.4607E-02  0.4607E-02  0.2422E+00  0.2422E+00
      4.465  0.4889E-02  0.4889E-02  0.2426E+00  0.2426E+00
      4.539  0.4572E-02  0.4572E-02  0.2429E+00  0.2429E+00
      4.613  0.4645E-02  0.4645E-02  0.2433E+00  0.2433E+00
      4.686  0.6206E-02  0.6206E-02  0.2437E+00  0.2437E+00
      4.760  0.8439E-02  0.8439E-02  0.2443E+00  0.2443E+00
      4.834  0.9150E-02  0.9150E-02  0.2450E+00  0.2450E+00
      4.907  0.7510E-02  0.7510E-02  0.2456E+00  0.2456E+00
      4.981  0.5049E-02  0.5049E-02  0.2459E+00  0.2459E+00
      5.055  0.3552E-02  0.3552E-02  0.2462E+00  0.2462E+00
      5.129  0.3388E-02  0.3388E-02  0.2465E+00  0.2465E+00
      5.202  0.4278E-02  0.4278E-02  0.2468E+00  0.2468E+00
      5.276  0.6043E-02  0.6043E-02  0.2472E+00  0.2472E+00
      5.350  0.7946E-02  0.7946E-02  0.2478E+00  0.2478E+00
      5.423  0.8943E-02  0.8943E-02  0.2485E+00  0.2485E+00
      5.497  0.9180E-02  0.9180E-02  0.2491E+00  0.2491E+00
      5.571  0.9496E-02  0.9496E-02  0.2498E+00  0.2498E+00
      5.645  0.9588E-02  0.9588E-02  0.2505E+00  0.2505E+00
      5.718  0.8779E-02  0.8780E-02  0.2512E+00  0.2512E+00
      5.792  0.7974E-02  0.7974E-02  0.2518E+00  0.2518E+00
      5.866  0.8732E-02  0.8732E-02  0.2524E+00  0.2524E+00
      5.939  0.1083E-01  0.1083E-01  0.2532E+00  0.2532E+00
      6.013  0.1222E-01  0.1222E-01  0.2541E+00  0.2541E+00
      6.087  0.1142E-01  0.1142E-01  0.2550E+00  0.2550E+00
      6.160  0.9152E-02  0.9152E-02  0.2556E+00  0.2556E+00
      6.234  0.7344E-02  0.7344E-02  0.2562E+00  0.2562E+00
      6.308  0.7085E-02  0.7085E-02  0.2567E+00  0.2567E+00
      6.382  0.7904E-02  0.7904E-02  0.2573E+00  0.2573E+00
      6.455  0.8851E-02  0.8851E-02  0.2579E+00  0.2579E+00
      6.529  0.9437E-02  0.9437E-02  0.2586E+00  0.2586E+00
      6.603  0.9507E-02  0.9507E-02  0.2593E+00  0.2593E+00
      6.676  0.9211E-02  0.9211E-02  0.2600E+00  0.2600E+00
      6.750  0.9145E-02  0.9145E-02  0.2607E+00  0.2607E+00
      6.824  0.9625E-02  0.9625E-02  0.2614E+00  0.2614E+00
      6.898  0.9992E-02  0.9992E-02  0.2621E+00  0.2621E+00
      6.971  0.9382E-02  0.9382E-02  0.2628E+00  0.2628E+00
      7.045  0.7978E-02  0.7979E-02  0.2634E+00  0.2634E+00
      7.119  0.6950E-02  0.6950E-02  0.2639E+00  0.2639E+00
      7.192  0.7264E-02  0.7264E-02  0.2645E+00  0.2645E+00
      7.266  0.8850E-02  0.8850E-02  0.2651E+00  0.2651E+00
      7.340  0.1066E-01  0.1066E-01  0.2659E+00  0.2659E+00
      7.414  0.1142E-01  0.1142E-01  0.2667E+00  0.2667E+00
      7.487  0.1059E-01  0.1059E-01  0.2675E+00  0.2675E+00
      7.561  0.8915E-02  0.8916E-02  0.2682E+00  0.2682E+00
      7.635  0.7811E-02  0.7811E-02  0.2688E+00  0.2688E+00
      7.708  0.8167E-02  0.8167E-02  0.2694E+00  0.2694E+00
      7.782  0.9798E-02  0.9798E-02  0.2701E+00  0.2701E+00
      7.856  0.1195E-01  0.1195E-01  0.2710E+00  0.2710E+00
      7.929  0.1371E-01  0.1371E-01  0.2720E+00  0.2720E+00
      8.003  0.1393E-01  0.1393E-01  0.2730E+00  0.2730E+00
      8.077  0.1231E-01  0.1231E-01  0.2739E+00  0.2739E+00
      8.151  0.1025E-01  0.1025E-01  0.2747E+00  0.2747E+00
      8.224  0.9446E-02  0.9446E-02  0.2754E+00  0.2754E+00
      8.298  0.1004E-01  0.1004E-01  0.2761E+00  0.2761E+00
      8.372  0.1080E-01  0.1080E-01  0.2769E+00  0.2769E+00
      8.445  0.1050E-01  0.1050E-01  0.2777E+00  0.2777E+00
      8.519  0.9011E-02  0.9011E-02  0.2783E+00  0.2783E+00
      8.593  0.7546E-02  0.7546E-02  0.2789E+00  0.2789E+00
      8.667  0.7670E-02  0.7669E-02  0.2795E+00  0.2795E+00
      8.740  0.9641E-02  0.9641E-02  0.2802E+00  0.2802E+00
      8.814  0.1214E-01  0.1214E-01  0.2811E+00  0.2811E+00
      8.888  0.1362E-01  0.1362E-01  0.2821E+00  0.2821E+00
      8.961  0.1358E-01  0.1358E-01  0.2831E+00  0.2831E+00
      9.035  0.1246E-01  0.1246E-01  0.2840E+00  0.2840E+00
      9.109  0.1089E-01  0.1089E-01  0.2848E+00  0.2848E+00
      9.183  0.9419E-02  0.9423E-02  0.2855E+00  0.2855E+00
      9.256  0.8441E-02  0.8446E-02  0.2861E+00  0.2861E+00
      9.330  0.7925E-02  0.7922E-02  0.2867E+00  0.2867E+00
      9.404  0.7452E-02  0.7425E-02  0.2872E+00  0.2872E+00
      9.477  0.6902E-02  0.6850E-02  0.2877E+00  0.2877E+00
      9.551  0.6504E-02  0.6460E-02  0.2882E+00  0.2882E+00
      9.625  0.6235E-02  0.6238E-02  0.2887E+00  0.2887E+00
      9.698  0.5803E-02  0.5848E-02  0.2891E+00  0.2891E+00
      9.772  0.5019E-02  0.5067E-02  0.2895E+00  0.2895E+00
      9.846  0.3851E-02  0.3874E-02  0.2898E+00  0.2898E+00
      9.920  0.2408E-02  0.2412E-02  0.2899E+00  0.2899E+00
      9.993  0.1042E-02  0.1039E-02  0.2900E+00  0.2900E+00
     10.067  0.1579E-03  0.1558E-03  0.2900E+00  0.2900E+00
     10.141 -0.1571E-03 -0.1579E-03  0.2900E+00  0.2900E+00
     10.214 -0.1458E-03 -0.1460E-03  0.2900E+00  0.2900E+00
     10.288 -0.6660E-04 -0.6664E-04  0.2900E+00  0.2900E+00
     10.362 -0.1994E-04 -0.1995E-04  0.2900E+00  0.2900E+00
     10.436 -0.4207E-05 -0.4209E-05  0.2900E+00  0.2900E+00
     10.509 -0.6441E-06 -0.6443E-06  0.2900E+00  0.2900E+00
     10.583 -0.7267E-07 -0.7270E-07  0.2900E+00  0.2900E+00
     10.657 -0.6098E-08 -0.6100E-08  0.2900E+00  0.2900E+00
     10.730 -0.3828E-09 -0.3830E-09  0.2900E+00  0.2900E+00
     10.804 -0.1805E-10 -0.1806E-10  0.2900E+00  0.2900E+00
     10.878 -0.6414E-12 -0.6418E-12  0.2900E+00  0.2900E+00
     10.952 -0.1721E-13 -0.1722E-13  0.2900E+00  0.2900E+00
     11.025 -0.3498E-15 -0.3498E-15  0.2900E+00  0.2900E+00
     11.099 -0.5021E-17 -0.5021E-17  0.2900E+00  0.2900E+00
     11.173  0.0000E+00  0.0000E+00  0.2900E+00  0.2900E+00
     11.246  0.0000E+00  0.0000E+00  0.2900E+00  0.2900E+00
     11.320  0.0000E+00  0.0000E+00  0.2900E+00  0.2900E+00
     11.394  0.0000E+00  0.0000E+00  0.2900E+00  0.2900E+00
     11.468  0.0000E+00  0.0000E+00  0.2900E+00  0.2900E+00
     11.541  0.0000E+00  0.0000E+00  0.2900E+00  0.2900E+00
     11.615  0.0000E+00  0.0000E+00  0.2900E+00  0.2900E+00
     11.689  0.0000E+00  0.0000E+00  0.2900E+00  0.2900E+00
     11.762  0.0000E+00  0.0000E+00  0.2900E+00  0.2900E+00
     11.836  0.0000E+00  0.0000E+00  0.2900E+00  0.2900E+00
