       N       E                     dE             d eps       ncg     rms          rms(c)
DAV:   1     0.327187844215E+04    0.32719E+04   -0.12737E+05  3712   0.172E+03
DAV:   2     0.384547632470E+03   -0.28873E+04   -0.27597E+04  3712   0.406E+02
DAV:   3    -0.999628560213E+02   -0.48451E+03   -0.43701E+03  3744   0.209E+02
DAV:   4    -0.133198239680E+03   -0.33235E+02   -0.32276E+02  4208   0.770E+01
DAV:   5    -0.133969032844E+03   -0.77079E+00   -0.76866E+00  4192   0.110E+01    0.521E+01
DAV:   6    -0.108300633704E+03    0.25668E+02   -0.31942E+02  4056   0.119E+02    0.263E+01
DAV:   7    -0.952507867986E+02    0.13050E+02   -0.82457E+01  4128   0.743E+01    0.135E+01
DAV:   8    -0.939700550827E+02    0.12807E+01   -0.20885E+01  4240   0.717E+01    0.134E+01
DAV:   9    -0.921064809892E+02    0.18636E+01   -0.71641E+00  5128   0.444E+01    0.104E+01
DAV:  10    -0.933049021787E+02   -0.11984E+01   -0.59853E+00  5640   0.497E+01    0.101E+01
DAV:  11    -0.933012560254E+02    0.36462E-02   -0.56811E+00  6000   0.406E+01    0.769E+00
DAV:  12    -0.955434050542E+02   -0.22421E+01   -0.32044E+00  4984   0.310E+01    0.638E+00
DAV:  13    -0.100393873858E+03   -0.48505E+01   -0.33070E+00  4656   0.200E+01    0.403E+00
DAV:  14    -0.105987228052E+03   -0.55934E+01   -0.34943E+00  4704   0.175E+01    0.291E+00
DAV:  15    -0.110049845454E+03   -0.40626E+01   -0.30061E+00  5184   0.148E+01    0.239E+00
DAV:  16    -0.113014171549E+03   -0.29643E+01   -0.31114E+00  4304   0.107E+01    0.131E+00
DAV:  17    -0.114587600361E+03   -0.15734E+01   -0.11717E+00  4152   0.516E+00    0.112E+00
DAV:  18    -0.115793366146E+03   -0.12058E+01   -0.72263E-01  4288   0.524E+00    0.872E-01
DAV:  19    -0.116435385140E+03   -0.64202E+00   -0.41667E-01  4608   0.334E+00    0.564E-01
DAV:  20    -0.116890513608E+03   -0.45513E+00   -0.15786E-01  4392   0.246E+00    0.488E-01
DAV:  21    -0.117027992674E+03   -0.13748E+00   -0.38275E-02  4272   0.163E+00    0.365E-01
DAV:  22    -0.117238271601E+03   -0.21028E+00   -0.36753E-02  4560   0.159E+00    0.308E-01
DAV:  23    -0.117442555292E+03   -0.20428E+00   -0.16724E-02  4576   0.114E+00    0.245E-01
DAV:  24    -0.117610408147E+03   -0.16785E+00   -0.11840E-02  5056   0.961E-01    0.194E-01
DAV:  25    -0.117742508431E+03   -0.13210E+00   -0.38789E-03  4536   0.745E-01    0.141E-01
DAV:  26    -0.117910848882E+03   -0.16834E+00   -0.46507E-03  4720   0.603E-01    0.106E-01
DAV:  27    -0.117984525331E+03   -0.73676E-01   -0.28558E-03  4808   0.396E-01    0.816E-02
DAV:  28    -0.118016754906E+03   -0.32230E-01   -0.81810E-04  3328   0.343E-01    0.412E-02
DAV:  29    -0.118023870556E+03   -0.71156E-02   -0.37702E-04  2776   0.207E-01    0.316E-02
DAV:  30    -0.118027911470E+03   -0.40409E-02   -0.32066E-04  2728   0.142E-01    0.234E-02
DAV:  31    -0.118029174192E+03   -0.12627E-02   -0.11218E-04  2528   0.850E-02    0.109E-02
DAV:  32    -0.118029387983E+03   -0.21379E-03   -0.48697E-05  2448   0.637E-02    0.117E-02
DAV:  33    -0.118029511407E+03   -0.12342E-03   -0.27823E-05  2480   0.515E-02
   1 F= -.13047330E+03 E0= -.13048578E+03  d E =-.130473E+03  mag=    -0.0004
       N       E                     dE             d eps       ncg     rms          rms(c)
DAV:   1    -0.118016349173E+03    0.13039E-01   -0.48898E+00  3888   0.432E+00    0.556E-01
DAV:   2    -0.118020932896E+03   -0.45837E-02   -0.10265E-01  5336   0.161E+00    0.390E-01
DAV:   3    -0.118023604995E+03   -0.26721E-02   -0.21861E-02  4416   0.348E+00    0.445E-01
DAV:   4    -0.118020974136E+03    0.26309E-02   -0.16885E-02  4488   0.368E+00    0.261E-01
DAV:   5    -0.118019227292E+03    0.17468E-02   -0.58427E-03  5880   0.198E+00    0.699E-02
DAV:   6    -0.118019300761E+03   -0.73469E-04   -0.18053E-03  5080   0.556E-01
   2 F= -.13048027E+03 E0= -.13049277E+03  d E =-.696245E-02  mag=    -0.0002
       N       E                     dE             d eps       ncg     rms          rms(c)
DAV:   1    -0.118039975810E+03   -0.20749E-01   -0.10909E+00  3880   0.209E+00    0.245E-01
DAV:   2    -0.118041341121E+03   -0.13653E-02   -0.25838E-02  5296   0.589E-01    0.176E-01
DAV:   3    -0.118041140203E+03    0.20092E-03   -0.27814E-03  4280   0.917E-01    0.138E-01
DAV:   4    -0.118041145861E+03   -0.56572E-05   -0.20582E-03  4120   0.116E+00    0.104E-01
DAV:   5    -0.118040996373E+03    0.14949E-03   -0.13970E-03  2760   0.105E+00
   3 F= -.13049013E+03 E0= -.13050258E+03  d E =-.168218E-01  mag=    -0.0001
       N       E                     dE             d eps       ncg     rms          rms(c)
DAV:   1    -0.118045064291E+03   -0.39184E-02   -0.41435E+00  3936   0.420E+00    0.168E-01
DAV:   2    -0.118052436629E+03   -0.73723E-02   -0.77195E-02  5256   0.133E+00    0.193E-01
DAV:   3    -0.118052367095E+03    0.69533E-04   -0.39390E-03  4088   0.103E+00    0.133E-01
DAV:   4    -0.118052297767E+03    0.69329E-04   -0.10274E-03  3320   0.757E-01
   4 F= -.13050475E+03 E0= -.13051736E+03  d E =-.146218E-01  mag=    -0.0001
       N       E                     dE             d eps       ncg     rms          rms(c)
DAV:   1    -0.118051390282E+03    0.97681E-03   -0.33814E+00  3984   0.387E+00    0.194E-01
DAV:   2    -0.118057498410E+03   -0.61081E-02   -0.63047E-02  5376   0.131E+00    0.208E-01
DAV:   3    -0.118057595190E+03   -0.96780E-04   -0.88594E-03  3952   0.169E+00    0.195E-01
DAV:   4    -0.118057222436E+03    0.37275E-03   -0.18564E-03  3800   0.767E-01    0.112E-01
DAV:   5    -0.118057213077E+03    0.93593E-05   -0.11630E-03  4168   0.494E-01
   5 F= -.13051243E+03 E0= -.13052532E+03  d E =-.223077E-01  mag=    -0.0000
       N       E                     dE             d eps       ncg     rms          rms(c)
DAV:   1    -0.118027285935E+03    0.29937E-01   -0.13476E+01  3960   0.765E+00    0.347E-01
DAV:   2    -0.118054431355E+03   -0.27145E-01   -0.28963E-01  5280   0.287E+00    0.402E-01
DAV:   3    -0.118053495969E+03    0.93539E-03   -0.14162E-02  4064   0.214E+00    0.230E-01
DAV:   4    -0.118053451509E+03    0.44459E-04   -0.43263E-03  4352   0.142E+00    0.215E-01
DAV:   5    -0.118053102665E+03    0.34884E-03   -0.28377E-03  4040   0.125E+00    0.165E-01
DAV:   6    -0.118052815358E+03    0.28731E-03   -0.20556E-03  5040   0.645E-01    0.525E-02
DAV:   7    -0.118052818275E+03   -0.29164E-05   -0.71697E-04  3384   0.520E-01
   6 F= -.13051303E+03 E0= -.13052613E+03  d E =-.229040E-01  mag=    -0.0000
       N       E                     dE             d eps       ncg     rms          rms(c)
DAV:   1    -0.118051483832E+03    0.13315E-02   -0.35616E+00  3944   0.392E+00    0.166E-01
DAV:   2    -0.118057876432E+03   -0.63926E-02   -0.67787E-02  5256   0.125E+00    0.197E-01
DAV:   3    -0.118057740208E+03    0.13622E-03   -0.39172E-03  3928   0.110E+00    0.132E-01
DAV:   4    -0.118057620210E+03    0.12000E-03   -0.78550E-04  2344   0.703E-01
   7 F= -.13051535E+03 E0= -.13052834E+03  d E =-.252215E-01  mag=    -0.0000
       N       E                     dE             d eps       ncg     rms          rms(c)
DAV:   1    -0.118051299259E+03    0.64409E-02   -0.18331E+00  3928   0.284E+00    0.997E-02
DAV:   2    -0.118054655328E+03   -0.33561E-02   -0.34157E-02  5200   0.738E-01    0.802E-02
DAV:   3    -0.118054786012E+03   -0.13068E-03   -0.20599E-03  3752   0.846E-01    0.106E-01
DAV:   4    -0.118054628592E+03    0.15742E-03   -0.47122E-04  2256   0.508E-01
   8 F= -.13051417E+03 E0= -.13052727E+03  d E =-.240386E-01  mag=    -0.0000
       N       E                     dE             d eps       ncg     rms          rms(c)
DAV:   1    -0.118055356229E+03   -0.57022E-03   -0.76259E-01  3960   0.183E+00    0.656E-02
DAV:   2    -0.118056779369E+03   -0.14231E-02   -0.13853E-02  5536   0.692E-01    0.819E-02
DAV:   3    -0.118056783216E+03   -0.38468E-05   -0.16583E-03  3704   0.785E-01
   9 F= -.13051516E+03 E0= -.13052818E+03  d E =-.250364E-01  mag=    -0.0000
       N       E                     dE             d eps       ncg     rms          rms(c)
DAV:   1    -0.118062208052E+03   -0.54287E-02   -0.14243E+00  3728   0.242E+00    0.207E-01
DAV:   2    -0.118065021204E+03   -0.28132E-02   -0.34570E-02  5192   0.706E-01    0.164E-01
DAV:   3    -0.118064876941E+03    0.14426E-03   -0.20065E-03  4224   0.711E-01    0.125E-01
DAV:   4    -0.118064784193E+03    0.92748E-04   -0.11334E-03  3984   0.794E-01
  10 F= -.13052358E+03 E0= -.13053665E+03  d E =-.841837E-02  mag=    -0.0000
       N       E                     dE             d eps       ncg     rms          rms(c)
DAV:   1    -0.118065083355E+03   -0.20641E-03   -0.10257E-01  5312   0.115E+00    0.100E-01
DAV:   2    -0.118068670383E+03   -0.35870E-02   -0.97439E-03  4440   0.282E+00    0.323E-01
DAV:   3    -0.118064904220E+03    0.37662E-02   -0.57536E-03  3904   0.227E+00    0.433E-02
DAV:   4    -0.118064963434E+03   -0.59213E-04   -0.59071E-04  3000   0.259E-01
  11 F= -.13052402E+03 E0= -.13053717E+03  d E =-.885820E-02  mag=    -0.0000
       N       E                     dE             d eps       ncg     rms          rms(c)
DAV:   1    -0.118068159995E+03   -0.32558E-02   -0.20773E-01  3760   0.963E-01    0.749E-02
DAV:   2    -0.118068540563E+03   -0.38057E-03   -0.42486E-03  5256   0.398E-01    0.635E-02
DAV:   3    -0.118068574693E+03   -0.34129E-04   -0.55077E-04  2392   0.517E-01
  12 F= -.13052835E+03 E0= -.13054156E+03  d E =-.433001E-02  mag=    -0.0000
       N       E                     dE             d eps       ncg     rms          rms(c)
DAV:   1    -0.118074254308E+03   -0.57137E-02   -0.18604E+00  3728   0.280E+00    0.230E-01
DAV:   2    -0.118077613346E+03   -0.33590E-02   -0.35726E-02  5736   0.130E+00    0.200E-01
DAV:   3    -0.118077907086E+03   -0.29374E-03   -0.66985E-03  3992   0.187E+00    0.207E-01
DAV:   4    -0.118077350483E+03    0.55660E-03   -0.27057E-03  3904   0.124E+00    0.103E-01
DAV:   5    -0.118077360057E+03   -0.95738E-05   -0.12580E-03  3744   0.768E-01
  13 F= -.13053928E+03 E0= -.13055236E+03  d E =-.152585E-01  mag=     0.0000
       N       E                     dE             d eps       ncg     rms          rms(c)
DAV:   1    -0.118074295220E+03    0.30553E-02   -0.74178E+00  3728   0.555E+00    0.412E-01
DAV:   2    -0.118087671179E+03   -0.13376E-01   -0.15078E-01  5200   0.159E+00    0.302E-01
DAV:   3    -0.118088070095E+03   -0.39892E-03   -0.81179E-03  4136   0.179E+00    0.268E-01
DAV:   4    -0.118088101523E+03   -0.31428E-04   -0.61195E-03  4128   0.222E+00    0.205E-01
DAV:   5    -0.118087483477E+03    0.61805E-03   -0.42038E-03  4040   0.187E+00    0.133E-01
DAV:   6    -0.118087121632E+03    0.36185E-03   -0.10987E-03  3296   0.844E-01    0.296E-02
DAV:   7    -0.118087146917E+03   -0.25286E-04   -0.51305E-04  2752   0.258E-01
  14 F= -.13055331E+03 E0= -.13056655E+03  d E =-.292887E-01  mag=     0.0000
       N       E                     dE             d eps       ncg     rms          rms(c)
DAV:   1    -0.118024275891E+03    0.62846E-01   -0.29606E+01  3728   0.111E+01    0.823E-01
DAV:   2    -0.118078469568E+03   -0.54194E-01   -0.60544E-01  5264   0.405E+00    0.698E-01
DAV:   3    -0.118080792035E+03   -0.23225E-02   -0.51809E-02  4048   0.513E+00    0.613E-01
DAV:   4    -0.118078197232E+03    0.25948E-02   -0.28746E-02  4072   0.478E+00    0.432E-01
DAV:   5    -0.118074878278E+03    0.33190E-02   -0.12870E-02  4704   0.310E+00    0.199E-01
DAV:   6    -0.118074946859E+03   -0.68581E-04   -0.74424E-03  5328   0.116E+00    0.565E-02
DAV:   7    -0.118075037357E+03   -0.90498E-04   -0.20717E-03  3968   0.575E-01    0.587E-02
DAV:   8    -0.118075067323E+03   -0.29966E-04   -0.98078E-04  3744   0.312E-01
  15 F= -.13054970E+03 E0= -.13056307E+03  d E =-.256741E-01  mag=     0.0000
       N       E                     dE             d eps       ncg     rms          rms(c)
DAV:   1    -0.118064707083E+03    0.10330E-01   -0.13441E+01  3728   0.745E+00    0.542E-01
DAV:   2    -0.118089484401E+03   -0.24777E-01   -0.27985E-01  5184   0.206E+00    0.420E-01
DAV:   3    -0.118088640360E+03    0.84404E-03   -0.11440E-02  4080   0.170E+00    0.312E-01
DAV:   4    -0.118088401110E+03    0.23925E-03   -0.62757E-03  4120   0.191E+00    0.225E-01
DAV:   5    -0.118088992429E+03   -0.59132E-03   -0.58214E-03  4560   0.209E+00    0.188E-01
DAV:   6    -0.118087942147E+03    0.10503E-02   -0.38436E-03  3856   0.173E+00    0.703E-02
DAV:   7    -0.118087823840E+03    0.11831E-03   -0.55357E-04  2432   0.586E-01
  16 F= -.13055673E+03 E0= -.13057009E+03  d E =-.327076E-01  mag=     0.0000
       N       E                     dE             d eps       ncg     rms          rms(c)
DAV:   1    -0.118078661538E+03    0.92806E-02   -0.33526E+00  3728   0.370E+00    0.275E-01
DAV:   2    -0.118084198158E+03   -0.55366E-02   -0.63293E-02  5200   0.117E+00    0.222E-01
DAV:   3    -0.118084300180E+03   -0.10202E-03   -0.48578E-03  4048   0.138E+00    0.191E-01
DAV:   4    -0.118084337817E+03   -0.37638E-04   -0.30636E-03  3904   0.153E+00    0.153E-01
DAV:   5    -0.118083952269E+03    0.38555E-03   -0.19734E-03  2688   0.132E+00    0.781E-02
DAV:   6    -0.118083811221E+03    0.14105E-03   -0.48256E-04  2328   0.589E-01
  17 F= -.13055557E+03 E0= -.13056897E+03  d E =-.315473E-01  mag=     0.0000
       N       E                     dE             d eps       ncg     rms          rms(c)
DAV:   1    -0.118084810573E+03   -0.85830E-03   -0.14269E+00  3728   0.243E+00    0.178E-01
DAV:   2    -0.118087161183E+03   -0.23506E-02   -0.26648E-02  5184   0.730E-01    0.142E-01
DAV:   3    -0.118087472307E+03   -0.31112E-03   -0.26989E-03  3920   0.121E+00    0.156E-01
DAV:   4    -0.118087033809E+03    0.43850E-03   -0.13057E-03  2368   0.103E+00    0.645E-02
DAV:   5    -0.118086996023E+03    0.37786E-04   -0.31915E-04  2320   0.388E-01
  18 F= -.13055689E+03 E0= -.13057022E+03  d E =-.328663E-01  mag=     0.0000
       N       E                     dE             d eps       ncg     rms          rms(c)
DAV:   1    -0.118095236666E+03   -0.82029E-02   -0.16776E+00  3712   0.243E+00    0.256E-01
DAV:   2    -0.118097915270E+03   -0.26786E-02   -0.33560E-02  5040   0.670E-01    0.175E-01
DAV:   3    -0.118098612390E+03   -0.69712E-03   -0.33109E-03  4000   0.142E+00    0.197E-01
DAV:   4    -0.118097907596E+03    0.70479E-03   -0.29637E-03  3776   0.159E+00    0.898E-02
DAV:   5    -0.118097759990E+03    0.14761E-03   -0.58082E-04  2336   0.738E-01
  19 F= -.13056787E+03 E0= -.13058119E+03  d E =-.109805E-01  mag=     0.0000
       N       E                     dE             d eps       ncg     rms          rms(c)
DAV:   1    -0.118097719745E+03    0.18785E-03   -0.15125E+01  3712   0.726E+00    0.777E-01
DAV:   2    -0.118122802215E+03   -0.25082E-01   -0.30375E-01  5136   0.250E+00    0.568E-01
DAV:   3    -0.118131755970E+03   -0.89538E-02   -0.44214E-02  4080   0.542E+00    0.692E-01
DAV:   4    -0.118121512740E+03    0.10243E-01   -0.28184E-02  4304   0.490E+00    0.227E-01
DAV:   5    -0.118120943802E+03    0.56894E-03   -0.66874E-03  6496   0.198E+00    0.145E-01
DAV:   6    -0.118120783433E+03    0.16037E-03   -0.33330E-03  4544   0.106E+00    0.480E-02
DAV:   7    -0.118120874352E+03   -0.90918E-04   -0.16002E-03  3760   0.395E-01
  20 F= -.13059123E+03 E0= -.13060467E+03  d E =-.343377E-01  mag=     0.0000
       N       E                     dE             d eps       ncg     rms          rms(c)
DAV:   1    -0.118031613591E+03    0.89170E-01   -0.60222E+01  3712   0.145E+01    0.159E+00
DAV:   2    -0.118136045342E+03   -0.10443E+00   -0.12741E+00  5168   0.554E+00    0.121E+00
DAV:   3    -0.118162767746E+03   -0.26722E-01   -0.18793E-01  4256   0.106E+01    0.133E+00
DAV:   4    -0.118129984458E+03    0.32783E-01   -0.11825E-01  4384   0.956E+00    0.595E-01
DAV:   5    -0.118124498336E+03    0.54861E-02   -0.33323E-02  5760   0.479E+00    0.322E-01
DAV:   6    -0.118124081918E+03    0.41642E-03   -0.17839E-02  4800   0.220E+00    0.957E-02
DAV:   7    -0.118124561166E+03   -0.47925E-03   -0.74915E-03  4064   0.802E-01    0.817E-02
DAV:   8    -0.118124639065E+03   -0.77898E-04   -0.17510E-03  3904   0.370E-01
  21 F= -.13059346E+03 E0= -.13060689E+03  d E =-.365746E-01  mag=     0.0000
       N       E                     dE             d eps       ncg     rms          rms(c)
DAV:   1    -0.118104364207E+03    0.20197E-01   -0.16552E+01  3712   0.744E+00    0.853E-01
DAV:   2    -0.118132013855E+03   -0.27650E-01   -0.35044E-01  5072   0.210E+00    0.587E-01
DAV:   3    -0.118136566744E+03   -0.45529E-02   -0.31553E-02  4128   0.408E+00    0.592E-01
DAV:   4    -0.118133186348E+03    0.33804E-02   -0.34794E-02  4224   0.507E+00    0.389E-01
DAV:   5    -0.118130040359E+03    0.31460E-02   -0.10677E-02  4848   0.294E+00    0.139E-01
DAV:   6    -0.118129750116E+03    0.29024E-03   -0.32665E-03  5520   0.110E+00    0.536E-02
DAV:   7    -0.118129813828E+03   -0.63711E-04   -0.12234E-03  3760   0.414E-01
  22 F= -.13059974E+03 E0= -.13061325E+03  d E =-.428551E-01  mag=     0.0000
       N       E                     dE             d eps       ncg     rms          rms(c)
DAV:   1    -0.118137658047E+03   -0.79079E-02   -0.10970E+00  3712   0.184E+00    0.240E-01
DAV:   2    -0.118139114215E+03   -0.14562E-02   -0.20583E-02  5264   0.642E-01    0.168E-01
DAV:   3    -0.118140153083E+03   -0.10389E-02   -0.44666E-03  3984   0.173E+00    0.222E-01
DAV:   4    -0.118138984200E+03    0.11689E-02   -0.31105E-03  2896   0.159E+00    0.691E-02
DAV:   5    -0.118138911950E+03    0.72250E-04   -0.45077E-04  2480   0.624E-01
  23 F= -.13060858E+03 E0= -.13062193E+03  d E =-.884169E-02  mag=     0.0000
       N       E                     dE             d eps       ncg     rms          rms(c)
DAV:   1    -0.118143121684E+03   -0.41375E-02   -0.29185E+00  3712   0.301E+00    0.384E-01
DAV:   2    -0.118147403863E+03   -0.42822E-02   -0.55227E-02  5488   0.115E+00    0.270E-01
DAV:   3    -0.118150531898E+03   -0.31280E-02   -0.13722E-02  3936   0.298E+00    0.373E-01
DAV:   4    -0.118147019078E+03    0.35128E-02   -0.78813E-03  4096   0.246E+00    0.795E-02
DAV:   5    -0.118147091065E+03   -0.71987E-04   -0.12118E-03  3840   0.835E-01
  24 F= -.13061644E+03 E0= -.13062969E+03  d E =-.166950E-01  mag=     0.0000
       N       E                     dE             d eps       ncg     rms          rms(c)
DAV:   1    -0.118147575633E+03   -0.55656E-03   -0.23479E-01  4592   0.103E+00    0.105E-01
DAV:   2    -0.118147958284E+03   -0.38265E-03   -0.42021E-03  4480   0.560E-01    0.919E-02
DAV:   3    -0.118148019205E+03   -0.60920E-04   -0.13952E-03  3632   0.862E-01
  25 F= -.13061732E+03 E0= -.13063070E+03  d E =-.175738E-01  mag=     0.0000
       N       E                     dE             d eps       ncg     rms          rms(c)
DAV:   1    -0.118154447863E+03   -0.64896E-02   -0.49145E-01  3712   0.146E+00    0.143E-01
DAV:   2    -0.118155353394E+03   -0.90553E-03   -0.10678E-02  5760   0.716E-01    0.114E-01
DAV:   3    -0.118155410600E+03   -0.57205E-04   -0.15875E-03  4016   0.861E-01
  26 F= -.13062329E+03 E0= -.13063678E+03  d E =-.596931E-02  mag=     0.0000
       N       E                     dE             d eps       ncg     rms          rms(c)
DAV:   1    -0.118166099588E+03   -0.10746E-01   -0.44422E+00  3712   0.414E+00    0.411E-01
DAV:   2    -0.118174320469E+03   -0.82209E-02   -0.89023E-02  5888   0.213E+00    0.345E-01
DAV:   3    -0.118175326533E+03   -0.10061E-02   -0.21678E-02  4016   0.334E+00    0.367E-01
DAV:   4    -0.118173061817E+03    0.22647E-02   -0.78149E-03  4064   0.201E+00    0.124E-01
DAV:   5    -0.118173338492E+03   -0.27668E-03   -0.32066E-03  4592   0.110E+00    0.112E-01
DAV:   6    -0.118173303388E+03    0.35104E-04   -0.22754E-03  4048   0.764E-01    0.305E-02
DAV:   7    -0.118173354879E+03   -0.51492E-04   -0.73117E-04  3344   0.261E-01
  27 F= -.13063696E+03 E0= -.13065030E+03  d E =-.196454E-01  mag=     0.0000
       N       E                     dE             d eps       ncg     rms          rms(c)
DAV:   1    -0.118161653949E+03    0.11649E-01   -0.17743E+01  3712   0.812E+00    0.767E-01
DAV:   2    -0.118193334050E+03   -0.31680E-01   -0.37764E-01  5120   0.243E+00    0.567E-01
DAV:   3    -0.118193089822E+03    0.24423E-03   -0.23290E-02  4192   0.287E+00    0.448E-01
DAV:   4    -0.118193963271E+03   -0.87345E-03   -0.18535E-02  4176   0.358E+00    0.337E-01
DAV:   5    -0.118192615677E+03    0.13476E-02   -0.19774E-02  4352   0.355E+00    0.262E-01
DAV:   6    -0.118190881975E+03    0.17337E-02   -0.53754E-03  5536   0.171E+00    0.495E-02
DAV:   7    -0.118190968394E+03   -0.86419E-04   -0.13710E-03  4896   0.446E-01
  28 F= -.13064618E+03 E0= -.13065956E+03  d E =-.288646E-01  mag=     0.0000
       N       E                     dE             d eps       ncg     rms          rms(c)
DAV:   1    -0.118188256869E+03    0.26251E-02   -0.75258E-01  3712   0.168E+00    0.161E-01
DAV:   2    -0.118189503252E+03   -0.12464E-02   -0.15590E-02  5120   0.508E-01    0.123E-01
DAV:   3    -0.118189456386E+03    0.46866E-04   -0.10079E-03  3840   0.663E-01
  29 F= -.13064637E+03 E0= -.13065978E+03  d E =-.290531E-01  mag=     0.0000
       N       E                     dE             d eps       ncg     rms          rms(c)
DAV:   1    -0.118190183230E+03   -0.67998E-03   -0.17148E-01  5136   0.109E+00    0.783E-02
DAV:   2    -0.118191768091E+03   -0.15849E-02   -0.62866E-03  3912   0.185E+00    0.212E-01
DAV:   3    -0.118190201316E+03    0.15668E-02   -0.33603E-03  2800   0.148E+00    0.377E-02
DAV:   4    -0.118190236559E+03   -0.35243E-04   -0.36747E-04  2544   0.226E-01
  30 F= -.13064634E+03 E0= -.13065958E+03  d E =-.290219E-01  mag=     0.0000
       N       E                     dE             d eps       ncg     rms          rms(c)
DAV:   1    -0.118196752015E+03   -0.65507E-02   -0.16492E+00  3712   0.243E+00    0.262E-01
DAV:   2    -0.118199271765E+03   -0.25197E-02   -0.32331E-02  5184   0.716E-01    0.186E-01
DAV:   3    -0.118199669876E+03   -0.39811E-03   -0.37359E-03  4080   0.132E+00    0.187E-01
DAV:   4    -0.118199403009E+03    0.26687E-03   -0.38107E-03  3904   0.155E+00    0.114E-01
DAV:   5    -0.118199105824E+03    0.29719E-03   -0.14673E-03  2496   0.104E+00    0.554E-02
DAV:   6    -0.118199037950E+03    0.67873E-04   -0.25928E-04  2432   0.416E-01
  31 F= -.13065140E+03 E0= -.13066456E+03  d E =-.505954E-02  mag=     0.0000
       N       E                     dE             d eps       ncg     rms          rms(c)
DAV:   1    -0.118200315583E+03   -0.12098E-02   -0.12592E-01  3744   0.689E-01    0.691E-02
DAV:   2    -0.118200541110E+03   -0.22553E-03   -0.27713E-03  5136   0.225E-01    0.492E-02
DAV:   3    -0.118200554488E+03   -0.13377E-04   -0.23414E-04  2528   0.287E-01
  32 F= -.13065193E+03 E0= -.13066510E+03  d E =-.559343E-02  mag=     0.0000
       N       E                     dE             d eps       ncg     rms          rms(c)
DAV:   1    -0.118210283307E+03   -0.97422E-02   -0.24483E+00  3712   0.316E+00    0.246E-01
DAV:   2    -0.118214611700E+03   -0.43284E-02   -0.49142E-02  5136   0.988E-01    0.200E-01
DAV:   3    -0.118215144466E+03   -0.53277E-03   -0.62308E-03  4064   0.161E+00    0.213E-01
DAV:   4    -0.118214487864E+03    0.65660E-03   -0.33918E-03  3936   0.142E+00    0.110E-01
DAV:   5    -0.118214399511E+03    0.88353E-04   -0.11307E-03  2912   0.874E-01
  33 F= -.13065892E+03 E0= -.13067206E+03  d E =-.698404E-02  mag=     0.0000
       N       E                     dE             d eps       ncg     rms          rms(c)
DAV:   1    -0.118219070270E+03   -0.45824E-02   -0.14438E+00  3712   0.248E+00    0.185E-01
DAV:   2    -0.118221843401E+03   -0.27731E-02   -0.31141E-02  5120   0.768E-01    0.148E-01
DAV:   3    -0.118222204495E+03   -0.36109E-03   -0.37398E-03  4064   0.125E+00    0.163E-01
DAV:   4    -0.118221789869E+03    0.41463E-03   -0.18558E-03  2576   0.106E+00    0.751E-02
DAV:   5    -0.118221800970E+03   -0.11101E-04   -0.57876E-04  2440   0.657E-01
  34 F= -.13066119E+03 E0= -.13067427E+03  d E =-.925831E-02  mag=    -0.0000
       N       E                     dE             d eps       ncg     rms          rms(c)
DAV:   1    -0.118230891510E+03   -0.91016E-02   -0.30033E+00  3712   0.353E+00    0.266E-01
DAV:   2    -0.118236049111E+03   -0.51576E-02   -0.57941E-02  5264   0.111E+00    0.216E-01
DAV:   3    -0.118236743117E+03   -0.69401E-03   -0.78762E-03  4064   0.186E+00    0.235E-01
DAV:   4    -0.118235819560E+03    0.92356E-03   -0.39397E-03  3888   0.149E+00    0.105E-01
DAV:   5    -0.118235837711E+03   -0.18151E-04   -0.12548E-03  3680   0.825E-01
  35 F= -.13066644E+03 E0= -.13067927E+03  d E =-.525064E-02  mag=    -0.0000
       N       E                     dE             d eps       ncg     rms          rms(c)
DAV:   1    -0.118240703667E+03   -0.48841E-02   -0.17516E+00  3712   0.275E+00    0.199E-01
DAV:   2    -0.118243971575E+03   -0.32679E-02   -0.36133E-02  5232   0.885E-01    0.163E-01
DAV:   3    -0.118244343396E+03   -0.37182E-03   -0.45733E-03  4000   0.137E+00    0.175E-01
DAV:   4    -0.118243902946E+03    0.44045E-03   -0.22379E-03  3552   0.112E+00    0.866E-02
DAV:   5    -0.118243917873E+03   -0.14927E-04   -0.75868E-04  2512   0.749E-01
  36 F= -.13066791E+03 E0= -.13068058E+03  d E =-.671851E-02  mag=    -0.0000
       N       E                     dE             d eps       ncg     rms          rms(c)
DAV:   1    -0.118252899157E+03   -0.89962E-02   -0.17878E+00  3712   0.276E+00    0.196E-01
DAV:   2    -0.118256289039E+03   -0.33899E-02   -0.37342E-02  5184   0.854E-01    0.165E-01
DAV:   3    -0.118256573064E+03   -0.28402E-03   -0.42116E-03  4016   0.130E+00    0.169E-01
DAV:   4    -0.118256186622E+03    0.38644E-03   -0.20608E-03  3504   0.108E+00    0.918E-02
DAV:   5    -0.118256187013E+03   -0.39077E-06   -0.81138E-04  2664   0.722E-01
  37 F= -.13067166E+03 E0= -.13068406E+03  d E =-.375153E-02  mag=    -0.0000
       N       E                     dE             d eps       ncg     rms          rms(c)
DAV:   1    -0.118261150068E+03   -0.49634E-02   -0.12973E+01  3712   0.730E+00    0.531E-01
DAV:   2    -0.118285233037E+03   -0.24083E-01   -0.26716E-01  5152   0.206E+00    0.436E-01
DAV:   3    -0.118286225564E+03   -0.99253E-03   -0.21726E-02  4160   0.283E+00    0.420E-01
DAV:   4    -0.118284641870E+03    0.15837E-02   -0.14843E-02  4208   0.293E+00    0.278E-01
DAV:   5    -0.118284389893E+03    0.25198E-03   -0.92948E-03  6288   0.228E+00    0.207E-01
DAV:   6    -0.118283594885E+03    0.79501E-03   -0.37310E-03  5712   0.139E+00    0.622E-02
DAV:   7    -0.118283604999E+03   -0.10114E-04   -0.92397E-04  3744   0.408E-01
  38 F= -.13067644E+03 E0= -.13068802E+03  d E =-.853110E-02  mag=    -0.0000
       N       E                     dE             d eps       ncg     rms          rms(c)
DAV:   1    -0.118293469618E+03   -0.98747E-02   -0.22655E+00  3712   0.306E+00    0.220E-01
DAV:   2    -0.118297536200E+03   -0.40666E-02   -0.45377E-02  5184   0.847E-01    0.176E-01
DAV:   3    -0.118297522315E+03    0.13885E-04   -0.26952E-03  4144   0.860E-01    0.143E-01
DAV:   4    -0.118297424959E+03    0.97356E-04   -0.13393E-03  3936   0.888E-01
  39 F= -.13068068E+03 E0= -.13069189E+03  d E =-.424043E-02  mag=    -0.0000
       N       E                     dE             d eps       ncg     rms          rms(c)
DAV:   1    -0.118305396174E+03   -0.78739E-02   -0.56267E+00  3712   0.496E+00    0.367E-01
DAV:   2    -0.118320287403E+03   -0.14891E-01   -0.12319E-01  6432   0.381E+00    0.476E-01
DAV:   3    -0.118314999488E+03    0.52879E-02   -0.31431E-02  5376   0.378E+00    0.282E-01
DAV:   4    -0.118314708255E+03    0.29123E-03   -0.80725E-03  4144   0.102E+00    0.152E-01
DAV:   5    -0.118314838168E+03   -0.12991E-03   -0.33131E-03  4048   0.600E-01    0.930E-02
DAV:   6    -0.118314955179E+03   -0.11701E-03   -0.27542E-03  4128   0.811E-01    0.645E-02
DAV:   7    -0.118314892324E+03    0.62855E-04   -0.43894E-04  2496   0.380E-01
  40 F= -.13068325E+03 E0= -.13069374E+03  d E =-.680661E-02  mag=    -0.0000
       N       E                     dE             d eps       ncg     rms          rms(c)
DAV:   1    -0.118322159633E+03   -0.72045E-02   -0.97030E-01  3712   0.201E+00    0.134E-01
DAV:   2    -0.118323965290E+03   -0.18057E-02   -0.19421E-02  5408   0.741E-01    0.122E-01
DAV:   3    -0.118324013928E+03   -0.48638E-04   -0.20142E-03  4032   0.886E-01    0.110E-01
DAV:   4    -0.118323924132E+03    0.89796E-04   -0.10806E-03  3184   0.723E-01
  41 F= -.13068577E+03 E0= -.13069584E+03  d E =-.252078E-02  mag=    -0.0000
       N       E                     dE             d eps       ncg     rms          rms(c)
DAV:   1    -0.118333363308E+03   -0.93494E-02   -0.56341E+00  3712   0.485E+00    0.339E-01
DAV:   2    -0.118343669415E+03   -0.10306E-01   -0.11326E-01  5136   0.140E+00    0.288E-01
DAV:   3    -0.118344487114E+03   -0.81770E-03   -0.12426E-02  4160   0.226E+00    0.312E-01
DAV:   4    -0.118342905303E+03    0.15818E-02   -0.54992E-03  4144   0.174E+00    0.148E-01
DAV:   5    -0.118343005293E+03   -0.99990E-04   -0.31613E-03  5872   0.719E-01    0.984E-02
DAV:   6    -0.118342900827E+03    0.10447E-03   -0.11060E-03  4000   0.591E-01
  42 F= -.13068924E+03 E0= -.13069864E+03  d E =-.599397E-02  mag=    -0.0000
       N       E                     dE             d eps       ncg     rms          rms(c)
DAV:   1    -0.118348388465E+03   -0.53832E-02   -0.13151E+00  3712   0.233E+00    0.155E-01
DAV:   2    -0.118350925097E+03   -0.25366E-02   -0.27508E-02  5168   0.732E-01    0.139E-01
DAV:   3    -0.118350950664E+03   -0.25567E-04   -0.19845E-03  4064   0.818E-01
  43 F= -.13068987E+03 E0= -.13069881E+03  d E =-.662211E-02  mag=    -0.0000
       N       E                     dE             d eps       ncg     rms          rms(c)
DAV:   1    -0.118353747553E+03   -0.28225E-02   -0.17894E-01  5280   0.119E+00    0.122E-01
DAV:   2    -0.118355676128E+03   -0.19286E-02   -0.79078E-03  4320   0.211E+00    0.250E-01
DAV:   3    -0.118353645892E+03    0.20302E-02   -0.50950E-03  3568   0.176E+00    0.689E-02
DAV:   4    -0.118353714093E+03   -0.68201E-04   -0.45327E-04  2896   0.419E-01
  44 F= -.13069090E+03 E0= -.13069968E+03  d E =-.102978E-02  mag=    -0.0000
       N       E                     dE             d eps       ncg     rms          rms(c)
DAV:   1    -0.118358275798E+03   -0.46299E-02   -0.15743E+00  3728   0.263E+00    0.148E-01
DAV:   2    -0.118361441248E+03   -0.31655E-02   -0.33669E-02  5248   0.857E-01    0.150E-01
DAV:   3    -0.118361464167E+03   -0.22919E-04   -0.27419E-03  4048   0.921E-01    0.125E-01
DAV:   4    -0.118361360972E+03    0.10320E-03   -0.10528E-03  2936   0.715E-01
  45 F= -.13069337E+03 E0= -.13070194E+03  d E =-.349957E-02  mag=    -0.0000
       N       E                     dE             d eps       ncg     rms          rms(c)
DAV:   1    -0.118363536138E+03   -0.20720E-02   -0.32545E-01  3792   0.131E+00    0.108E-01
DAV:   2    -0.118364447367E+03   -0.91123E-03   -0.80600E-03  6208   0.106E+00    0.135E-01
DAV:   3    -0.118364162078E+03    0.28529E-03   -0.23739E-03  3888   0.106E+00    0.862E-02
DAV:   4    -0.118364121573E+03    0.40505E-04   -0.73526E-04  3120   0.492E-01
  46 F= -.13069380E+03 E0= -.13070231E+03  d E =-.393169E-02  mag=    -0.0000
       N       E                     dE             d eps       ncg     rms          rms(c)
DAV:   1    -0.118366305612E+03   -0.21435E-02   -0.12831E+00  3744   0.240E+00    0.141E-01
DAV:   2    -0.118368903370E+03   -0.25978E-02   -0.27749E-02  5408   0.893E-01    0.141E-01
DAV:   3    -0.118368938912E+03   -0.35542E-04   -0.29099E-03  4064   0.921E-01    0.124E-01
DAV:   4    -0.118368855595E+03    0.83316E-04   -0.11512E-03  3504   0.695E-01
  47 F= -.13069390E+03 E0= -.13070201E+03  d E =-.402932E-02  mag=    -0.0000
       N       E                     dE             d eps       ncg     rms          rms(c)
DAV:   1    -0.118365385094E+03    0.35538E-02   -0.43303E-01  3776   0.151E+00    0.744E-02
DAV:   2    -0.118366555469E+03   -0.11704E-02   -0.98836E-03  6256   0.105E+00    0.109E-01
DAV:   3    -0.118366302171E+03    0.25330E-03   -0.22050E-03  3584   0.101E+00    0.764E-02
DAV:   4    -0.118366237352E+03    0.64819E-04   -0.48790E-04  2512   0.386E-01
  48 F= -.13069398E+03 E0= -.13070234E+03  d E =-.411234E-02  mag=    -0.0000
       N       E                     dE             d eps       ncg     rms          rms(c)
DAV:   1    -0.118366786117E+03   -0.48395E-03   -0.17876E-02  4992   0.331E-01    0.251E-02
DAV:   2    -0.118366830134E+03   -0.44017E-04   -0.28287E-04  2544   0.336E-01
  49 F= -.13069403E+03 E0= -.13070241E+03  d E =-.416601E-02  mag=    -0.0000
       N       E                     dE             d eps       ncg     rms          rms(c)
DAV:   1    -0.118368068153E+03   -0.12820E-02   -0.97186E-02  4112   0.702E-01    0.559E-02
DAV:   2    -0.118368231268E+03   -0.16311E-03   -0.15476E-03  3584   0.431E-01
  50 F= -.13069444E+03 E0= -.13070269E+03  d E =-.403686E-03  mag=    -0.0000
       N       E                     dE             d eps       ncg     rms          rms(c)
DAV:   1    -0.118368116440E+03   -0.48287E-04   -0.10521E-03  3344   0.496E-01    0.440E-02
DAV:   2    -0.118368311889E+03   -0.19545E-03   -0.85326E-04  2432   0.702E-01
  51 F= -.13069458E+03 E0= -.13070287E+03  d E =-.550134E-03  mag=    -0.0000
       N       E                     dE             d eps       ncg     rms          rms(c)
DAV:   1    -0.118368178622E+03   -0.62182E-04   -0.68394E-04  2384   0.604E-01    0.202E-02
DAV:   2    -0.118368240671E+03   -0.62048E-04   -0.23363E-04  2320   0.358E-01
  52 F= -.13069445E+03 E0= -.13070271E+03  d E =-.419948E-03  mag=    -0.0000
       N       E                     dE             d eps       ncg     rms          rms(c)
DAV:   1    -0.118368153718E+03    0.24905E-04   -0.20358E-04  2384   0.308E-01    0.982E-03
DAV:   2    -0.118368164230E+03   -0.10512E-04   -0.72646E-05  2336   0.107E-01
  53 F= -.13069441E+03 E0= -.13070269E+03  d E =-.372972E-03  mag=    -0.0000
       N       E                     dE             d eps       ncg     rms          rms(c)
DAV:   1    -0.118369351758E+03   -0.11980E-02   -0.10969E-01  3744   0.703E-01    0.365E-02
DAV:   2    -0.118369564840E+03   -0.21308E-03   -0.22691E-03  5072   0.190E-01    0.344E-02
DAV:   3    -0.118369564140E+03    0.69987E-06   -0.12437E-04  2336   0.180E-01
  54 F= -.13069497E+03 E0= -.13070325E+03  d E =-.567180E-03  mag=    -0.0000
       N       E                     dE             d eps       ncg     rms          rms(c)
DAV:   1    -0.118370780543E+03   -0.12157E-02   -0.16699E-01  3760   0.870E-01    0.566E-02
DAV:   2    -0.118371074330E+03   -0.29379E-03   -0.30398E-03  5424   0.348E-01    0.575E-02
DAV:   3    -0.118371067557E+03    0.67733E-05   -0.58854E-04  2480   0.451E-01
  55 F= -.13069546E+03 E0= -.13070374E+03  d E =-.105704E-02  mag=    -0.0000
       N       E                     dE             d eps       ncg     rms          rms(c)
DAV:   1    -0.118372226971E+03   -0.11526E-02   -0.66421E-01  3744   0.172E+00    0.102E-01
DAV:   2    -0.118373477906E+03   -0.12509E-02   -0.13627E-02  5248   0.534E-01    0.101E-01
DAV:   3    -0.118373464613E+03    0.13294E-04   -0.88249E-04  3648   0.492E-01
  56 F= -.13069585E+03 E0= -.13070412E+03  d E =-.144392E-02  mag=    -0.0000
       N       E                     dE             d eps       ncg     rms          rms(c)
DAV:   1    -0.118371981866E+03    0.14960E-02   -0.17865E-01  4256   0.102E+00    0.472E-02
DAV:   2    -0.118372858754E+03   -0.87689E-03   -0.35349E-03  2720   0.129E+00    0.156E-01
DAV:   3    -0.118372169238E+03    0.68952E-03   -0.34317E-03  4944   0.109E+00    0.170E-02
DAV:   4    -0.118372267482E+03   -0.98244E-04   -0.97260E-04  3440   0.133E-01
  57 F= -.13069570E+03 E0= -.13070399E+03  d E =-.129575E-02  mag=    -0.0000
       N       E                     dE             d eps       ncg     rms          rms(c)
DAV:   1    -0.118372775302E+03   -0.60606E-03   -0.45025E-02  3728   0.451E-01    0.210E-02
DAV:   2    -0.118372826613E+03   -0.51311E-04   -0.51562E-04  2656   0.170E-01
  58 F= -.13069574E+03 E0= -.13070403E+03  d E =-.132967E-02  mag=    -0.0000
       N       E                     dE             d eps       ncg     rms          rms(c)
DAV:   1    -0.118372583254E+03    0.19205E-03   -0.10084E-02  5208   0.293E-01    0.124E-02
DAV:   2    -0.118372622045E+03   -0.38790E-04   -0.16312E-04  2368   0.285E-01
  59 F= -.13069578E+03 E0= -.13070406E+03  d E =-.137346E-02  mag=    -0.0000
       N       E                     dE             d eps       ncg     rms          rms(c)
DAV:   1    -0.118372721077E+03   -0.13782E-03   -0.27240E-03  4976   0.261E-01    0.621E-03
DAV:   2    -0.118372733887E+03   -0.12810E-04   -0.11535E-04  2464   0.805E-02
  60 F= -.13069576E+03 E0= -.13070405E+03  d E =-.135406E-02  mag=    -0.0000
       N       E                     dE             d eps       ncg     rms          rms(c)
DAV:   1    -0.118373236352E+03   -0.51527E-03   -0.50256E-02  3712   0.453E-01    0.307E-02
DAV:   2    -0.118373294124E+03   -0.57772E-04   -0.63122E-04  2784   0.151E-01
  61 F= -.13069619E+03 E0= -.13070447E+03  d E =-.432659E-03  mag=    -0.0000
       N       E                     dE             d eps       ncg     rms          rms(c)
DAV:   1    -0.118373945758E+03   -0.70941E-03   -0.17040E-01  3712   0.866E-01    0.682E-02
DAV:   2    -0.118374238611E+03   -0.29285E-03   -0.27493E-03  4576   0.483E-01    0.741E-02
DAV:   3    -0.118374234547E+03    0.40642E-05   -0.13040E-03  3368   0.575E-01
  62 F= -.13069692E+03 E0= -.13070517E+03  d E =-.115550E-02  mag=    -0.0000
       N       E                     dE             d eps       ncg     rms          rms(c)
DAV:   1    -0.118374285709E+03   -0.47098E-04   -0.67046E-01  3712   0.165E+00    0.116E-01
DAV:   2    -0.118375555753E+03   -0.12700E-02   -0.13464E-02  5280   0.557E-01    0.114E-01
DAV:   3    -0.118375583856E+03   -0.28102E-04   -0.14021E-03  3904   0.707E-01
  63 F= -.13069789E+03 E0= -.13070611E+03  d E =-.212777E-02  mag=    -0.0000
       N       E                     dE             d eps       ncg     rms          rms(c)
DAV:   1    -0.118375763975E+03   -0.20822E-03   -0.11567E-02  5296   0.571E-01    0.653E-02
DAV:   2    -0.118376146124E+03   -0.38215E-03   -0.14921E-03  2416   0.922E-01    0.115E-01
DAV:   3    -0.118375745841E+03    0.40028E-03   -0.11045E-03  2368   0.803E-01    0.384E-02
DAV:   4    -0.118375777441E+03   -0.31600E-04   -0.20944E-04  2400   0.221E-01
  64 F= -.13069812E+03 E0= -.13070635E+03  d E =-.234831E-03  mag=    -0.0000
       N       E                     dE             d eps       ncg     rms          rms(c)
DAV:   1    -0.118376102818E+03   -0.35698E-03   -0.87519E-02  3872   0.539E-01    0.618E-02
DAV:   2    -0.118376207978E+03   -0.10516E-03   -0.12229E-03  2928   0.296E-01
  65 F= -.13069870E+03 E0= -.13070691E+03  d E =-.814216E-03  mag=    -0.0000
       N       E                     dE             d eps       ncg     rms          rms(c)
DAV:   1    -0.118376897570E+03   -0.79475E-03   -0.31105E-02  5184   0.585E-01    0.664E-02
DAV:   2    -0.118377426567E+03   -0.52900E-03   -0.20824E-03  2416   0.107E+00    0.132E-01
DAV:   3    -0.118376873814E+03    0.55275E-03   -0.13594E-03  2448   0.902E-01    0.357E-02
DAV:   4    -0.118376902047E+03   -0.28233E-04   -0.15388E-04  2416   0.122E-01
  66 F= -.13069934E+03 E0= -.13070756E+03  d E =-.631900E-03  mag=    -0.0000
       N       E                     dE             d eps       ncg     rms          rms(c)
DAV:   1    -0.118378242499E+03   -0.13687E-02   -0.26756E-01  3728   0.924E-01    0.789E-02
DAV:   2    -0.118378697938E+03   -0.45544E-03   -0.49174E-03  5296   0.257E-01    0.676E-02
DAV:   3    -0.118378731381E+03   -0.33444E-04   -0.43107E-04  2512   0.414E-01
  67 F= -.13070103E+03 E0= -.13070925E+03  d E =-.232828E-02  mag=    -0.0000
       N       E                     dE             d eps       ncg     rms          rms(c)
DAV:   1    -0.118379360513E+03   -0.66258E-03   -0.10582E+00  3744   0.190E+00    0.181E-01
DAV:   2    -0.118381233533E+03   -0.18730E-02   -0.19136E-02  6176   0.956E-01    0.166E-01
DAV:   3    -0.118381238723E+03   -0.51891E-05   -0.38949E-03  4000   0.134E+00    0.157E-01
DAV:   4    -0.118380996093E+03    0.24263E-03   -0.16024E-03  3792   0.802E-01    0.646E-02
DAV:   5    -0.118381072232E+03   -0.76139E-04   -0.77531E-04  3488   0.530E-01
  68 F= -.13070334E+03 E0= -.13071155E+03  d E =-.463972E-02  mag=    -0.0000
       N       E                     dE             d eps       ncg     rms          rms(c)
DAV:   1    -0.118367906257E+03    0.13090E-01   -0.41848E+00  3744   0.370E+00    0.356E-01
DAV:   2    -0.118374981432E+03   -0.70752E-02   -0.82322E-02  5376   0.117E+00    0.295E-01
DAV:   3    -0.118376003600E+03   -0.10222E-02   -0.99578E-03  4224   0.218E+00    0.294E-01
DAV:   4    -0.118374724553E+03    0.12790E-02   -0.75845E-03  4216   0.210E+00    0.119E-01
DAV:   5    -0.118374526298E+03    0.19826E-03   -0.17018E-03  2648   0.898E-01
  69 F= -.13069810E+03 E0= -.13070631E+03  d E =0.599496E-03  mag=    -0.0000
       N       E                     dE             d eps       ncg     rms          rms(c)
DAV:   1    -0.118376658436E+03   -0.19339E-02   -0.32782E+00  3760   0.325E+00    0.292E-01
DAV:   2    -0.118381910337E+03   -0.52519E-02   -0.62927E-02  5280   0.817E-01    0.253E-01
DAV:   3    -0.118381482795E+03    0.42754E-03   -0.27735E-03  4176   0.805E-01    0.167E-01
DAV:   4    -0.118382284472E+03   -0.80168E-03   -0.43666E-03  3888   0.157E+00    0.164E-01
DAV:   5    -0.118381565759E+03    0.71871E-03   -0.46026E-03  3080   0.165E+00    0.997E-02
DAV:   6    -0.118381298372E+03    0.26739E-03   -0.53495E-04  2528   0.624E-01    0.235E-02
DAV:   7    -0.118381304820E+03   -0.64475E-05   -0.16459E-04  2416   0.178E-01
  70 F= -.13070362E+03 E0= -.13071190E+03  d E =-.491435E-02  mag=    -0.0000
       N       E                     dE             d eps       ncg     rms          rms(c)
DAV:   1    -0.118379276446E+03    0.20219E-02   -0.81670E-01  3728   0.161E+00    0.151E-01
DAV:   2    -0.118380505213E+03   -0.12288E-02   -0.15028E-02  5328   0.428E-01    0.122E-01
DAV:   3    -0.118380427469E+03    0.77744E-04   -0.69660E-04  2976   0.473E-01
  71 F= -.13070312E+03 E0= -.13071145E+03  d E =-.441452E-02  mag=    -0.0000
       N       E                     dE             d eps       ncg     rms          rms(c)
DAV:   1    -0.118381176210E+03   -0.67100E-03   -0.34241E-01  5032   0.128E+00    0.102E-01
DAV:   2    -0.118382526835E+03   -0.13506E-02   -0.76952E-03  4296   0.167E+00    0.198E-01
DAV:   3    -0.118381368285E+03    0.11585E-02   -0.32142E-03  3112   0.138E+00    0.693E-02
DAV:   4    -0.118381367875E+03    0.40963E-06   -0.39336E-04  2688   0.409E-01
  72 F= -.13070377E+03 E0= -.13071192E+03  d E =-.506917E-02  mag=    -0.0000
       N       E                     dE             d eps       ncg     rms          rms(c)
DAV:   1    -0.118382277051E+03   -0.90877E-03   -0.42223E-02  5056   0.493E-01    0.430E-02
DAV:   2    -0.118382310373E+03   -0.33323E-04   -0.59910E-04  2656   0.187E-01
  73 F= -.13070460E+03 E0= -.13071280E+03  d E =-.828304E-03  mag=    -0.0000
       N       E                     dE             d eps       ncg     rms          rms(c)
DAV:   1    -0.118383683958E+03   -0.14069E-02   -0.35661E-01  3752   0.105E+00    0.119E-01
DAV:   2    -0.118384184723E+03   -0.50076E-03   -0.62085E-03  5264   0.422E-01    0.954E-02
DAV:   3    -0.118384331213E+03   -0.14649E-03   -0.13117E-03  3056   0.807E-01
  74 F= -.13070639E+03 E0= -.13071472E+03  d E =-.262130E-02  mag=     0.0000
       N       E                     dE             d eps       ncg     rms          rms(c)
DAV:   1    -0.118383652918E+03    0.53180E-03   -0.13950E+00  3744   0.218E+00    0.205E-01
DAV:   2    -0.118386082294E+03   -0.24294E-02   -0.25065E-02  5920   0.115E+00    0.190E-01
DAV:   3    -0.118386093224E+03   -0.10929E-04   -0.41810E-03  3984   0.143E+00    0.172E-01
DAV:   4    -0.118385963956E+03    0.12927E-03   -0.27619E-03  4048   0.116E+00    0.110E-01
DAV:   5    -0.118385899964E+03    0.63992E-04   -0.12009E-03  3736   0.839E-01
  75 F= -.13070788E+03 E0= -.13071605E+03  d E =-.410621E-02  mag=    -0.0000
       N       E                     dE             d eps       ncg     rms          rms(c)
DAV:   1    -0.118385588554E+03    0.37540E-03   -0.28522E-01  3760   0.100E+00    0.898E-02
DAV:   2    -0.118386182627E+03   -0.59407E-03   -0.57955E-03  5528   0.486E-01    0.868E-02
DAV:   3    -0.118386193602E+03   -0.10975E-04   -0.91321E-04  2680   0.632E-01
  76 F= -.13070828E+03 E0= -.13071658E+03  d E =-.450481E-02  mag=    -0.0000
       N       E                     dE             d eps       ncg     rms          rms(c)
DAV:   1    -0.118387231468E+03   -0.10488E-02   -0.15816E-01  4104   0.953E-01    0.468E-02
DAV:   2    -0.118387573162E+03   -0.34169E-03   -0.28626E-03  4880   0.510E-01    0.576E-02
DAV:   3    -0.118387545346E+03    0.27816E-04   -0.90159E-04  2984   0.532E-01
  77 F= -.13070956E+03 E0= -.13071789E+03  d E =-.128563E-02  mag=    -0.0000
       N       E                     dE             d eps       ncg     rms          rms(c)
DAV:   1    -0.118388183877E+03   -0.61072E-03   -0.31011E-01  3832   0.120E+00    0.591E-02
DAV:   2    -0.118388825362E+03   -0.64148E-03   -0.66482E-03  5472   0.412E-01    0.693E-02
DAV:   3    -0.118388820979E+03    0.43826E-05   -0.44058E-04  2464   0.331E-01
  78 F= -.13071076E+03 E0= -.13071910E+03  d E =-.248652E-02  mag=    -0.0000
       N       E                     dE             d eps       ncg     rms          rms(c)
DAV:   1    -0.118386896042E+03    0.19293E-02   -0.12357E+00  3848   0.237E+00    0.109E-01
DAV:   2    -0.118389168066E+03   -0.22720E-02   -0.23599E-02  5464   0.768E-01    0.122E-01
DAV:   3    -0.118389213370E+03   -0.45304E-04   -0.25314E-03  3920   0.791E-01    0.108E-01
DAV:   4    -0.118389118978E+03    0.94392E-04   -0.44117E-04  2480   0.368E-01
  79 F= -.13071096E+03 E0= -.13071932E+03  d E =-.268606E-02  mag=    -0.0000
       N       E                     dE             d eps       ncg     rms          rms(c)
DAV:   1    -0.118388345683E+03    0.86769E-03   -0.50071E-01  3832   0.155E+00    0.592E-02
DAV:   2    -0.118389243046E+03   -0.89736E-03   -0.91655E-03  5776   0.649E-01    0.736E-02
DAV:   3    -0.118389259093E+03   -0.16047E-04   -0.11610E-03  3792   0.491E-01
  80 F= -.13071116E+03 E0= -.13071954E+03  d E =-.288208E-02  mag=    -0.0000
       N       E                     dE             d eps       ncg     rms          rms(c)
DAV:   1    -0.118389059105E+03    0.18394E-03   -0.12471E-01  3880   0.791E-01    0.386E-02
DAV:   2    -0.118389307748E+03   -0.24864E-03   -0.25971E-03  5328   0.240E-01    0.232E-02
DAV:   3    -0.118389350876E+03   -0.43127E-04   -0.51860E-04  2368   0.444E-01
  81 F= -.13071122E+03 E0= -.13071961E+03  d E =-.294286E-02  mag=    -0.0000
       N       E                     dE             d eps       ncg     rms          rms(c)
DAV:   1    -0.118389458837E+03   -0.15109E-03   -0.13825E-01  3800   0.813E-01    0.467E-02
DAV:   2    -0.118389734890E+03   -0.27605E-03   -0.29341E-03  5616   0.313E-01    0.537E-02
DAV:   3    -0.118389728770E+03    0.61200E-05   -0.34001E-04  2384   0.346E-01
  82 F= -.13071184E+03 E0= -.13072022E+03  d E =-.621126E-03  mag=    -0.0000
       N       E                     dE             d eps       ncg     rms          rms(c)
DAV:   1    -0.118389697083E+03    0.37808E-04   -0.29107E-03  5168   0.232E-01    0.291E-02
DAV:   2    -0.118389759018E+03   -0.61936E-04   -0.30146E-04  2368   0.390E-01
  83 F= -.13071191E+03 E0= -.13072027E+03  d E =-.687935E-03  mag=    -0.0000
       N       E                     dE             d eps       ncg     rms          rms(c)
DAV:   1    -0.118389597015E+03    0.10007E-03   -0.10911E-02  5368   0.407E-01    0.268E-02
DAV:   2    -0.118389621865E+03   -0.24850E-04   -0.18554E-04  2368   0.236E-01
  84 F= -.13071185E+03 E0= -.13072024E+03  d E =-.626148E-03  mag=    -0.0000
       N       E                     dE             d eps       ncg     rms          rms(c)
DAV:   1    -0.118389683198E+03   -0.86183E-04   -0.70560E-03  5416   0.314E-01    0.142E-02
DAV:   2    -0.118389733295E+03   -0.50097E-04   -0.19490E-04  2392   0.334E-01
  85 F= -.13071190E+03 E0= -.13072027E+03  d E =-.676505E-03  mag=    -0.0000
       N       E                     dE             d eps       ncg     rms          rms(c)
DAV:   1    -0.118389555962E+03    0.12724E-03   -0.85707E-04  3088   0.282E-01    0.155E-02
DAV:   2    -0.118389665144E+03   -0.10918E-03   -0.10604E-03  4024   0.225E-01
  86 F= -.13071186E+03 E0= -.13072025E+03  d E =-.638643E-03  mag=    -0.0000
       N       E                     dE             d eps       ncg     rms          rms(c)
DAV:   1    -0.118389630215E+03   -0.74253E-04   -0.47198E-04  2824   0.200E-01    0.180E-02
DAV:   2    -0.118389696473E+03   -0.66258E-04   -0.41282E-04  2432   0.354E-01
  87 F= -.13071187E+03 E0= -.13072025E+03  d E =-.645055E-03  mag=    -0.0000
       N       E                     dE             d eps       ncg     rms          rms(c)
DAV:   1    -0.118389657338E+03   -0.27123E-04   -0.23463E-04  2376   0.281E-01    0.644E-03
DAV:   2    -0.118389665797E+03   -0.84589E-05   -0.76779E-05  2320   0.436E-02
  88 F= -.13071185E+03 E0= -.13072024E+03  d E =-.634261E-03  mag=    -0.0000
       N       E                     dE             d eps       ncg     rms          rms(c)
DAV:   1    -0.118389674970E+03   -0.17632E-04   -0.75233E-05  2224   0.760E-02    0.744E-03
DAV:   2    -0.118389682231E+03   -0.72614E-05   -0.50907E-05  2368   0.120E-01
  89 F= -.13071186E+03 E0= -.13072024E+03  d E =-.640727E-03  mag=    -0.0000
       N       E                     dE             d eps       ncg     rms          rms(c)
DAV:   1    -0.118389676016E+03   -0.10462E-05   -0.25589E-05  2256   0.105E-01    0.244E-03
DAV:   2    -0.118389680158E+03   -0.41423E-05   -0.13962E-05  2296   0.841E-02
  90 F= -.13071186E+03 E0= -.13072025E+03  d E =-.644221E-03  mag=    -0.0000
       N       E                     dE             d eps       ncg     rms          rms(c)
DAV:   1    -0.118389677851E+03   -0.18348E-05   -0.91252E-06  2224   0.708E-02    0.722E-04
DAV:   2    -0.118389678759E+03   -0.90780E-06   -0.46463E-06  2256   0.109E-02
  91 F= -.13071186E+03 E0= -.13072024E+03  d E =-.641481E-03  mag=    -0.0000
       N       E                     dE             d eps       ncg     rms          rms(c)
DAV:   1    -0.118389822854E+03   -0.14500E-03   -0.12202E-02  4040   0.235E-01    0.807E-03
DAV:   2    -0.118389836641E+03   -0.13787E-04   -0.14587E-04  2176   0.771E-02
  92 F= -.13071202E+03 E0= -.13072040E+03  d E =-.155392E-03  mag=    -0.0000
       N       E                     dE             d eps       ncg     rms          rms(c)
DAV:   1    -0.118390015494E+03   -0.19264E-03   -0.69821E-02  4032   0.567E-01    0.220E-02
DAV:   2    -0.118390141338E+03   -0.12584E-03   -0.13476E-03  3888   0.148E-01
  93 F= -.13071232E+03 E0= -.13072070E+03  d E =-.455327E-03  mag=    -0.0000
       N       E                     dE             d eps       ncg     rms          rms(c)
DAV:   1    -0.118390151845E+03   -0.13635E-03   -0.90337E-04  3504   0.931E-02    0.202E-02
DAV:   2    -0.118390155275E+03   -0.34297E-05   -0.70749E-05  2176   0.133E-01
  94 F= -.13071233E+03 E0= -.13072071E+03  d E =-.468882E-03  mag=    -0.0000
       N       E                     dE             d eps       ncg     rms          rms(c)
DAV:   1    -0.118390192273E+03   -0.40428E-04   -0.31818E-03  5408   0.202E-01    0.170E-02
DAV:   2    -0.118390243879E+03   -0.51606E-04   -0.19399E-04  2272   0.344E-01
  95 F= -.13071242E+03 E0= -.13072080E+03  d E =-.556771E-03  mag=    -0.0000
       N       E                     dE             d eps       ncg     rms          rms(c)
DAV:   1    -0.118390225025E+03   -0.32752E-04   -0.11547E-02  5344   0.364E-01    0.153E-02
DAV:   2    -0.118390238794E+03   -0.13769E-04   -0.16298E-04  2272   0.810E-02
  96 F= -.13071241E+03 E0= -.13072079E+03  d E =-.550456E-03  mag=    -0.0000
       N       E                     dE             d eps       ncg     rms          rms(c)
DAV:   1    -0.118390203002E+03    0.22023E-04   -0.45228E-02  4048   0.467E-01    0.227E-02
DAV:   2    -0.118390253532E+03   -0.50530E-04   -0.30062E-04  2312   0.322E-01
  97 F= -.13071243E+03 E0= -.13072081E+03  d E =-.563637E-03  mag=    -0.0000
       N       E                     dE             d eps       ncg     rms          rms(c)
DAV:   1    -0.118390253331E+03   -0.50329E-04   -0.18661E-02  5368   0.436E-01    0.139E-02
DAV:   2    -0.118390268710E+03   -0.15380E-04   -0.87993E-05  2264   0.188E-01
  98 F= -.13071244E+03 E0= -.13072082E+03  d E =-.579680E-03  mag=    -0.0000
       N       E                     dE             d eps       ncg     rms          rms(c)
DAV:   1    -0.118390274941E+03   -0.21610E-04   -0.46047E-03  5336   0.224E-01    0.102E-02
DAV:   2    -0.118390284690E+03   -0.97487E-05   -0.51466E-05  2264   0.162E-01
  99 F= -.13071246E+03 E0= -.13072084E+03  d E =-.595174E-03  mag=    -0.0000
       N       E                     dE             d eps       ncg     rms          rms(c)
DAV:   1    -0.118390573737E+03   -0.29880E-03   -0.92524E-03  5088   0.236E-01    0.196E-02
DAV:   2    -0.118390579360E+03   -0.56225E-05   -0.81174E-05  2512   0.127E-01
 100 F= -.13071256E+03 E0= -.13072094E+03  d E =-.106996E-03  mag=    -0.0000
       N       E                     dE             d eps       ncg     rms          rms(c)
DAV:   1    -0.118390592969E+03   -0.19231E-04   -0.37905E-04  2392   0.172E-01    0.229E-02
DAV:   2    -0.118390663029E+03   -0.70060E-04   -0.39731E-04  2288   0.408E-01
 101 F= -.13071260E+03 E0= -.13072096E+03  d E =-.138698E-03  mag=    -0.0000
       N       E                     dE             d eps       ncg     rms          rms(c)
DAV:   1    -0.118390582170E+03    0.10799E-04   -0.34008E-04  2344   0.332E-01    0.805E-03
DAV:   2    -0.118390590545E+03   -0.83754E-05   -0.32824E-05  2248   0.122E-01
 102 F= -.13071257E+03 E0= -.13072094E+03  d E =-.111879E-03  mag=    -0.0000
       N       E                     dE             d eps       ncg     rms          rms(c)
DAV:   1    -0.118390602674E+03   -0.20504E-04   -0.67516E-05  2344   0.119E-01    0.537E-03
DAV:   2    -0.118390605886E+03   -0.32118E-05   -0.27985E-05  2072   0.684E-02
 103 F= -.13071256E+03 E0= -.13072093E+03  d E =-.104332E-03  mag=    -0.0000
       N       E                     dE             d eps       ncg     rms          rms(c)
DAV:   1    -0.118390595555E+03    0.71191E-05   -0.27011E-05  2136   0.681E-02    0.368E-03
DAV:   2    -0.118390598817E+03   -0.32622E-05   -0.12640E-05  2256   0.849E-02
 104 F= -.13071257E+03 E0= -.13072094E+03  d E =-.109890E-03  mag=    -0.0000
       N       E                     dE             d eps       ncg     rms          rms(c)
DAV:   1    -0.118390733468E+03   -0.13791E-03   -0.27684E-03  4736   0.123E-01    0.580E-03
DAV:   2    -0.118390735852E+03   -0.23846E-05   -0.25028E-05  2200   0.231E-02
 105 F= -.13071267E+03 E0= -.13072104E+03  d E =-.101384E-03  mag=    -0.0000
       N       E                     dE             d eps       ncg     rms          rms(c)
DAV:   1    -0.118391094320E+03   -0.36085E-03   -0.24402E-02  3760   0.306E-01    0.173E-02
DAV:   2    -0.118391119072E+03   -0.24752E-04   -0.25843E-04  2512   0.793E-02
 106 F= -.13071295E+03 E0= -.13072131E+03  d E =-.380868E-03  mag=    -0.0000
       N       E                     dE             d eps       ncg     rms          rms(c)
DAV:   1    -0.118391655906E+03   -0.56159E-03   -0.98537E-02  3744   0.627E-01    0.397E-02
DAV:   2    -0.118391763840E+03   -0.10793E-03   -0.10059E-03  3776   0.238E-01
 107 F= -.13071340E+03 E0= -.13072175E+03  d E =-.833138E-03  mag=    -0.0000
