<?xml version="1.0" encoding="ISO-8859-1"?>
<modeling>
 <generator>
  <i name="program" type="string">vasp </i>
  <i name="version" type="string">6.3.2  </i>
  <i name="subversion" type="string">27Jun22 (build Aug 17 2022 15:43:34) complex                          parallel </i>
  <i name="platform" type="string">tv2STDVTST </i>
  <i name="date" type="string">2025 02 17 </i>
  <i name="time" type="string">18:17:10 </i>
 </generator>
 <incar>
  <i type="int" name="ISTART">     0</i>
  <i type="string" name="PREC">Normal</i>
  <i type="int" name="ISPIN">     2</i>
  <i type="int" name="ICHARG">     2</i>
  <i type="int" name="IBRION">     2</i>
  <i name="EDIFF">      0.00020000</i>
  <i name="EDIFFG">     -0.03000000</i>
  <i type="int" name="NSW">   800</i>
  <i type="int" name="ISIF">     2</i>
  <i type="int" name="ISYM">     1</i>
  <i name="ENCUT">    400.00000000</i>
  <i name="POTIM">      0.50000000</i>
  <i type="logical" name="LREAL"> F  </i>
  <i type="int" name="ISMEAR">     1</i>
  <i name="SIGMA">      0.20000000</i>
  <i type="logical" name="LWAVE"> F  </i>
  <i type="logical" name="LCHARG"> F  </i>
  <i type="string" name="GGA">PE</i>
  <i type="int" name="IVDW">    11</i>
 </incar>
 <primitive_cell>
  <structure name="primitive_cell" >
   <crystal>
    <varray name="basis" >
     <v>       7.26000023       0.00000000       0.00000000 </v>
     <v>       0.00000000       5.13359547       0.00000000 </v>
     <v>       0.00000000       0.00000000      23.98379135 </v>
    </varray>
    <i name="volume">    893.87360752 </i>
    <varray name="rec_basis" >
     <v>       0.13774104       0.00000000       0.00000000 </v>
     <v>       0.00000000       0.19479525       0.00000000 </v>
     <v>       0.00000000       0.00000000       0.04169483 </v>
    </varray>
   </crystal>
   <varray name="positions" >
    <v>       0.00000000       0.00000000       0.00000000 </v>
    <v>       0.00000000       0.50000000       0.00000000 </v>
    <v>       0.50000000       0.00000000       0.00000000 </v>
    <v>       0.50000000       0.50000000       0.00000000 </v>
    <v>       0.25000000       0.25000000       0.05351109 </v>
    <v>       0.25000000       0.75000000       0.05351109 </v>
    <v>       0.75000000       0.25000000       0.05351109 </v>
    <v>       0.75000000       0.75000000       0.05351109 </v>
    <v>       0.00000000       0.00000000       0.10541371 </v>
    <v>       0.00000000       0.50000000       0.10541371 </v>
    <v>       0.50000000       0.00000000       0.10541371 </v>
    <v>       0.50000000       0.50000000       0.10541371 </v>
    <v>       0.25000000       0.25000000       0.15715010 </v>
    <v>       0.25000000       0.75000000       0.15715010 </v>
    <v>       0.75000000       0.25000000       0.15715010 </v>
    <v>       0.75000000       0.75000000       0.15715010 </v>
    <v>       0.00000000       0.00000000       0.20866257 </v>
    <v>       0.00000000       0.50000000       0.20866257 </v>
    <v>       0.50000000       0.00000000       0.20866257 </v>
    <v>       0.50000000       0.50000000       0.20866257 </v>
    <v>       0.25000000       0.25000000       0.25947965 </v>
    <v>       0.25000000       0.75000000       0.25947965 </v>
    <v>       0.75000000       0.25000000       0.25947965 </v>
    <v>       0.75000000       0.75000000       0.25947965 </v>
    <v>       0.00000000       0.00000000       0.31415415 </v>
    <v>       0.00000000       0.50000000       0.31415415 </v>
    <v>       0.50000000       0.00000000       0.31415415 </v>
    <v>       0.50000000       0.50000000       0.31415415 </v>
    <v>       0.25000000       0.25000000       0.36181799 </v>
    <v>       0.25000000       0.75000000       0.36181799 </v>
    <v>       0.75000000       0.25000000       0.36181799 </v>
    <v>       0.75000000       0.75000000       0.36181799 </v>
    <v>       1.00000000       0.50000000       0.42690792 </v>
    <v>       1.00000000       0.64531725       0.42690792 </v>
   </varray>
  </structure>
  <varray name="primitive_index" >
   <v type="int" >        1 </v>
   <v type="int" >        2 </v>
   <v type="int" >        3 </v>
   <v type="int" >        4 </v>
   <v type="int" >        5 </v>
   <v type="int" >        6 </v>
   <v type="int" >        7 </v>
   <v type="int" >        8 </v>
   <v type="int" >        9 </v>
   <v type="int" >       10 </v>
   <v type="int" >       11 </v>
   <v type="int" >       12 </v>
   <v type="int" >       13 </v>
   <v type="int" >       14 </v>
   <v type="int" >       15 </v>
   <v type="int" >       16 </v>
   <v type="int" >       17 </v>
   <v type="int" >       18 </v>
   <v type="int" >       19 </v>
   <v type="int" >       20 </v>
   <v type="int" >       21 </v>
   <v type="int" >       22 </v>
   <v type="int" >       23 </v>
   <v type="int" >       24 </v>
   <v type="int" >       25 </v>
   <v type="int" >       26 </v>
   <v type="int" >       27 </v>
   <v type="int" >       28 </v>
   <v type="int" >       29 </v>
   <v type="int" >       30 </v>
   <v type="int" >       31 </v>
   <v type="int" >       32 </v>
   <v type="int" >       33 </v>
   <v type="int" >       34 </v>
  </varray>
 </primitive_cell>
 <kpoints>
  <generation param="Monkhorst-Pack">
   <v type="int" name="divisions">       3        3        1 </v>
   <v name="usershift">      0.00000000       0.00000000       0.00000000 </v>
   <v name="genvec1">      0.33333333       0.00000000       0.00000000 </v>
   <v name="genvec2">      0.00000000       0.33333333       0.00000000 </v>
   <v name="genvec3">      0.00000000       0.00000000       1.00000000 </v>
   <v name="shift">      0.00000000       0.00000000       0.00000000 </v>
  </generation>
  <varray name="kpointlist" >
   <v>       0.00000000       0.00000000       0.00000000 </v>
   <v>       0.33333333       0.00000000       0.00000000 </v>
   <v>       0.00000000       0.33333333       0.00000000 </v>
   <v>       0.33333333       0.33333333       0.00000000 </v>
  </varray>
  <varray name="weights" >
   <v>       0.11111111 </v>
   <v>       0.22222222 </v>
   <v>       0.22222222 </v>
   <v>       0.44444444 </v>
  </varray>
 </kpoints>
 <parameters>
  <separator name="general" >
   <i type="string" name="SYSTEM">unknown system</i>
   <i type="logical" name="LCOMPAT"> F  </i>
  </separator>
  <separator name="electronic" >
   <i type="string" name="PREC">normal</i>
   <i name="ENMAX">    400.00000000</i>
   <i name="ENAUG">    586.98000000</i>
   <i name="EDIFF">      0.00020000</i>
   <i type="int" name="IALGO">    38</i>
   <i type="int" name="IWAVPR">    11</i>
   <i type="int" name="NBANDS">   232</i>
   <i type="int" name="NBANDSLOW">    -1</i>
   <i type="int" name="NBANDSHIGH">    -1</i>
   <i name="NELECT">    354.00000000</i>
   <i type="int" name="TURBO">     0</i>
   <i type="int" name="IRESTART">     0</i>
   <i type="int" name="NREBOOT">     0</i>
   <i type="int" name="NMIN">     0</i>
   <i name="EREF">      0.00000000</i>
   <separator name="electronic smearing" >
    <i type="int" name="ISMEAR">     1</i>
    <i name="SIGMA">      0.20000000</i>
    <i name="KSPACING">      0.50000000</i>
    <i type="logical" name="KGAMMA"> T  </i>
    <i type="logical" name="KBLOWUP"> T  </i>
   </separator>
   <separator name="electronic projectors" >
    <i type="logical" name="LREAL"> F  </i>
    <v name="ROPT">      0.00000000      0.00000000</v>
    <i type="int" name="LMAXPAW">  -100</i>
    <i type="int" name="LMAXMIX">     2</i>
    <i type="logical" name="NLSPLINE"> F  </i>
   </separator>
   <separator name="electronic startup" >
    <i type="int" name="ISTART">     0</i>
    <i type="int" name="ICHARG">     2</i>
    <i type="int" name="INIWAV">     1</i>
   </separator>
   <separator name="electronic spin" >
    <i type="int" name="ISPIN">     2</i>
    <i type="logical" name="LNONCOLLINEAR"> F  </i>
    <v name="MAGMOM">      1.00000000      1.00000000      1.00000000      1.00000000      1.00000000      1.00000000      1.00000000      1.00000000      1.00000000      1.00000000      1.00000000      1.00000000      1.00000000      1.00000000      1.00000000      1.00000000      1.00000000      1.00000000      1.00000000      1.00000000
      1.00000000      1.00000000      1.00000000      1.00000000      1.00000000      1.00000000      1.00000000      1.00000000      1.00000000      1.00000000      1.00000000      1.00000000      1.00000000      1.00000000</v>
    <i name="NUPDOWN">     -1.00000000</i>
    <i type="logical" name="LSORBIT"> F  </i>
    <v name="SAXIS">      0.00000000      0.00000000      1.00000000</v>
    <i type="logical" name="LSPIRAL"> F  </i>
    <v name="QSPIRAL">      0.00000000      0.00000000      0.00000000</v>
    <i type="logical" name="LZEROZ"> F  </i>
   </separator>
   <separator name="electronic exchange-correlation" >
    <i type="logical" name="LASPH"> F  </i>
    <i type="logical" name="LMETAGGA"> F  </i>
   </separator>
   <separator name="electronic convergence" >
    <i type="int" name="NELM">    60</i>
    <i type="int" name="NELMDL">    -5</i>
    <i type="int" name="NELMIN">     2</i>
    <i name="ENINI">    400.00000000</i>
    <separator name="electronic convergence detail" >
     <i type="logical" name="LDIAG"> T  </i>
     <i type="logical" name="LSUBROT"> F  </i>
     <i name="WEIMIN">      0.00100000</i>
     <i name="EBREAK">      0.00000022</i>
     <i name="DEPER">      0.30000000</i>
     <i type="int" name="NRMM">     4</i>
     <i name="TIME">      0.40000000</i>
    </separator>
   </separator>
   <separator name="electronic mixer" >
    <i name="AMIX">      0.40000000</i>
    <i name="BMIX">      1.00000000</i>
    <i name="AMIN">      0.10000000</i>
    <i name="AMIX_MAG">      1.60000000</i>
    <i name="BMIX_MAG">      1.00000000</i>
    <separator name="electronic mixer details" >
     <i type="int" name="IMIX">     4</i>
     <i type="logical" name="MIXFIRST"> F  </i>
     <i type="int" name="MAXMIX">   -45</i>
     <i name="WC">    100.00000000</i>
     <i type="int" name="INIMIX">     1</i>
     <i type="int" name="MIXPRE">     1</i>
     <i type="int" name="MREMOVE">     5</i>
    </separator>
   </separator>
   <separator name="electronic dipolcorrection" >
    <i type="logical" name="LDIPOL"> F  </i>
    <i type="logical" name="LMONO"> F  </i>
    <i type="int" name="IDIPOL">     0</i>
    <i name="EPSILON">      1.00000000</i>
    <v name="DIPOL">   -100.00000000   -100.00000000   -100.00000000</v>
    <i name="EFIELD">      0.00000000</i>
   </separator>
  </separator>
  <separator name="grids" >
   <i type="int" name="NGX">    36</i>
   <i type="int" name="NGY">    28</i>
   <i type="int" name="NGZ">   120</i>
   <i type="int" name="NGXF">    72</i>
   <i type="int" name="NGYF">    56</i>
   <i type="int" name="NGZF">   240</i>
   <i type="logical" name="ADDGRID"> F  </i>
  </separator>
  <separator name="ionic" >
   <i type="int" name="NSW">   800</i>
   <i type="int" name="IBRION">     2</i>
   <i type="int" name="MDALGO">     0</i>
   <i type="int" name="ISIF">     2</i>
   <i name="PSTRESS">      0.00000000</i>
   <i name="EDIFFG">     -0.03000000</i>
   <i type="int" name="NFREE">     1</i>
   <i name="POTIM">      0.50000000</i>
   <i name="SMASS">     -3.00000000</i>
   <i name="SCALEE">      1.00000000</i>
  </separator>
  <separator name="ionic md" >
   <i name="TEBEG">      0.00010000</i>
   <i name="TEEND">      0.00010000</i>
   <i type="int" name="NBLOCK">     1</i>
   <i type="int" name="KBLOCK">   800</i>
   <i type="int" name="NPACO">   256</i>
   <i name="APACO">     10.00000000</i>
  </separator>
  <separator name="symmetry" >
   <i type="int" name="ISYM">     1</i>
   <i name="SYMPREC">      0.00001000</i>
  </separator>
  <separator name="dos" >
   <i type="int" name="LORBIT">     0</i>
   <v name="RWIGS">     -1.00000000     -1.00000000</v>
   <i type="int" name="NEDOS">   301</i>
   <i name="EMIN">     10.00000000</i>
   <i name="EMAX">    -10.00000000</i>
   <i name="EFERMI">      0.00000000</i>
  </separator>
  <separator name="writing" >
   <i type="int" name="NWRITE">     2</i>
   <i type="logical" name="LWAVE"> F  </i>
   <i type="logical" name="LDOWNSAMPLE"> F  </i>
   <i type="logical" name="LCHARG"> F  </i>
   <i type="logical" name="LPARD"> F  </i>
   <i type="logical" name="LVTOT"> F  </i>
   <i type="logical" name="LVHAR"> F  </i>
   <i type="logical" name="LELF"> F  </i>
   <i type="logical" name="LOPTICS"> F  </i>
   <v name="STM">      0.00000000      0.00000000      0.00000000      0.00000000      0.00000000      0.00000000      0.00000000</v>
  </separator>
  <separator name="performance" >
   <i type="int" name="NPAR">     4</i>
   <i type="int" name="NSIM">     4</i>
   <i type="int" name="NBLK">    -1</i>
   <i type="logical" name="LPLANE"> T  </i>
   <i type="logical" name="LSCALAPACK"> T  </i>
   <i type="logical" name="LSCAAWARE"> F  </i>
   <i type="logical" name="LSCALU"> F  </i>
   <i type="logical" name="LASYNC"> F  </i>
   <i type="logical" name="LORBITALREAL"> F  </i>
  </separator>
  <separator name="miscellaneous" >
   <i type="int" name="IDIOT">     3</i>
   <i type="int" name="PHON_NSTRUCT">    -1</i>
   <i type="logical" name="LMUSIC"> F  </i>
   <v name="POMASS">     63.54600000      1.00000000</v>
   <v name="DARWINR">      0.00000000      0.00000000</v>
   <v name="DARWINV">      1.00000000      1.00000000</v>
   <i type="logical" name="LCORR"> T  </i>
  </separator>
  <i type="logical" name="GGA_COMPAT"> T  </i>
  <i type="logical" name="LBERRY"> F  </i>
  <i type="int" name="ICORELEVEL">     0</i>
  <i type="logical" name="LDAU"> F  </i>
  <i type="int" name="I_CONSTRAINED_M">     0</i>
  <separator name="electronic exchange-correlation" >
   <i type="string" name="GGA">PE</i>
   <i type="int" name="VOSKOWN">     0</i>
   <i type="logical" name="LHFCALC"> F  </i>
   <i type="string" name="PRECFOCK"></i>
   <i type="logical" name="LSYMGRAD"> F  </i>
   <i type="logical" name="LHFONE"> F  </i>
   <i type="logical" name="LRHFCALC"> F  </i>
   <i type="logical" name="LTHOMAS"> F  </i>
   <i type="logical" name="LMODELHF"> F  </i>
   <i type="logical" name="LFOCKACE"> F  </i>
   <i name="ENCUT4O">     -1.00000000</i>
   <i type="int" name="EXXOEP">     0</i>
   <i type="int" name="FOURORBIT">     0</i>
   <i name="AEXX">      0.00000000</i>
   <i name="HFALPHA">      0.00000000</i>
   <i name="MCALPHA">      0.00000000</i>
   <i name="ALDAX">      1.00000000</i>
   <i name="AGGAX">      1.00000000</i>
   <i name="ALDAC">      1.00000000</i>
   <i name="AGGAC">      1.00000000</i>
   <i type="int" name="NKREDX">     1</i>
   <i type="int" name="NKREDY">     1</i>
   <i type="int" name="NKREDZ">     1</i>
   <i type="logical" name="SHIFTRED"> F  </i>
   <i type="logical" name="ODDONLY"> F  </i>
   <i type="logical" name="EVENONLY"> F  </i>
   <i type="int" name="LMAXFOCK">     0</i>
   <i type="int" name="NMAXFOCKAE">     0</i>
   <i type="logical" name="LFOCKAEDFT"> F  </i>
   <i name="HFSCREEN">      0.00000000</i>
   <i name="HFSCREENC">      0.00000000</i>
   <i type="int" name="NBANDSGWLOW">     0</i>
  </separator>
  <separator name="vdW DFT" >
   <i type="logical" name="LUSE_VDW"> F  </i>
   <i name="Zab_VDW">     -0.84910000</i>
   <i name="PARAM1">      0.12340000</i>
   <i name="PARAM2">      1.00000000</i>
   <i name="PARAM3">      0.00000000</i>
  </separator>
  <separator name="model GW" >
   <i type="int" name="MODEL_GW">     0</i>
   <i name="MODEL_EPS0">     15.77424013</i>
   <i name="MODEL_ALPHA">      1.00000000</i>
  </separator>
  <separator name="linear response parameters" >
   <i type="logical" name="LEPSILON"> F  </i>
   <i type="logical" name="LRPA"> F  </i>
   <i type="logical" name="LNABLA"> F  </i>
   <i type="logical" name="LVEL"> F  </i>
   <i name="CSHIFT">      0.10000000</i>
   <i name="OMEGAMAX">     -1.00000000</i>
   <i name="DEG_THRESHOLD">      0.00200000</i>
   <i name="RTIME">     -0.10000000</i>
   <i name="WPLASMAI">      0.00000000</i>
   <v name="DFIELD">      0.00000000      0.00000000      0.00000000</v>
   <v name="WPLASMA">      0.00000000      0.00000000      0.00000000      0.00000000      0.00000000      0.00000000      0.00000000      0.00000000      0.00000000</v>
  </separator>
  <separator name="orbital magnetization" >
   <i type="logical" name="NUCIND"> F  </i>
   <v name="MAGPOS">      0.00000000      0.00000000      0.00000000</v>
   <i type="logical" name="LNICSALL"> T  </i>
   <i type="logical" name="ORBITALMAG"> F  </i>
   <i type="logical" name="LMAGBLOCH"> F  </i>
   <i type="logical" name="LCHIMAG"> F  </i>
   <i type="logical" name="LGAUGE"> T  </i>
   <i type="int" name="MAGATOM">     0</i>
   <v name="MAGDIPOL">      0.00000000      0.00000000      0.00000000</v>
   <v name="AVECCONST">      0.00000000      0.00000000      0.00000000</v>
  </separator>
  <separator name="response functions" >
   <i type="logical" name="LFINITE_TEMPERATURE"> F  </i>
   <i type="logical" name="LADDER"> F  </i>
   <i type="logical" name="LRPAFORCE"> F  </i>
   <i type="logical" name="LFXC"> F  </i>
   <i type="logical" name="LHARTREE"> T  </i>
   <i type="int" name="IBSE">     0</i>
   <v type="int" name="KPOINT">    -1     0     0     0</v>
   <i type="logical" name="LTCTC"> F  </i>
   <i type="logical" name="LTCTE"> F  </i>
   <i type="logical" name="LTETE"> F  </i>
   <i type="logical" name="LTRIPLET"> F  </i>
   <i type="logical" name="LFXCEPS"> F  </i>
   <i type="logical" name="LFXHEG"> F  </i>
   <i type="int" name="NATURALO">     2</i>
   <i type="logical" name="LHOLEGF"> F  </i>
   <i type="logical" name="L2ORDER"> F  </i>
   <i type="logical" name="LDMP1"> F  </i>
   <i type="logical" name="LMP2LT"> F  </i>
   <i type="logical" name="LSMP2LT"> F  </i>
   <i type="logical" name="LGWLF"> F  </i>
   <i name="ENCUTGW">     -2.00000000</i>
   <i name="ENCUTGWSOFT">     -2.00000000</i>
   <i name="ENCUTLF">     -1.00000000</i>
   <i type="logical" name="LESF_SPLINES"> F  </i>
   <i type="int" name="LMAXMP2">    -1</i>
   <i name="SCISSOR">      0.00000000</i>
   <i type="int" name="NOMEGA">     0</i>
   <i type="int" name="NOMEGAR">     0</i>
   <i type="int" name="NBANDSGW">    -1</i>
   <i type="int" name="NBANDSO">    -1</i>
   <i type="int" name="NBANDSV">    -1</i>
   <i type="int" name="NELMGW">     1</i>
   <i type="int" name="NELMHF">     1</i>
   <i type="int" name="DIM">     3</i>
   <i type="int" name="IESPILON">     4</i>
   <i type="int" name="ANTIRES">     0</i>
   <i name="OMEGAMAX">    -30.00000000</i>
   <i name="OMEGAMIN">    -30.00000000</i>
   <i name="OMEGATL">   -200.00000000</i>
   <i type="int" name="OMEGAGRID">     0</i>
   <i name="CSHIFT">     -0.10000000</i>
   <i type="logical" name="LSELFENERGY"> F  </i>
   <i type="logical" name="LSPECTRAL"> F  </i>
   <i type="logical" name="LSPECTRALGW"> F  </i>
   <i type="logical" name="LSINGLES"> F  </i>
   <i type="logical" name="LFERMIGW"> F  </i>
   <i type="logical" name="ODDONLYGW"> F  </i>
   <i type="logical" name="EVENONLYGW"> F  </i>
   <i type="int" name="NKREDLFX">     1</i>
   <i type="int" name="NKREDLFY">     1</i>
   <i type="int" name="NKREDLFZ">     1</i>
   <i type="int" name="MAXMEM">  2800</i>
   <i type="int" name="TELESCOPE">     0</i>
   <i type="int" name="NTAUPAR">    -1</i>
   <i type="int" name="NOMEGAPAR">    -1</i>
   <i name="DAMP_NEWTON">      0.80000001</i>
   <i name="LAMBDA">      1.00000000</i>
  </separator>
  <separator name="External order field" >
   <i name="OFIELD_KAPPA">      0.00000000</i>
   <v name="OFIELD_K">      0.00000000      0.00000000      0.00000000</v>
   <i name="OFIELD_Q6_NEAR">      0.00000000</i>
   <i name="OFIELD_Q6_FAR">      0.00000000</i>
   <i name="OFIELD_A">      0.00000000</i>
  </separator>
  <separator name="optional k-points parameters" >
   <i type="int" name="KPOINTS_OPT_MODE">     1</i>
   <i type="logical" name="LKPOINTS_OPT"> F  </i>
  </separator>
 </parameters>
 <atominfo>
  <atoms>      34 </atoms>
  <types>       2 </types>
  <array name="atoms" >
   <dimension dim="1">ion</dimension>
   <field type="string">element</field>
   <field type="int">atomtype</field>
   <set>
    <rc><c>Cu</c><c>   1</c></rc>
    <rc><c>Cu</c><c>   1</c></rc>
    <rc><c>Cu</c><c>   1</c></rc>
    <rc><c>Cu</c><c>   1</c></rc>
    <rc><c>Cu</c><c>   1</c></rc>
    <rc><c>Cu</c><c>   1</c></rc>
    <rc><c>Cu</c><c>   1</c></rc>
    <rc><c>Cu</c><c>   1</c></rc>
    <rc><c>Cu</c><c>   1</c></rc>
    <rc><c>Cu</c><c>   1</c></rc>
    <rc><c>Cu</c><c>   1</c></rc>
    <rc><c>Cu</c><c>   1</c></rc>
    <rc><c>Cu</c><c>   1</c></rc>
    <rc><c>Cu</c><c>   1</c></rc>
    <rc><c>Cu</c><c>   1</c></rc>
    <rc><c>Cu</c><c>   1</c></rc>
    <rc><c>Cu</c><c>   1</c></rc>
    <rc><c>Cu</c><c>   1</c></rc>
    <rc><c>Cu</c><c>   1</c></rc>
    <rc><c>Cu</c><c>   1</c></rc>
    <rc><c>Cu</c><c>   1</c></rc>
    <rc><c>Cu</c><c>   1</c></rc>
    <rc><c>Cu</c><c>   1</c></rc>
    <rc><c>Cu</c><c>   1</c></rc>
    <rc><c>Cu</c><c>   1</c></rc>
    <rc><c>Cu</c><c>   1</c></rc>
    <rc><c>Cu</c><c>   1</c></rc>
    <rc><c>Cu</c><c>   1</c></rc>
    <rc><c>Cu</c><c>   1</c></rc>
    <rc><c>Cu</c><c>   1</c></rc>
    <rc><c>Cu</c><c>   1</c></rc>
    <rc><c>Cu</c><c>   1</c></rc>
    <rc><c>H </c><c>   2</c></rc>
    <rc><c>H </c><c>   2</c></rc>
   </set>
  </array>
  <array name="atomtypes" >
   <dimension dim="1">type</dimension>
   <field type="int">atomspertype</field>
   <field type="string">element</field>
   <field>mass</field>
   <field>valence</field>
   <field type="string">pseudopotential</field>
   <set>
    <rc><c>  32</c><c>Cu</c><c>     63.54600000</c><c>     11.00000000</c><c>  PAW_PBE Cu 22Jun2005                  </c></rc>
    <rc><c>   2</c><c>H </c><c>      1.00000000</c><c>      1.00000000</c><c>  PAW_PBE H 15Jun2001                   </c></rc>
   </set>
  </array>
 </atominfo>
 <structure name="initialpos" >
  <crystal>
   <varray name="basis" >
    <v>       7.26000023       0.00000000       0.00000000 </v>
    <v>       0.00000000       5.13359547       0.00000000 </v>
    <v>       0.00000000       0.00000000      23.98379135 </v>
   </varray>
   <i name="volume">    893.87360752 </i>
   <varray name="rec_basis" >
    <v>       0.13774104       0.00000000       0.00000000 </v>
    <v>       0.00000000       0.19479525       0.00000000 </v>
    <v>       0.00000000       0.00000000       0.04169483 </v>
   </varray>
  </crystal>
  <varray name="positions" >
   <v>       0.00000000       0.00000000       0.00000000 </v>
   <v>       0.00000000       0.50000000       0.00000000 </v>
   <v>       0.50000000       0.00000000       0.00000000 </v>
   <v>       0.50000000       0.50000000       0.00000000 </v>
   <v>       0.25000000       0.25000000       0.05351109 </v>
   <v>       0.25000000       0.75000000       0.05351109 </v>
   <v>       0.75000000       0.25000000       0.05351109 </v>
   <v>       0.75000000       0.75000000       0.05351109 </v>
   <v>       0.00000000       0.00000000       0.10541371 </v>
   <v>       0.00000000       0.50000000       0.10541371 </v>
   <v>       0.50000000       0.00000000       0.10541371 </v>
   <v>       0.50000000       0.50000000       0.10541371 </v>
   <v>       0.25000000       0.25000000       0.15715010 </v>
   <v>       0.25000000       0.75000000       0.15715010 </v>
   <v>       0.75000000       0.25000000       0.15715010 </v>
   <v>       0.75000000       0.75000000       0.15715010 </v>
   <v>       0.00000000       0.00000000       0.20866257 </v>
   <v>       0.00000000       0.50000000       0.20866257 </v>
   <v>       0.50000000       0.00000000       0.20866257 </v>
   <v>       0.50000000       0.50000000       0.20866257 </v>
   <v>       0.25000000       0.25000000       0.25947965 </v>
   <v>       0.25000000       0.75000000       0.25947965 </v>
   <v>       0.75000000       0.25000000       0.25947965 </v>
   <v>       0.75000000       0.75000000       0.25947965 </v>
   <v>       0.00000000       0.00000000       0.31415415 </v>
   <v>       0.00000000       0.50000000       0.31415415 </v>
   <v>       0.50000000       0.00000000       0.31415415 </v>
   <v>       0.50000000       0.50000000       0.31415415 </v>
   <v>       0.25000000       0.25000000       0.36181799 </v>
   <v>       0.25000000       0.75000000       0.36181799 </v>
   <v>       0.75000000       0.25000000       0.36181799 </v>
   <v>       0.75000000       0.75000000       0.36181799 </v>
   <v>       1.00000000       0.50000000       0.42690792 </v>
   <v>       1.00000000       0.64531725       0.42690792 </v>
  </varray>
  <varray name="selective"  type="logical" >
   <v type="logical" >  F  F  F </v>
   <v type="logical" >  F  F  F </v>
   <v type="logical" >  F  F  F </v>
   <v type="logical" >  F  F  F </v>
   <v type="logical" >  F  F  F </v>
   <v type="logical" >  F  F  F </v>
   <v type="logical" >  F  F  F </v>
   <v type="logical" >  F  F  F </v>
   <v type="logical" >  F  F  F </v>
   <v type="logical" >  F  F  F </v>
   <v type="logical" >  F  F  F </v>
   <v type="logical" >  F  F  F </v>
   <v type="logical" >  T  T  T </v>
   <v type="logical" >  T  T  T </v>
   <v type="logical" >  T  T  T </v>
   <v type="logical" >  T  T  T </v>
   <v type="logical" >  T  T  T </v>
   <v type="logical" >  T  T  T </v>
   <v type="logical" >  T  T  T </v>
   <v type="logical" >  T  T  T </v>
   <v type="logical" >  T  T  T </v>
   <v type="logical" >  T  T  T </v>
   <v type="logical" >  T  T  T </v>
   <v type="logical" >  T  T  T </v>
   <v type="logical" >  T  T  T </v>
   <v type="logical" >  T  T  T </v>
   <v type="logical" >  T  T  T </v>
   <v type="logical" >  T  T  T </v>
   <v type="logical" >  T  T  T </v>
   <v type="logical" >  T  T  T </v>
   <v type="logical" >  T  T  T </v>
   <v type="logical" >  T  T  T </v>
   <v type="logical" >  T  T  T </v>
   <v type="logical" >  T  T  T </v>
  </varray>
  <nose>
   <v>      -3.00000000       0.00000000       0.00010000       0.00010000 </v>
  </nose>
 </structure>
 <calculation>
  <scstep>
   <time name="dav">    7.58    7.64</time>
   <time name="total">    7.66    7.73</time>
   <energy>
    <i name="alphaZ">    844.48149002 </i>
    <i name="ewald"> 173270.49966326 </i>
    <i name="hartreedc">-216409.64498534 </i>
    <i name="XCdc">   1468.43192075 </i>
    <i name="pawpsdc">  39302.70853331 </i>
    <i name="pawaedc"> -42689.07521165 </i>
    <i name="eentropy">      0.00219149 </i>
    <i name="bandstr">   2948.87308859 </i>
    <i name="atom">  44535.60175172 </i>
    <i name="e_fr_energy">   3271.87844215 </i>
    <i name="e_wo_entrp">   3271.87625065 </i>
    <i name="e_0_energy">   3271.87771165 </i>
   </energy>
  </scstep>
  <scstep>
   <time name="dav">    7.47    7.53</time>
   <time name="total">    7.47    7.53</time>
   <energy>
    <i name="e_fr_energy">    384.54763247 </i>
    <i name="e_wo_entrp">    384.55772943 </i>
    <i name="e_0_energy">    384.55099812 </i>
   </energy>
  </scstep>
  <scstep>
   <time name="dav">    7.49    7.55</time>
   <time name="total">    7.49    7.55</time>
   <energy>
    <i name="e_fr_energy">    -99.96285602 </i>
    <i name="e_wo_entrp">    -99.98692914 </i>
    <i name="e_0_energy">    -99.97088039 </i>
   </energy>
  </scstep>
  <scstep>
   <time name="dav">    8.23    8.30</time>
   <time name="total">    8.23    8.30</time>
   <energy>
    <i name="e_fr_energy">   -133.19823968 </i>
    <i name="e_wo_entrp">   -133.21890772 </i>
    <i name="e_0_energy">   -133.20512903 </i>
   </energy>
  </scstep>
  <scstep>
   <time name="dav">    8.15    8.22</time>
   <time name="total">    8.53    8.60</time>
   <energy>
    <i name="e_fr_energy">   -133.96903284 </i>
    <i name="e_wo_entrp">   -133.99046915 </i>
    <i name="e_0_energy">   -133.97617828 </i>
   </energy>
  </scstep>
  <scstep>
   <time name="dav">    7.94    8.00</time>
   <time name="total">    8.38    8.44</time>
   <energy>
    <i name="e_fr_energy">   -108.30063370 </i>
    <i name="e_wo_entrp">   -108.29252029 </i>
    <i name="e_0_energy">   -108.29792923 </i>
   </energy>
  </scstep>
  <scstep>
   <time name="dav">    8.05    8.11</time>
   <time name="total">    8.47    8.54</time>
   <energy>
    <i name="e_fr_energy">    -95.25078680 </i>
    <i name="e_wo_entrp">    -95.24007339 </i>
    <i name="e_0_energy">    -95.24721566 </i>
   </energy>
  </scstep>
  <scstep>
   <time name="dav">    8.24    8.30</time>
   <time name="total">    8.67    8.74</time>
   <energy>
    <i name="e_fr_energy">    -93.97005508 </i>
    <i name="e_wo_entrp">    -93.96937408 </i>
    <i name="e_0_energy">    -93.96982808 </i>
   </energy>
  </scstep>
  <scstep>
   <time name="dav">    9.55    9.62</time>
   <time name="total">    9.97   10.05</time>
   <energy>
    <i name="e_fr_energy">    -92.10648099 </i>
    <i name="e_wo_entrp">    -92.10572997 </i>
    <i name="e_0_energy">    -92.10623065 </i>
   </energy>
  </scstep>
  <scstep>
   <time name="dav">   10.38   10.46</time>
   <time name="total">   10.81   10.89</time>
   <energy>
    <i name="e_fr_energy">    -93.30490218 </i>
    <i name="e_wo_entrp">    -93.30645122 </i>
    <i name="e_0_energy">    -93.30541853 </i>
   </energy>
  </scstep>
  <scstep>
   <time name="dav">   10.89   10.97</time>
   <time name="total">   11.31   11.39</time>
   <energy>
    <i name="e_fr_energy">    -93.30125603 </i>
    <i name="e_wo_entrp">    -93.29312194 </i>
    <i name="e_0_energy">    -93.29854466 </i>
   </energy>
  </scstep>
  <scstep>
   <time name="dav">    9.34    9.42</time>
   <time name="total">    9.77    9.85</time>
   <energy>
    <i name="e_fr_energy">    -95.54340505 </i>
    <i name="e_wo_entrp">    -95.51213379 </i>
    <i name="e_0_energy">    -95.53298130 </i>
   </energy>
  </scstep>
  <scstep>
   <time name="dav">    8.85    8.91</time>
   <time name="total">    9.28    9.35</time>
   <energy>
    <i name="e_fr_energy">   -100.39387386 </i>
    <i name="e_wo_entrp">   -100.36960349 </i>
    <i name="e_0_energy">   -100.38578374 </i>
   </energy>
  </scstep>
  <scstep>
   <time name="dav">    8.93    9.00</time>
   <time name="total">    9.37    9.45</time>
   <energy>
    <i name="e_fr_energy">   -105.98722805 </i>
    <i name="e_wo_entrp">   -105.97212330 </i>
    <i name="e_0_energy">   -105.98219314 </i>
   </energy>
  </scstep>
  <scstep>
   <time name="dav">    9.62    9.70</time>
   <time name="total">   10.05   10.13</time>
   <energy>
    <i name="e_fr_energy">   -110.04984545 </i>
    <i name="e_wo_entrp">   -110.07561189 </i>
    <i name="e_0_energy">   -110.05843426 </i>
   </energy>
  </scstep>
  <scstep>
   <time name="dav">    8.31    8.38</time>
   <time name="total">    8.76    8.82</time>
   <energy>
    <i name="e_fr_energy">   -113.01417155 </i>
    <i name="e_wo_entrp">   -113.06439524 </i>
    <i name="e_0_energy">   -113.03091278 </i>
   </energy>
  </scstep>
  <scstep>
   <time name="dav">    8.06    8.12</time>
   <time name="total">    8.50    8.56</time>
   <energy>
    <i name="e_fr_energy">   -114.58760036 </i>
    <i name="e_wo_entrp">   -114.63978932 </i>
    <i name="e_0_energy">   -114.60499668 </i>
   </energy>
  </scstep>
  <scstep>
   <time name="dav">    8.27    8.33</time>
   <time name="total">    8.70    8.76</time>
   <energy>
    <i name="e_fr_energy">   -115.79336615 </i>
    <i name="e_wo_entrp">   -115.82892305 </i>
    <i name="e_0_energy">   -115.80521845 </i>
   </energy>
  </scstep>
  <scstep>
   <time name="dav">    8.76    8.83</time>
   <time name="total">    9.20    9.27</time>
   <energy>
    <i name="e_fr_energy">   -116.43538514 </i>
    <i name="e_wo_entrp">   -116.46848988 </i>
    <i name="e_0_energy">   -116.44642005 </i>
   </energy>
  </scstep>
  <scstep>
   <time name="dav">    8.42    8.49</time>
   <time name="total">    8.85    8.92</time>
   <energy>
    <i name="e_fr_energy">   -116.89051361 </i>
    <i name="e_wo_entrp">   -116.92383099 </i>
    <i name="e_0_energy">   -116.90161940 </i>
   </energy>
  </scstep>
  <scstep>
   <time name="dav">    8.28    8.35</time>
   <time name="total">    8.74    8.81</time>
   <energy>
    <i name="e_fr_energy">   -117.02799267 </i>
    <i name="e_wo_entrp">   -117.06325557 </i>
    <i name="e_0_energy">   -117.03974697 </i>
   </energy>
  </scstep>
  <scstep>
   <time name="dav">    8.65    8.72</time>
   <time name="total">    9.10    9.17</time>
   <energy>
    <i name="e_fr_energy">   -117.23827160 </i>
    <i name="e_wo_entrp">   -117.27455550 </i>
    <i name="e_0_energy">   -117.25036623 </i>
   </energy>
  </scstep>
  <scstep>
   <time name="dav">    8.69    8.76</time>
   <time name="total">    9.12    9.20</time>
   <energy>
    <i name="e_fr_energy">   -117.44255529 </i>
    <i name="e_wo_entrp">   -117.47824331 </i>
    <i name="e_0_energy">   -117.45445130 </i>
   </energy>
  </scstep>
  <scstep>
   <time name="dav">    9.40    9.47</time>
   <time name="total">    9.83    9.91</time>
   <energy>
    <i name="e_fr_energy">   -117.61040815 </i>
    <i name="e_wo_entrp">   -117.64770765 </i>
    <i name="e_0_energy">   -117.62284131 </i>
   </energy>
  </scstep>
  <scstep>
   <time name="dav">    8.63    8.69</time>
   <time name="total">    9.07    9.14</time>
   <energy>
    <i name="e_fr_energy">   -117.74250843 </i>
    <i name="e_wo_entrp">   -117.77973034 </i>
    <i name="e_0_energy">   -117.75491573 </i>
   </energy>
  </scstep>
  <scstep>
   <time name="dav">    8.91    8.98</time>
   <time name="total">    9.35    9.42</time>
   <energy>
    <i name="e_fr_energy">   -117.91084888 </i>
    <i name="e_wo_entrp">   -117.94787472 </i>
    <i name="e_0_energy">   -117.92319083 </i>
   </energy>
  </scstep>
  <scstep>
   <time name="dav">    9.02    9.09</time>
   <time name="total">    9.45    9.52</time>
   <energy>
    <i name="e_fr_energy">   -117.98452533 </i>
    <i name="e_wo_entrp">   -118.02218933 </i>
    <i name="e_0_energy">   -117.99708000 </i>
   </energy>
  </scstep>
  <scstep>
   <time name="dav">    6.82    6.88</time>
   <time name="total">    7.26    7.31</time>
   <energy>
    <i name="e_fr_energy">   -118.01675491 </i>
    <i name="e_wo_entrp">   -118.05432704 </i>
    <i name="e_0_energy">   -118.02927895 </i>
   </energy>
  </scstep>
  <scstep>
   <time name="dav">    6.01    6.06</time>
   <time name="total">    6.45    6.50</time>
   <energy>
    <i name="e_fr_energy">   -118.02387056 </i>
    <i name="e_wo_entrp">   -118.06134046 </i>
    <i name="e_0_energy">   -118.03636052 </i>
   </energy>
  </scstep>
  <scstep>
   <time name="dav">    5.94    5.99</time>
   <time name="total">    6.38    6.43</time>
   <energy>
    <i name="e_fr_energy">   -118.02791147 </i>
    <i name="e_wo_entrp">   -118.06546033 </i>
    <i name="e_0_energy">   -118.04042776 </i>
   </energy>
  </scstep>
  <scstep>
   <time name="dav">    5.65    5.69</time>
   <time name="total">    6.09    6.13</time>
   <energy>
    <i name="e_fr_energy">   -118.02917419 </i>
    <i name="e_wo_entrp">   -118.06661846 </i>
    <i name="e_0_energy">   -118.04165562 </i>
   </energy>
  </scstep>
  <scstep>
   <time name="dav">    5.53    5.57</time>
   <time name="total">    5.98    6.02</time>
   <energy>
    <i name="e_fr_energy">   -118.02938798 </i>
    <i name="e_wo_entrp">   -118.06679974 </i>
    <i name="e_0_energy">   -118.04185857 </i>
   </energy>
  </scstep>
  <scstep>
   <time name="dav">    5.57    5.62</time>
   <time name="total">    5.65    5.70</time>
   <energy>
    <i name="alphaZ">    844.48149002 </i>
    <i name="ewald"> 173270.49966326 </i>
    <i name="hartreedc">-216030.47753520 </i>
    <i name="XCdc">   1431.90806213 </i>
    <i name="pawpsdc">  41951.87906938 </i>
    <i name="pawaedc"> -45399.85434920 </i>
    <i name="eentropy">      0.03743979 </i>
    <i name="bandstr">   -722.10510331 </i>
    <i name="atom">  44535.60175172 </i>
    <i name="e_fr_energy">   -118.02951141 </i>
    <i name="e_wo_entrp">   -118.06695120 </i>
    <i name="e_0_energy">   -118.04199134 </i>
   </energy>
  </scstep>
  <structure>
   <crystal>
    <varray name="basis" >
     <v>       7.26000023       0.00000000       0.00000000 </v>
     <v>       0.00000000       5.13359547       0.00000000 </v>
     <v>       0.00000000       0.00000000      23.98379135 </v>
    </varray>
    <i name="volume">    893.87360752 </i>
    <varray name="rec_basis" >
     <v>       0.13774104       0.00000000       0.00000000 </v>
     <v>       0.00000000       0.19479525       0.00000000 </v>
     <v>       0.00000000       0.00000000       0.04169483 </v>
    </varray>
   </crystal>
   <varray name="positions" >
    <v>       0.00000000       0.00000000       0.00000000 </v>
    <v>       0.00000000       0.50000000       0.00000000 </v>
    <v>       0.50000000       0.00000000       0.00000000 </v>
    <v>       0.50000000       0.50000000       0.00000000 </v>
    <v>       0.25000000       0.25000000       0.05351109 </v>
    <v>       0.25000000       0.75000000       0.05351109 </v>
    <v>       0.75000000       0.25000000       0.05351109 </v>
    <v>       0.75000000       0.75000000       0.05351109 </v>
    <v>       0.00000000       0.00000000       0.10541371 </v>
    <v>       0.00000000       0.50000000       0.10541371 </v>
    <v>       0.50000000       0.00000000       0.10541371 </v>
    <v>       0.50000000       0.50000000       0.10541371 </v>
    <v>       0.25000000       0.25000000       0.15715010 </v>
    <v>       0.25000000       0.75000000       0.15715010 </v>
    <v>       0.75000000       0.25000000       0.15715010 </v>
    <v>       0.75000000       0.75000000       0.15715010 </v>
    <v>       0.00000000       0.00000000       0.20866257 </v>
    <v>       0.00000000       0.50000000       0.20866257 </v>
    <v>       0.50000000       0.00000000       0.20866257 </v>
    <v>       0.50000000       0.50000000       0.20866257 </v>
    <v>       0.25000000       0.25000000       0.25947965 </v>
    <v>       0.25000000       0.75000000       0.25947965 </v>
    <v>       0.75000000       0.25000000       0.25947965 </v>
    <v>       0.75000000       0.75000000       0.25947965 </v>
    <v>       0.00000000       0.00000000       0.31415415 </v>
    <v>       0.00000000       0.50000000       0.31415415 </v>
    <v>       0.50000000       0.00000000       0.31415415 </v>
    <v>       0.50000000       0.50000000       0.31415415 </v>
    <v>       0.25000000       0.25000000       0.36181799 </v>
    <v>       0.25000000       0.75000000       0.36181799 </v>
    <v>       0.75000000       0.25000000       0.36181799 </v>
    <v>       0.75000000       0.75000000       0.36181799 </v>
    <v>       1.00000000       0.50000000       0.42690792 </v>
    <v>       1.00000000       0.64531725       0.42690792 </v>
   </varray>
  </structure>
  <varray name="forces" >
   <v>       0.00000000      -0.00418830       0.45627796 </v>
   <v>       0.00000000       0.00282473       0.45500327 </v>
   <v>       0.00000000      -0.01097256       0.44960508 </v>
   <v>       0.00000000       0.01144602       0.43011558 </v>
   <v>      -0.00076263       0.01084081      -0.44781552 </v>
   <v>       0.00347286      -0.00984078      -0.45007573 </v>
   <v>       0.00076263       0.01084081      -0.44781552 </v>
   <v>      -0.00347286      -0.00984078      -0.45007573 </v>
   <v>       0.00000000      -0.00200784      -0.05350874 </v>
   <v>       0.00000000      -0.00328814      -0.02695572 </v>
   <v>       0.00000000      -0.00047125      -0.00927004 </v>
   <v>       0.00000000       0.00280439      -0.00987438 </v>
   <v>      -0.01213248       0.00528647       0.01536543 </v>
   <v>      -0.00130764      -0.00501379       0.01097728 </v>
   <v>       0.01213248       0.00528647       0.01536543 </v>
   <v>       0.00130764      -0.00501379       0.01097728 </v>
   <v>       0.00000000       0.01220203      -0.04510487 </v>
   <v>       0.00000000      -0.00759860       0.00605427 </v>
   <v>       0.00000000      -0.00171845       0.05923481 </v>
   <v>       0.00000000      -0.00010085       0.00032936 </v>
   <v>       0.00727697       0.02856386       0.01214048 </v>
   <v>      -0.02169194      -0.02969653       0.02330194 </v>
   <v>      -0.00727697       0.02856386       0.01214048 </v>
   <v>       0.02169194      -0.02969653       0.02330194 </v>
   <v>       0.00000000       0.04447591      -0.01873155 </v>
   <v>       0.00000000      -0.04930124      -0.32672290 </v>
   <v>       0.00000000      -0.00622428       0.04693533 </v>
   <v>       0.00000000      -0.00415918       0.06220915 </v>
   <v>       0.10193299      -0.10138789      -0.07624723 </v>
   <v>       0.16535372       0.08538858      -0.08655460 </v>
   <v>      -0.10193299      -0.10138789      -0.07624723 </v>
   <v>      -0.16535372       0.08538858      -0.08655460 </v>
   <v>       0.00000000      -0.68821573       0.24427131 </v>
   <v>       0.00000000       0.73621188       0.27794797 </v>
  </varray>
  <varray name="stress" >
   <v>     -30.86550302       0.00000000       0.00000000 </v>
   <v>       0.00000000     -27.07860485       0.16724855 </v>
   <v>       0.00000000       0.16724858      -5.96660853 </v>
  </varray>
  <energy>
   <i name="e_fr_energy">   -130.47330497 </i>
   <i name="e_wo_entrp">   -130.51074477 </i>
   <i name="e_0_energy">   -130.48578490 </i>
  </energy>
  <time name="totalsc">  296.90  299.23</time>
 </calculation>
 <calculation>
  <scstep>
   <time name="dav">    7.64    7.70</time>
   <time name="total">    8.09    8.15</time>
   <energy>
    <i name="alphaZ">    844.48149002 </i>
    <i name="ewald"> 173362.43500384 </i>
    <i name="hartreedc">-216123.08868831 </i>
    <i name="XCdc">   1431.86361210 </i>
    <i name="pawpsdc">  41951.72700245 </i>
    <i name="pawaedc"> -45399.68629098 </i>
    <i name="eentropy">      0.03789497 </i>
    <i name="bandstr">   -721.38812499 </i>
    <i name="atom">  44535.60175172 </i>
    <i name="e_fr_energy">   -118.01634917 </i>
    <i name="e_wo_entrp">   -118.05424415 </i>
    <i name="e_0_energy">   -118.02898083 </i>
   </energy>
  </scstep>
  <scstep>
   <time name="dav">    9.82    9.90</time>
   <time name="total">   10.26   10.35</time>
   <energy>
    <i name="e_fr_energy">   -118.02093290 </i>
    <i name="e_wo_entrp">   -118.05809670 </i>
    <i name="e_0_energy">   -118.03332083 </i>
   </energy>
  </scstep>
  <scstep>
   <time name="dav">    8.45    8.51</time>
   <time name="total">    8.89    8.95</time>
   <energy>
    <i name="e_fr_energy">   -118.02360500 </i>
    <i name="e_wo_entrp">   -118.06132155 </i>
    <i name="e_0_energy">   -118.03617718 </i>
   </energy>
  </scstep>
  <scstep>
   <time name="dav">    8.55    8.61</time>
   <time name="total">    8.98    9.05</time>
   <energy>
    <i name="e_fr_energy">   -118.02097414 </i>
    <i name="e_wo_entrp">   -118.05891737 </i>
    <i name="e_0_energy">   -118.03362188 </i>
   </energy>
  </scstep>
  <scstep>
   <time name="dav">   10.65   10.73</time>
   <time name="total">   11.09   11.17</time>
   <energy>
    <i name="e_fr_energy">   -118.01922729 </i>
    <i name="e_wo_entrp">   -118.05615112 </i>
    <i name="e_0_energy">   -118.03153523 </i>
   </energy>
  </scstep>
  <scstep>
   <time name="dav">    9.46    9.53</time>
   <time name="total">    9.54    9.62</time>
   <energy>
    <i name="alphaZ">    844.48149002 </i>
    <i name="ewald"> 173362.43500384 </i>
    <i name="hartreedc">-216120.94123207 </i>
    <i name="XCdc">   1431.76709763 </i>
    <i name="pawpsdc">  41950.82512391 </i>
    <i name="pawaedc"> -45398.73488682 </i>
    <i name="eentropy">      0.03751942 </i>
    <i name="bandstr">   -723.49116839 </i>
    <i name="atom">  44535.60175172 </i>
    <i name="e_fr_energy">   -118.01930076 </i>
    <i name="e_wo_entrp">   -118.05682018 </i>
    <i name="e_0_energy">   -118.03180723 </i>
   </energy>
  </scstep>
  <structure>
   <crystal>
    <varray name="basis" >
     <v>       7.26000023       0.00000000       0.00000000 </v>
     <v>       0.00000000       5.13359547       0.00000000 </v>
     <v>       0.00000000       0.00000000      23.98379135 </v>
    </varray>
    <i name="volume">    893.87360752 </i>
    <varray name="rec_basis" >
     <v>       0.13774104       0.00000000       0.00000000 </v>
     <v>       0.00000000       0.19479525       0.00000000 </v>
     <v>       0.00000000       0.00000000       0.04169483 </v>
    </varray>
   </crystal>
   <varray name="positions" >
    <v>       0.00000000       0.00000000       0.00000000 </v>
    <v>       0.00000000       0.50000000       0.00000000 </v>
    <v>       0.50000000       0.00000000       0.00000000 </v>
    <v>       0.50000000       0.50000000       0.00000000 </v>
    <v>       0.25000000       0.25000000       0.05351109 </v>
    <v>       0.25000000       0.75000000       0.05351109 </v>
    <v>       0.75000000       0.25000000       0.05351109 </v>
    <v>       0.75000000       0.75000000       0.05351109 </v>
    <v>       0.00000000       0.00000000       0.10541371 </v>
    <v>       0.00000000       0.50000000       0.10541371 </v>
    <v>       0.50000000       0.00000000       0.10541371 </v>
    <v>       0.50000000       0.50000000       0.10541371 </v>
    <v>       0.24991938       0.25004968       0.15718100 </v>
    <v>       0.24999131       0.74995288       0.15717218 </v>
    <v>       0.75008062       0.25004968       0.15718100 </v>
    <v>       0.75000869       0.74995288       0.15717218 </v>
    <v>       0.00000000       0.00011467       0.20857184 </v>
    <v>       0.00000000       0.49992859       0.20867475 </v>
    <v>       0.50000000      -0.00001615       0.20878172 </v>
    <v>       0.50000000       0.49999905       0.20866323 </v>
    <v>       0.25004836       0.25026843       0.25950407 </v>
    <v>       0.24985586       0.74972093       0.25952652 </v>
    <v>       0.74995164       0.25026843       0.25950407 </v>
    <v>       0.75014414       0.74972093       0.25952652 </v>
    <v>       0.00000000       0.00041796       0.31411647 </v>
    <v>       0.00000000       0.49953669       0.31349696 </v>
    <v>       0.50000000      -0.00005849       0.31424856 </v>
    <v>       0.50000000       0.49996091       0.31427928 </v>
    <v>       0.25067734       0.24904721       0.36166462 </v>
    <v>       0.25109877       0.75080243       0.36164389 </v>
    <v>       0.74932266       0.24904721       0.36166462 </v>
    <v>       0.74890123       0.75080243       0.36164389 </v>
    <v>       1.00000000       0.49353253       0.42739926 </v>
    <v>       1.00000000       0.65223576       0.42746700 </v>
   </varray>
  </structure>
  <varray name="forces" >
   <v>       0.00000000      -0.00430132       0.45101929 </v>
   <v>       0.00000000       0.00273734       0.45070239 </v>
   <v>       0.00000000      -0.01178664       0.44607836 </v>
   <v>       0.00000000       0.01220627       0.42446788 </v>
   <v>       0.00050851       0.01140292      -0.44659379 </v>
   <v>       0.00415270      -0.01038619      -0.44967118 </v>
   <v>      -0.00050851       0.01140292      -0.44659379 </v>
   <v>      -0.00415270      -0.01038619      -0.44967118 </v>
   <v>       0.00000000      -0.00292116      -0.06064047 </v>
   <v>       0.00000000      -0.00281819      -0.03083570 </v>
   <v>       0.00000000       0.00081474       0.00001517 </v>
   <v>       0.00000000       0.00157112      -0.00896513 </v>
   <v>      -0.00119208       0.00047787       0.00734920 </v>
   <v>       0.00342509      -0.00014730       0.00794066 </v>
   <v>       0.00119208       0.00047787       0.00734920 </v>
   <v>      -0.00342509      -0.00014730       0.00794066 </v>
   <v>       0.00000000       0.00495047      -0.02408410 </v>
   <v>       0.00000000      -0.00164023      -0.02856487 </v>
   <v>       0.00000000      -0.00313049       0.03691972 </v>
   <v>       0.00000000       0.00178528       0.00299446 </v>
   <v>       0.01626947       0.00856757      -0.00612671 </v>
   <v>      -0.00828247      -0.00994100      -0.00148050 </v>
   <v>      -0.01626947       0.00856757      -0.00612671 </v>
   <v>       0.00828247      -0.00994100      -0.00148050 </v>
   <v>       0.00000000       0.01164063      -0.01147384 </v>
   <v>       0.00000000      -0.01818803      -0.18101017 </v>
   <v>       0.00000000      -0.00100115       0.00030458 </v>
   <v>       0.00000000      -0.00875552       0.02772180 </v>
   <v>       0.04789962      -0.04483712      -0.03341257 </v>
   <v>       0.07174594       0.02981451      -0.02858991 </v>
   <v>      -0.04789962      -0.04483712      -0.03341257 </v>
   <v>      -0.07174594       0.02981451      -0.02858991 </v>
   <v>       0.00000000       0.71878761       0.18770898 </v>
   <v>       0.00000000      -0.66985325       0.21881126 </v>
  </varray>
  <varray name="stress" >
   <v>     -29.24055119       0.00000000       0.00000000 </v>
   <v>       0.00000000     -27.18219459       0.17763020 </v>
   <v>       0.00000000       0.17763021      -4.10284922 </v>
  </varray>
  <energy>
   <i name="e_fr_energy">   -130.48026743 </i>
   <i name="e_wo_entrp">   -130.51778684 </i>
   <i name="e_0_energy">   -130.49277390 </i>
  </energy>
  <time name="totalsc">   71.76   72.32</time>
 </calculation>
 <calculation>
  <scstep>
   <time name="dav">    7.65    7.70</time>
   <time name="total">    8.09    8.15</time>
   <energy>
    <i name="alphaZ">    844.48149002 </i>
    <i name="ewald"> 173318.53944237 </i>
    <i name="hartreedc">-216076.99775963 </i>
    <i name="XCdc">   1431.79119914 </i>
    <i name="pawpsdc">  41950.91417864 </i>
    <i name="pawaedc"> -45398.86460711 </i>
    <i name="eentropy">      0.03713308 </i>
    <i name="bandstr">   -723.54280406 </i>
    <i name="atom">  44535.60175172 </i>
    <i name="e_fr_energy">   -118.03997581 </i>
    <i name="e_wo_entrp">   -118.07710889 </i>
    <i name="e_0_energy">   -118.05235350 </i>
   </energy>
  </scstep>
  <scstep>
   <time name="dav">    9.74    9.82</time>
   <time name="total">   10.17   10.25</time>
   <energy>
    <i name="e_fr_energy">   -118.04134112 </i>
    <i name="e_wo_entrp">   -118.07873612 </i>
    <i name="e_0_energy">   -118.05380612 </i>
   </energy>
  </scstep>
  <scstep>
   <time name="dav">    8.22    8.29</time>
   <time name="total">    8.66    8.73</time>
   <energy>
    <i name="e_fr_energy">   -118.04114020 </i>
    <i name="e_wo_entrp">   -118.07867154 </i>
    <i name="e_0_energy">   -118.05365065 </i>
   </energy>
  </scstep>
  <scstep>
   <time name="dav">    7.99    8.05</time>
   <time name="total">    8.42    8.49</time>
   <energy>
    <i name="e_fr_energy">   -118.04114586 </i>
    <i name="e_wo_entrp">   -118.07826677 </i>
    <i name="e_0_energy">   -118.05351950 </i>
   </energy>
  </scstep>
  <scstep>
   <time name="dav">    6.01    6.05</time>
   <time name="total">    6.09    6.14</time>
   <energy>
    <i name="alphaZ">    844.48149002 </i>
    <i name="ewald"> 173318.53944237 </i>
    <i name="hartreedc">-216077.47056647 </i>
    <i name="XCdc">   1431.84220002 </i>
    <i name="pawpsdc">  41951.19880295 </i>
    <i name="pawaedc"> -45399.24766237 </i>
    <i name="eentropy">      0.03736832 </i>
    <i name="bandstr">   -723.02382295 </i>
    <i name="atom">  44535.60175172 </i>
    <i name="e_fr_energy">   -118.04099637 </i>
    <i name="e_wo_entrp">   -118.07836470 </i>
    <i name="e_0_energy">   -118.05345248 </i>
   </energy>
  </scstep>
  <structure>
   <crystal>
    <varray name="basis" >
     <v>       7.26000023       0.00000000       0.00000000 </v>
     <v>       0.00000000       5.13359547       0.00000000 </v>
     <v>       0.00000000       0.00000000      23.98379135 </v>
    </varray>
    <i name="volume">    893.87360752 </i>
    <varray name="rec_basis" >
     <v>       0.13774104       0.00000000       0.00000000 </v>
     <v>       0.00000000       0.19479525       0.00000000 </v>
     <v>       0.00000000       0.00000000       0.04169483 </v>
    </varray>
   </crystal>
   <varray name="positions" >
    <v>       0.00000000       0.00000000       0.00000000 </v>
    <v>       0.00000000       0.50000000       0.00000000 </v>
    <v>       0.50000000       0.00000000       0.00000000 </v>
    <v>       0.50000000       0.50000000       0.00000000 </v>
    <v>       0.25000000       0.25000000       0.05351109 </v>
    <v>       0.25000000       0.75000000       0.05351109 </v>
    <v>       0.75000000       0.25000000       0.05351109 </v>
    <v>       0.75000000       0.75000000       0.05351109 </v>
    <v>       0.00000000       0.00000000       0.10541371 </v>
    <v>       0.00000000       0.50000000       0.10541371 </v>
    <v>       0.50000000       0.00000000       0.10541371 </v>
    <v>       0.50000000       0.50000000       0.10541371 </v>
    <v>       0.24995780       0.25002600       0.15716627 </v>
    <v>       0.24999545       0.74997534       0.15716165 </v>
    <v>       0.75004220       0.25002600       0.15716627 </v>
    <v>       0.75000455       0.74997534       0.15716165 </v>
    <v>       0.00000000       0.00006002       0.20861508 </v>
    <v>       0.00000000       0.49996262       0.20866894 </v>
    <v>       0.50000000      -0.00000845       0.20872494 </v>
    <v>       0.50000000       0.49999950       0.20866292 </v>
    <v>       0.25002531       0.25014051       0.25949244 </v>
    <v>       0.24992455       0.74985392       0.25950419 </v>
    <v>       0.74997469       0.25014051       0.25949244 </v>
    <v>       0.75007545       0.74985392       0.25950419 </v>
    <v>       0.00000000       0.00021878       0.31413443 </v>
    <v>       0.00000000       0.49975748       0.31381014 </v>
    <v>       0.50000000      -0.00003062       0.31420357 </v>
    <v>       0.50000000       0.49997954       0.31421965 </v>
    <v>       0.25035455       0.24950127       0.36173771 </v>
    <v>       0.25057515       0.75042003       0.36172686 </v>
    <v>       0.74964545       0.24950127       0.36173771 </v>
    <v>       0.74942485       0.75042003       0.36172686 </v>
    <v>       1.00000000       0.49661462       0.42716511 </v>
    <v>       1.00000000       0.64893873       0.42720057 </v>
   </varray>
  </structure>
  <varray name="forces" >
   <v>       0.00000000      -0.00408420       0.45857335 </v>
   <v>       0.00000000       0.00283792       0.45681238 </v>
   <v>       0.00000000      -0.01121922       0.45185997 </v>
   <v>       0.00000000       0.01192107       0.43105028 </v>
   <v>      -0.00040094       0.01122718      -0.44365921 </v>
   <v>       0.00358159      -0.00995802      -0.44619142 </v>
   <v>       0.00040094       0.01122718      -0.44365921 </v>
   <v>      -0.00358159      -0.00995802      -0.44619142 </v>
   <v>       0.00000000      -0.00222525      -0.05348162 </v>
   <v>       0.00000000      -0.00314508      -0.02518389 </v>
   <v>       0.00000000       0.00020287      -0.00216099 </v>
   <v>       0.00000000       0.00243685      -0.00628497 </v>
   <v>      -0.00978845       0.00446420       0.01697965 </v>
   <v>       0.00016517      -0.00379100       0.01405699 </v>
   <v>       0.00978845       0.00446420       0.01697965 </v>
   <v>      -0.00016517      -0.00379100       0.01405699 </v>
   <v>       0.00000000       0.01123119      -0.04259972 </v>
   <v>       0.00000000      -0.00650942      -0.00859756 </v>
   <v>       0.00000000      -0.00257609       0.05919304 </v>
   <v>       0.00000000       0.00095701       0.00287742 </v>
   <v>       0.01294216       0.02360385       0.00228919 </v>
   <v>      -0.01720480      -0.02481174       0.01250839 </v>
   <v>      -0.01294216       0.02360385       0.00228919 </v>
   <v>       0.01720480      -0.02481174       0.01250839 </v>
   <v>       0.00000000       0.03614961      -0.02397852 </v>
   <v>       0.00000000      -0.03971847      -0.29783940 </v>
   <v>       0.00000000      -0.00478777       0.03154205 </v>
   <v>       0.00000000      -0.00618978       0.05250301 </v>
   <v>       0.09140434      -0.08791848      -0.06486425 </v>
   <v>       0.14015060       0.06970819      -0.06950496 </v>
   <v>      -0.09140434      -0.08791848      -0.06486425 </v>
   <v>      -0.14015060       0.06970819      -0.06950496 </v>
   <v>       0.00000000       0.26513282       0.21965803 </v>
   <v>       0.00000000      -0.21546238       0.25282842 </v>
  </varray>
  <varray name="stress" >
   <v>     -31.66705942       0.00000000       0.00000000 </v>
   <v>       0.00000000     -29.04498903       0.17364990 </v>
   <v>       0.00000000       0.17364981      -6.68077630 </v>
  </varray>
  <energy>
   <i name="e_fr_energy">   -130.49012677 </i>
   <i name="e_wo_entrp">   -130.52749509 </i>
   <i name="e_0_energy">   -130.50258288 </i>
  </energy>
  <time name="totalsc">   56.34   56.77</time>
 </calculation>
 <calculation>
  <scstep>
   <time name="dav">    7.70    7.76</time>
   <time name="total">    8.14    8.20</time>
   <energy>
    <i name="alphaZ">    844.48149002 </i>
    <i name="ewald"> 173422.42242554 </i>
    <i name="hartreedc">-216180.79396411 </i>
    <i name="XCdc">   1431.85957711 </i>
    <i name="pawpsdc">  41951.04906029 </i>
    <i name="pawaedc"> -45399.04146255 </i>
    <i name="eentropy">      0.03793138 </i>
    <i name="bandstr">   -723.66187370 </i>
    <i name="atom">  44535.60175172 </i>
    <i name="e_fr_energy">   -118.04506429 </i>
    <i name="e_wo_entrp">   -118.08299567 </i>
    <i name="e_0_energy">   -118.05770808 </i>
   </energy>
  </scstep>
  <scstep>
   <time name="dav">    9.72    9.80</time>
   <time name="total">   10.16   10.25</time>
   <energy>
    <i name="e_fr_energy">   -118.05243663 </i>
    <i name="e_wo_entrp">   -118.09020748 </i>
    <i name="e_0_energy">   -118.06502691 </i>
   </energy>
  </scstep>
  <scstep>
   <time name="dav">    7.94    8.00</time>
   <time name="total">    8.37    8.44</time>
   <energy>
    <i name="e_fr_energy">   -118.05236710 </i>
    <i name="e_wo_entrp">   -118.09043243 </i>
    <i name="e_0_energy">   -118.06505554 </i>
   </energy>
  </scstep>
  <scstep>
   <time name="dav">    6.80    6.86</time>
   <time name="total">    6.88    6.94</time>
   <energy>
    <i name="alphaZ">    844.48149002 </i>
    <i name="ewald"> 173422.42242554 </i>
    <i name="hartreedc">-216180.44155066 </i>
    <i name="XCdc">   1431.85742121 </i>
    <i name="pawpsdc">  41953.93124499 </i>
    <i name="pawaedc"> -45401.89296681 </i>
    <i name="eentropy">      0.03783691 </i>
    <i name="bandstr">   -724.04995070 </i>
    <i name="atom">  44535.60175172 </i>
    <i name="e_fr_energy">   -118.05229777 </i>
    <i name="e_wo_entrp">   -118.09013468 </i>
    <i name="e_0_energy">   -118.06491007 </i>
   </energy>
  </scstep>
  <structure>
   <crystal>
    <varray name="basis" >
     <v>       7.26000023       0.00000000       0.00000000 </v>
     <v>       0.00000000       5.13359547       0.00000000 </v>
     <v>       0.00000000       0.00000000      23.98379135 </v>
    </varray>
    <i name="volume">    893.87360752 </i>
    <varray name="rec_basis" >
     <v>       0.13774104       0.00000000       0.00000000 </v>
     <v>       0.00000000       0.19479525       0.00000000 </v>
     <v>       0.00000000       0.00000000       0.04169483 </v>
    </varray>
   </crystal>
   <varray name="positions" >
    <v>       0.00000000       0.00000000       0.00000000 </v>
    <v>       0.00000000       0.50000000       0.00000000 </v>
    <v>       0.50000000       0.00000000       0.00000000 </v>
    <v>       0.50000000       0.50000000       0.00000000 </v>
    <v>       0.25000000       0.25000000       0.05351109 </v>
    <v>       0.25000000       0.75000000       0.05351109 </v>
    <v>       0.75000000       0.25000000       0.05351109 </v>
    <v>       0.75000000       0.75000000       0.05351109 </v>
    <v>       0.00000000       0.00000000       0.10541371 </v>
    <v>       0.00000000       0.50000000       0.10541371 </v>
    <v>       0.50000000       0.00000000       0.10541371 </v>
    <v>       0.50000000       0.50000000       0.10541371 </v>
    <v>       0.24987750       0.25007718       0.15720540 </v>
    <v>       0.24999413       0.74993057       0.15719311 </v>
    <v>       0.75012250       0.25007718       0.15720540 </v>
    <v>       0.75000587       0.74993057       0.15719311 </v>
    <v>       0.00000000       0.00018603       0.20851341 </v>
    <v>       0.00000000       0.49988827       0.20865654 </v>
    <v>       0.50000000      -0.00003465       0.20886437 </v>
    <v>       0.50000000       0.50000739       0.20866833 </v>
    <v>       0.25011599       0.25041263       0.25950310 </v>
    <v>       0.24978275       0.74956870       0.25953942 </v>
    <v>       0.74988401       0.25041263       0.25950310 </v>
    <v>       0.75021725       0.74956870       0.25953942 </v>
    <v>       0.00000000       0.00063736       0.31408076 </v>
    <v>       0.00000000       0.49929649       0.31309323 </v>
    <v>       0.50000000      -0.00008689       0.31428609 </v>
    <v>       0.50000000       0.49991651       0.31434850 </v>
    <v>       0.25108433       0.24850021       0.36157885 </v>
    <v>       0.25171014       0.75122625       0.36155404 </v>
    <v>       0.74891567       0.24850021       0.36157885 </v>
    <v>       0.74828986       0.75122625       0.36155404 </v>
    <v>       1.00000000       0.49714735       0.42769561 </v>
    <v>       1.00000000       0.64894833       0.42780946 </v>
   </varray>
  </structure>
  <varray name="forces" >
   <v>       0.00000000      -0.00421398       0.44939223 </v>
   <v>       0.00000000       0.00242199       0.44900861 </v>
   <v>       0.00000000      -0.01135749       0.44402442 </v>
   <v>       0.00000000       0.01134768       0.42272999 </v>
   <v>       0.00002167       0.01049887      -0.44536357 </v>
   <v>       0.00384681      -0.01007588      -0.44860484 </v>
   <v>      -0.00002167       0.01049887      -0.44536357 </v>
   <v>      -0.00384681      -0.01007588      -0.44860484 </v>
   <v>       0.00000000      -0.00336495      -0.06127425 </v>
   <v>       0.00000000      -0.00217013      -0.03110457 </v>
   <v>       0.00000000       0.00106993       0.00750110 </v>
   <v>       0.00000000       0.00075482      -0.00604903 </v>
   <v>       0.00627138      -0.00270331      -0.00060378 </v>
   <v>       0.00601787       0.00239128       0.00228728 </v>
   <v>      -0.00627138      -0.00270331      -0.00060378 </v>
   <v>      -0.00601787       0.00239128       0.00228728 </v>
   <v>       0.00000000       0.00048013      -0.01025020 </v>
   <v>       0.00000000       0.00170734      -0.05035302 </v>
   <v>       0.00000000      -0.00374758       0.01602579 </v>
   <v>       0.00000000       0.00220885       0.00363537 </v>
   <v>       0.01856412      -0.00508582      -0.01702736 </v>
   <v>       0.00068299       0.00346968      -0.01555965 </v>
   <v>      -0.01856412      -0.00508582      -0.01702736 </v>
   <v>      -0.00068299       0.00346968      -0.01555965 </v>
   <v>       0.00000000      -0.00874275      -0.00339110 </v>
   <v>       0.00000000      -0.00008121      -0.08001817 </v>
   <v>       0.00000000       0.00144369      -0.02878681 </v>
   <v>       0.00000000      -0.01012813       0.00304586 </v>
   <v>       0.01415700      -0.00784455      -0.02673971 </v>
   <v>       0.02480829      -0.00349865      -0.02904987 </v>
   <v>      -0.01415700      -0.00784455      -0.02673971 </v>
   <v>      -0.02480829      -0.00349865      -0.02904987 </v>
   <v>       0.00000000       0.24128406       0.20066525 </v>
   <v>       0.00000000      -0.19321549       0.23652155 </v>
  </varray>
  <varray name="stress" >
   <v>     -28.31893032       0.00000000       0.00000000 </v>
   <v>       0.00000000     -25.76039093       0.16956046 </v>
   <v>       0.00000000       0.16956043      -3.18465947 </v>
  </varray>
  <energy>
   <i name="e_fr_energy">   -130.50474857 </i>
   <i name="e_wo_entrp">   -130.54258549 </i>
   <i name="e_0_energy">   -130.51736088 </i>
  </energy>
  <time name="totalsc">   48.47   48.88</time>
 </calculation>
 <calculation>
  <scstep>
   <time name="dav">    7.77    7.84</time>
   <time name="total">    8.21    8.28</time>
   <energy>
    <i name="alphaZ">    844.48149002 </i>
    <i name="ewald"> 173516.15038842 </i>
    <i name="hartreedc">-216274.17894607 </i>
    <i name="XCdc">   1431.89078540 </i>
    <i name="pawpsdc">  41954.61488651 </i>
    <i name="pawaedc"> -45402.67034925 </i>
    <i name="eentropy">      0.03831897 </i>
    <i name="bandstr">   -723.97971602 </i>
    <i name="atom">  44535.60175172 </i>
    <i name="e_fr_energy">   -118.05139028 </i>
    <i name="e_wo_entrp">   -118.08970926 </i>
    <i name="e_0_energy">   -118.06416327 </i>
   </energy>
  </scstep>
  <scstep>
   <time name="dav">    9.85    9.93</time>
   <time name="total">   10.28   10.36</time>
   <energy>
    <i name="e_fr_energy">   -118.05749841 </i>
    <i name="e_wo_entrp">   -118.09580728 </i>
    <i name="e_0_energy">   -118.07026803 </i>
   </energy>
  </scstep>
  <scstep>
   <time name="dav">    7.76    7.83</time>
   <time name="total">    8.19    8.26</time>
   <energy>
    <i name="e_fr_energy">   -118.05759519 </i>
    <i name="e_wo_entrp">   -118.09612444 </i>
    <i name="e_0_energy">   -118.07043827 </i>
   </energy>
  </scstep>
  <scstep>
   <time name="dav">    7.50    7.56</time>
   <time name="total">    7.94    8.01</time>
   <energy>
    <i name="e_fr_energy">   -118.05722244 </i>
    <i name="e_wo_entrp">   -118.09558795 </i>
    <i name="e_0_energy">   -118.07001094 </i>
   </energy>
  </scstep>
  <scstep>
   <time name="dav">    8.05    8.11</time>
   <time name="total">    8.12    8.19</time>
   <energy>
    <i name="alphaZ">    844.48149002 </i>
    <i name="ewald"> 173516.15038842 </i>
    <i name="hartreedc">-216272.98977480 </i>
    <i name="XCdc">   1431.88520375 </i>
    <i name="pawpsdc">  41960.35590897 </i>
    <i name="pawaedc"> -45408.51846735 </i>
    <i name="eentropy">      0.03865487 </i>
    <i name="bandstr">   -725.06236868 </i>
    <i name="atom">  44535.60175172 </i>
    <i name="e_fr_energy">   -118.05721308 </i>
    <i name="e_wo_entrp">   -118.09586795 </i>
    <i name="e_0_energy">   -118.07009803 </i>
   </energy>
  </scstep>
  <structure>
   <crystal>
    <varray name="basis" >
     <v>       7.26000023       0.00000000       0.00000000 </v>
     <v>       0.00000000       5.13359547       0.00000000 </v>
     <v>       0.00000000       0.00000000      23.98379135 </v>
    </varray>
    <i name="volume">    893.87360752 </i>
    <varray name="rec_basis" >
     <v>       0.13774104       0.00000000       0.00000000 </v>
     <v>       0.00000000       0.19479525       0.00000000 </v>
     <v>       0.00000000       0.00000000       0.04169483 </v>
    </varray>
   </crystal>
   <varray name="positions" >
    <v>       0.00000000       0.00000000       0.00000000 </v>
    <v>       0.00000000       0.50000000       0.00000000 </v>
    <v>       0.50000000       0.00000000       0.00000000 </v>
    <v>       0.50000000       0.50000000       0.00000000 </v>
    <v>       0.25000000       0.25000000       0.05351109 </v>
    <v>       0.25000000       0.75000000       0.05351109 </v>
    <v>       0.75000000       0.25000000       0.05351109 </v>
    <v>       0.75000000       0.75000000       0.05351109 </v>
    <v>       0.00000000       0.00000000       0.10541371 </v>
    <v>       0.00000000       0.50000000       0.10541371 </v>
    <v>       0.50000000       0.00000000       0.10541371 </v>
    <v>       0.50000000       0.50000000       0.10541371 </v>
    <v>       0.24980530       0.25012319       0.15724057 </v>
    <v>       0.24999295       0.74989032       0.15722139 </v>
    <v>       0.75019470       0.25012319       0.15724057 </v>
    <v>       0.75000705       0.74989032       0.15722139 </v>
    <v>       0.00000000       0.00029931       0.20842201 </v>
    <v>       0.00000000       0.49982143       0.20864539 </v>
    <v>       0.50000000      -0.00005821       0.20898972 </v>
    <v>       0.50000000       0.50001448       0.20867319 </v>
    <v>       0.25019751       0.25065727       0.25951269 </v>
    <v>       0.24965528       0.74931228       0.25957110 </v>
    <v>       0.74980249       0.25065727       0.25951269 </v>
    <v>       0.75034472       0.74931228       0.25957110 </v>
    <v>       0.00000000       0.00101368       0.31403252 </v>
    <v>       0.00000000       0.49888205       0.31244870 </v>
    <v>       0.50000000      -0.00013748       0.31436029 </v>
    <v>       0.50000000       0.49985985       0.31446434 </v>
    <v>       0.25174042       0.24760022       0.36143603 </v>
    <v>       0.25273053       0.75195107       0.36139866 </v>
    <v>       0.74825958       0.24760022       0.36143603 </v>
    <v>       0.74726947       0.75195107       0.36139866 </v>
    <v>       1.00000000       0.49762630       0.42817255 </v>
    <v>       1.00000000       0.64895697       0.42835688 </v>
   </varray>
  </structure>
  <varray name="forces" >
   <v>       0.00000000      -0.00367940       0.45591553 </v>
   <v>       0.00000000       0.00241873       0.45535790 </v>
   <v>       0.00000000      -0.01092725       0.45051706 </v>
   <v>       0.00000000       0.01134354       0.42834416 </v>
   <v>      -0.00013874       0.01035068      -0.44215676 </v>
   <v>       0.00364887      -0.00952720      -0.44565037 </v>
   <v>       0.00013874       0.01035068      -0.44215676 </v>
   <v>      -0.00364887      -0.00952720      -0.44565037 </v>
   <v>       0.00000000      -0.00351920      -0.06446932 </v>
   <v>       0.00000000      -0.00127487      -0.03266867 </v>
   <v>       0.00000000       0.00203162       0.01569780 </v>
   <v>       0.00000000       0.00024567      -0.00405577 </v>
   <v>       0.01386699      -0.00543133      -0.00511463 </v>
   <v>       0.00907703       0.00569203       0.00117941 </v>
   <v>      -0.01386699      -0.00543133      -0.00511463 </v>
   <v>      -0.00907703       0.00569203       0.00117941 </v>
   <v>       0.00000000      -0.00355901       0.00345778 </v>
   <v>       0.00000000       0.00570355      -0.08319401 </v>
   <v>       0.00000000      -0.00470320       0.00264315 </v>
   <v>       0.00000000       0.00378619       0.00717525 </v>
   <v>       0.02597050      -0.01881982      -0.03128147 </v>
   <v>       0.01001709       0.01741943      -0.03305220 </v>
   <v>      -0.02597050      -0.01881982      -0.03128147 </v>
   <v>      -0.01001709       0.01741943      -0.03305220 </v>
   <v>       0.00000000      -0.02816442       0.00129407 </v>
   <v>       0.00000000       0.01711981       0.00410387 </v>
   <v>       0.00000000       0.00516333      -0.05922054 </v>
   <v>       0.00000000      -0.01370545      -0.01478511 </v>
   <v>      -0.00792728       0.01976093      -0.01582151 </v>
   <v>      -0.00906602      -0.03051151      -0.02082604 </v>
   <v>       0.00792728       0.01976093      -0.01582151 </v>
   <v>       0.00906602      -0.03051151      -0.02082604 </v>
   <v>       0.00000000       0.20878255       0.19032705 </v>
   <v>       0.00000000      -0.16492861       0.22900693 </v>
  </varray>
  <varray name="stress" >
   <v>     -29.97914129       0.00000000       0.00000000 </v>
   <v>       0.00000000     -27.32504659       0.16401244 </v>
   <v>       0.00000000       0.16401234      -4.39107405 </v>
  </varray>
  <energy>
   <i name="e_fr_energy">   -130.51243445 </i>
   <i name="e_wo_entrp">   -130.55108932 </i>
   <i name="e_0_energy">   -130.52531941 </i>
  </energy>
  <time name="totalsc">   57.68   58.16</time>
 </calculation>
 <calculation>
  <scstep>
   <time name="dav">    7.74    7.80</time>
   <time name="total">    8.18    8.25</time>
   <energy>
    <i name="alphaZ">    844.48149002 </i>
    <i name="ewald"> 173704.53994598 </i>
    <i name="hartreedc">-216461.35716001 </i>
    <i name="XCdc">   1431.94535891 </i>
    <i name="pawpsdc">  41960.93933821 </i>
    <i name="pawaedc"> -45409.13052693 </i>
    <i name="eentropy">      0.03932831 </i>
    <i name="bandstr">   -725.08681215 </i>
    <i name="atom">  44535.60175172 </i>
    <i name="e_fr_energy">   -118.02728593 </i>
    <i name="e_wo_entrp">   -118.06661424 </i>
    <i name="e_0_energy">   -118.04039537 </i>
   </energy>
  </scstep>
  <scstep>
   <time name="dav">    9.70    9.78</time>
   <time name="total">   10.14   10.22</time>
   <energy>
    <i name="e_fr_energy">   -118.05443135 </i>
    <i name="e_wo_entrp">   -118.09363700 </i>
    <i name="e_0_energy">   -118.06749990 </i>
   </energy>
  </scstep>
  <scstep>
   <time name="dav">    7.95    8.01</time>
   <time name="total">    8.39    8.46</time>
   <energy>
    <i name="e_fr_energy">   -118.05349597 </i>
    <i name="e_wo_entrp">   -118.09300188 </i>
    <i name="e_0_energy">   -118.06666461 </i>
   </energy>
  </scstep>
  <scstep>
   <time name="dav">    8.32    8.39</time>
   <time name="total">    8.76    8.83</time>
   <energy>
    <i name="e_fr_energy">   -118.05345151 </i>
    <i name="e_wo_entrp">   -118.09304841 </i>
    <i name="e_0_energy">   -118.06665048 </i>
   </energy>
  </scstep>
  <scstep>
   <time name="dav">    7.84    7.91</time>
   <time name="total">    8.28    8.36</time>
   <energy>
    <i name="e_fr_energy">   -118.05310267 </i>
    <i name="e_wo_entrp">   -118.09221556 </i>
    <i name="e_0_energy">   -118.06614030 </i>
   </energy>
  </scstep>
  <scstep>
   <time name="dav">    9.35    9.42</time>
   <time name="total">    9.78    9.86</time>
   <energy>
    <i name="e_fr_energy">   -118.05281536 </i>
    <i name="e_wo_entrp">   -118.09252222 </i>
    <i name="e_0_energy">   -118.06605098 </i>
   </energy>
  </scstep>
  <scstep>
   <time name="dav">    6.90    6.96</time>
   <time name="total">    6.98    7.04</time>
   <energy>
    <i name="alphaZ">    844.48149002 </i>
    <i name="ewald"> 173704.53994598 </i>
    <i name="hartreedc">-216460.36373878 </i>
    <i name="XCdc">   1431.93858220 </i>
    <i name="pawpsdc">  41971.46520333 </i>
    <i name="pawaedc"> -45419.88500503 </i>
    <i name="eentropy">      0.03928336 </i>
    <i name="bandstr">   -725.87033109 </i>
    <i name="atom">  44535.60175172 </i>
    <i name="e_fr_energy">   -118.05281827 </i>
    <i name="e_wo_entrp">   -118.09210164 </i>
    <i name="e_0_energy">   -118.06591273 </i>
   </energy>
  </scstep>
  <structure>
   <crystal>
    <varray name="basis" >
     <v>       7.26000023       0.00000000       0.00000000 </v>
     <v>       0.00000000       5.13359547       0.00000000 </v>
     <v>       0.00000000       0.00000000      23.98379135 </v>
    </varray>
    <i name="volume">    893.87360752 </i>
    <varray name="rec_basis" >
     <v>       0.13774104       0.00000000       0.00000000 </v>
     <v>       0.00000000       0.19479525       0.00000000 </v>
     <v>       0.00000000       0.00000000       0.04169483 </v>
    </varray>
   </crystal>
   <varray name="positions" >
    <v>       0.00000000       0.00000000       0.00000000 </v>
    <v>       0.00000000       0.50000000       0.00000000 </v>
    <v>       0.50000000       0.00000000       0.00000000 </v>
    <v>       0.50000000       0.50000000       0.00000000 </v>
    <v>       0.25000000       0.25000000       0.05351109 </v>
    <v>       0.25000000       0.75000000       0.05351109 </v>
    <v>       0.75000000       0.25000000       0.05351109 </v>
    <v>       0.75000000       0.75000000       0.05351109 </v>
    <v>       0.00000000       0.00000000       0.10541371 </v>
    <v>       0.00000000       0.50000000       0.10541371 </v>
    <v>       0.50000000       0.00000000       0.10541371 </v>
    <v>       0.50000000       0.50000000       0.10541371 </v>
    <v>       0.24966091       0.25021521       0.15731092 </v>
    <v>       0.24999057       0.74980981       0.15727795 </v>
    <v>       0.75033909       0.25021521       0.15731092 </v>
    <v>       0.75000943       0.74980981       0.15727795 </v>
    <v>       0.00000000       0.00052588       0.20823920 </v>
    <v>       0.00000000       0.49968775       0.20862308 </v>
    <v>       0.50000000      -0.00010532       0.20924042 </v>
    <v>       0.50000000       0.50002865       0.20868293 </v>
    <v>       0.25036054       0.25114656       0.25953187 </v>
    <v>       0.24940032       0.74879942       0.25963446 </v>
    <v>       0.74963946       0.25114656       0.25953187 </v>
    <v>       0.75059968       0.74879942       0.25963446 </v>
    <v>       0.00000000       0.00176632       0.31393603 </v>
    <v>       0.00000000       0.49805315       0.31115963 </v>
    <v>       0.50000000      -0.00023866       0.31450868 </v>
    <v>       0.50000000       0.49974652       0.31469601 </v>
    <v>       0.25305261       0.24580025       0.36115039 </v>
    <v>       0.25477133       0.75340072       0.36108792 </v>
    <v>       0.74694739       0.24580025       0.36115039 </v>
    <v>       0.74522867       0.75340072       0.36108792 </v>
    <v>       1.00000000       0.49858418       0.42912643 </v>
    <v>       1.00000000       0.64897425       0.42945171 </v>
   </varray>
  </structure>
  <varray name="forces" >
   <v>       0.00000000      -0.00330295       0.45327540 </v>
   <v>       0.00000000       0.00202634       0.45391340 </v>
   <v>       0.00000000      -0.01062764       0.44865163 </v>
   <v>       0.00000000       0.01091921       0.42552353 </v>
   <v>      -0.00081293       0.00986230      -0.43686490 </v>
   <v>       0.00276926      -0.00923571      -0.44114049 </v>
   <v>       0.00081293       0.00986230      -0.43686490 </v>
   <v>      -0.00276926      -0.00923571      -0.44114049 </v>
   <v>       0.00000000      -0.00456987      -0.06810739 </v>
   <v>       0.00000000       0.00040099      -0.03288578 </v>
   <v>       0.00000000       0.00371055       0.03818926 </v>
   <v>       0.00000000      -0.00167496       0.00509669 </v>
   <v>       0.03279678      -0.01333477      -0.01824111 </v>
   <v>       0.01658202       0.01351155      -0.00415854 </v>
   <v>      -0.03279678      -0.01333477      -0.01824111 </v>
   <v>      -0.01658202       0.01351155      -0.00415854 </v>
   <v>       0.00000000      -0.01465529       0.03829945 </v>
   <v>       0.00000000       0.01554118      -0.15965419 </v>
   <v>       0.00000000      -0.00709471      -0.03594680 </v>
   <v>       0.00000000       0.00654124       0.01284832 </v>
   <v>       0.04158045      -0.05379739      -0.06662926 </v>
   <v>       0.03425021       0.05228281      -0.07682706 </v>
   <v>      -0.04158045      -0.05379739      -0.06662926 </v>
   <v>      -0.03425021       0.05228281      -0.07682706 </v>
   <v>       0.00000000      -0.07868573       0.01075973 </v>
   <v>       0.00000000       0.06270269       0.24706587 </v>
   <v>       0.00000000       0.01558282      -0.14735294 </v>
   <v>       0.00000000      -0.02223100      -0.07377226 </v>
   <v>      -0.08493478       0.10785415       0.02604856 </v>
   <v>      -0.12189931      -0.11239785       0.02531236 </v>
   <v>       0.08493478       0.10785415       0.02604856 </v>
   <v>       0.12189931      -0.11239785       0.02531236 </v>
   <v>       0.00000000       0.13098698       0.16230916 </v>
   <v>       0.00000000      -0.09506004       0.20678782 </v>
  </varray>
  <varray name="stress" >
   <v>     -30.60782860       0.00000000       0.00000000 </v>
   <v>       0.00000000     -27.96616976       0.16141138 </v>
[...]
       <r>    10.5093    -0.0005   232.0000 </r>
       <r>    10.5830    -0.0001   232.0000 </r>
       <r>    10.6567    -0.0000   232.0000 </r>
       <r>    10.7304    -0.0000   232.0000 </r>
       <r>    10.8041    -0.0000   232.0000 </r>
       <r>    10.8778    -0.0000   232.0000 </r>
       <r>    10.9515    -0.0000   232.0000 </r>
       <r>    11.0253    -0.0000   232.0000 </r>
       <r>    11.0990    -0.0000   232.0000 </r>
       <r>    11.1727     0.0000   232.0000 </r>
       <r>    11.2464     0.0000   232.0000 </r>
       <r>    11.3201     0.0000   232.0000 </r>
       <r>    11.3938     0.0000   232.0000 </r>
       <r>    11.4675     0.0000   232.0000 </r>
       <r>    11.5412     0.0000   232.0000 </r>
       <r>    11.6149     0.0000   232.0000 </r>
       <r>    11.6886     0.0000   232.0000 </r>
       <r>    11.7623     0.0000   232.0000 </r>
       <r>    11.8361     0.0000   232.0000 </r>
      </set>
      <set comment="spin 2">
       <r>   -10.2766     0.0000     0.0000 </r>
       <r>   -10.2029     0.0000     0.0000 </r>
       <r>   -10.1292     0.0000     0.0000 </r>
       <r>   -10.0555     0.0000     0.0000 </r>
       <r>    -9.9817     0.0000     0.0000 </r>
       <r>    -9.9080    -0.0000    -0.0000 </r>
       <r>    -9.8343    -0.0000    -0.0000 </r>
       <r>    -9.7606    -0.0000    -0.0000 </r>
       <r>    -9.6869    -0.0000    -0.0000 </r>
       <r>    -9.6132    -0.0000    -0.0000 </r>
       <r>    -9.5395    -0.0000    -0.0000 </r>
       <r>    -9.4658    -0.0000    -0.0000 </r>
       <r>    -9.3921    -0.0000    -0.0000 </r>
       <r>    -9.3184    -0.0000    -0.0000 </r>
       <r>    -9.2447    -0.0000    -0.0000 </r>
       <r>    -9.1709    -0.0000    -0.0000 </r>
       <r>    -9.0972    -0.0000    -0.0000 </r>
       <r>    -9.0235    -0.0000    -0.0000 </r>
       <r>    -8.9498    -0.0000    -0.0000 </r>
       <r>    -8.8761    -0.0001    -0.0000 </r>
       <r>    -8.8024    -0.0008    -0.0001 </r>
       <r>    -8.7287    -0.0038    -0.0004 </r>
       <r>    -8.6550    -0.0121    -0.0012 </r>
       <r>    -8.5813    -0.0234    -0.0030 </r>
       <r>    -8.5076    -0.0128    -0.0039 </r>
       <r>    -8.4339     0.0687     0.0012 </r>
       <r>    -8.3602     0.2335     0.0184 </r>
       <r>    -8.2864     0.3850     0.0467 </r>
       <r>    -8.2127     0.4015     0.0763 </r>
       <r>    -8.1390     0.3417     0.1015 </r>
       <r>    -8.0653     0.4205     0.1325 </r>
       <r>    -7.9916     0.6778     0.1825 </r>
       <r>    -7.9179     0.8480     0.2450 </r>
       <r>    -7.8442     0.7398     0.2995 </r>
       <r>    -7.7705     0.5572     0.3406 </r>
       <r>    -7.6968     0.5843     0.3837 </r>
       <r>    -7.6231     0.7287     0.4374 </r>
       <r>    -7.5494     0.7374     0.4917 </r>
       <r>    -7.4756     0.7559     0.5474 </r>
       <r>    -7.4019     1.1781     0.6343 </r>
       <r>    -7.3282     1.8723     0.7723 </r>
       <r>    -7.2545     2.1419     0.9302 </r>
       <r>    -7.1808     1.7401     1.0584 </r>
       <r>    -7.1071     1.3114     1.1551 </r>
       <r>    -7.0334     1.4051     1.2587 </r>
       <r>    -6.9597     1.6562     1.3807 </r>
       <r>    -6.8860     1.4564     1.4881 </r>
       <r>    -6.8123     0.9122     1.5553 </r>
       <r>    -6.7386     0.5673     1.5971 </r>
       <r>    -6.6649     0.5910     1.6407 </r>
       <r>    -6.5911     0.8560     1.7038 </r>
       <r>    -6.5174     1.4957     1.8140 </r>
       <r>    -6.4437     2.5910     2.0050 </r>
       <r>    -6.3700     3.4674     2.2606 </r>
       <r>    -6.2963     3.2637     2.5012 </r>
       <r>    -6.2226     2.1663     2.6608 </r>
       <r>    -6.1489     1.1691     2.7470 </r>
       <r>    -6.0752     0.7825     2.8047 </r>
       <r>    -6.0015     0.7886     2.8628 </r>
       <r>    -5.9278     0.9206     2.9307 </r>
       <r>    -5.8541     1.1229     3.0134 </r>
       <r>    -5.7803     1.5379     3.1268 </r>
       <r>    -5.7066     2.5287     3.3132 </r>
       <r>    -5.6329     4.1511     3.6192 </r>
       <r>    -5.5592     5.6783     4.0377 </r>
       <r>    -5.4855     6.2880     4.5012 </r>
       <r>    -5.4118     5.8549     4.9327 </r>
       <r>    -5.3381     4.7317     5.2815 </r>
       <r>    -5.2644     3.5413     5.5425 </r>
       <r>    -5.1907     3.2625     5.7830 </r>
       <r>    -5.1170     4.4689     6.1124 </r>
       <r>    -5.0433     6.3470     6.5802 </r>
       <r>    -4.9695     7.3021     7.1185 </r>
       <r>    -4.8958     6.5917     7.6043 </r>
       <r>    -4.8221     4.7245     7.9526 </r>
       <r>    -4.7484     2.5548     8.1409 </r>
       <r>    -4.6747     0.8014     8.1999 </r>
       <r>    -4.6010     0.1579     8.2116 </r>
       <r>    -4.5273     1.1276     8.2947 </r>
       <r>    -4.4536     3.6140     8.5611 </r>
       <r>    -4.3799     6.7187     9.0563 </r>
       <r>    -4.3062     9.0508     9.7234 </r>
       <r>    -4.2325     9.7220    10.4400 </r>
       <r>    -4.1588     9.3603    11.1300 </r>
       <r>    -4.0850     9.7184    11.8463 </r>
       <r>    -4.0113    11.7841    12.7149 </r>
       <r>    -3.9376    14.5549    13.7877 </r>
       <r>    -3.8639    16.3551    14.9932 </r>
       <r>    -3.7902    17.1414    16.2567 </r>
       <r>    -3.7165    18.2007    17.5982 </r>
       <r>    -3.6428    19.7249    19.0521 </r>
       <r>    -3.5691    20.8141    20.5863 </r>
       <r>    -3.4954    21.9602    22.2050 </r>
       <r>    -3.4217    25.0332    24.0501 </r>
       <r>    -3.3480    30.0448    26.2647 </r>
       <r>    -3.2742    33.9883    28.7699 </r>
       <r>    -3.2005    34.3378    31.3009 </r>
       <r>    -3.1268    32.1594    33.6714 </r>
       <r>    -3.0531    30.0421    35.8857 </r>
       <r>    -2.9794    28.6676    37.9988 </r>
       <r>    -2.9057    27.6700    40.0383 </r>
       <r>    -2.8320    28.2208    42.1184 </r>
       <r>    -2.7583    31.9717    44.4750 </r>
       <r>    -2.6846    38.0630    47.2806 </r>
       <r>    -2.6109    43.3573    50.4764 </r>
       <r>    -2.5372    45.6967    53.8447 </r>
       <r>    -2.4635    45.8469    57.2240 </r>
       <r>    -2.3897    46.3920    60.6435 </r>
       <r>    -2.3160    49.3672    64.2823 </r>
       <r>    -2.2423    54.7523    68.3180 </r>
       <r>    -2.1686    60.5814    72.7834 </r>
       <r>    -2.0949    64.0831    77.5069 </r>
       <r>    -2.0212    63.3665    82.1776 </r>
       <r>    -1.9475    58.9472    86.5225 </r>
       <r>    -1.8738    53.3101    90.4519 </r>
       <r>    -1.8001    48.7719    94.0468 </r>
       <r>    -1.7264    46.3001    97.4596 </r>
       <r>    -1.6527    46.1603   100.8620 </r>
       <r>    -1.5789    48.6495   104.4479 </r>
       <r>    -1.5052    53.1609   108.3663 </r>
       <r>    -1.4315    57.2960   112.5895 </r>
       <r>    -1.3578    59.1844   116.9519 </r>
       <r>    -1.2841    60.0381   121.3773 </r>
       <r>    -1.2104    61.8150   125.9336 </r>
       <r>    -1.1367    63.9223   130.6452 </r>
       <r>    -1.0630    65.5283   135.4752 </r>
       <r>    -0.9893    68.9406   140.5567 </r>
       <r>    -0.9156    76.2367   146.1760 </r>
       <r>    -0.8419    83.6186   152.3395 </r>
       <r>    -0.7681    82.9882   158.4564 </r>
       <r>    -0.6944    69.7735   163.5994 </r>
       <r>    -0.6207    47.9318   167.1323 </r>
       <r>    -0.5470    26.7037   169.1006 </r>
       <r>    -0.4733    12.9825   170.0576 </r>
       <r>    -0.3996     7.4155   170.6042 </r>
       <r>    -0.3259     6.5448   171.0866 </r>
       <r>    -0.2522     6.6056   171.5735 </r>
       <r>    -0.1785     5.5629   171.9835 </r>
       <r>    -0.1048     3.3849   172.2330 </r>
       <r>    -0.0311     1.2562   172.3256 </r>
       <r>     0.0426     0.3822   172.3538 </r>
       <r>     0.1164     1.1681   172.4399 </r>
       <r>     0.1901     3.0855   172.6673 </r>
       <r>     0.2638     5.1228   173.0449 </r>
       <r>     0.3375     6.5772   173.5297 </r>
       <r>     0.4112     7.5844   174.0887 </r>
       <r>     0.4849     8.6646   174.7274 </r>
       <r>     0.5586     9.6172   175.4362 </r>
       <r>     0.6323     9.4480   176.1326 </r>
       <r>     0.7060     7.8218   176.7092 </r>
       <r>     0.7797     5.7839   177.1355 </r>
       <r>     0.8534     4.5418   177.4703 </r>
       <r>     0.9272     4.3523   177.7911 </r>
       <r>     1.0009     4.8426   178.1480 </r>
       <r>     1.0746     5.5207   178.5549 </r>
       <r>     1.1483     5.7261   178.9770 </r>
       <r>     1.2220     4.8829   179.3369 </r>
       <r>     1.2957     3.2455   179.5761 </r>
       <r>     1.3694     2.0106   179.7243 </r>
       <r>     1.4431     2.3024   179.8940 </r>
       <r>     1.5168     3.9247   180.1833 </r>
       <r>     1.5905     5.3325   180.5764 </r>
       <r>     1.6642     5.3620   180.9716 </r>
       <r>     1.7380     4.6872   181.3171 </r>
       <r>     1.8117     4.7049   181.6639 </r>
       <r>     1.8854     5.4941   182.0689 </r>
       <r>     1.9591     6.0608   182.5156 </r>
       <r>     2.0328     6.0595   182.9622 </r>
       <r>     2.1065     5.9781   183.4029 </r>
       <r>     2.1802     6.0018   183.8453 </r>
       <r>     2.2539     5.8078   184.2734 </r>
       <r>     2.3276     5.3417   184.6671 </r>
       <r>     2.4013     5.0592   185.0400 </r>
       <r>     2.4750     5.2392   185.4262 </r>
       <r>     2.5487     5.4268   185.8262 </r>
       <r>     2.6225     4.9728   186.1927 </r>
       <r>     2.6962     3.9522   186.4840 </r>
       <r>     2.7699     3.1187   186.7139 </r>
       <r>     2.8436     3.2127   186.9507 </r>
       <r>     2.9173     4.4806   187.2810 </r>
       <r>     2.9910     6.2115   187.7388 </r>
       <r>     3.0647     6.8178   188.2413 </r>
       <r>     3.1384     5.4172   188.6406 </r>
       <r>     3.2121     3.1567   188.8733 </r>
       <r>     3.2858     2.0018   189.0209 </r>
       <r>     3.3595     2.5901   189.2118 </r>
       <r>     3.4333     3.9835   189.5054 </r>
       <r>     3.5070     4.9754   189.8721 </r>
       <r>     3.5807     5.0657   190.2455 </r>
       <r>     3.6544     4.6130   190.5855 </r>
       <r>     3.7281     4.3576   190.9067 </r>
       <r>     3.8018     4.6044   191.2461 </r>
       <r>     3.8755     5.0250   191.6165 </r>
       <r>     3.9492     5.2318   192.0021 </r>
       <r>     4.0229     5.1012   192.3781 </r>
       <r>     4.0966     4.6523   192.7210 </r>
       <r>     4.1703     3.9911   193.0152 </r>
       <r>     4.2440     3.4079   193.2664 </r>
       <r>     4.3178     3.3068   193.5102 </r>
       <r>     4.3915     3.6854   193.7818 </r>
       <r>     4.4652     3.9109   194.0701 </r>
       <r>     4.5389     3.6572   194.3396 </r>
       <r>     4.6126     3.7158   194.6135 </r>
       <r>     4.6863     4.9644   194.9795 </r>
       <r>     4.7600     6.7508   195.4770 </r>
       <r>     4.8337     7.3198   196.0166 </r>
       <r>     4.9074     6.0082   196.4594 </r>
       <r>     4.9811     4.0390   196.7571 </r>
       <r>     5.0548     2.8417   196.9666 </r>
       <r>     5.1286     2.7106   197.1664 </r>
       <r>     5.2023     3.4222   197.4187 </r>
       <r>     5.2760     4.8342   197.7750 </r>
       <r>     5.3497     6.3565   198.2435 </r>
       <r>     5.4234     7.1543   198.7708 </r>
       <r>     5.4971     7.3437   199.3121 </r>
       <r>     5.5708     7.5965   199.8721 </r>
       <r>     5.6445     7.6701   200.4374 </r>
       <r>     5.7182     7.0236   200.9551 </r>
       <r>     5.7919     6.3793   201.4253 </r>
       <r>     5.8656     6.9858   201.9402 </r>
       <r>     5.9394     8.6652   202.5790 </r>
       <r>     6.0131     9.7773   203.2996 </r>
       <r>     6.0868     9.1392   203.9733 </r>
       <r>     6.1605     7.3219   204.5130 </r>
       <r>     6.2342     5.8756   204.9460 </r>
       <r>     6.3079     5.6680   205.3638 </r>
       <r>     6.3816     6.3231   205.8299 </r>
       <r>     6.4553     7.0806   206.3518 </r>
       <r>     6.5290     7.5496   206.9083 </r>
       <r>     6.6027     7.6056   207.4689 </r>
       <r>     6.6764     7.3686   208.0120 </r>
       <r>     6.7501     7.3160   208.5512 </r>
       <r>     6.8239     7.7000   209.1188 </r>
       <r>     6.8976     7.9933   209.7080 </r>
       <r>     6.9713     7.5053   210.2612 </r>
       <r>     7.0450     6.3828   210.7317 </r>
       <r>     7.1187     5.5600   211.1415 </r>
       <r>     7.1924     5.8109   211.5698 </r>
       <r>     7.2661     7.0797   212.0916 </r>
       <r>     7.3398     8.5315   212.7205 </r>
       <r>     7.4135     9.1323   213.3936 </r>
       <r>     7.4872     8.4682   214.0178 </r>
       <r>     7.5609     7.1324   214.5435 </r>
       <r>     7.6347     6.2489   215.0041 </r>
       <r>     7.7084     6.5338   215.4857 </r>
       <r>     7.7821     7.8383   216.0635 </r>
       <r>     7.8558     9.5634   216.7684 </r>
       <r>     7.9295    10.9655   217.5766 </r>
       <r>     8.0032    11.1441   218.3981 </r>
       <r>     8.0769     9.8509   219.1242 </r>
       <r>     8.1506     8.2018   219.7287 </r>
       <r>     8.2243     7.5568   220.2857 </r>
       <r>     8.2980     8.0290   220.8775 </r>
       <r>     8.3717     8.6370   221.5141 </r>
       <r>     8.4455     8.4022   222.1335 </r>
       <r>     8.5192     7.2090   222.6648 </r>
       <r>     8.5929     6.0364   223.1098 </r>
       <r>     8.6666     6.1353   223.5620 </r>
       <r>     8.7403     7.7127   224.1305 </r>
       <r>     8.8140     9.7102   224.8462 </r>
       <r>     8.8877    10.8974   225.6494 </r>
       <r>     8.9614    10.8644   226.4502 </r>
       <r>     9.0351     9.9655   227.1848 </r>
       <r>     9.1088     8.7152   227.8272 </r>
       <r>     9.1825     7.5383   228.3828 </r>
       <r>     9.2562     6.7572   228.8809 </r>
       <r>     9.3300     6.3375   229.3480 </r>
       <r>     9.4037     5.9400   229.7858 </r>
       <r>     9.4774     5.4801   230.1898 </r>
       <r>     9.5511     5.1680   230.5707 </r>
       <r>     9.6248     4.9903   230.9385 </r>
       <r>     9.6985     4.6787   231.2834 </r>
       <r>     9.7722     4.0537   231.5822 </r>
       <r>     9.8459     3.0995   231.8106 </r>
       <r>     9.9196     1.9294   231.9529 </r>
       <r>     9.9933     0.8314   232.0141 </r>
       <r>    10.0670     0.1246   232.0233 </r>
       <r>    10.1408    -0.1263   232.0140 </r>
       <r>    10.2145    -0.1168   232.0054 </r>
       <r>    10.2882    -0.0533   232.0015 </r>
       <r>    10.3619    -0.0160   232.0003 </r>
       <r>    10.4356    -0.0034   232.0000 </r>
       <r>    10.5093    -0.0005   232.0000 </r>
       <r>    10.5830    -0.0001   232.0000 </r>
       <r>    10.6567    -0.0000   232.0000 </r>
       <r>    10.7304    -0.0000   232.0000 </r>
       <r>    10.8041    -0.0000   232.0000 </r>
       <r>    10.8778    -0.0000   232.0000 </r>
       <r>    10.9515    -0.0000   232.0000 </r>
       <r>    11.0253    -0.0000   232.0000 </r>
       <r>    11.0990    -0.0000   232.0000 </r>
       <r>    11.1727     0.0000   232.0000 </r>
       <r>    11.2464     0.0000   232.0000 </r>
       <r>    11.3201     0.0000   232.0000 </r>
       <r>    11.3938     0.0000   232.0000 </r>
       <r>    11.4675     0.0000   232.0000 </r>
       <r>    11.5412     0.0000   232.0000 </r>
       <r>    11.6149     0.0000   232.0000 </r>
       <r>    11.6886     0.0000   232.0000 </r>
       <r>    11.7623     0.0000   232.0000 </r>
       <r>    11.8361     0.0000   232.0000 </r>
      </set>
     </set>
    </array>
   </total>
  </dos>
 </calculation>
 <structure name="finalpos" >
  <crystal>
   <varray name="basis" >
    <v>       7.26000023       0.00000000       0.00000000 </v>
    <v>       0.00000000       5.13359547       0.00000000 </v>
    <v>       0.00000000       0.00000000      23.98379135 </v>
   </varray>
   <i name="volume">    893.87360752 </i>
   <varray name="rec_basis" >
    <v>       0.13774104       0.00000000       0.00000000 </v>
    <v>       0.00000000       0.19479525       0.00000000 </v>
    <v>       0.00000000       0.00000000       0.04169483 </v>
   </varray>
  </crystal>
  <varray name="positions" >
   <v>       0.00000000       0.00000000       0.00000000 </v>
   <v>       0.00000000       0.50000000       0.00000000 </v>
   <v>       0.50000000       0.00000000       0.00000000 </v>
   <v>       0.50000000       0.50000000       0.00000000 </v>
   <v>       0.25000000       0.25000000       0.05351109 </v>
   <v>       0.25000000       0.75000000       0.05351109 </v>
   <v>       0.75000000       0.25000000       0.05351109 </v>
   <v>       0.75000000       0.75000000       0.05351109 </v>
   <v>       0.00000000       0.00000000       0.10541371 </v>
   <v>       0.00000000       0.50000000       0.10541371 </v>
   <v>       0.50000000       0.00000000       0.10541371 </v>
   <v>       0.50000000       0.50000000       0.10541371 </v>
   <v>       0.25005894       0.24971972       0.15727035 </v>
   <v>       0.24996620       0.74987816       0.15729527 </v>
   <v>       0.74994106       0.24971972       0.15727035 </v>
   <v>       0.75003380       0.74987816       0.15729527 </v>
   <v>       0.00000000      -0.00045807       0.20875046 </v>
   <v>       0.00000000       0.49965088       0.20877360 </v>
   <v>       0.50000000      -0.00046993       0.20890667 </v>
   <v>       0.50000000       0.49958909       0.20887282 </v>
   <v>       0.25009041       0.24929348       0.25964490 </v>
   <v>       0.24978657       0.74944708       0.25969403 </v>
   <v>       0.74990959       0.24929348       0.25964490 </v>
   <v>       0.75021343       0.74944708       0.25969403 </v>
   <v>       0.00000000      -0.00107031       0.31444723 </v>
   <v>       0.00000000       0.49914041       0.31436895 </v>
   <v>       0.50000000      -0.00090702       0.31456192 </v>
   <v>       0.50000000       0.49893397       0.31460239 </v>
   <v>       0.25011612       0.24863913       0.36201100 </v>
   <v>       0.25012121       0.74893049       0.36206996 </v>
   <v>       0.74988388       0.24863913       0.36201100 </v>
   <v>       0.74987879       0.74893049       0.36206996 </v>
   <v>       1.00000000       0.56887946       0.45770197 </v>
   <v>       1.00000000       0.63421911       0.48598476 </v>
  </varray>
  <varray name="selective"  type="logical" >
   <v type="logical" >  F  F  F </v>
   <v type="logical" >  F  F  F </v>
   <v type="logical" >  F  F  F </v>
   <v type="logical" >  F  F  F </v>
   <v type="logical" >  F  F  F </v>
   <v type="logical" >  F  F  F </v>
   <v type="logical" >  F  F  F </v>
   <v type="logical" >  F  F  F </v>
   <v type="logical" >  F  F  F </v>
   <v type="logical" >  F  F  F </v>
   <v type="logical" >  F  F  F </v>
   <v type="logical" >  F  F  F </v>
   <v type="logical" >  T  T  T </v>
   <v type="logical" >  T  T  T </v>
   <v type="logical" >  T  T  T </v>
   <v type="logical" >  T  T  T </v>
   <v type="logical" >  T  T  T </v>
   <v type="logical" >  T  T  T </v>
   <v type="logical" >  T  T  T </v>
   <v type="logical" >  T  T  T </v>
   <v type="logical" >  T  T  T </v>
   <v type="logical" >  T  T  T </v>
   <v type="logical" >  T  T  T </v>
   <v type="logical" >  T  T  T </v>
   <v type="logical" >  T  T  T </v>
   <v type="logical" >  T  T  T </v>
   <v type="logical" >  T  T  T </v>
   <v type="logical" >  T  T  T </v>
   <v type="logical" >  T  T  T </v>
   <v type="logical" >  T  T  T </v>
   <v type="logical" >  T  T  T </v>
   <v type="logical" >  T  T  T </v>
   <v type="logical" >  T  T  T </v>
   <v type="logical" >  T  T  T </v>
  </varray>
  <nose>
   <v>      -3.00000000       0.00000000       0.00010000       0.00010000 </v>
  </nose>
 </structure>
</modeling>
