unknown system                          
           1
     7.260000    0.000000    0.000000
     0.000000    5.133595    0.000000
     0.000000    0.000000   23.983791
   Cu   H 
    32     2
Direct configuration=     1
   0.00000000  0.00000000  0.00000000
   0.00000000  0.50000000  0.00000000
   0.50000000  0.00000000  0.00000000
   0.50000000  0.50000000  0.00000000
   0.25000000  0.25000000  0.05351109
   0.25000000  0.75000000  0.05351109
   0.75000000  0.25000000  0.05351109
   0.75000000  0.75000000  0.05351109
   0.00000000  0.00000000  0.10541371
   0.00000000  0.50000000  0.10541371
   0.50000000  0.00000000  0.10541371
   0.50000000  0.50000000  0.10541371
   0.25000000  0.25000000  0.15715010
   0.25000000  0.75000000  0.15715010
   0.75000000  0.25000000  0.15715010
   0.75000000  0.75000000  0.15715010
   0.00000000  0.00000000  0.20866257
   0.00000000  0.50000000  0.20866257
   0.50000000  0.00000000  0.20866257
   0.50000000  0.50000000  0.20866257
   0.25000000  0.25000000  0.25947965
   0.25000000  0.75000000  0.25947965
   0.75000000  0.25000000  0.25947965
   0.75000000  0.75000000  0.25947965
   0.00000000  0.00000000  0.31415415
   0.00000000  0.50000000  0.31415415
   0.50000000  0.00000000  0.31415415
   0.50000000  0.50000000  0.31415415
   0.25000000  0.25000000  0.36181799
   0.25000000  0.75000000  0.36181799
   0.75000000  0.25000000  0.36181799
   0.75000000  0.75000000  0.36181799
   1.00000000  0.50000000  0.42690792
   1.00000000  0.64531725  0.42690792
Direct configuration=     2
   0.00000000  0.00000000  0.00000000
   0.00000000  0.50000000  0.00000000
   0.50000000  0.00000000  0.00000000
   0.50000000  0.50000000  0.00000000
   0.25000000  0.25000000  0.05351109
   0.25000000  0.75000000  0.05351109
   0.75000000  0.25000000  0.05351109
   0.75000000  0.75000000  0.05351109
   0.00000000  0.00000000  0.10541371
   0.00000000  0.50000000  0.10541371
   0.50000000  0.00000000  0.10541371
   0.50000000  0.50000000  0.10541371
   0.24991938  0.25004968  0.15718100
   0.24999131  0.74995288  0.15717218
   0.75008062  0.25004968  0.15718100
   0.75000869  0.74995288  0.15717218
   0.00000000  0.00011467  0.20857184
   0.00000000  0.49992859  0.20867475
   0.50000000 -0.00001615  0.20878172
   0.50000000  0.49999905  0.20866323
   0.25004836  0.25026843  0.25950407
   0.24985586  0.74972093  0.25952652
   0.74995164  0.25026843  0.25950407
   0.75014414  0.74972093  0.25952652
   0.00000000  0.00041796  0.31411647
   0.00000000  0.49953669  0.31349696
   0.50000000 -0.00005849  0.31424856
   0.50000000  0.49996091  0.31427928
   0.25067734  0.24904721  0.36166462
   0.25109877  0.75080243  0.36164389
   0.74932266  0.24904721  0.36166462
   0.74890123  0.75080243  0.36164389
   1.00000000  0.49353253  0.42739926
   1.00000000  0.65223576  0.42746700
Direct configuration=     3
   0.00000000  0.00000000  0.00000000
   0.00000000  0.50000000  0.00000000
   0.50000000  0.00000000  0.00000000
   0.50000000  0.50000000  0.00000000
   0.25000000  0.25000000  0.05351109
   0.25000000  0.75000000  0.05351109
   0.75000000  0.25000000  0.05351109
   0.75000000  0.75000000  0.05351109
   0.00000000  0.00000000  0.10541371
   0.00000000  0.50000000  0.10541371
   0.50000000  0.00000000  0.10541371
   0.50000000  0.50000000  0.10541371
   0.24995780  0.25002600  0.15716627
   0.24999545  0.74997534  0.15716165
   0.75004220  0.25002600  0.15716627
   0.75000455  0.74997534  0.15716165
   0.00000000  0.00006002  0.20861508
   0.00000000  0.49996262  0.20866894
   0.50000000 -0.00000845  0.20872494
   0.50000000  0.49999950  0.20866292
   0.25002531  0.25014051  0.25949244
   0.24992455  0.74985392  0.25950419
   0.74997469  0.25014051  0.25949244
   0.75007545  0.74985392  0.25950419
   0.00000000  0.00021878  0.31413443
   0.00000000  0.49975748  0.31381014
   0.50000000 -0.00003062  0.31420357
   0.50000000  0.49997954  0.31421965
   0.25035455  0.24950127  0.36173771
   0.25057515  0.75042003  0.36172686
   0.74964545  0.24950127  0.36173771
   0.74942485  0.75042003  0.36172686
   1.00000000  0.49661462  0.42716511
   1.00000000  0.64893873  0.42720057
Direct configuration=     4
   0.00000000  0.00000000  0.00000000
   0.00000000  0.50000000  0.00000000
   0.50000000  0.00000000  0.00000000
   0.50000000  0.50000000  0.00000000
   0.25000000  0.25000000  0.05351109
   0.25000000  0.75000000  0.05351109
   0.75000000  0.25000000  0.05351109
   0.75000000  0.75000000  0.05351109
   0.00000000  0.00000000  0.10541371
   0.00000000  0.50000000  0.10541371
   0.50000000  0.00000000  0.10541371
   0.50000000  0.50000000  0.10541371
   0.24987750  0.25007718  0.15720540
   0.24999413  0.74993057  0.15719311
   0.75012250  0.25007718  0.15720540
   0.75000587  0.74993057  0.15719311
   0.00000000  0.00018603  0.20851341
   0.00000000  0.49988827  0.20865654
   0.50000000 -0.00003465  0.20886437
   0.50000000  0.50000739  0.20866833
   0.25011599  0.25041263  0.25950310
   0.24978275  0.74956870  0.25953942
   0.74988401  0.25041263  0.25950310
   0.75021725  0.74956870  0.25953942
   0.00000000  0.00063736  0.31408076
   0.00000000  0.49929649  0.31309323
   0.50000000 -0.00008689  0.31428609
   0.50000000  0.49991651  0.31434850
   0.25108433  0.24850021  0.36157885
   0.25171014  0.75122625  0.36155404
   0.74891567  0.24850021  0.36157885
   0.74828986  0.75122625  0.36155404
   1.00000000  0.49714735  0.42769561
   1.00000000  0.64894833  0.42780946
Direct configuration=     5
   0.00000000  0.00000000  0.00000000
   0.00000000  0.50000000  0.00000000
   0.50000000  0.00000000  0.00000000
   0.50000000  0.50000000  0.00000000
   0.25000000  0.25000000  0.05351109
   0.25000000  0.75000000  0.05351109
   0.75000000  0.25000000  0.05351109
   0.75000000  0.75000000  0.05351109
   0.00000000  0.00000000  0.10541371
   0.00000000  0.50000000  0.10541371
   0.50000000  0.00000000  0.10541371
   0.50000000  0.50000000  0.10541371
   0.24980530  0.25012319  0.15724057
   0.24999295  0.74989032  0.15722139
   0.75019470  0.25012319  0.15724057
   0.75000705  0.74989032  0.15722139
   0.00000000  0.00029931  0.20842201
   0.00000000  0.49982143  0.20864539
   0.50000000 -0.00005821  0.20898972
   0.50000000  0.50001448  0.20867319
   0.25019751  0.25065727  0.25951269
   0.24965528  0.74931228  0.25957110
   0.74980249  0.25065727  0.25951269
   0.75034472  0.74931228  0.25957110
   0.00000000  0.00101368  0.31403252
   0.00000000  0.49888205  0.31244870
   0.50000000 -0.00013748  0.31436029
   0.50000000  0.49985985  0.31446434
   0.25174042  0.24760022  0.36143603
   0.25273053  0.75195107  0.36139866
   0.74825958  0.24760022  0.36143603
   0.74726947  0.75195107  0.36139866
   1.00000000  0.49762630  0.42817255
   1.00000000  0.64895697  0.42835688
Direct configuration=     6
   0.00000000  0.00000000  0.00000000
   0.00000000  0.50000000  0.00000000
   0.50000000  0.00000000  0.00000000
   0.50000000  0.50000000  0.00000000
   0.25000000  0.25000000  0.05351109
   0.25000000  0.75000000  0.05351109
   0.75000000  0.25000000  0.05351109
   0.75000000  0.75000000  0.05351109
   0.00000000  0.00000000  0.10541371
   0.00000000  0.50000000  0.10541371
   0.50000000  0.00000000  0.10541371
   0.50000000  0.50000000  0.10541371
   0.24966091  0.25021521  0.15731092
   0.24999057  0.74980981  0.15727795
   0.75033909  0.25021521  0.15731092
   0.75000943  0.74980981  0.15727795
   0.00000000  0.00052588  0.20823920
   0.00000000  0.49968775  0.20862308
   0.50000000 -0.00010532  0.20924042
   0.50000000  0.50002865  0.20868293
   0.25036054  0.25114656  0.25953187
   0.24940032  0.74879942  0.25963446
   0.74963946  0.25114656  0.25953187
   0.75059968  0.74879942  0.25963446
   0.00000000  0.00176632  0.31393603
   0.00000000  0.49805315  0.31115963
   0.50000000 -0.00023866  0.31450868
   0.50000000  0.49974652  0.31469601
   0.25305261  0.24580025  0.36115039
   0.25477133  0.75340072  0.36108792
   0.74694739  0.24580025  0.36115039
   0.74522867  0.75340072  0.36108792
   1.00000000  0.49858418  0.42912643
   1.00000000  0.64897425  0.42945171
Direct configuration=     7
   0.00000000  0.00000000  0.00000000
   0.00000000  0.50000000  0.00000000
   0.50000000  0.00000000  0.00000000
   0.50000000  0.50000000  0.00000000
   0.25000000  0.25000000  0.05351109
   0.25000000  0.75000000  0.05351109
   0.75000000  0.25000000  0.05351109
   0.75000000  0.75000000  0.05351109
   0.00000000  0.00000000  0.10541371
   0.00000000  0.50000000  0.10541371
   0.50000000  0.00000000  0.10541371
   0.50000000  0.50000000  0.10541371
   0.24973528  0.25016781  0.15727469
   0.24999179  0.74985128  0.15724882
   0.75026472  0.25016781  0.15727469
   0.75000821  0.74985128  0.15724882
   0.00000000  0.00040918  0.20833336
   0.00000000  0.49975661  0.20863457
   0.50000000 -0.00008105  0.20911129
   0.50000000  0.50002135  0.20867791
   0.25027657  0.25089454  0.25952199
   0.24953164  0.74906358  0.25960183
   0.74972343  0.25089454  0.25952199
   0.75046836  0.74906358  0.25960183
   0.00000000  0.00137866  0.31398573
   0.00000000  0.49848009  0.31182359
   0.50000000 -0.00018655  0.31443225
   0.50000000  0.49980489  0.31457668
   0.25237674  0.24672736  0.36129752
   0.25372018  0.75265405  0.36124797
   0.74762326  0.24672736  0.36129752
   0.74627982  0.75265405  0.36124797
   1.00000000  0.49809080  0.42863512
   1.00000000  0.64896535  0.42888780
Direct configuration=     8
   0.00000000  0.00000000  0.00000000
   0.00000000  0.50000000  0.00000000
   0.50000000  0.00000000  0.00000000
   0.50000000  0.50000000  0.00000000
   0.25000000  0.25000000  0.05351109
   0.25000000  0.75000000  0.05351109
   0.75000000  0.25000000  0.05351109
   0.75000000  0.75000000  0.05351109
   0.00000000  0.00000000  0.10541371
   0.00000000  0.50000000  0.10541371
   0.50000000  0.00000000  0.10541371
   0.50000000  0.50000000  0.10541371
   0.24968166  0.25020199  0.15730081
   0.24999091  0.74982138  0.15726983
   0.75031834  0.25020199  0.15730081
   0.75000909  0.74982138  0.15726983
   0.00000000  0.00049332  0.20826547
   0.00000000  0.49970696  0.20862629
   0.50000000 -0.00009855  0.20920440
   0.50000000  0.50002662  0.20868153
   0.25033712  0.25107625  0.25952911
   0.24943696  0.74887312  0.25962536
   0.74966288  0.25107625  0.25952911
   0.75056304  0.74887312  0.25962536
   0.00000000  0.00165816  0.31394989
   0.00000000  0.49817226  0.31134487
   0.50000000 -0.00022413  0.31448736
   0.50000000  0.49976281  0.31466272
   0.25286405  0.24605890  0.36119144
   0.25447807  0.75319240  0.36113257
   0.74713595  0.24605890  0.36119144
   0.74552193  0.75319240  0.36113257
   1.00000000  0.49844654  0.42898936
   1.00000000  0.64897176  0.42929439
Direct configuration=     9
   0.00000000  0.00000000  0.00000000
   0.00000000  0.50000000  0.00000000
   0.50000000  0.00000000  0.00000000
   0.50000000  0.50000000  0.00000000
   0.25000000  0.25000000  0.05351109
   0.25000000  0.75000000  0.05351109
   0.75000000  0.25000000  0.05351109
   0.75000000  0.75000000  0.05351109
   0.00000000  0.00000000  0.10541371
   0.00000000  0.50000000  0.10541371
   0.50000000  0.00000000  0.10541371
   0.50000000  0.50000000  0.10541371
   0.24971627  0.25017993  0.15728395
   0.24999148  0.74984068  0.15725627
   0.75028373  0.25017993  0.15728395
   0.75000852  0.74984068  0.15725627
   0.00000000  0.00043901  0.20830929
   0.00000000  0.49973901  0.20863164
   0.50000000 -0.00008725  0.20914430
   0.50000000  0.50002322  0.20867920
   0.25029803  0.25095897  0.25952451
   0.24949807  0.74899605  0.25961017
   0.74970197  0.25095897  0.25952451
   0.75050193  0.74899605  0.25961017
   0.00000000  0.00147775  0.31397302
   0.00000000  0.49837095  0.31165386
   0.50000000 -0.00019987  0.31445179
   0.50000000  0.49978997  0.31460719
   0.25254952  0.24649036  0.36125991
   0.25398889  0.75284492  0.36120706
   0.74745048  0.24649036  0.36125991
   0.74601111  0.75284492  0.36120706
   1.00000000  0.49821693  0.42876071
   1.00000000  0.64896762  0.42903195
Direct configuration=    10
   0.00000000  0.00000000  0.00000000
   0.00000000  0.50000000  0.00000000
   0.50000000  0.00000000  0.00000000
   0.50000000  0.50000000  0.00000000
   0.25000000  0.25000000  0.05351109
   0.25000000  0.75000000  0.05351109
   0.75000000  0.25000000  0.05351109
   0.75000000  0.75000000  0.05351109
   0.00000000  0.00000000  0.10541371
   0.00000000  0.50000000  0.10541371
   0.50000000  0.00000000  0.10541371
   0.50000000  0.50000000  0.10541371
   0.24986304  0.25009982  0.15728479
   0.25010014  0.74993075  0.15727923
   0.75013696  0.25009982  0.15728479
   0.74989986  0.74993075  0.15727923
   0.00000000  0.00040877  0.20830867
   0.00000000  0.49982553  0.20830910
   0.50000000 -0.00017845  0.20919643
   0.50000000  0.50009553  0.20872006
   0.25064727  0.25067778  0.25940925
   0.24960154  0.74925612  0.25949427
   0.74935273  0.25067778  0.25940925
   0.75039846  0.74925612  0.25949427
   0.00000000  0.00106801  0.31395447
   0.00000000  0.49862751  0.31162637
   0.50000000 -0.00010232  0.31422998
   0.50000000  0.49952848  0.31457297
   0.25252753  0.24675505  0.36118541
   0.25401242  0.75237895  0.36111972
   0.74747247  0.24675505  0.36118541
   0.74598758  0.75237895  0.36111972
   1.00000000  0.50035302  0.42944293
   1.00000000  0.64754212  0.42985933
Direct configuration=    11
   0.00000000  0.00000000  0.00000000
   0.00000000  0.50000000  0.00000000
   0.50000000  0.00000000  0.00000000
   0.50000000  0.50000000  0.00000000
   0.25000000  0.25000000  0.05351109
   0.25000000  0.75000000  0.05351109
   0.75000000  0.25000000  0.05351109
   0.75000000  0.75000000  0.05351109
   0.00000000  0.00000000  0.10541371
   0.00000000  0.50000000  0.10541371
   0.50000000  0.00000000  0.10541371
   0.50000000  0.50000000  0.10541371
   0.24990185  0.25007863  0.15728501
   0.25012888  0.74995457  0.15728530
   0.75009815  0.25007863  0.15728501
   0.74987112  0.74995457  0.15728530
   0.00000000  0.00040078  0.20830851
   0.00000000  0.49984841  0.20822381
   0.50000000 -0.00020257  0.20921021
   0.50000000  0.50011465  0.20873086
   0.25073963  0.25060342  0.25937876
   0.24962890  0.74932490  0.25946362
   0.74926037  0.25060342  0.25937876
   0.75037110  0.74932490  0.25946362
   0.00000000  0.00095965  0.31394956
   0.00000000  0.49869536  0.31161910
   0.50000000 -0.00007653  0.31417132
   0.50000000  0.49945933  0.31456392
   0.25252172  0.24682505  0.36116571
   0.25401865  0.75225572  0.36109662
   0.74747828  0.24682505  0.36116571
   0.74598135  0.75225572  0.36109662
   1.00000000  0.50091791  0.42962335
   1.00000000  0.64716515  0.43007813
Direct configuration=    12
   0.00000000  0.00000000  0.00000000
   0.00000000  0.50000000  0.00000000
   0.50000000  0.00000000  0.00000000
   0.50000000  0.50000000  0.00000000
   0.25000000  0.25000000  0.05351109
   0.25000000  0.75000000  0.05351109
   0.75000000  0.25000000  0.05351109
   0.75000000  0.75000000  0.05351109
   0.00000000  0.00000000  0.10541371
   0.00000000  0.50000000  0.10541371
   0.50000000  0.00000000  0.10541371
   0.50000000  0.50000000  0.10541371
   0.24996690  0.25004306  0.15727695
   0.25017363  0.74999204  0.15728459
   0.75003310  0.25004306  0.15727695
   0.74982637  0.74999204  0.15728459
   0.00000000  0.00038914  0.20831437
   0.00000000  0.49987544  0.20811291
   0.50000000 -0.00023536  0.20920722
   0.50000000  0.50014021  0.20874025
   0.25083654  0.25049634  0.25933387
   0.24966616  0.74942110  0.25941708
   0.74916346  0.25049634  0.25933387
   0.75033384  0.74942110  0.25941708
   0.00000000  0.00078970  0.31394454
   0.00000000  0.49880408  0.31164888
   0.50000000 -0.00005028  0.31408272
   0.50000000  0.49937493  0.31453695
   0.25245749  0.24698219  0.36114275
   0.25395733  0.75202951  0.36106798
   0.74754251  0.24698219  0.36114275
   0.74604267  0.75202951  0.36106798
   1.00000000  0.50094632  0.42989340
   1.00000000  0.64741627  0.43041442
Direct configuration=    13
   0.00000000  0.00000000  0.00000000
   0.00000000  0.50000000  0.00000000
   0.50000000  0.00000000  0.00000000
   0.50000000  0.50000000  0.00000000
   0.25000000  0.25000000  0.05351109
   0.25000000  0.75000000  0.05351109
   0.75000000  0.25000000  0.05351109
   0.75000000  0.75000000  0.05351109
   0.00000000  0.00000000  0.10541371
   0.00000000  0.50000000  0.10541371
   0.50000000  0.00000000  0.10541371
   0.50000000  0.50000000  0.10541371
   0.25016205  0.24993635  0.15725275
   0.25030789  0.75010446  0.15728247
   0.74983795  0.24993635  0.15725275
   0.74969211  0.75010446  0.15728247
   0.00000000  0.00035425  0.20833194
   0.00000000  0.49995652  0.20778022
   0.50000000 -0.00033373  0.20919827
   0.50000000  0.50021686  0.20876843
   0.25112728  0.25017511  0.25919919
   0.24977793  0.74970972  0.25927746
   0.74887272  0.25017511  0.25919919
   0.75022207  0.74970972  0.25927746
   0.00000000  0.00027984  0.31392950
   0.00000000  0.49913024  0.31173824
   0.50000000  0.00002845  0.31381692
   0.50000000  0.49912172  0.31445605
   0.25226479  0.24745359  0.36107385
   0.25377339  0.75135089  0.36098205
   0.74773521  0.24745359  0.36107385
   0.74622661  0.75135089  0.36098205
   1.00000000  0.50103156  0.43070356
   1.00000000  0.64816963  0.43142330
Direct configuration=    14
   0.00000000  0.00000000  0.00000000
   0.00000000  0.50000000  0.00000000
   0.50000000  0.00000000  0.00000000
   0.50000000  0.50000000  0.00000000
   0.25000000  0.25000000  0.05351109
   0.25000000  0.75000000  0.05351109
   0.75000000  0.25000000  0.05351109
   0.75000000  0.75000000  0.05351109
   0.00000000  0.00000000  0.10541371
   0.00000000  0.50000000  0.10541371
   0.50000000  0.00000000  0.10541371
   0.50000000  0.50000000  0.10541371
   0.25055235  0.24972293  0.15720435
   0.25057642  0.75032929  0.15727823
   0.74944765  0.24972293  0.15720435
   0.74942358  0.75032929  0.15727823
   0.00000000  0.00028447  0.20836707
   0.00000000  0.50011867  0.20711483
   0.50000000 -0.00053047  0.20918036
   0.50000000  0.50037017  0.20882478
   0.25170876  0.24953266  0.25892982
   0.25000149  0.75028694  0.25899821
   0.74829124  0.24953266  0.25892982
   0.74999851  0.75028694  0.25899821
   0.00000000 -0.00073987  0.31389940
   0.00000000  0.49978255  0.31191695
   0.50000000  0.00018591  0.31328531
   0.50000000  0.49861529  0.31429425
   0.25187941  0.24839639  0.36093607
   0.25340550  0.74999364  0.36081020
   0.74812059  0.24839639  0.36093607
   0.74659450  0.74999364  0.36081020
   1.00000000  0.50120203  0.43232389
   1.00000000  0.64967635  0.43344107
Direct configuration=    15
   0.00000000  0.00000000  0.00000000
   0.00000000  0.50000000  0.00000000
   0.50000000  0.00000000  0.00000000
   0.50000000  0.50000000  0.00000000
   0.25000000  0.25000000  0.05351109
   0.25000000  0.75000000  0.05351109
   0.75000000  0.25000000  0.05351109
   0.75000000  0.75000000  0.05351109
   0.00000000  0.00000000  0.10541371
   0.00000000  0.50000000  0.10541371
   0.50000000  0.00000000  0.10541371
   0.50000000  0.50000000  0.10541371
   0.25133296  0.24929609  0.15710756
   0.25111347  0.75077896  0.15726975
   0.74866704  0.24929609  0.15710756
   0.74888653  0.75077896  0.15726975
   0.00000000  0.00014491  0.20843734
   0.00000000  0.50044297  0.20578405
   0.50000000 -0.00092395  0.20914454
   0.50000000  0.50067680  0.20893747
   0.25287173  0.24824775  0.25839109
   0.25044860  0.75144139  0.25843971
   0.74712827  0.24824775  0.25839109
   0.74955140  0.75144139  0.25843971
   0.00000000 -0.00277930  0.31383922
   0.00000000  0.50108718  0.31227437
   0.50000000  0.00050084  0.31222210
   0.50000000  0.49760244  0.31397065
   0.25110863  0.25028199  0.36066050
   0.25266971  0.74727916  0.36046650
   0.74889137  0.25028199  0.36066050
   0.74733029  0.74727916  0.36046650
   1.00000000  0.50154297  0.43556455
   1.00000000  0.65268979  0.43747659
Direct configuration=    16
   0.00000000  0.00000000  0.00000000
   0.00000000  0.50000000  0.00000000
   0.50000000  0.00000000  0.00000000
   0.50000000  0.50000000  0.00000000
   0.25000000  0.25000000  0.05351109
   0.25000000  0.75000000  0.05351109
   0.75000000  0.25000000  0.05351109
   0.75000000  0.75000000  0.05351109
   0.00000000  0.00000000  0.10541371
   0.00000000  0.50000000  0.10541371
   0.50000000  0.00000000  0.10541371
   0.50000000  0.50000000  0.10541371
   0.25080592  0.24958428  0.15717291
   0.25075087  0.75047536  0.15727547
   0.74919408  0.24958428  0.15717291
   0.74924913  0.75047536  0.15727547
   0.00000000  0.00023914  0.20838990
   0.00000000  0.50022401  0.20668254
   0.50000000 -0.00065828  0.20916873
   0.50000000  0.50046978  0.20886138
   0.25208654  0.24911528  0.25875482
   0.25014672  0.75066195  0.25881679
   0.74791346  0.24911528  0.25875482
   0.74985328  0.75066195  0.25881679
   0.00000000 -0.00140235  0.31387985
   0.00000000  0.50020634  0.31203305
   0.50000000  0.00028821  0.31293994
   0.50000000  0.49828628  0.31418913
   0.25162903  0.24900890  0.36084656
   0.25316649  0.74911188  0.36069855
   0.74837097  0.24900890  0.36084656
   0.74683351  0.74911188  0.36069855
   1.00000000  0.50131278  0.43337657
   1.00000000  0.65065522  0.43475194
Direct configuration=    17
   0.00000000  0.00000000  0.00000000
   0.00000000  0.50000000  0.00000000
   0.50000000  0.00000000  0.00000000
   0.50000000  0.50000000  0.00000000
   0.25000000  0.25000000  0.05351109
   0.25000000  0.75000000  0.05351109
   0.75000000  0.25000000  0.05351109
   0.75000000  0.75000000  0.05351109
   0.00000000  0.00000000  0.10541371
   0.00000000  0.50000000  0.10541371
   0.50000000  0.00000000  0.10541371
   0.50000000  0.50000000  0.10541371
   0.25106944  0.24944018  0.15714023
   0.25093217  0.75062716  0.15727261
   0.74893056  0.24944018  0.15714023
   0.74906783  0.75062716  0.15727261
   0.00000000  0.00019202  0.20841362
   0.00000000  0.50033349  0.20623330
   0.50000000 -0.00079112  0.20915664
   0.50000000  0.50057329  0.20889943
   0.25247913  0.24868152  0.25857296
   0.25029766  0.75105167  0.25862825
   0.74752087  0.24868152  0.25857296
   0.74970234  0.75105167  0.25862825
   0.00000000 -0.00209082  0.31385953
   0.00000000  0.50064676  0.31215371
   0.50000000  0.00039453  0.31258102
   0.50000000  0.49794436  0.31407989
   0.25136883  0.24964545  0.36075353
   0.25291810  0.74819552  0.36058253
   0.74863117  0.24964545  0.36075353
   0.74708190  0.74819552  0.36058253
   1.00000000  0.50142788  0.43447056
   1.00000000  0.65167251  0.43611427
Direct configuration=    18
   0.00000000  0.00000000  0.00000000
   0.00000000  0.50000000  0.00000000
   0.50000000  0.00000000  0.00000000
   0.50000000  0.50000000  0.00000000
   0.25000000  0.25000000  0.05351109
   0.25000000  0.75000000  0.05351109
   0.75000000  0.25000000  0.05351109
   0.75000000  0.75000000  0.05351109
   0.00000000  0.00000000  0.10541371
   0.00000000  0.50000000  0.10541371
   0.50000000  0.00000000  0.10541371
   0.50000000  0.50000000  0.10541371
   0.25089716  0.24953438  0.15716159
   0.25081364  0.75052792  0.15727448
   0.74910284  0.24953438  0.15716159
   0.74918636  0.75052792  0.15727448
   0.00000000  0.00022282  0.20839811
   0.00000000  0.50026192  0.20652699
   0.50000000 -0.00070428  0.20916454
   0.50000000  0.50050562  0.20887456
   0.25222247  0.24896509  0.25869185
   0.25019899  0.75079689  0.25875151
   0.74777753  0.24896509  0.25869185
   0.74980101  0.75079689  0.25875151
   0.00000000 -0.00164073  0.31387282
   0.00000000  0.50035884  0.31207483
   0.50000000  0.00032502  0.31281567
   0.50000000  0.49816789  0.31415131
   0.25153894  0.24922930  0.36081435
   0.25308048  0.74879459  0.36065838
   0.74846106  0.24922930  0.36081435
   0.74691952  0.74879459  0.36065838
   1.00000000  0.50135263  0.43375536
   1.00000000  0.65100745  0.43522365
Direct configuration=    19
   0.00000000  0.00000000  0.00000000
   0.00000000  0.50000000  0.00000000
   0.50000000  0.00000000  0.00000000
   0.50000000  0.50000000  0.00000000
   0.25000000  0.25000000  0.05351109
   0.25000000  0.75000000  0.05351109
   0.75000000  0.25000000  0.05351109
   0.75000000  0.75000000  0.05351109
   0.00000000  0.00000000  0.10541371
   0.00000000  0.50000000  0.10541371
   0.50000000  0.00000000  0.10541371
   0.50000000  0.50000000  0.10541371
   0.25110481  0.24944592  0.15706480
   0.25096921  0.75062771  0.15717090
   0.74889518  0.24944592  0.15706480
   0.74903079  0.75062771  0.15717090
   0.00000000  0.00034362  0.20840015
   0.00000000  0.50015872  0.20648707
   0.50000000 -0.00077770  0.20895330
   0.50000000  0.50055680  0.20881464
   0.25194084  0.24905644  0.25860776
   0.25005972  0.75064940  0.25866300
   0.74805916  0.24905644  0.25860776
   0.74994028  0.75064940  0.25866300
   0.00000000 -0.00180698  0.31383332
   0.00000000  0.50031285  0.31208718
   0.50000000  0.00015504  0.31268100
   0.50000000  0.49810413  0.31400830
   0.25121225  0.24944359  0.36070520
   0.25286540  0.74832095  0.36054597
   0.74878775  0.24944359  0.36070520
   0.74713460  0.74832095  0.36054597
   1.00000000  0.50236528  0.43481299
   1.00000000  0.65110064  0.43655889
Direct configuration=    20
   0.00000000  0.00000000  0.00000000
   0.00000000  0.50000000  0.00000000
   0.50000000  0.00000000  0.00000000
   0.50000000  0.50000000  0.00000000
   0.25000000  0.25000000  0.05351109
   0.25000000  0.75000000  0.05351109
   0.75000000  0.25000000  0.05351109
   0.75000000  0.75000000  0.05351109
   0.00000000  0.00000000  0.10541371
   0.00000000  0.50000000  0.10541371
   0.50000000  0.00000000  0.10541371
   0.50000000  0.50000000  0.10541371
   0.25172777  0.24918054  0.15677443
   0.25143590  0.75092707  0.15686014
   0.74827223  0.24918054  0.15677443
   0.74856410  0.75092707  0.15686014
   0.00000000  0.00070601  0.20840628
   0.00000000  0.49984912  0.20636731
   0.50000000 -0.00099796  0.20831957
   0.50000000  0.50071037  0.20863490
   0.25109592  0.24933049  0.25835549
   0.24964191  0.75020695  0.25839749
   0.74890408  0.24933049  0.25835549
   0.75035809  0.75020695  0.25839749
   0.00000000 -0.00230572  0.31371484
   0.00000000  0.50017489  0.31212422
   0.50000000 -0.00035489  0.31227699
   0.50000000  0.49791282  0.31357927
   0.25023220  0.25008643  0.36037775
   0.25222014  0.74690003  0.36020874
   0.74976780  0.25008643  0.36037775
   0.74777986  0.74690003  0.36020874
   1.00000000  0.50540323  0.43798586
   1.00000000  0.65138018  0.44056463
Direct configuration=    21
   0.00000000  0.00000000  0.00000000
   0.00000000  0.50000000  0.00000000
   0.50000000  0.00000000  0.00000000
   0.50000000  0.50000000  0.00000000
   0.25000000  0.25000000  0.05351109
   0.25000000  0.75000000  0.05351109
   0.75000000  0.25000000  0.05351109
   0.75000000  0.75000000  0.05351109
   0.00000000  0.00000000  0.10541371
   0.00000000  0.50000000  0.10541371
   0.50000000  0.00000000  0.10541371
   0.50000000  0.50000000  0.10541371
   0.25297367  0.24864978  0.15619368
   0.25236928  0.75152579  0.15623863
   0.74702633  0.24864978  0.15619368
   0.74763072  0.75152579  0.15623863
   0.00000000  0.00143078  0.20841853
   0.00000000  0.49922992  0.20612779
   0.50000000 -0.00143849  0.20705210
   0.50000000  0.50101750  0.20827542
   0.24940610  0.24987859  0.25785094
   0.24880630  0.74932203  0.25786648
   0.75059390  0.24987859  0.25785094
   0.75119370  0.74932203  0.25786648
   0.00000000 -0.00330321  0.31347788
   0.00000000  0.49989898  0.31219831
   0.50000000 -0.00137476  0.31146898
   0.50000000  0.49753022  0.31272122
   0.24827210  0.25137212  0.35972287
   0.25092961  0.74405819  0.35953428
   0.75172790  0.25137212  0.35972287
   0.74907039  0.74405819  0.35953428
   1.00000000  0.51147913  0.44433162
   1.00000000  0.65193927  0.44857611
Direct configuration=    22
   0.00000000  0.00000000  0.00000000
   0.00000000  0.50000000  0.00000000
   0.50000000  0.00000000  0.00000000
   0.50000000  0.50000000  0.00000000
   0.25000000  0.25000000  0.05351109
   0.25000000  0.75000000  0.05351109
   0.75000000  0.25000000  0.05351109
   0.75000000  0.75000000  0.05351109
   0.00000000  0.00000000  0.10541371
   0.00000000  0.50000000  0.10541371
   0.50000000  0.00000000  0.10541371
   0.50000000  0.50000000  0.10541371
   0.25232564  0.24892585  0.15649574
   0.25188380  0.75121438  0.15656190
   0.74767436  0.24892585  0.15649574
   0.74811620  0.75121438  0.15656190
   0.00000000  0.00105380  0.20841216
   0.00000000  0.49955198  0.20625237
   0.50000000 -0.00120936  0.20771135
   0.50000000  0.50085775  0.20846239
   0.25028503  0.24959350  0.25811337
   0.24924093  0.74978230  0.25814268
   0.74971497  0.24959350  0.25811337
   0.75075907  0.74978230  0.25814268
   0.00000000 -0.00278439  0.31360113
   0.00000000  0.50004249  0.31215977
   0.50000000 -0.00084430  0.31188925
   0.50000000  0.49772922  0.31316752
   0.24929161  0.25070339  0.36006349
   0.25160085  0.74553632  0.35988509
   0.75070839  0.25070339  0.36006349
   0.74839915  0.74553632  0.35988509
   1.00000000  0.50831886  0.44103099
   1.00000000  0.65164847  0.44440909
Direct configuration=    23
   0.00000000  0.00000000  0.00000000
   0.00000000  0.50000000  0.00000000
   0.50000000  0.00000000  0.00000000
   0.50000000  0.50000000  0.00000000
   0.25000000  0.25000000  0.05351109
   0.25000000  0.75000000  0.05351109
   0.75000000  0.25000000  0.05351109
   0.75000000  0.75000000  0.05351109
   0.00000000  0.00000000  0.10541371
   0.00000000  0.50000000  0.10541371
   0.50000000  0.00000000  0.10541371
   0.50000000  0.50000000  0.10541371
   0.25236005  0.24895250  0.15641983
   0.25187715  0.75119424  0.15647270
   0.74763995  0.24895250  0.15641983
   0.74812285  0.75119424  0.15647270
   0.00000000  0.00111510  0.20836960
   0.00000000  0.49947695  0.20631877
   0.50000000 -0.00119338  0.20756854