       N       E                     dE             d eps       ncg     rms          rms(c)
DAV:   1     0.166071387980E+04    0.16607E+04   -0.64670E+04  1392   0.188E+03
DAV:   2     0.196063823454E+03   -0.14647E+04   -0.14018E+04  1392   0.426E+02
DAV:   3    -0.530610048958E+02   -0.24912E+03   -0.22652E+03  1412   0.216E+02
DAV:   4    -0.685158070218E+02   -0.15455E+02   -0.15120E+02  1592   0.755E+01
DAV:   5    -0.688532805357E+02   -0.33747E+00   -0.33697E+00  1592   0.104E+01    0.365E+01
DAV:   6    -0.579834121457E+02    0.10870E+02   -0.16159E+02  1552   0.121E+02    0.186E+01
DAV:   7    -0.518128025915E+02    0.61706E+01   -0.38952E+01  1576   0.740E+01    0.968E+00
DAV:   8    -0.518321706750E+02   -0.19368E-01   -0.14117E+01  1772   0.647E+01    0.113E+01
DAV:   9    -0.512309301371E+02    0.60124E+00   -0.13064E+01  1984   0.629E+01    0.104E+01
DAV:  10    -0.501675278232E+02    0.10634E+01   -0.62933E+00  2272   0.429E+01    0.789E+00
DAV:  11    -0.513577387653E+02   -0.11902E+01   -0.48962E+00  2244   0.441E+01    0.768E+00
DAV:  12    -0.531793849906E+02   -0.18216E+01   -0.26477E+00  1708   0.401E+01    0.658E+00
DAV:  13    -0.544378266295E+02   -0.12584E+01   -0.19071E+00  1908   0.280E+01    0.581E+00
DAV:  14    -0.548743826811E+02   -0.43656E+00   -0.68572E-01  1864   0.133E+01    0.482E+00
DAV:  15    -0.577891746016E+02   -0.29148E+01   -0.26052E+00  1664   0.261E+01    0.392E+00
DAV:  16    -0.603287952157E+02   -0.25396E+01   -0.32626E+00  1848   0.233E+01    0.278E+00
DAV:  17    -0.605571852742E+02   -0.22839E+00   -0.86294E-01  1936   0.160E+01    0.172E+00
DAV:  18    -0.607554926927E+02   -0.19831E+00   -0.41640E-01  1784   0.816E+00    0.993E-01
DAV:  19    -0.611311758213E+02   -0.37568E+00   -0.26706E-01  1528   0.440E+00    0.104E+00
DAV:  20    -0.614419703308E+02   -0.31079E+00   -0.13995E-01  1700   0.474E+00    0.821E-01
DAV:  21    -0.616712205237E+02   -0.22925E+00   -0.78668E-02  1892   0.349E+00    0.599E-01
DAV:  22    -0.619466919580E+02   -0.27547E+00   -0.93407E-02  1724   0.289E+00    0.584E-01
DAV:  23    -0.620730396346E+02   -0.12635E+00   -0.23948E-02  1808   0.277E+00    0.462E-01
DAV:  24    -0.624047723428E+02   -0.33173E+00   -0.73306E-02  1872   0.271E+00    0.464E-01
DAV:  25    -0.625447047986E+02   -0.13993E+00   -0.21544E-02  1728   0.269E+00    0.329E-01
DAV:  26    -0.627079581228E+02   -0.16325E+00   -0.15345E-02  1684   0.114E+00    0.174E-01
DAV:  27    -0.627871514085E+02   -0.79193E-01   -0.50167E-03  1596   0.116E+00    0.135E-01
DAV:  28    -0.628266662142E+02   -0.39515E-01   -0.18728E-03  1584   0.859E-01    0.104E-01
DAV:  29    -0.628390727848E+02   -0.12407E-01   -0.95642E-04  1464   0.457E-01    0.473E-02
DAV:  30    -0.628433156260E+02   -0.42428E-02   -0.23560E-04  1024   0.184E-01    0.441E-02
DAV:  31    -0.628434848265E+02   -0.16920E-03   -0.21742E-04   972   0.320E-01
   1 F= -.69776560E+02 E0= -.69767268E+02  d E =-.697766E+02  mag=     0.0075
       N       E                     dE             d eps       ncg     rms          rms(c)
DAV:   1    -0.628347909268E+02    0.85247E-02   -0.79416E+00  1560   0.823E+00    0.585E-01
DAV:   2    -0.628484736113E+02   -0.13683E-01   -0.18665E-01  1952   0.327E+00    0.527E-01
DAV:   3    -0.628700598018E+02   -0.21586E-01   -0.74429E-02  1752   0.690E+00    0.112E+00
DAV:   4    -0.628484701443E+02    0.21590E-01   -0.76196E-02  1824   0.637E+00    0.439E-01
DAV:   5    -0.628476209949E+02    0.84915E-03   -0.15389E-02  2124   0.387E+00    0.339E-01
DAV:   6    -0.628461242665E+02    0.14967E-02   -0.11533E-02  2208   0.364E+00    0.253E-01
DAV:   7    -0.628449926865E+02    0.11316E-02   -0.34578E-03  2008   0.176E+00    0.568E-02
DAV:   8    -0.628450757625E+02   -0.83076E-04   -0.96824E-04  1420   0.517E-01
   2 F= -.69791488E+02 E0= -.69781256E+02  d E =-.149279E-01  mag=     0.0055
       N       E                     dE             d eps       ncg     rms          rms(c)
DAV:   1    -0.628603087369E+02   -0.15316E-01   -0.13727E+00  1568   0.344E+00    0.219E-01
DAV:   2    -0.628653719797E+02   -0.50632E-02   -0.35383E-02  2320   0.228E+00    0.422E-01
DAV:   3    -0.628632150465E+02    0.21569E-02   -0.12890E-02  2208   0.257E+00    0.218E-01
DAV:   4    -0.628627111322E+02    0.50391E-03   -0.29427E-03  1532   0.133E+00    0.143E-01
DAV:   5    -0.628627004066E+02    0.10726E-04   -0.15503E-03  1584   0.123E+00
   3 F= -.69800476E+02 E0= -.69789974E+02  d E =-.239155E-01  mag=     0.0044
       N       E                     dE             d eps       ncg     rms          rms(c)
DAV:   1    -0.628701803932E+02   -0.74693E-02   -0.81915E+00  1496   0.844E+00    0.283E-01
DAV:   2    -0.628993802377E+02   -0.29200E-01   -0.17907E-01  2312   0.624E+00    0.940E-01
DAV:   3    -0.628904826733E+02    0.88976E-02   -0.80658E-02  1992   0.642E+00    0.612E-01
DAV:   4    -0.628852712963E+02    0.52114E-02   -0.20909E-02  1632   0.373E+00    0.280E-01
DAV:   5    -0.628847639373E+02    0.50736E-03   -0.55680E-03  1584   0.128E+00    0.177E-01
DAV:   6    -0.628848098080E+02   -0.45871E-04   -0.27073E-03  1508   0.863E-01    0.179E-01
DAV:   7    -0.628845091406E+02    0.30067E-03   -0.20783E-03  1672   0.754E-01    0.476E-02
DAV:   8    -0.628845657521E+02   -0.56611E-04   -0.75247E-04  1240   0.634E-01
   4 F= -.69828431E+02 E0= -.69817913E+02  d E =-.279555E-01  mag=     0.0032
       N       E                     dE             d eps       ncg     rms          rms(c)
DAV:   1    -0.627991992613E+02    0.85310E-01   -0.48597E+01  1496   0.210E+01    0.682E-01
DAV:   2    -0.629406652119E+02   -0.14147E+00   -0.11474E+00  2264   0.113E+01    0.177E+00
DAV:   3    -0.629231162269E+02    0.17549E-01   -0.30750E-01  1880   0.123E+01    0.123E+00
DAV:   4    -0.628965905109E+02    0.26526E-01   -0.77096E-02  2024   0.639E+00    0.509E-01
DAV:   5    -0.628963461914E+02    0.24432E-03   -0.21071E-02  1944   0.295E+00    0.497E-01
DAV:   6    -0.628954987517E+02    0.84744E-03   -0.13848E-02  1608   0.304E+00    0.420E-01
DAV:   7    -0.628931627731E+02    0.23360E-02   -0.11728E-02  2180   0.184E+00    0.103E-01
DAV:   8    -0.628933961776E+02   -0.23340E-03   -0.40260E-03  1832   0.136E+00    0.141E-01
DAV:   9    -0.628932040153E+02    0.19216E-03   -0.14243E-03  1476   0.881E-01
   5 F= -.69852799E+02 E0= -.69840913E+02  d E =-.523231E-01  mag=     0.0022
       N       E                     dE             d eps       ncg     rms          rms(c)
DAV:   1    -0.628865718066E+02    0.68244E-02   -0.10631E+01  1420   0.990E+00    0.293E-01
DAV:   2    -0.629167336862E+02   -0.30162E-01   -0.25822E-01  2016   0.416E+00    0.726E-01
DAV:   3    -0.629116369195E+02    0.50968E-02   -0.43437E-02  1624   0.432E+00    0.421E-01
DAV:   4    -0.629102608325E+02    0.13761E-02   -0.81303E-03  1696   0.172E+00    0.288E-01
DAV:   5    -0.629102328365E+02    0.27996E-04   -0.36747E-03  1764   0.130E+00    0.286E-01
DAV:   6    -0.629107112961E+02   -0.47846E-03   -0.52525E-03  1744   0.246E+00    0.316E-01
DAV:   7    -0.629090047388E+02    0.17066E-02   -0.45185E-03  2256   0.198E+00    0.697E-02
DAV:   8    -0.629089740718E+02    0.30667E-04   -0.11488E-03  1424   0.637E-01
   6 F= -.69878815E+02 E0= -.69866443E+02  d E =-.260163E-01  mag=     0.0016
       N       E                     dE             d eps       ncg     rms          rms(c)
DAV:   1    -0.628643114100E+02    0.44693E-01   -0.20958E+01  1424   0.139E+01    0.429E-01
DAV:   2    -0.629226158582E+02   -0.58304E-01   -0.51826E-01  2048   0.583E+00    0.984E-01
DAV:   3    -0.629153391739E+02    0.72767E-02   -0.79220E-02  1688   0.597E+00    0.639E-01
DAV:   4    -0.629114733475E+02    0.38658E-02   -0.18128E-02  1792   0.287E+00    0.417E-01
DAV:   5    -0.629115977550E+02   -0.12441E-03   -0.72834E-03  1904   0.207E+00    0.423E-01
DAV:   6    -0.629108111595E+02    0.78660E-03   -0.88300E-03  1848   0.296E+00    0.380E-01
DAV:   7    -0.629086573398E+02    0.21538E-02   -0.88456E-03  2408   0.228E+00    0.103E-01
DAV:   8    -0.629086798372E+02   -0.22497E-04   -0.21751E-03  1844   0.865E-01    0.764E-02
DAV:   9    -0.629086192379E+02    0.60599E-04   -0.54048E-04  1152   0.527E-01
   7 F= -.69893234E+02 E0= -.69880185E+02  d E =-.404347E-01  mag=     0.0011
       N       E                     dE             d eps       ncg     rms          rms(c)
DAV:   1    -0.629137003411E+02   -0.50205E-02   -0.15622E+00  1488   0.376E+00    0.144E-01
DAV:   2    -0.629170552939E+02   -0.33550E-02   -0.35766E-02  1928   0.121E+00    0.176E-01
DAV:   3    -0.629174948757E+02   -0.43958E-03   -0.31654E-03  1600   0.130E+00    0.222E-01
DAV:   4    -0.629168732853E+02    0.62159E-03   -0.25835E-03  1256   0.117E+00    0.124E-01
DAV:   5    -0.629168765740E+02   -0.32887E-05   -0.79570E-04   968   0.841E-01
   8 F= -.69905571E+02 E0= -.69891806E+02  d E =-.123370E-01  mag=     0.0009
       N       E                     dE             d eps       ncg     rms          rms(c)
DAV:   1    -0.629010488996E+02    0.15824E-01   -0.91745E+00  1476   0.922E+00    0.377E-01
DAV:   2    -0.629283867109E+02   -0.27338E-01   -0.22334E-01  2168   0.541E+00    0.763E-01
DAV:   3    -0.629249164894E+02    0.34702E-02   -0.57932E-02  1928   0.543E+00    0.660E-01
DAV:   4    -0.629198733535E+02    0.50431E-02   -0.20111E-02  1808   0.355E+00    0.347E-01
DAV:   5    -0.629186871677E+02    0.11862E-02   -0.56037E-03  1856   0.149E+00    0.233E-01
DAV:   6    -0.629184898618E+02    0.19731E-03   -0.45272E-03  1844   0.132E+00    0.189E-01
DAV:   7    -0.629181950780E+02    0.29478E-03   -0.31032E-03  1536   0.141E+00    0.807E-02
DAV:   8    -0.629181294839E+02    0.65594E-04   -0.66944E-04  1144   0.466E-01
   9 F= -.69917369E+02 E0= -.69903853E+02  d E =-.241355E-01  mag=     0.0007
       N       E                     dE             d eps       ncg     rms          rms(c)
DAV:   1    -0.629215914583E+02   -0.33964E-02   -0.48916E-01  1444   0.213E+00    0.697E-02
DAV:   2    -0.629230046845E+02   -0.14132E-02   -0.11544E-02  2288   0.123E+00    0.166E-01
DAV:   3    -0.629228106044E+02    0.19408E-03   -0.20596E-03  1360   0.110E+00    0.130E-01
DAV:   4    -0.629226073979E+02    0.20321E-03   -0.75037E-04  1040   0.632E-01    0.668E-02
DAV:   5    -0.629226035421E+02    0.38558E-05   -0.23918E-04   864   0.256E-01
  10 F= -.69923308E+02 E0= -.69909719E+02  d E =-.593865E-02  mag=     0.0006
       N       E                     dE             d eps       ncg     rms          rms(c)
DAV:   1    -0.629254671110E+02   -0.28597E-02   -0.44013E+00  1440   0.641E+00    0.225E-01
DAV:   2    -0.629388722819E+02   -0.13405E-01   -0.10364E-01  2224   0.337E+00    0.578E-01
DAV:   3    -0.629347034854E+02    0.41688E-02   -0.20558E-02  2240   0.308E+00    0.277E-01
DAV:   4    -0.629341705297E+02    0.53296E-03   -0.38673E-03  1592   0.130E+00    0.215E-01
DAV:   5    -0.629340191834E+02    0.15135E-03   -0.18204E-03  1584   0.102E+00
  11 F= -.69939056E+02 E0= -.69925521E+02  d E =-.216871E-01  mag=     0.0005
       N       E                     dE             d eps       ncg     rms          rms(c)
DAV:   1    -0.629116762923E+02    0.22494E-01   -0.17613E+01  1448   0.129E+01    0.456E-01
DAV:   2    -0.629717163332E+02   -0.60040E-01   -0.43778E-01  2168   0.780E+00    0.125E+00
DAV:   3    -0.629512070115E+02    0.20509E-01   -0.11126E-01  2400   0.716E+00    0.596E-01
DAV:   4    -0.629475403290E+02    0.36667E-02   -0.16100E-02  1696   0.284E+00    0.400E-01
DAV:   5    -0.629473668563E+02    0.17347E-03   -0.92886E-03  1680   0.251E+00    0.373E-01
DAV:   6    -0.629462687870E+02    0.10981E-02   -0.79709E-03  1688   0.230E+00    0.307E-01
DAV:   7    -0.629454569814E+02    0.81181E-03   -0.72117E-03  1904   0.209E+00    0.141E-01
DAV:   8    -0.629452504022E+02    0.20658E-03   -0.19555E-03  1832   0.934E-01    0.659E-02
DAV:   9    -0.629452323712E+02    0.18031E-04   -0.45388E-04  1060   0.447E-01
  12 F= -.69958591E+02 E0= -.69946559E+02  d E =-.412216E-01  mag=     0.0003
       N       E                     dE             d eps       ncg     rms          rms(c)
DAV:   1    -0.627873517249E+02    0.15790E+00   -0.71524E+01  1432   0.265E+01    0.912E-01
DAV:   2    -0.630174540265E+02   -0.23010E+00   -0.18123E+00  2256   0.147E+01    0.227E+00
DAV:   3    -0.629607697472E+02    0.56684E-01   -0.34253E-01  2328   0.130E+01    0.131E+00
DAV:   4    -0.629407598733E+02    0.20010E-01   -0.78940E-02  1928   0.683E+00    0.853E-01
DAV:   5    -0.629363603541E+02    0.43995E-02   -0.29429E-02  1728   0.427E+00    0.696E-01
DAV:   6    -0.629322177578E+02    0.41426E-02   -0.27507E-02  1744   0.361E+00    0.548E-01
DAV:   7    -0.629295446255E+02    0.26731E-02   -0.27302E-02  1728   0.390E+00    0.229E-01
DAV:   8    -0.629288187799E+02    0.72585E-03   -0.85747E-03  2320   0.165E+00    0.987E-02
DAV:   9    -0.629288269233E+02   -0.81434E-05   -0.14450E-03  1480   0.707E-01
  13 F= -.69957235E+02 E0= -.69946962E+02  d E =-.398656E-01  mag=     0.0002
       N       E                     dE             d eps       ncg     rms          rms(c)
DAV:   1    -0.629032072212E+02    0.25612E-01   -0.22818E+01  1432   0.146E+01    0.518E-01
DAV:   2    -0.629605946899E+02   -0.57387E-01   -0.53346E-01  2160   0.683E+00    0.916E-01
DAV:   3    -0.629557172596E+02    0.48774E-02   -0.97580E-02  1848   0.691E+00    0.809E-01
DAV:   4    -0.629488492731E+02    0.68680E-02   -0.34566E-02  1752   0.435E+00    0.473E-01
DAV:   5    -0.629473950028E+02    0.14543E-02   -0.11450E-02  1704   0.270E+00    0.396E-01
DAV:   6    -0.629459361739E+02    0.14588E-02   -0.10353E-02  1756   0.271E+00    0.310E-01
DAV:   7    -0.629449203450E+02    0.10158E-02   -0.62618E-03  1688   0.218E+00    0.112E-01
DAV:   8    -0.629449688345E+02   -0.48490E-04   -0.23514E-03  2016   0.865E-01    0.662E-02
DAV:   9    -0.629449491237E+02    0.19711E-04   -0.65342E-04  1232   0.501E-01
  14 F= -.69965068E+02 E0= -.69953649E+02  d E =-.476985E-01  mag=     0.0002
       N       E                     dE             d eps       ncg     rms          rms(c)
DAV:   1    -0.629460012288E+02   -0.10324E-02   -0.70087E+00  1432   0.789E+00    0.277E-01
DAV:   2    -0.629734949263E+02   -0.27494E-01   -0.16721E-01  2240   0.545E+00    0.933E-01
DAV:   3    -0.629601498304E+02    0.13345E-01   -0.50074E-02  2352   0.484E+00    0.344E-01
DAV:   4    -0.629591507105E+02    0.99912E-03   -0.83094E-03  1744   0.200E+00    0.260E-01
DAV:   5    -0.629588620064E+02    0.28870E-03   -0.36151E-03  1600   0.137E+00    0.209E-01
DAV:   6    -0.629585360306E+02    0.32598E-03   -0.30685E-03  1696   0.141E+00    0.175E-01
DAV:   7    -0.629581665132E+02    0.36952E-03   -0.23546E-03  1784   0.132E+00    0.630E-02
DAV:   8    -0.629581358655E+02    0.30648E-04   -0.49202E-04  1056   0.500E-01
  15 F= -.69979893E+02 E0= -.69969469E+02  d E =-.148250E-01  mag=     0.0001
       N       E                     dE             d eps       ncg     rms          rms(c)
DAV:   1    -0.629373929054E+02    0.20774E-01   -0.15040E+01  1440   0.116E+01    0.414E-01
DAV:   2    -0.630054998005E+02   -0.68107E-01   -0.38384E-01  2336   0.891E+00    0.150E+00
DAV:   3    -0.629690551605E+02    0.36445E-01   -0.12345E-01  2496   0.764E+00    0.499E-01
DAV:   4    -0.629669751160E+02    0.20800E-02   -0.19285E-02  1872   0.306E+00    0.391E-01
DAV:   5    -0.629662705031E+02    0.70461E-03   -0.77977E-03  1696   0.216E+00    0.307E-01
DAV:   6    -0.629655592834E+02    0.71122E-03   -0.62607E-03  1664   0.203E+00    0.255E-01
DAV:   7    -0.629648691408E+02    0.69014E-03   -0.48822E-03  1952   0.187E+00    0.109E-01
DAV:   8    -0.629648014075E+02    0.67733E-04   -0.14802E-03  1840   0.776E-01
  16 F= -.69988891E+02 E0= -.69979875E+02  d E =-.238236E-01  mag=     0.0001
       N       E                     dE             d eps       ncg     rms          rms(c)
DAV:   1    -0.629644675093E+02    0.40163E-03   -0.90998E-02  1504   0.998E-01    0.366E-02
DAV:   2    -0.629647979242E+02   -0.33041E-03   -0.23939E-03  1984   0.693E-01    0.853E-02
DAV:   3    -0.629647372292E+02    0.60695E-04   -0.58905E-04  1008   0.630E-01
  17 F= -.69989008E+02 E0= -.69980129E+02  d E =-.239400E-01  mag=     0.0001
       N       E                     dE             d eps       ncg     rms          rms(c)
DAV:   1    -0.629647226526E+02    0.75272E-04   -0.27592E-02  1824   0.646E-01    0.275E-02
DAV:   2    -0.629670053309E+02   -0.22827E-02   -0.55166E-03  1088   0.177E+00    0.326E-01
DAV:   3    -0.629647065546E+02    0.22988E-02   -0.46265E-03   976   0.165E+00    0.168E-02
DAV:   4    -0.629647469192E+02   -0.40365E-04   -0.18088E-04   992   0.155E-01
  18 F= -.69988917E+02 E0= -.69980075E+02  d E =-.238494E-01  mag=     0.0001
       N       E                     dE             d eps       ncg     rms          rms(c)
DAV:   1    -0.629647080294E+02   -0.14748E-05   -0.10565E-02  1448   0.332E-01    0.129E-02
DAV:   2    -0.629647221354E+02   -0.14106E-04   -0.13369E-04   952   0.124E-01
  19 F= -.69988954E+02 E0= -.69980161E+02  d E =-.238867E-01  mag=     0.0001
       N       E                     dE             d eps       ncg     rms          rms(c)
DAV:   1    -0.629676447861E+02   -0.29368E-02   -0.13580E+00  1456   0.354E+00    0.134E-01
DAV:   2    -0.629709059584E+02   -0.32612E-02   -0.28979E-02  2176   0.148E+00    0.256E-01
DAV:   3    -0.629702240989E+02    0.68186E-03   -0.48253E-03  1712   0.150E+00    0.142E-01
DAV:   4    -0.629700793782E+02    0.14472E-03   -0.11098E-03  1280   0.699E-01
  20 F= -.69992842E+02 E0= -.69983829E+02  d E =-.388744E-02  mag=     0.0000
       N       E                     dE             d eps       ncg     rms          rms(c)
DAV:   1    -0.629695488374E+02    0.67526E-03   -0.22552E+00  1456   0.468E+00    0.224E-01
DAV:   2    -0.629785980901E+02   -0.90493E-02   -0.53682E-02  2496   0.358E+00    0.554E-01
DAV:   3    -0.629745664320E+02    0.40317E-02   -0.22375E-02  2368   0.345E+00    0.320E-01
DAV:   4    -0.629732874711E+02    0.12790E-02   -0.67439E-03  1816   0.211E+00    0.200E-01
DAV:   5    -0.629728249824E+02    0.46249E-03   -0.20718E-03  1536   0.867E-01    0.102E-01
DAV:   6    -0.629728909989E+02   -0.66017E-04   -0.16042E-03  1568   0.946E-01
  21 F= -.69993979E+02 E0= -.69984996E+02  d E =-.502518E-02  mag=     0.0000
       N       E                     dE             d eps       ncg     rms          rms(c)
DAV:   1    -0.629743926860E+02   -0.15677E-02   -0.91809E-02  1944   0.125E+00    0.345E-02
DAV:   2    -0.629746339780E+02   -0.24129E-03   -0.13260E-03  1216   0.796E-01    0.960E-02
DAV:   3    -0.629745546664E+02    0.79312E-04   -0.97777E-04   976   0.781E-01
  22 F= -.69994944E+02 E0= -.69986266E+02  d E =-.964177E-03  mag=     0.0000
       N       E                     dE             d eps       ncg     rms          rms(c)
DAV:   1    -0.629776519938E+02   -0.30180E-02   -0.82506E-01  1416   0.283E+00    0.108E-01
DAV:   2    -0.629823400187E+02   -0.46880E-02   -0.23558E-02  2432   0.232E+00    0.399E-01
DAV:   3    -0.629792165872E+02    0.31234E-02   -0.84599E-03  2336   0.204E+00    0.116E-01
DAV:   4    -0.629791981960E+02    0.18391E-04   -0.89255E-04  1336   0.559E-01
  23 F= -.69997507E+02 E0= -.69988476E+02  d E =-.352752E-02  mag=     0.0000
       N       E                     dE             d eps       ncg     rms          rms(c)
DAV:   1    -0.629807385420E+02   -0.15220E-02   -0.32877E+00  1416   0.558E+00    0.225E-01
DAV:   2    -0.629959341052E+02   -0.15196E-01   -0.83280E-02  2416   0.411E+00    0.729E-01
DAV:   3    -0.629866791479E+02    0.92550E-02   -0.27369E-02  2448   0.359E+00    0.233E-01
DAV:   4    -0.629865435849E+02    0.13556E-03   -0.33002E-03  1568   0.100E+00    0.203E-01
DAV:   5    -0.629865163373E+02    0.27248E-04   -0.22745E-03  1632   0.131E+00    0.179E-01
DAV:   6    -0.629862855856E+02    0.23075E-03   -0.24308E-03  1672   0.155E+00    0.147E-01
DAV:   7    -0.629859374079E+02    0.34818E-03   -0.12517E-03  1448   0.105E+00    0.395E-02
DAV:   8    -0.629859476291E+02   -0.10221E-04   -0.32997E-04   888   0.263E-01
  24 F= -.70000173E+02 E0= -.69991208E+02  d E =-.619339E-02  mag=     0.0000
       N       E                     dE             d eps       ncg     rms          rms(c)
DAV:   1    -0.629663043228E+02    0.19633E-01   -0.13174E+01  1408   0.111E+01    0.375E-01
DAV:   2    -0.630532068529E+02   -0.86903E-01   -0.39943E-01  2528   0.104E+01    0.168E+00
DAV:   3    -0.629930450423E+02    0.60162E-01   -0.15607E-01  2560   0.851E+00    0.442E-01
DAV:   4    -0.629925245845E+02    0.52046E-03   -0.14322E-02  1944   0.199E+00    0.359E-01
DAV:   5    -0.629925891782E+02   -0.64594E-04   -0.72295E-03  1632   0.177E+00    0.338E-01
DAV:   6    -0.629915143415E+02    0.10748E-02   -0.68467E-03  1600   0.208E+00    0.260E-01
DAV:   7    -0.629907551336E+02    0.75921E-03   -0.51541E-03  1984   0.170E+00    0.520E-02
DAV:   8    -0.629907700776E+02   -0.14944E-04   -0.96356E-04  1356   0.525E-01
  25 F= -.69997097E+02 E0= -.69987951E+02  d E =-.311794E-02  mag=     0.0000
       N       E                     dE             d eps       ncg     rms          rms(c)
DAV:   1    -0.629779063443E+02    0.12849E-01   -0.63785E+00  1408   0.774E+00    0.271E-01
DAV:   2    -0.630159222123E+02   -0.38016E-01   -0.18086E-01  2496   0.660E+00    0.115E+00
DAV:   3    -0.629896225361E+02    0.26300E-01   -0.70128E-02  2544   0.568E+00    0.290E-01
DAV:   4    -0.629895687367E+02    0.53799E-04   -0.69952E-03  1664   0.110E+00    0.234E-01
DAV:   5    -0.629897979566E+02   -0.22922E-03   -0.37321E-03  1600   0.165E+00    0.252E-01
DAV:   6    -0.629893004939E+02    0.49746E-03   -0.39770E-03  1712   0.213E+00    0.195E-01
DAV:   7    -0.629886639803E+02    0.63651E-03   -0.23325E-03  1856   0.140E+00    0.318E-02
DAV:   8    -0.629886727183E+02   -0.87379E-05   -0.49988E-04   960   0.343E-01
  26 F= -.70000456E+02 E0= -.69991469E+02  d E =-.647691E-02  mag=     0.0000
       N       E                     dE             d eps       ncg     rms          rms(c)
DAV:   1    -0.629878005654E+02    0.86341E-03   -0.10697E-01  1408   0.103E+00    0.418E-02
DAV:   2    -0.629901275058E+02   -0.23269E-02   -0.64623E-03  1680   0.182E+00    0.328E-01
DAV:   3    -0.629878933060E+02    0.22342E-02   -0.46939E-03  1024   0.163E+00    0.333E-02
DAV:   4    -0.629880000124E+02   -0.10671E-03   -0.86658E-04  1312   0.326E-01
  27 F= -.70000505E+02 E0= -.69991449E+02  d E =-.652512E-02  mag=     0.0000
       N       E                     dE             d eps       ncg     rms          rms(c)
DAV:   1    -0.629883357224E+02   -0.44242E-03   -0.30294E-02  1528   0.596E-01    0.223E-02
DAV:   2    -0.629886966565E+02   -0.36093E-03   -0.10030E-03  1040   0.763E-01    0.130E-01
DAV:   3    -0.629883637188E+02    0.33294E-03   -0.89368E-04   896   0.743E-01    0.262E-02
DAV:   4    -0.629883746332E+02   -0.10914E-04   -0.13502E-04   832   0.219E-01
  28 F= -.70000493E+02 E0= -.69991697E+02  d E =-.651337E-02  mag=     0.0000
       N       E                     dE             d eps       ncg     rms          rms(c)
DAV:   1    -0.629881550792E+02    0.20864E-03   -0.10420E-02  1432   0.341E-01    0.131E-02
DAV:   2    -0.629882584728E+02   -0.10339E-03   -0.28353E-04   976   0.404E-01
  29 F= -.70000605E+02 E0= -.69991654E+02  d E =-.662598E-02  mag=     0.0000
       N       E                     dE             d eps       ncg     rms          rms(c)
DAV:   1    -0.629882808381E+02   -0.12576E-03   -0.26576E-03  1936   0.407E-01    0.130E-02
DAV:   2    -0.629883595129E+02   -0.78675E-04   -0.23746E-04   880   0.403E-01
  30 F= -.70000592E+02 E0= -.69991884E+02  d E =-.661260E-02  mag=     0.0000
       N       E                     dE             d eps       ncg     rms          rms(c)
DAV:   1    -0.629882109183E+02    0.69920E-04   -0.32339E-04   928   0.402E-01    0.324E-02
DAV:   2    -0.629897791580E+02   -0.15682E-02   -0.35248E-03  1024   0.158E+00    0.279E-01
DAV:   3    -0.629882249545E+02    0.15542E-02   -0.37392E-03   928   0.147E+00    0.416E-02
DAV:   4    -0.629882110228E+02    0.13932E-04   -0.14028E-04   864   0.326E-01
  31 F= -.70000494E+02 E0= -.69991680E+02  d E =-.651493E-02  mag=     0.0000
       N       E                     dE             d eps       ncg     rms          rms(c)
DAV:   1    -0.629882810636E+02   -0.56109E-04   -0.74729E-05   896   0.121E-01    0.902E-03
DAV:   2    -0.629883311680E+02   -0.50104E-04   -0.16288E-04   904   0.307E-01
  32 F= -.70000571E+02 E0= -.69991712E+02  d E =-.659146E-02  mag=     0.0000
       N       E                     dE             d eps       ncg     rms          rms(c)
DAV:   1    -0.629882582323E+02    0.22831E-04   -0.13662E-04   880   0.290E-01    0.107E-02
DAV:   2    -0.629884205307E+02   -0.16230E-03   -0.30242E-04   928   0.487E-01
  33 F= -.70000682E+02 E0= -.69991782E+02  d E =-.670263E-02  mag=     0.0000
       N       E                     dE             d eps       ncg     rms          rms(c)
DAV:   1    -0.629882756186E+02   -0.17386E-04   -0.33681E-04   880   0.477E-01    0.114E-02
DAV:   2    -0.629884081506E+02   -0.13253E-03   -0.37384E-04   864   0.479E-01
  34 F= -.70000654E+02 E0= -.69991874E+02  d E =-.667468E-02  mag=     0.0000
       N       E                     dE             d eps       ncg     rms          rms(c)
DAV:   1    -0.629897263786E+02   -0.14508E-02   -0.52909E-02  1832   0.828E-01    0.270E-02
DAV:   2    -0.629900799491E+02   -0.35357E-03   -0.74246E-04  1056   0.745E-01    0.137E-01
DAV:   3    -0.629897593259E+02    0.32062E-03   -0.10062E-03  1008   0.758E-01    0.341E-02
DAV:   4    -0.629897721487E+02   -0.12823E-04   -0.26588E-04   840   0.314E-01
  35 F= -.70001418E+02 E0= -.69992594E+02  d E =-.763679E-03  mag=     0.0000
       N       E                     dE             d eps       ncg     rms          rms(c)
DAV:   1    -0.629923793008E+02   -0.26200E-02   -0.41613E-01  1560   0.196E+00    0.641E-02
DAV:   2    -0.629932483561E+02   -0.86906E-03   -0.76695E-03  2208   0.883E-01    0.123E-01
DAV:   3    -0.629931885519E+02    0.59804E-04   -0.16025E-03  1264   0.937E-01
  36 F= -.70003195E+02 E0= -.69994379E+02  d E =-.254089E-02  mag=     0.0000
       N       E                     dE             d eps       ncg     rms          rms(c)
DAV:   1    -0.629924060373E+02    0.84232E-03   -0.16583E+00  1544   0.396E+00    0.149E-01
DAV:   2    -0.629955272283E+02   -0.31212E-02   -0.32110E-02  2152   0.159E+00    0.198E-01
DAV:   3    -0.629952890927E+02    0.23814E-03   -0.40311E-03  1640   0.149E+00    0.145E-01
DAV:   4    -0.629957856666E+02   -0.49657E-03   -0.26889E-03  1328   0.126E+00    0.204E-01
DAV:   5    -0.629951696476E+02    0.61602E-03   -0.30990E-03  1040   0.134E+00    0.110E-01
DAV:   6    -0.629950219079E+02    0.14774E-03   -0.11112E-03  1000   0.840E-01
  37 F= -.70001925E+02 E0= -.69992850E+02  d E =-.127048E-02  mag=     0.0000
       N       E                     dE             d eps       ncg     rms          rms(c)
DAV:   1    -0.629926774192E+02    0.24922E-02   -0.94082E-01  1536   0.295E+00    0.101E-01
DAV:   2    -0.629961022713E+02   -0.34249E-02   -0.19969E-02  2560   0.215E+00    0.339E-01
DAV:   3    -0.629943848338E+02    0.17174E-02   -0.84068E-03  2432   0.206E+00    0.135E-01
DAV:   4    -0.629941810287E+02    0.20381E-03   -0.11191E-03  1320   0.827E-01    0.867E-02
DAV:   5    -0.629941404444E+02    0.40584E-04   -0.42634E-04   992   0.467E-01
  38 F= -.70003368E+02 E0= -.69994241E+02  d E =-.271399E-02  mag=     0.0000
       N       E                     dE             d eps       ncg     rms          rms(c)
DAV:   1    -0.629952771112E+02   -0.10961E-02   -0.57355E-02  1752   0.835E-01    0.518E-02
DAV:   2    -0.629954170397E+02   -0.13993E-03   -0.12966E-03  1728   0.899E-01
  39 F= -.70004131E+02 E0= -.69995262E+02  d E =-.762672E-03  mag=     0.0000
       N       E                     dE             d eps       ncg     rms          rms(c)
DAV:   1    -0.629975151652E+02   -0.22381E-02   -0.51142E-01  1568   0.235E+00    0.963E-02
DAV:   2    -0.630199533523E+02   -0.22438E-01   -0.56971E-02  2672   0.560E+00    0.976E-01
DAV:   3    -0.629982577738E+02    0.21696E-01   -0.43701E-02  2528   0.485E+00    0.104E-01
DAV:   4    -0.629983282098E+02   -0.70436E-04   -0.24626E-03  2176   0.808E-01    0.617E-02
DAV:   5    -0.629983691555E+02   -0.40946E-04   -0.87645E-04  1392   0.400E-01
  40 F= -.70005567E+02 E0= -.69996574E+02  d E =-.219841E-02  mag=     0.0000
       N       E                     dE             d eps       ncg     rms          rms(c)
DAV:   1    -0.629978906343E+02    0.43758E-03   -0.20355E+00  1496   0.433E+00    0.121E-01
DAV:   2    -0.630015200030E+02   -0.36294E-02   -0.37145E-02  2064   0.142E+00    0.184E-01
DAV:   3    -0.630018326979E+02   -0.31269E-03   -0.42219E-03  1568   0.148E+00    0.198E-01
DAV:   4    -0.630013091716E+02    0.52353E-03   -0.20222E-03  1248   0.105E+00    0.102E-01
DAV:   5    -0.630012680518E+02    0.41120E-04   -0.38540E-04   880   0.567E-01
  41 F= -.70005560E+02 E0= -.69996775E+02  d E =-.219220E-02  mag=     0.0000
       N       E                     dE             d eps       ncg     rms          rms(c)
DAV:   1    -0.629990962856E+02    0.22129E-02   -0.60618E-01  1536   0.249E+00    0.907E-02
DAV:   2    -0.630016390439E+02   -0.25428E-02   -0.13941E-02  2592   0.238E+00    0.260E-01
DAV:   3    -0.630011980366E+02    0.44101E-03   -0.93673E-03  1968   0.240E+00    0.246E-01
DAV:   4    -0.630001536255E+02    0.10444E-02   -0.35028E-03  1488   0.148E+00    0.781E-02
DAV:   5    -0.630001204707E+02    0.33155E-04   -0.55210E-04  1056   0.436E-01
  42 F= -.70005983E+02 E0= -.69996904E+02  d E =-.261510E-02  mag=     0.0000
       N       E                     dE             d eps       ncg     rms          rms(c)
DAV:   1    -0.629998851495E+02    0.26848E-03   -0.13780E-02  1560   0.397E-01    0.371E-02
DAV:   2    -0.629998975753E+02   -0.12426E-04   -0.20214E-04   864   0.374E-01
  43 F= -.70006000E+02 E0= -.69997122E+02  d E =-.263166E-02  mag=     0.0000
       N       E                     dE             d eps       ncg     rms          rms(c)
DAV:   1    -0.630000928304E+02   -0.20768E-03   -0.49718E-03  2080   0.582E-01    0.593E-02
DAV:   2    -0.630116013118E+02   -0.11508E-01   -0.26533E-02  1440   0.406E+00    0.725E-01
DAV:   3    -0.630000314033E+02    0.11570E-01   -0.22105E-02  1200   0.355E+00    0.609E-02
DAV:   4    -0.630000084743E+02    0.22929E-04   -0.17198E-04   920   0.459E-01
  44 F= -.70005970E+02 E0= -.69996833E+02  d E =-.260152E-02  mag=     0.0000
       N       E                     dE             d eps       ncg     rms          rms(c)
DAV:   1    -0.629999523535E+02    0.79050E-04   -0.11634E-03  1488   0.148E-01    0.922E-03
DAV:   2    -0.629999586544E+02   -0.63008E-05   -0.32224E-05   840   0.156E-01
  45 F= -.70005990E+02 E0= -.69997024E+02  d E =-.262217E-02  mag=     0.0000
       N       E                     dE             d eps       ncg     rms          rms(c)
DAV:   1    -0.629999757549E+02   -0.23401E-04   -0.12742E-04   768   0.171E-01    0.134E-02
DAV:   2    -0.630000424637E+02   -0.66709E-04   -0.24132E-04   792   0.386E-01
  46 F= -.70006034E+02 E0= -.69997154E+02  d E =-.266558E-02  mag=     0.0000
       N       E                     dE             d eps       ncg     rms          rms(c)
DAV:   1    -0.629999754061E+02    0.34885E-06   -0.21965E-04   832   0.378E-01    0.264E-02
DAV:   2    -0.630016031160E+02   -0.16277E-02   -0.37828E-03   960   0.154E+00    0.277E-01
DAV:   3    -0.629999634921E+02    0.16396E-02   -0.34254E-03   928   0.143E+00    0.338E-02
DAV:   4    -0.629999629572E+02    0.53486E-06   -0.48532E-05   848   0.266E-01
  47 F= -.70005987E+02 E0= -.69996971E+02  d E =-.261899E-02  mag=     0.0000
       N       E                     dE             d eps       ncg     rms          rms(c)
DAV:   1    -0.629999791493E+02   -0.15657E-04   -0.12979E-05   880   0.693E-02    0.426E-03
DAV:   2    -0.629999842594E+02   -0.51100E-05   -0.23521E-05   760   0.105E-01
  48 F= -.70005992E+02 E0= -.69996951E+02  d E =-.262383E-02  mag=     0.0000
       N       E                     dE             d eps       ncg     rms          rms(c)
DAV:   1    -0.629999747856E+02    0.43638E-05   -0.21542E-05   728   0.113E-01    0.853E-03
DAV:   2    -0.630001086801E+02   -0.13389E-03   -0.27642E-04   848   0.448E-01
  49 F= -.70006124E+02 E0= -.69996988E+02  d E =-.275582E-02  mag=     0.0000
       N       E                     dE             d eps       ncg     rms          rms(c)
DAV:   1    -0.630010005453E+02   -0.10258E-02   -0.30618E-02  2064   0.674E-01    0.170E-02
DAV:   2    -0.630011314333E+02   -0.13089E-03   -0.40787E-04   928   0.515E-01
  50 F= -.70006394E+02 E0= -.69997575E+02  d E =-.269733E-03  mag=     0.0000
       N       E                     dE             d eps       ncg     rms          rms(c)
DAV:   1    -0.630035609269E+02   -0.25604E-02   -0.27066E-01  1536   0.164E+00    0.509E-02
DAV:   2    -0.630055614492E+02   -0.20005E-02   -0.74304E-03  2544   0.161E+00    0.278E-01
DAV:   3    -0.630039975389E+02    0.15639E-02   -0.42423E-03  1440   0.155E+00    0.611E-02
DAV:   4    -0.630040385581E+02   -0.41019E-04   -0.63928E-04  1184   0.395E-01
  51 F= -.70007046E+02 E0= -.69998080E+02  d E =-.922320E-03  mag=     0.0000
       N       E                     dE             d eps       ncg     rms          rms(c)
DAV:   1    -0.630077569338E+02   -0.37594E-02   -0.10786E+00  1528   0.314E+00    0.894E-02
DAV:   2    -0.630098242414E+02   -0.20673E-02   -0.19699E-02  2104   0.123E+00    0.163E-01
DAV:   3    -0.630097000438E+02    0.12420E-03   -0.28449E-03  1520   0.115E+00    0.133E-01
DAV:   4    -0.630095475325E+02    0.15251E-03   -0.98916E-04  1208   0.671E-01
  52 F= -.70008066E+02 E0= -.69998864E+02  d E =-.194173E-02  mag=     0.0000
       N       E                     dE             d eps       ncg     rms          rms(c)
DAV:   1    -0.630117090272E+02   -0.20090E-02   -0.11880E-01  1496   0.108E+00    0.855E-02
DAV:   2    -0.630119504471E+02   -0.24142E-03   -0.22505E-03  2048   0.805E-01    0.113E-01
DAV:   3    -0.630120426810E+02   -0.92234E-04   -0.18076E-03  1024   0.110E+00
  53 F= -.70008846E+02 E0= -.69999808E+02  d E =-.780203E-03  mag=     0.0000
       N       E                     dE             d eps       ncg     rms          rms(c)
DAV:   1    -0.630163563801E+02   -0.44059E-02   -0.10531E+00  1488   0.321E+00    0.129E-01
DAV:   2    -0.630242535968E+02   -0.78972E-02   -0.29690E-02  2624   0.323E+00    0.570E-01
DAV:   3    -0.630180436556E+02    0.62099E-02   -0.17872E-02  2416   0.307E+00    0.160E-01
DAV:   4    -0.630178862613E+02    0.15739E-03   -0.19745E-03  1712   0.106E+00
  54 F= -.70009605E+02 E0= -.70000909E+02  d E =-.153886E-02  mag=     0.0000
       N       E                     dE             d eps       ncg     rms          rms(c)
DAV:   1    -0.630195705467E+02   -0.15269E-02   -0.41988E+00  1488   0.624E+00    0.218E-01
DAV:   2    -0.630284056538E+02   -0.88351E-02   -0.81205E-02  2096   0.286E+00    0.389E-01
DAV:   3    -0.630276548887E+02    0.75077E-03   -0.14119E-02  2000   0.279E+00    0.311E-01
DAV:   4    -0.630264672658E+02    0.11876E-02   -0.63034E-03  1552   0.179E+00    0.206E-01
DAV:   5    -0.630261723690E+02    0.29490E-03   -0.16419E-03  1584   0.996E-01    0.157E-01
DAV:   6    -0.630260307888E+02    0.14158E-03   -0.18232E-03  1712   0.124E+00
  55 F= -.70007911E+02 E0= -.69998812E+02  d E =0.154796E-03  mag=     0.0000
       N       E                     dE             d eps       ncg     rms          rms(c)
DAV:   1    -0.630193399222E+02    0.68324E-02   -0.14796E+00  1488   0.376E+00    0.124E-01
DAV:   2    -0.630250553506E+02   -0.57154E-02   -0.35355E-02  2424   0.297E+00    0.420E-01
DAV:   3    -0.630228207215E+02    0.22346E-02   -0.15542E-02  2544   0.280E+00    0.247E-01
DAV:   4    -0.630218193342E+02    0.10014E-02   -0.22812E-03  1392   0.129E+00    0.113E-01
DAV:   5    -0.630217855160E+02    0.33818E-04   -0.66871E-04  1240   0.456E-01
  56 F= -.70009434E+02 E0= -.70000300E+02  d E =-.136820E-02  mag=     0.0000
       N       E                     dE             d eps       ncg     rms          rms(c)
DAV:   1    -0.630198776157E+02    0.19417E-02   -0.14788E-01  1520   0.124E+00    0.848E-02
DAV:   2    -0.630200789902E+02   -0.20137E-03   -0.28003E-03  2272   0.909E-01    0.920E-02
DAV:   3    -0.630200834351E+02   -0.44449E-05   -0.95215E-04  1016   0.835E-01
  57 F= -.70009597E+02 E0= -.70000609E+02  d E =-.153163E-02  mag=     0.0000
       N       E                     dE             d eps       ncg     rms          rms(c)
DAV:   1    -0.630189191476E+02    0.11598E-02   -0.56433E-02  2056   0.101E+00    0.849E-02
DAV:   2    -0.630300687245E+02   -0.11150E-01   -0.25120E-02  1712   0.395E+00    0.729E-01
DAV:   3    -0.630187388930E+02    0.11330E-01   -0.21928E-02  1232   0.353E+00    0.520E-02
DAV:   4    -0.630188478771E+02   -0.10898E-03   -0.41108E-04   912   0.545E-01
  58 F= -.70009508E+02 E0= -.70000275E+02  d E =-.144223E-02  mag=     0.0000
       N       E                     dE             d eps       ncg     rms          rms(c)
DAV:   1    -0.630196219140E+02   -0.88302E-03   -0.13820E-02  2096   0.607E-01    0.347E-02
DAV:   2    -0.630202646420E+02   -0.64273E-03   -0.15845E-03  1040   0.124E+00    0.174E-01
DAV:   3    -0.630198079458E+02    0.45670E-03   -0.20678E-03   992   0.117E+00    0.103E-01
DAV:   4    -0.630196129964E+02    0.19495E-03   -0.44996E-04   904   0.619E-01
  59 F= -.70009643E+02 E0= -.70000726E+02  d E =-.135057E-03  mag=     0.0000
       N       E                     dE             d eps       ncg     rms          rms(c)
DAV:   1    -0.630217999826E+02   -0.19920E-02   -0.12152E-01  1496   0.106E+00    0.281E-02
DAV:   2    -0.630221144502E+02   -0.31447E-03   -0.23555E-03  1960   0.547E-01    0.865E-02
DAV:   3    -0.630220141279E+02    0.10032E-03   -0.53863E-04   944   0.521E-01
  60 F= -.70010155E+02 E0= -.70001293E+02  d E =-.646708E-03  mag=     0.0000
       N       E                     dE             d eps       ncg     rms          rms(c)
DAV:   1    -0.630259827276E+02   -0.38683E-02   -0.48466E-01  1504   0.211E+00    0.673E-02
DAV:   2    -0.630269005862E+02   -0.91786E-03   -0.91649E-03  2024   0.896E-01    0.107E-01
DAV:   3    -0.630267613066E+02    0.13928E-03   -0.79238E-04  1288   0.662E-01
  61 F= -.70011126E+02 E0= -.70002191E+02  d E =-.161792E-02  mag=     0.0000
       N       E                     dE             d eps       ncg     rms          rms(c)
DAV:   1    -0.630331024040E+02   -0.62018E-02   -0.19379E+00  1480   0.419E+00    0.139E-01
DAV:   2    -0.630407318840E+02   -0.76295E-02   -0.41887E-02  2448   0.295E+00    0.508E-01
DAV:   3    -0.630362058490E+02    0.45260E-02   -0.15701E-02  2384   0.271E+00    0.154E-01
DAV:   4    -0.630361077371E+02    0.98112E-04   -0.15445E-03  1456   0.631E-01
  62 F= -.70012932E+02 E0= -.70003987E+02  d E =-.342433E-02  mag=     0.0000
       N       E                     dE             d eps       ncg     rms          rms(c)
DAV:   1    -0.630421030373E+02   -0.58972E-02   -0.77189E+00  1472   0.836E+00    0.265E-01
DAV:   2    -0.630550723151E+02   -0.12969E-01   -0.14178E-01  1912   0.221E+00    0.334E-01
DAV:   3    -0.630557801931E+02   -0.70788E-03   -0.80024E-03  1664   0.215E+00    0.357E-01
DAV:   4    -0.630542633130E+02    0.15169E-02   -0.50345E-03  1584   0.167E+00    0.244E-01
DAV:   5    -0.630540344020E+02    0.22891E-03   -0.17162E-03  1360   0.132E+00    0.230E-01
DAV:   6    -0.630542058526E+02   -0.17145E-03   -0.48646E-03  1984   0.241E+00    0.213E-01
DAV:   7    -0.630529955169E+02    0.12103E-02   -0.33501E-03  2088   0.159E+00    0.348E-02
DAV:   8    -0.630530140410E+02   -0.18524E-04   -0.53059E-04  1136   0.290E-01
  63 F= -.70014806E+02 E0= -.70006345E+02  d E =-.529792E-02  mag=     0.0000
       N       E                     dE             d eps       ncg     rms          rms(c)
DAV:   1    -0.630565811857E+02   -0.35857E-02   -0.12070E-01  1472   0.106E+00    0.602E-02
DAV:   2    -0.630571450119E+02   -0.56383E-03   -0.30184E-03  1976   0.887E-01    0.148E-01
DAV:   3    -0.630568013066E+02    0.34371E-03   -0.15099E-03  1040   0.939E-01    0.673E-02
DAV:   4    -0.630568016319E+02   -0.32534E-06   -0.35984E-04   896   0.556E-01
  64 F= -.70016411E+02 E0= -.70007637E+02  d E =-.160504E-02  mag=     0.0000
       N       E                     dE             d eps       ncg     rms          rms(c)
DAV:   1    -0.630581582990E+02   -0.13570E-02   -0.35986E-02  1976   0.714E-01    0.488E-02
DAV:   2    -0.630582045129E+02   -0.46214E-04   -0.46307E-04  1096   0.518E-01
  65 F= -.70016683E+02 E0= -.70007990E+02  d E =-.187765E-02  mag=     0.0000
       N       E                     dE             d eps       ncg     rms          rms(c)
DAV:   1    -0.630590823206E+02   -0.92402E-03   -0.42250E-02  2104   0.858E-01    0.637E-02
DAV:   2    -0.630675923103E+02   -0.85100E-02   -0.18265E-02  1456   0.351E+00    0.645E-01
DAV:   3    -0.630589900490E+02    0.86023E-02   -0.16198E-02  1136   0.306E+00    0.592E-02
DAV:   4    -0.630590329651E+02   -0.42916E-04   -0.25126E-04   944   0.511E-01
  66 F= -.70017012E+02 E0= -.70008855E+02  d E =-.328709E-03  mag=     0.0000
       N       E                     dE             d eps       ncg     rms          rms(c)
DAV:   1    -0.630605813577E+02   -0.15913E-02   -0.37076E-01  1512   0.187E+00    0.493E-02
DAV:   2    -0.630614168965E+02   -0.83554E-03   -0.78416E-03  2112   0.731E-01    0.105E-01
DAV:   3    -0.630613372810E+02    0.79615E-04   -0.10705E-03  1216   0.689E-01
  67 F= -.70017822E+02 E0= -.70009523E+02  d E =-.113897E-02  mag=     0.0000
       N       E                     dE             d eps       ncg     rms          rms(c)
DAV:   1    -0.630619315436E+02   -0.51465E-03   -0.53019E-02  1744   0.774E-01    0.571E-02
DAV:   2    -0.630622765903E+02   -0.34505E-03   -0.10755E-03  1040   0.776E-01    0.146E-01
DAV:   3    -0.630619227812E+02    0.35381E-03   -0.12076E-03   976   0.840E-01    0.467E-02
DAV:   4    -0.630619431599E+02   -0.20379E-04   -0.23642E-04   824   0.383E-01
  68 F= -.70017873E+02 E0= -.70009403E+02  d E =-.118926E-02  mag=     0.0000
       N       E                     dE             d eps       ncg     rms          rms(c)
DAV:   1    -0.630624928869E+02   -0.57011E-03   -0.15351E-02  2000   0.601E-01    0.318E-02
DAV:   2    -0.630627840803E+02   -0.29119E-03   -0.73350E-04  1088   0.947E-01    0.114E-01
DAV:   3    -0.630625575344E+02    0.22655E-03   -0.63138E-04   992   0.824E-01    0.617E-02
DAV:   4    -0.630624931736E+02    0.64361E-04   -0.20811E-04   912   0.355E-01
  69 F= -.70018046E+02 E0= -.70009851E+02  d E =-.173209E-03  mag=     0.0000
       N       E                     dE             d eps       ncg     rms          rms(c)
DAV:   1    -0.630630286747E+02   -0.47114E-03   -0.22561E-02  1416   0.469E-01    0.299E-02
DAV:   2    -0.630630650929E+02   -0.36418E-04   -0.33674E-04   968   0.236E-01
  70 F= -.70018163E+02 E0= -.70010009E+02  d E =-.290419E-03  mag=     0.0000
       N       E                     dE             d eps       ncg     rms          rms(c)
DAV:   1    -0.630635131871E+02   -0.48451E-03   -0.49573E-03  1992   0.415E-01    0.390E-02
DAV:   2    -0.630658872104E+02   -0.23740E-02   -0.52097E-03  1072   0.184E+00    0.339E-01
DAV:   3    -0.630634426904E+02    0.24445E-02   -0.45322E-03   976   0.164E+00    0.229E-02
DAV:   4    -0.630634914987E+02   -0.48808E-04   -0.38374E-05   888   0.168E-01
  71 F= -.70018283E+02 E0= -.70010181E+02  d E =-.119772E-03  mag=     0.0000
       N       E                     dE             d eps       ncg     rms          rms(c)
DAV:   1    -0.630646659692E+02   -0.12233E-02   -0.37816E-02  1424   0.623E-01    0.279E-02
DAV:   2    -0.630647578735E+02   -0.91904E-04   -0.60099E-04  1096   0.445E-01
  72 F= -.70018631E+02 E0= -.70010870E+02  d E =-.467757E-03  mag=     0.0000
       N       E                     dE             d eps       ncg     rms          rms(c)
DAV:   1    -0.630667806675E+02   -0.21147E-02   -0.15389E-01  1424   0.127E+00    0.750E-02
DAV:   2    -0.630696331700E+02   -0.28525E-02   -0.89320E-03  2208   0.199E+00    0.364E-01
DAV:   3    -0.630669555073E+02    0.26777E-02   -0.59993E-03  1200   0.186E+00    0.662E-02
DAV:   4    -0.630670339820E+02   -0.78475E-04   -0.72470E-04  1144   0.451E-01
  73 F= -.70019077E+02 E0= -.70011417E+02  d E =-.913695E-03  mag=     0.0000
       N       E                     dE             d eps       ncg     rms          rms(c)
DAV:   1    -0.630695640265E+02   -0.26085E-02   -0.60240E-01  1424   0.243E+00    0.111E-01
DAV:   2    -0.630717813479E+02   -0.22173E-02   -0.16474E-02  2368   0.176E+00    0.232E-01
DAV:   3    -0.630712317668E+02    0.54958E-03   -0.51874E-03  1824   0.169E+00    0.180E-01
DAV:   4    -0.630707996254E+02    0.43214E-03   -0.15765E-03  1256   0.967E-01    0.991E-02
DAV:   5    -0.630707437409E+02    0.55885E-04   -0.47227E-04  1064   0.343E-01
  74 F= -.70019151E+02 E0= -.70011477E+02  d E =-.987479E-03  mag=     0.0000
       N       E                     dE             d eps       ncg     rms          rms(c)
DAV:   1    -0.630710222577E+02   -0.22263E-03   -0.26456E-03  1984   0.544E-01    0.620E-02
DAV:   2    -0.630716663731E+02   -0.64412E-03   -0.20705E-03  1488   0.148E+00    0.188E-01
DAV:   3    -0.630714900198E+02    0.17635E-03   -0.37605E-03  1040   0.154E+00    0.163E-01
DAV:   4    -0.630709816202E+02    0.50840E-03   -0.12642E-03   920   0.939E-01    0.356E-02
DAV:   5    -0.630709661641E+02    0.15456E-04   -0.84380E-05   848   0.297E-01
  75 F= -.70019145E+02 E0= -.70011289E+02  d E =0.573946E-05  mag=     0.0000
       N       E                     dE             d eps       ncg     rms          rms(c)
DAV:   1    -0.630710364866E+02   -0.54866E-04   -0.21163E-04   864   0.156E-01    0.170E-02
DAV:   2    -0.630710660996E+02   -0.29613E-04   -0.19581E-04   720   0.311E-01
  76 F= -.70019171E+02 E0= -.70011357E+02  d E =-.200617E-04  mag=     0.0000
       N       E                     dE             d eps       ncg     rms          rms(c)
DAV:   1    -0.630710212473E+02    0.15239E-04   -0.23496E-04   880   0.381E-01    0.434E-02
DAV:   2    -0.630774081708E+02   -0.63869E-02   -0.13667E-02  1072   0.301E+00    0.551E-01
DAV:   3    -0.630709066389E+02    0.65015E-02   -0.11760E-02  1056   0.261E+00    0.266E-02
DAV:   4    -0.630709832898E+02   -0.76651E-04   -0.45110E-05   928   0.238E-01
  77 F= -.70019150E+02 E0= -.70011251E+02  d E =0.867108E-06  mag=     0.0000
       N       E                     dE             d eps       ncg     rms          rms(c)
DAV:   1    -0.630710186875E+02   -0.11205E-03   -0.27417E-05   880   0.144E-01    0.793E-03
DAV:   2    -0.630710965986E+02   -0.77911E-04   -0.18656E-04   928   0.354E-01
  78 F= -.70019232E+02 E0= -.70011345E+02  d E =-.815014E-04  mag=     0.0000
       N       E                     dE             d eps       ncg     rms          rms(c)
DAV:   1    -0.630710917485E+02   -0.73061E-04   -0.21640E-04   936   0.344E-01    0.158E-02
DAV:   2    -0.630713514490E+02   -0.25970E-03   -0.54743E-04   928   0.649E-01    0.112E-01
DAV:   3    -0.630711051190E+02    0.24633E-03   -0.64738E-04   912   0.635E-01    0.310E-02
DAV:   4    -0.630710932030E+02    0.11916E-04   -0.51220E-05   832   0.214E-01
  79 F= -.70019225E+02 E0= -.70011424E+02  d E =0.733383E-05  mag=     0.0000
       N       E                     dE             d eps       ncg     rms          rms(c)
DAV:   1    -0.630713110487E+02   -0.20593E-03   -0.14246E-03  1376   0.125E-01    0.105E-02
DAV:   2    -0.630713288682E+02   -0.17820E-04   -0.59073E-05   896   0.177E-01
  80 F= -.70019450E+02 E0= -.70011702E+02  d E =-.217575E-03  mag=     0.0000
       N       E                     dE             d eps       ncg     rms          rms(c)
DAV:   1    -0.630716373084E+02   -0.32626E-03   -0.38945E-03  1944   0.262E-01    0.238E-02
DAV:   2    -0.630717477929E+02   -0.11048E-03   -0.27431E-04   952   0.396E-01
  81 F= -.70019852E+02 E0= -.70012029E+02  d E =-.619928E-03  mag=     0.0000
       N       E                     dE             d eps       ncg     rms          rms(c)
DAV:   1    -0.630718897328E+02   -0.25242E-03   -0.15377E-02  1952   0.552E-01    0.478E-02
DAV:   2    -0.630721321091E+02   -0.24238E-03   -0.80586E-04   992   0.639E-01    0.115E-01
DAV:   3    -0.630718892156E+02    0.24289E-03   -0.74827E-04   912   0.671E-01    0.428E-02
DAV:   4    -0.630719351698E+02   -0.45954E-04   -0.15918E-04   856   0.460E-01
  82 F= -.70020028E+02 E0= -.70011861E+02  d E =-.795510E-03  mag=     0.0000
       N       E                     dE             d eps       ncg     rms          rms(c)
DAV:   1    -0.630719197122E+02   -0.30497E-04   -0.74957E-04  1296   0.446E-01    0.241E-02
DAV:   2    -0.630720964394E+02   -0.17673E-03   -0.73447E-04  1072   0.701E-01
  83 F= -.70020134E+02 E0= -.70011955E+02  d E =-.106029E-03  mag=     0.0000
       N       E                     dE             d eps       ncg     rms          rms(c)
DAV:   1    -0.630719966733E+02   -0.76961E-04   -0.69935E-04   928   0.689E-01    0.705E-02
DAV:   2    -0.630860099796E+02   -0.14013E-01   -0.29692E-02  1616   0.452E+00    0.813E-01
DAV:   3    -0.630718896100E+02    0.14120E-01   -0.26339E-02  1440   0.388E+00    0.701E-02
DAV:   4    -0.630719036872E+02   -0.14077E-04   -0.23223E-04   928   0.550E-01
  84 F= -.70019972E+02 E0= -.70012054E+02  d E =0.556981E-04  mag=     0.0000
       N       E                     dE             d eps       ncg     rms          rms(c)
DAV:   1    -0.630719452144E+02   -0.55604E-04   -0.12266E-04   872   0.198E-01    0.149E-02
DAV:   2    -0.630721482769E+02   -0.20306E-03   -0.64687E-04   912   0.603E-01    0.998E-02
DAV:   3    -0.630719564946E+02    0.19178E-03   -0.55770E-04   896   0.577E-01
  85 F= -.70020009E+02 E0= -.70012139E+02  d E =0.190199E-04  mag=     0.0000
       N       E                     dE             d eps       ncg     rms          rms(c)
DAV:   1    -0.630719565308E+02    0.19175E-03   -0.30890E-05   816   0.159E-01    0.818E-03
DAV:   2    -0.630720147133E+02   -0.58182E-04   -0.15720E-04   928   0.359E-01
  86 F= -.70020064E+02 E0= -.70012057E+02  d E =-.367924E-04  mag=     0.0000
       N       E                     dE             d eps       ncg     rms          rms(c)
DAV:   1    -0.630719782865E+02   -0.21756E-04   -0.17902E-04   896   0.338E-01    0.263E-02
DAV:   2    -0.630736598507E+02   -0.16816E-02   -0.36431E-03  1008   0.160E+00    0.283E-01
DAV:   3    -0.630719765361E+02    0.16833E-02   -0.33527E-03   960   0.142E+00    0.414E-02
DAV:   4    -0.630719673766E+02    0.91595E-05   -0.71304E-05   840   0.298E-01
  87 F= -.70020011E+02 E0= -.70012201E+02  d E =0.167892E-04  mag=     0.0000
       N       E                     dE             d eps       ncg     rms          rms(c)
DAV:   1    -0.630719731557E+02    0.33804E-05   -0.70712E-05   872   0.534E-02    0.601E-03
DAV:   2    -0.630720106522E+02   -0.37497E-04   -0.10126E-04   880   0.234E-01
  88 F= -.70020057E+02 E0= -.70012254E+02  d E =-.289242E-04  mag=     0.0000
       N       E                     dE             d eps       ncg     rms          rms(c)
DAV:   1    -0.630719768499E+02   -0.36942E-05   -0.94073E-05   864   0.238E-01    0.756E-03
DAV:   2    -0.630719881297E+02   -0.11280E-04   -0.20232E-05   816   0.152E-01
  89 F= -.70020032E+02 E0= -.70012309E+02  d E =-.449994E-05  mag=     0.0000
       N       E                     dE             d eps       ncg     rms          rms(c)
DAV:   1    -0.630719852059E+02   -0.83560E-05   -0.53772E-05   872   0.192E-01    0.176E-02
DAV:   2    -0.630731179839E+02   -0.11328E-02   -0.27345E-03   992   0.126E+00    0.233E-01
DAV:   3    -0.630719559575E+02    0.11620E-02   -0.22495E-03   960   0.116E+00    0.126E-02
DAV:   4    -0.630719786070E+02   -0.22649E-04   -0.45055E-06   816   0.824E-02
  90 F= -.70020022E+02 E0= -.70012282E+02  d E =0.542583E-05  mag=     0.0000
       N       E                     dE             d eps       ncg     rms          rms(c)
DAV:   1    -0.630719809472E+02   -0.24990E-04   -0.13106E-05   848   0.695E-02    0.584E-03
DAV:   2    -0.630719964768E+02   -0.15530E-04   -0.39503E-05   792   0.188E-01
  91 F= -.70020040E+02 E0= -.70012372E+02  d E =-.123418E-04  mag=     0.0000
       N       E                     dE             d eps       ncg     rms          rms(c)
DAV:   1    -0.630719855185E+02   -0.45713E-05   -0.52937E-05   824   0.189E-01    0.149E-02
DAV:   2    -0.630726036900E+02   -0.61817E-03   -0.13248E-03   944   0.942E-01    0.172E-01
DAV:   3    -0.630719732636E+02    0.63043E-03   -0.11929E-03   888   0.863E-01    0.188E-02
DAV:   4    -0.630719811387E+02   -0.78751E-05   -0.14148E-05   816   0.142E-01
  92 F= -.70020025E+02 E0= -.70012270E+02  d E =0.302097E-05  mag=     0.0000
       N       E                     dE             d eps       ncg     rms          rms(c)
DAV:   1    -0.630719820677E+02   -0.88041E-05   -0.56864E-06   880   0.365E-02    0.318E-03
DAV:   2    -0.630719841414E+02   -0.20737E-05   -0.83502E-06   720   0.682E-02
  93 F= -.70020028E+02 E0= -.70012257E+02  d E =0.232297E-07  mag=     0.0000
       N       E                     dE             d eps       ncg     rms          rms(c)
DAV:   1    -0.630719836163E+02   -0.15486E-05   -0.11245E-05   736   0.831E-02    0.792E-03
DAV:   2    -0.630721531556E+02   -0.16954E-03   -0.41250E-04   928   0.493E-01
  94 F= -.70020197E+02 E0= -.70012425E+02  d E =-.168990E-03  mag=     0.0000
       N       E                     dE             d eps       ncg     rms          rms(c)
DAV:   1    -0.630719768778E+02    0.67385E-05   -0.35596E-04   896   0.461E-01    0.641E-03
DAV:   2    -0.630720085319E+02   -0.31654E-04   -0.44626E-05   808   0.195E-01
  95 F= -.70020052E+02 E0= -.70012306E+02  d E =-.243662E-04  mag=     0.0000
       N       E                     dE             d eps       ncg     rms          rms(c)
DAV:   1    -0.630719823578E+02   -0.54800E-05   -0.58941E-05   848   0.199E-01    0.814E-03
DAV:   2    -0.630720828759E+02   -0.10052E-03   -0.25122E-04   912   0.390E-01
  96 F= -.70020126E+02 E0= -.70012284E+02  d E =-.987101E-04  mag=     0.0000
       N       E                     dE             d eps       ncg     rms          rms(c)
DAV:   1    -0.630719810503E+02    0.13075E-05   -0.22363E-04   888   0.371E-01    0.121E-02
DAV:   2    -0.630721218822E+02   -0.14083E-03   -0.25642E-04   896   0.470E-01
  97 F= -.70020165E+02 E0= -.70012588E+02  d E =-.137716E-03  mag=     0.0000
       N       E                     dE             d eps       ncg     rms          rms(c)
DAV:   1    -0.630718176875E+02    0.16336E-03   -0.48043E-04   976   0.482E-01    0.284E-02
DAV:   2    -0.630729317865E+02   -0.11141E-02   -0.28081E-03   928   0.134E+00    0.235E-01
DAV:   3    -0.630718425749E+02    0.10892E-02   -0.26149E-03   928   0.125E+00    0.450E-02
DAV:   4    -0.630718354576E+02    0.71172E-05   -0.18506E-04   816   0.331E-01
  98 F= -.70019928E+02 E0= -.70012221E+02  d E =0.997122E-04  mag=     0.0000
