<?xml version="1.0" encoding="ISO-8859-1"?>
<modeling>
 <generator>
  <i name="program" type="string">vasp </i>
  <i name="version" type="string">6.3.2  </i>
  <i name="subversion" type="string">27Jun22 (build Aug 17 2022 15:43:34) complex                          parallel </i>
  <i name="platform" type="string">tv2STDVTST </i>
  <i name="date" type="string">2025 02 04 </i>
  <i name="time" type="string">12:16:24 </i>
 </generator>
 <incar>
  <i type="int" name="ISTART">     0</i>
  <i type="string" name="PREC">Normal</i>
  <i type="int" name="ISPIN">     2</i>
  <i type="int" name="ICHARG">     2</i>
  <i type="int" name="IBRION">     2</i>
  <i name="EDIFF">      0.00020000</i>
  <i name="EDIFFG">     -0.03000000</i>
  <i type="int" name="NSW">   800</i>
  <i type="int" name="ISIF">     2</i>
  <i type="int" name="ISYM">     1</i>
  <i name="ENCUT">    400.00000000</i>
  <i name="POTIM">      0.50000000</i>
  <i type="logical" name="LREAL"> F  </i>
  <i type="int" name="ISMEAR">     1</i>
  <i name="SIGMA">      0.20000000</i>
  <i type="logical" name="LWAVE"> F  </i>
  <i type="logical" name="LCHARG"> F  </i>
  <i type="string" name="GGA">PE</i>
  <i type="int" name="IVDW">    11</i>
 </incar>
 <primitive_cell>
  <structure name="primitive_cell" >
   <crystal>
    <varray name="basis" >
     <v>       3.63000011       0.00000000       0.00000000 </v>
     <v>       0.00000000       3.63000011       0.00000000 </v>
     <v>       0.00000000       0.00000000      27.70499992 </v>
    </varray>
    <i name="volume">    365.06603650 </i>
    <varray name="rec_basis" >
     <v>       0.27548208       0.00000000       0.00000000 </v>
     <v>       0.00000000       0.27548208       0.00000000 </v>
     <v>       0.00000000       0.00000000       0.03609457 </v>
    </varray>
   </crystal>
   <varray name="positions" >
    <v>       0.00000000       0.00000000       0.00000000 </v>
    <v>       0.50000000       0.50000000       0.00000000 </v>
    <v>       0.00000000       0.50000000       0.06551164 </v>
    <v>       0.50000000       0.00000000       0.06551164 </v>
    <v>       0.00000000       0.00000000       0.12876120 </v>
    <v>       0.50000000       0.50000000       0.12876120 </v>
    <v>       0.00000000       0.50000000       0.19193187 </v>
    <v>       0.50000000       0.00000000       0.19193187 </v>
    <v>       0.00000000       0.00000000       0.25406550 </v>
    <v>       0.50000000       0.50000000       0.25406550 </v>
    <v>       0.00000000       0.50000000       0.31747855 </v>
    <v>       0.50000000       0.00000000       0.31747855 </v>
    <v>       0.00000000       0.00000000       0.38132233 </v>
    <v>       0.50000000       0.50000000       0.38132233 </v>
    <v>       0.00000000       0.50000000       0.44440075 </v>
    <v>       0.50000000       0.00000000       0.44440075 </v>
    <v>       1.00000000       1.00000000       0.50150658 </v>
    <v>       1.00000000       1.00000000       0.52843313 </v>
   </varray>
  </structure>
  <varray name="primitive_index" >
   <v type="int" >        1 </v>
   <v type="int" >        2 </v>
   <v type="int" >        3 </v>
   <v type="int" >        4 </v>
   <v type="int" >        5 </v>
   <v type="int" >        6 </v>
   <v type="int" >        7 </v>
   <v type="int" >        8 </v>
   <v type="int" >        9 </v>
   <v type="int" >       10 </v>
   <v type="int" >       11 </v>
   <v type="int" >       12 </v>
   <v type="int" >       13 </v>
   <v type="int" >       14 </v>
   <v type="int" >       15 </v>
   <v type="int" >       16 </v>
   <v type="int" >       17 </v>
   <v type="int" >       18 </v>
  </varray>
 </primitive_cell>
 <kpoints>
  <generation param="Monkhorst-Pack">
   <v type="int" name="divisions">       3        3        1 </v>
   <v name="usershift">      0.00000000       0.00000000       0.00000000 </v>
   <v name="genvec1">      0.33333333       0.00000000       0.00000000 </v>
   <v name="genvec2">      0.00000000       0.33333333       0.00000000 </v>
   <v name="genvec3">      0.00000000       0.00000000       1.00000000 </v>
   <v name="shift">      0.00000000       0.00000000       0.00000000 </v>
  </generation>
  <varray name="kpointlist" >
   <v>       0.00000000       0.00000000       0.00000000 </v>
   <v>       0.33333333       0.00000000       0.00000000 </v>
   <v>       0.33333333       0.33333333       0.00000000 </v>
  </varray>
  <varray name="weights" >
   <v>       0.11111111 </v>
   <v>       0.44444444 </v>
   <v>       0.44444444 </v>
  </varray>
 </kpoints>
 <parameters>
  <separator name="general" >
   <i type="string" name="SYSTEM">unknown system</i>
   <i type="logical" name="LCOMPAT"> F  </i>
  </separator>
  <separator name="electronic" >
   <i type="string" name="PREC">normal</i>
   <i name="ENMAX">    400.00000000</i>
   <i name="ENAUG">    586.98000000</i>
   <i name="EDIFF">      0.00020000</i>
   <i type="int" name="IALGO">    38</i>
   <i type="int" name="IWAVPR">    11</i>
   <i type="int" name="NBANDS">   116</i>
   <i type="int" name="NBANDSLOW">    -1</i>
   <i type="int" name="NBANDSHIGH">    -1</i>
   <i name="NELECT">    178.00000000</i>
   <i type="int" name="TURBO">     0</i>
   <i type="int" name="IRESTART">     0</i>
   <i type="int" name="NREBOOT">     0</i>
   <i type="int" name="NMIN">     0</i>
   <i name="EREF">      0.00000000</i>
   <separator name="electronic smearing" >
    <i type="int" name="ISMEAR">     1</i>
    <i name="SIGMA">      0.20000000</i>
    <i name="KSPACING">      0.50000000</i>
    <i type="logical" name="KGAMMA"> T  </i>
    <i type="logical" name="KBLOWUP"> T  </i>
   </separator>
   <separator name="electronic projectors" >
    <i type="logical" name="LREAL"> F  </i>
    <v name="ROPT">      0.00000000      0.00000000</v>
    <i type="int" name="LMAXPAW">  -100</i>
    <i type="int" name="LMAXMIX">     2</i>
    <i type="logical" name="NLSPLINE"> F  </i>
   </separator>
   <separator name="electronic startup" >
    <i type="int" name="ISTART">     0</i>
    <i type="int" name="ICHARG">     2</i>
    <i type="int" name="INIWAV">     1</i>
   </separator>
   <separator name="electronic spin" >
    <i type="int" name="ISPIN">     2</i>
    <i type="logical" name="LNONCOLLINEAR"> F  </i>
    <v name="MAGMOM">      1.00000000      1.00000000      1.00000000      1.00000000      1.00000000      1.00000000      1.00000000      1.00000000      1.00000000      1.00000000      1.00000000      1.00000000      1.00000000      1.00000000      1.00000000      1.00000000      1.00000000      1.00000000</v>
    <i name="NUPDOWN">     -1.00000000</i>
    <i type="logical" name="LSORBIT"> F  </i>
    <v name="SAXIS">      0.00000000      0.00000000      1.00000000</v>
    <i type="logical" name="LSPIRAL"> F  </i>
    <v name="QSPIRAL">      0.00000000      0.00000000      0.00000000</v>
    <i type="logical" name="LZEROZ"> F  </i>
   </separator>
   <separator name="electronic exchange-correlation" >
    <i type="logical" name="LASPH"> F  </i>
    <i type="logical" name="LMETAGGA"> F  </i>
   </separator>
   <separator name="electronic convergence" >
    <i type="int" name="NELM">    60</i>
    <i type="int" name="NELMDL">    -5</i>
    <i type="int" name="NELMIN">     2</i>
    <i name="ENINI">    400.00000000</i>
    <separator name="electronic convergence detail" >
     <i type="logical" name="LDIAG"> T  </i>
     <i type="logical" name="LSUBROT"> F  </i>
     <i name="WEIMIN">      0.00100000</i>
     <i name="EBREAK">      0.00000043</i>
     <i name="DEPER">      0.30000000</i>
     <i type="int" name="NRMM">     4</i>
     <i name="TIME">      0.40000000</i>
    </separator>
   </separator>
   <separator name="electronic mixer" >
    <i name="AMIX">      0.40000000</i>
    <i name="BMIX">      1.00000000</i>
    <i name="AMIN">      0.10000000</i>
    <i name="AMIX_MAG">      1.60000000</i>
    <i name="BMIX_MAG">      1.00000000</i>
    <separator name="electronic mixer details" >
     <i type="int" name="IMIX">     4</i>
     <i type="logical" name="MIXFIRST"> F  </i>
     <i type="int" name="MAXMIX">   -45</i>
     <i name="WC">    100.00000000</i>
     <i type="int" name="INIMIX">     1</i>
     <i type="int" name="MIXPRE">     1</i>
     <i type="int" name="MREMOVE">     5</i>
    </separator>
   </separator>
   <separator name="electronic dipolcorrection" >
    <i type="logical" name="LDIPOL"> F  </i>
    <i type="logical" name="LMONO"> F  </i>
    <i type="int" name="IDIPOL">     0</i>
    <i name="EPSILON">      1.00000000</i>
    <v name="DIPOL">   -100.00000000   -100.00000000   -100.00000000</v>
    <i name="EFIELD">      0.00000000</i>
   </separator>
  </separator>
  <separator name="grids" >
   <i type="int" name="NGX">    18</i>
   <i type="int" name="NGY">    18</i>
   <i type="int" name="NGZ">   140</i>
   <i type="int" name="NGXF">    36</i>
   <i type="int" name="NGYF">    36</i>
   <i type="int" name="NGZF">   280</i>
   <i type="logical" name="ADDGRID"> F  </i>
  </separator>
  <separator name="ionic" >
   <i type="int" name="NSW">   800</i>
   <i type="int" name="IBRION">     2</i>
   <i type="int" name="MDALGO">     0</i>
   <i type="int" name="ISIF">     2</i>
   <i name="PSTRESS">      0.00000000</i>
   <i name="EDIFFG">     -0.03000000</i>
   <i type="int" name="NFREE">     1</i>
   <i name="POTIM">      0.50000000</i>
   <i name="SMASS">     -3.00000000</i>
   <i name="SCALEE">      1.00000000</i>
  </separator>
  <separator name="ionic md" >
   <i name="TEBEG">      0.00010000</i>
   <i name="TEEND">      0.00010000</i>
   <i type="int" name="NBLOCK">     1</i>
   <i type="int" name="KBLOCK">   800</i>
   <i type="int" name="NPACO">   256</i>
   <i name="APACO">     10.00000000</i>
  </separator>
  <separator name="symmetry" >
   <i type="int" name="ISYM">     1</i>
   <i name="SYMPREC">      0.00001000</i>
  </separator>
  <separator name="dos" >
   <i type="int" name="LORBIT">     0</i>
   <v name="RWIGS">     -1.00000000     -1.00000000</v>
   <i type="int" name="NEDOS">   301</i>
   <i name="EMIN">     10.00000000</i>
   <i name="EMAX">    -10.00000000</i>
   <i name="EFERMI">      0.00000000</i>
  </separator>
  <separator name="writing" >
   <i type="int" name="NWRITE">     2</i>
   <i type="logical" name="LWAVE"> F  </i>
   <i type="logical" name="LDOWNSAMPLE"> F  </i>
   <i type="logical" name="LCHARG"> F  </i>
   <i type="logical" name="LPARD"> F  </i>
   <i type="logical" name="LVTOT"> F  </i>
   <i type="logical" name="LVHAR"> F  </i>
   <i type="logical" name="LELF"> F  </i>
   <i type="logical" name="LOPTICS"> F  </i>
   <v name="STM">      0.00000000      0.00000000      0.00000000      0.00000000      0.00000000      0.00000000      0.00000000</v>
  </separator>
  <separator name="performance" >
   <i type="int" name="NPAR">     4</i>
   <i type="int" name="NSIM">     4</i>
   <i type="int" name="NBLK">    -1</i>
   <i type="logical" name="LPLANE"> T  </i>
   <i type="logical" name="LSCALAPACK"> T  </i>
   <i type="logical" name="LSCAAWARE"> F  </i>
   <i type="logical" name="LSCALU"> F  </i>
   <i type="logical" name="LASYNC"> F  </i>
   <i type="logical" name="LORBITALREAL"> F  </i>
  </separator>
  <separator name="miscellaneous" >
   <i type="int" name="IDIOT">     3</i>
   <i type="int" name="PHON_NSTRUCT">    -1</i>
   <i type="logical" name="LMUSIC"> F  </i>
   <v name="POMASS">     63.54600000      1.00000000</v>
   <v name="DARWINR">      0.00000000      0.00000000</v>
   <v name="DARWINV">      1.00000000      1.00000000</v>
   <i type="logical" name="LCORR"> T  </i>
  </separator>
  <i type="logical" name="GGA_COMPAT"> T  </i>
  <i type="logical" name="LBERRY"> F  </i>
  <i type="int" name="ICORELEVEL">     0</i>
  <i type="logical" name="LDAU"> F  </i>
  <i type="int" name="I_CONSTRAINED_M">     0</i>
  <separator name="electronic exchange-correlation" >
   <i type="string" name="GGA">PE</i>
   <i type="int" name="VOSKOWN">     0</i>
   <i type="logical" name="LHFCALC"> F  </i>
   <i type="string" name="PRECFOCK"></i>
   <i type="logical" name="LSYMGRAD"> F  </i>
   <i type="logical" name="LHFONE"> F  </i>
   <i type="logical" name="LRHFCALC"> F  </i>
   <i type="logical" name="LTHOMAS"> F  </i>
   <i type="logical" name="LMODELHF"> F  </i>
   <i type="logical" name="LFOCKACE"> F  </i>
   <i name="ENCUT4O">     -1.00000000</i>
   <i type="int" name="EXXOEP">     0</i>
   <i type="int" name="FOURORBIT">     0</i>
   <i name="AEXX">      0.00000000</i>
   <i name="HFALPHA">      0.00000000</i>
   <i name="MCALPHA">      0.00000000</i>
   <i name="ALDAX">      1.00000000</i>
   <i name="AGGAX">      1.00000000</i>
   <i name="ALDAC">      1.00000000</i>
   <i name="AGGAC">      1.00000000</i>
   <i type="int" name="NKREDX">     1</i>
   <i type="int" name="NKREDY">     1</i>
   <i type="int" name="NKREDZ">     1</i>
   <i type="logical" name="SHIFTRED"> F  </i>
   <i type="logical" name="ODDONLY"> F  </i>
   <i type="logical" name="EVENONLY"> F  </i>
   <i type="int" name="LMAXFOCK">     0</i>
   <i type="int" name="NMAXFOCKAE">     0</i>
   <i type="logical" name="LFOCKAEDFT"> F  </i>
   <i name="HFSCREEN">      0.00000000</i>
   <i name="HFSCREENC">      0.00000000</i>
   <i type="int" name="NBANDSGWLOW">     0</i>
  </separator>
  <separator name="vdW DFT" >
   <i type="logical" name="LUSE_VDW"> F  </i>
   <i name="Zab_VDW">     -0.84910000</i>
   <i name="PARAM1">      0.12340000</i>
   <i name="PARAM2">      1.00000000</i>
   <i name="PARAM3">      0.00000000</i>
  </separator>
  <separator name="model GW" >
   <i type="int" name="MODEL_GW">     0</i>
   <i name="MODEL_EPS0">     12.16886788</i>
   <i name="MODEL_ALPHA">      1.00000000</i>
  </separator>
  <separator name="linear response parameters" >
   <i type="logical" name="LEPSILON"> F  </i>
   <i type="logical" name="LRPA"> F  </i>
   <i type="logical" name="LNABLA"> F  </i>
   <i type="logical" name="LVEL"> F  </i>
   <i name="CSHIFT">      0.10000000</i>
   <i name="OMEGAMAX">     -1.00000000</i>
   <i name="DEG_THRESHOLD">      0.00200000</i>
   <i name="RTIME">     -0.10000000</i>
   <i name="WPLASMAI">      0.00000000</i>
   <v name="DFIELD">      0.00000000      0.00000000      0.00000000</v>
   <v name="WPLASMA">      0.00000000      0.00000000      0.00000000      0.00000000      0.00000000      0.00000000      0.00000000      0.00000000      0.00000000</v>
  </separator>
  <separator name="orbital magnetization" >
   <i type="logical" name="NUCIND"> F  </i>
   <v name="MAGPOS">      0.00000000      0.00000000      0.00000000</v>
   <i type="logical" name="LNICSALL"> T  </i>
   <i type="logical" name="ORBITALMAG"> F  </i>
   <i type="logical" name="LMAGBLOCH"> F  </i>
   <i type="logical" name="LCHIMAG"> F  </i>
   <i type="logical" name="LGAUGE"> T  </i>
   <i type="int" name="MAGATOM">     0</i>
   <v name="MAGDIPOL">      0.00000000      0.00000000      0.00000000</v>
   <v name="AVECCONST">      0.00000000      0.00000000      0.00000000</v>
  </separator>
  <separator name="response functions" >
   <i type="logical" name="LFINITE_TEMPERATURE"> F  </i>
   <i type="logical" name="LADDER"> F  </i>
   <i type="logical" name="LRPAFORCE"> F  </i>
   <i type="logical" name="LFXC"> F  </i>
   <i type="logical" name="LHARTREE"> T  </i>
   <i type="int" name="IBSE">     0</i>
   <v type="int" name="KPOINT">    -1     0     0     0</v>
   <i type="logical" name="LTCTC"> F  </i>
   <i type="logical" name="LTCTE"> F  </i>
   <i type="logical" name="LTETE"> F  </i>
   <i type="logical" name="LTRIPLET"> F  </i>
   <i type="logical" name="LFXCEPS"> F  </i>
   <i type="logical" name="LFXHEG"> F  </i>
   <i type="int" name="NATURALO">     2</i>
   <i type="logical" name="LHOLEGF"> F  </i>
   <i type="logical" name="L2ORDER"> F  </i>
   <i type="logical" name="LDMP1"> F  </i>
   <i type="logical" name="LMP2LT"> F  </i>
   <i type="logical" name="LSMP2LT"> F  </i>
   <i type="logical" name="LGWLF"> F  </i>
   <i name="ENCUTGW">     -2.00000000</i>
   <i name="ENCUTGWSOFT">     -2.00000000</i>
   <i name="ENCUTLF">     -1.00000000</i>
   <i type="logical" name="LESF_SPLINES"> F  </i>
   <i type="int" name="LMAXMP2">    -1</i>
   <i name="SCISSOR">      0.00000000</i>
   <i type="int" name="NOMEGA">     0</i>
   <i type="int" name="NOMEGAR">     0</i>
   <i type="int" name="NBANDSGW">    -1</i>
   <i type="int" name="NBANDSO">    -1</i>
   <i type="int" name="NBANDSV">    -1</i>
   <i type="int" name="NELMGW">     1</i>
   <i type="int" name="NELMHF">     1</i>
   <i type="int" name="DIM">     3</i>
   <i type="int" name="IESPILON">     4</i>
   <i type="int" name="ANTIRES">     0</i>
   <i name="OMEGAMAX">    -30.00000000</i>
   <i name="OMEGAMIN">    -30.00000000</i>
   <i name="OMEGATL">   -200.00000000</i>
   <i type="int" name="OMEGAGRID">     0</i>
   <i name="CSHIFT">     -0.10000000</i>
   <i type="logical" name="LSELFENERGY"> F  </i>
   <i type="logical" name="LSPECTRAL"> F  </i>
   <i type="logical" name="LSPECTRALGW"> F  </i>
   <i type="logical" name="LSINGLES"> F  </i>
   <i type="logical" name="LFERMIGW"> F  </i>
   <i type="logical" name="ODDONLYGW"> F  </i>
   <i type="logical" name="EVENONLYGW"> F  </i>
   <i type="int" name="NKREDLFX">     1</i>
   <i type="int" name="NKREDLFY">     1</i>
   <i type="int" name="NKREDLFZ">     1</i>
   <i type="int" name="MAXMEM">  2800</i>
   <i type="int" name="TELESCOPE">     0</i>
   <i type="int" name="NTAUPAR">    -1</i>
   <i type="int" name="NOMEGAPAR">    -1</i>
   <i name="DAMP_NEWTON">      0.80000001</i>
   <i name="LAMBDA">      1.00000000</i>
  </separator>
  <separator name="External order field" >
   <i name="OFIELD_KAPPA">      0.00000000</i>
   <v name="OFIELD_K">      0.00000000      0.00000000      0.00000000</v>
   <i name="OFIELD_Q6_NEAR">      0.00000000</i>
   <i name="OFIELD_Q6_FAR">      0.00000000</i>
   <i name="OFIELD_A">      0.00000000</i>
  </separator>
  <separator name="optional k-points parameters" >
   <i type="int" name="KPOINTS_OPT_MODE">     1</i>
   <i type="logical" name="LKPOINTS_OPT"> F  </i>
  </separator>
 </parameters>
 <atominfo>
  <atoms>      18 </atoms>
  <types>       2 </types>
  <array name="atoms" >
   <dimension dim="1">ion</dimension>
   <field type="string">element</field>
   <field type="int">atomtype</field>
   <set>
    <rc><c>Cu</c><c>   1</c></rc>
    <rc><c>Cu</c><c>   1</c></rc>
    <rc><c>Cu</c><c>   1</c></rc>
    <rc><c>Cu</c><c>   1</c></rc>
    <rc><c>Cu</c><c>   1</c></rc>
    <rc><c>Cu</c><c>   1</c></rc>
    <rc><c>Cu</c><c>   1</c></rc>
    <rc><c>Cu</c><c>   1</c></rc>
    <rc><c>Cu</c><c>   1</c></rc>
    <rc><c>Cu</c><c>   1</c></rc>
    <rc><c>Cu</c><c>   1</c></rc>
    <rc><c>Cu</c><c>   1</c></rc>
    <rc><c>Cu</c><c>   1</c></rc>
    <rc><c>Cu</c><c>   1</c></rc>
    <rc><c>Cu</c><c>   1</c></rc>
    <rc><c>Cu</c><c>   1</c></rc>
    <rc><c>H </c><c>   2</c></rc>
    <rc><c>H </c><c>   2</c></rc>
   </set>
  </array>
  <array name="atomtypes" >
   <dimension dim="1">type</dimension>
   <field type="int">atomspertype</field>
   <field type="string">element</field>
   <field>mass</field>
   <field>valence</field>
   <field type="string">pseudopotential</field>
   <set>
    <rc><c>  16</c><c>Cu</c><c>     63.54600000</c><c>     11.00000000</c><c>  PAW_PBE Cu 22Jun2005                  </c></rc>
    <rc><c>   2</c><c>H </c><c>      1.00000000</c><c>      1.00000000</c><c>  PAW_PBE H 15Jun2001                   </c></rc>
   </set>
  </array>
 </atominfo>
 <structure name="initialpos" >
  <crystal>
   <varray name="basis" >
    <v>       3.63000011       0.00000000       0.00000000 </v>
    <v>       0.00000000       3.63000011       0.00000000 </v>
    <v>       0.00000000       0.00000000      27.70499992 </v>
   </varray>
   <i name="volume">    365.06603650 </i>
   <varray name="rec_basis" >
    <v>       0.27548208       0.00000000       0.00000000 </v>
    <v>       0.00000000       0.27548208       0.00000000 </v>
    <v>       0.00000000       0.00000000       0.03609457 </v>
   </varray>
  </crystal>
  <varray name="positions" >
   <v>       0.00000000       0.00000000       0.00000000 </v>
   <v>       0.50000000       0.50000000       0.00000000 </v>
   <v>       0.00000000       0.50000000       0.06551164 </v>
   <v>       0.50000000       0.00000000       0.06551164 </v>
   <v>       0.00000000       0.00000000       0.12876120 </v>
   <v>       0.50000000       0.50000000       0.12876120 </v>
   <v>       0.00000000       0.50000000       0.19193187 </v>
   <v>       0.50000000       0.00000000       0.19193187 </v>
   <v>       0.00000000       0.00000000       0.25406550 </v>
   <v>       0.50000000       0.50000000       0.25406550 </v>
   <v>       0.00000000       0.50000000       0.31747855 </v>
   <v>       0.50000000       0.00000000       0.31747855 </v>
   <v>       0.00000000       0.00000000       0.38132233 </v>
   <v>       0.50000000       0.50000000       0.38132233 </v>
   <v>       0.00000000       0.50000000       0.44440075 </v>
   <v>       0.50000000       0.00000000       0.44440075 </v>
   <v>       1.00000000       1.00000000       0.50150658 </v>
   <v>       1.00000000       1.00000000       0.52843313 </v>
  </varray>
 </structure>
 <calculation>
  <scstep>
   <time name="dav">    0.84    0.84</time>
   <time name="total">    0.87    0.88</time>
   <energy>
    <i name="alphaZ">    521.04204123 </i>
    <i name="ewald"> 102560.51884381 </i>
    <i name="hartreedc">-124470.94857112 </i>
    <i name="XCdc">    738.33471936 </i>
    <i name="pawpsdc">  19653.14859652 </i>
    <i name="pawaedc"> -21346.34030725 </i>
    <i name="eentropy">     -0.02873490 </i>
    <i name="bandstr">   1724.70778362 </i>
    <i name="atom">  22280.27950853 </i>
    <i name="e_fr_energy">   1660.71387980 </i>
    <i name="e_wo_entrp">   1660.74261469 </i>
    <i name="e_0_energy">   1660.72345809 </i>
   </energy>
  </scstep>
  <scstep>
   <time name="dav">    0.84    0.85</time>
   <time name="total">    0.84    0.85</time>
   <energy>
    <i name="e_fr_energy">    196.06382345 </i>
    <i name="e_wo_entrp">    196.05523334 </i>
    <i name="e_0_energy">    196.06096008 </i>
   </energy>
  </scstep>
  <scstep>
   <time name="dav">    0.83    0.84</time>
   <time name="total">    0.83    0.84</time>
   <energy>
    <i name="e_fr_energy">    -53.06100490 </i>
    <i name="e_wo_entrp">    -53.06786693 </i>
    <i name="e_0_energy">    -53.06329224 </i>
   </energy>
  </scstep>
  <scstep>
   <time name="dav">    0.92    0.93</time>
   <time name="total">    0.92    0.93</time>
   <energy>
    <i name="e_fr_energy">    -68.51580702 </i>
    <i name="e_wo_entrp">    -68.52372203 </i>
    <i name="e_0_energy">    -68.51844536 </i>
   </energy>
  </scstep>
  <scstep>
   <time name="dav">    0.91    0.92</time>
   <time name="total">    1.01    1.01</time>
   <energy>
    <i name="e_fr_energy">    -68.85328054 </i>
    <i name="e_wo_entrp">    -68.86096837 </i>
    <i name="e_0_energy">    -68.85584315 </i>
   </energy>
  </scstep>
  <scstep>
   <time name="dav">    0.89    0.90</time>
   <time name="total">    1.02    1.03</time>
   <energy>
    <i name="e_fr_energy">    -57.98341215 </i>
    <i name="e_wo_entrp">    -57.96362168 </i>
    <i name="e_0_energy">    -57.97681532 </i>
   </energy>
  </scstep>
  <scstep>
   <time name="dav">    0.91    0.92</time>
   <time name="total">    1.04    1.05</time>
   <energy>
    <i name="e_fr_energy">    -51.81280259 </i>
    <i name="e_wo_entrp">    -51.79434349 </i>
    <i name="e_0_energy">    -51.80664956 </i>
   </energy>
  </scstep>
  <scstep>
   <time name="dav">    0.99    1.00</time>
   <time name="total">    1.11    1.12</time>
   <energy>
    <i name="e_fr_energy">    -51.83217067 </i>
    <i name="e_wo_entrp">    -51.82337892 </i>
    <i name="e_0_energy">    -51.82924009 </i>
   </energy>
  </scstep>
  <scstep>
   <time name="dav">    1.08    1.09</time>
   <time name="total">    1.21    1.22</time>
   <energy>
    <i name="e_fr_energy">    -51.23093014 </i>
    <i name="e_wo_entrp">    -51.23804046 </i>
    <i name="e_0_energy">    -51.23330025 </i>
   </energy>
  </scstep>
  <scstep>
   <time name="dav">    1.21    1.22</time>
   <time name="total">    1.34    1.35</time>
   <energy>
    <i name="e_fr_energy">    -50.16752782 </i>
    <i name="e_wo_entrp">    -50.14948946 </i>
    <i name="e_0_energy">    -50.16151503 </i>
   </energy>
  </scstep>
  <scstep>
   <time name="dav">    1.20    1.21</time>
   <time name="total">    1.33    1.34</time>
   <energy>
    <i name="e_fr_energy">    -51.35773877 </i>
    <i name="e_wo_entrp">    -51.34611732 </i>
    <i name="e_0_energy">    -51.35386495 </i>
   </energy>
  </scstep>
  <scstep>
   <time name="dav">    0.96    0.97</time>
   <time name="total">    1.08    1.09</time>
   <energy>
    <i name="e_fr_energy">    -53.17938499 </i>
    <i name="e_wo_entrp">    -53.15682698 </i>
    <i name="e_0_energy">    -53.17186565 </i>
   </energy>
  </scstep>
  <scstep>
   <time name="dav">    1.04    1.05</time>
   <time name="total">    1.17    1.18</time>
   <energy>
    <i name="e_fr_energy">    -54.43782663 </i>
    <i name="e_wo_entrp">    -54.42932447 </i>
    <i name="e_0_energy">    -54.43499258 </i>
   </energy>
  </scstep>
  <scstep>
   <time name="dav">    1.02    1.03</time>
   <time name="total">    1.15    1.16</time>
   <energy>
    <i name="e_fr_energy">    -54.87438268 </i>
    <i name="e_wo_entrp">    -54.86631254 </i>
    <i name="e_0_energy">    -54.87169263 </i>
   </energy>
  </scstep>
  <scstep>
   <time name="dav">    0.96    0.97</time>
   <time name="total">    1.09    1.10</time>
   <energy>
    <i name="e_fr_energy">    -57.78917460 </i>
    <i name="e_wo_entrp">    -57.78580268 </i>
    <i name="e_0_energy">    -57.78805063 </i>
   </energy>
  </scstep>
  <scstep>
   <time name="dav">    1.02    1.02</time>
   <time name="total">    1.14    1.15</time>
   <energy>
    <i name="e_fr_energy">    -60.32879522 </i>
    <i name="e_wo_entrp">    -60.30134633 </i>
    <i name="e_0_energy">    -60.31964559 </i>
   </energy>
  </scstep>
  <scstep>
   <time name="dav">    1.06    1.07</time>
   <time name="total">    1.18    1.19</time>
   <energy>
    <i name="e_fr_energy">    -60.55718527 </i>
    <i name="e_wo_entrp">    -60.54246437 </i>
    <i name="e_0_energy">    -60.55227831 </i>
   </energy>
  </scstep>
  <scstep>
   <time name="dav">    0.99    1.00</time>
   <time name="total">    1.12    1.13</time>
   <energy>
    <i name="e_fr_energy">    -60.75549269 </i>
    <i name="e_wo_entrp">    -60.73250895 </i>
    <i name="e_0_energy">    -60.74783145 </i>
   </energy>
  </scstep>
  <scstep>
   <time name="dav">    0.88    0.89</time>
   <time name="total">    1.00    1.01</time>
   <energy>
    <i name="e_fr_energy">    -61.13117582 </i>
    <i name="e_wo_entrp">    -61.11276951 </i>
    <i name="e_0_energy">    -61.12504038 </i>
   </energy>
  </scstep>
  <scstep>
   <time name="dav">    0.95    0.96</time>
   <time name="total">    1.08    1.08</time>
   <energy>
    <i name="e_fr_energy">    -61.44197033 </i>
    <i name="e_wo_entrp">    -61.41864259 </i>
    <i name="e_0_energy">    -61.43419442 </i>
   </energy>
  </scstep>
  <scstep>
   <time name="dav">    1.06    1.07</time>
   <time name="total">    1.19    1.20</time>
   <energy>
    <i name="e_fr_energy">    -61.67122052 </i>
    <i name="e_wo_entrp">    -61.64529581 </i>
    <i name="e_0_energy">    -61.66257895 </i>
   </energy>
  </scstep>
  <scstep>
   <time name="dav">    0.96    0.97</time>
   <time name="total">    1.09    1.10</time>
   <energy>
    <i name="e_fr_energy">    -61.94669196 </i>
    <i name="e_wo_entrp">    -61.92191481 </i>
    <i name="e_0_energy">    -61.93843291 </i>
   </energy>
  </scstep>
  <scstep>
   <time name="dav">    1.00    1.01</time>
   <time name="total">    1.12    1.13</time>
   <energy>
    <i name="e_fr_energy">    -62.07303963 </i>
    <i name="e_wo_entrp">    -62.04452083 </i>
    <i name="e_0_energy">    -62.06353337 </i>
   </energy>
  </scstep>
  <scstep>
   <time name="dav">    1.03    1.04</time>
   <time name="total">    1.15    1.16</time>
   <energy>
    <i name="e_fr_energy">    -62.40477234 </i>
    <i name="e_wo_entrp">    -62.37721939 </i>
    <i name="e_0_energy">    -62.39558803 </i>
   </energy>
  </scstep>
  <scstep>
   <time name="dav">    0.96    0.97</time>
   <time name="total">    1.09    1.10</time>
   <energy>
    <i name="e_fr_energy">    -62.54470480 </i>
    <i name="e_wo_entrp">    -62.51684333 </i>
    <i name="e_0_energy">    -62.53541764 </i>
   </energy>
  </scstep>
  <scstep>
   <time name="dav">    0.95    0.96</time>
   <time name="total">    1.07    1.08</time>
   <energy>
    <i name="e_fr_energy">    -62.70795812 </i>
    <i name="e_wo_entrp">    -62.68042289 </i>
    <i name="e_0_energy">    -62.69877971 </i>
   </energy>
  </scstep>
  <scstep>
   <time name="dav">    0.90    0.91</time>
   <time name="total">    1.03    1.04</time>
   <energy>
    <i name="e_fr_energy">    -62.78715141 </i>
    <i name="e_wo_entrp">    -62.75826533 </i>
    <i name="e_0_energy">    -62.77752272 </i>
   </energy>
  </scstep>
  <scstep>
   <time name="dav">    0.90    0.91</time>
   <time name="total">    1.02    1.03</time>
   <energy>
    <i name="e_fr_energy">    -62.82666621 </i>
    <i name="e_wo_entrp">    -62.79843714 </i>
    <i name="e_0_energy">    -62.81725652 </i>
   </energy>
  </scstep>
  <scstep>
   <time name="dav">    0.86    0.87</time>
   <time name="total">    1.00    1.01</time>
   <energy>
    <i name="e_fr_energy">    -62.83907278 </i>
    <i name="e_wo_entrp">    -62.81106575 </i>
    <i name="e_0_energy">    -62.82973711 </i>
   </energy>
  </scstep>
  <scstep>
   <time name="dav">    0.67    0.68</time>
   <time name="total">    0.80    0.86</time>
   <energy>
    <i name="e_fr_energy">    -62.84331563 </i>
    <i name="e_wo_entrp">    -62.81561624 </i>
    <i name="e_0_energy">    -62.83408250 </i>
   </energy>
  </scstep>
  <scstep>
   <time name="dav">    0.65    0.65</time>
   <time name="total">    0.68    0.69</time>
   <energy>
    <i name="alphaZ">    521.04204123 </i>
    <i name="ewald"> 102560.51884381 </i>
    <i name="hartreedc">-124243.39425314 </i>
    <i name="XCdc">    719.49333182 </i>
    <i name="pawpsdc">  21069.69527213 </i>
    <i name="pawaedc"> -22795.74549503 </i>
    <i name="eentropy">     -0.02787607 </i>
    <i name="bandstr">   -174.70485811 </i>
    <i name="atom">  22280.27950853 </i>
    <i name="e_fr_energy">    -62.84348483 </i>
    <i name="e_wo_entrp">    -62.81560875 </i>
    <i name="e_0_energy">    -62.83419280 </i>
   </energy>
  </scstep>
  <structure>
   <crystal>
    <varray name="basis" >
     <v>       3.63000011       0.00000000       0.00000000 </v>
     <v>       0.00000000       3.63000011       0.00000000 </v>
     <v>       0.00000000       0.00000000      27.70499992 </v>
    </varray>
    <i name="volume">    365.06603650 </i>
    <varray name="rec_basis" >
     <v>       0.27548208       0.00000000       0.00000000 </v>
     <v>       0.00000000       0.27548208       0.00000000 </v>
     <v>       0.00000000       0.00000000       0.03609457 </v>
    </varray>
   </crystal>
   <varray name="positions" >
    <v>       0.00000000       0.00000000       0.00000000 </v>
    <v>       0.50000000       0.50000000       0.00000000 </v>
    <v>       0.00000000       0.50000000       0.06551164 </v>
    <v>       0.50000000       0.00000000       0.06551164 </v>
    <v>       0.00000000       0.00000000       0.12876120 </v>
    <v>       0.50000000       0.50000000       0.12876120 </v>
    <v>       0.00000000       0.50000000       0.19193187 </v>
    <v>       0.50000000       0.00000000       0.19193187 </v>
    <v>       0.00000000       0.00000000       0.25406550 </v>
    <v>       0.50000000       0.50000000       0.25406550 </v>
    <v>       0.00000000       0.50000000       0.31747855 </v>
    <v>       0.50000000       0.00000000       0.31747855 </v>
    <v>       0.00000000       0.00000000       0.38132233 </v>
    <v>       0.50000000       0.50000000       0.38132233 </v>
    <v>       0.00000000       0.50000000       0.44440075 </v>
    <v>       0.50000000       0.00000000       0.44440075 </v>
    <v>       1.00000000       1.00000000       0.50150658 </v>
    <v>       1.00000000       1.00000000       0.52843313 </v>
   </varray>
  </structure>
  <varray name="forces" >
   <v>       0.00000000       0.00000000       0.24128415 </v>
   <v>       0.00000000       0.00000000       0.24542085 </v>
   <v>       0.00000000       0.00000000      -0.24236434 </v>
   <v>       0.00000000       0.00000000      -0.24236434 </v>
   <v>       0.00000000      -0.00000000       0.01079830 </v>
   <v>       0.00000000       0.00000000       0.01297799 </v>
   <v>       0.00000000      -0.00000000      -0.00259009 </v>
   <v>       0.00000000      -0.00000000      -0.00259009 </v>
   <v>       0.00000000       0.00000000      -0.01365355 </v>
   <v>       0.00000000      -0.00000000       0.06548795 </v>
   <v>       0.00000000       0.00000000       0.00235518 </v>
   <v>       0.00000000       0.00000000       0.00235518 </v>
   <v>       0.00000000      -0.00000000      -0.07435272 </v>
   <v>       0.00000000       0.00000000       0.07936998 </v>
   <v>       0.00000000      -0.00000000      -0.34604138 </v>
   <v>       0.00000000       0.00000000      -0.34604138 </v>
   <v>       0.00000000       0.00000000      -0.45375768 </v>
   <v>       0.00000000       0.00000000       1.06370598 </v>
  </varray>
  <varray name="stress" >
   <v>     -18.34234274       0.00000000       0.00000000 </v>
   <v>       0.00000000     -18.34234274      -0.00000000 </v>
   <v>       0.00000000       0.00000000      -0.04680165 </v>
  </varray>
  <energy>
   <i name="e_fr_energy">    -69.77656022 </i>
   <i name="e_wo_entrp">    -69.74868414 </i>
   <i name="e_0_energy">    -69.76726819 </i>
  </energy>
  <time name="totalsc">   34.25   34.64</time>
 </calculation>
 <calculation>
  <scstep>
   <time name="dav">    0.90    0.91</time>
   <time name="total">    1.02    1.03</time>
   <energy>
    <i name="alphaZ">    521.04204123 </i>
    <i name="ewald"> 102766.76221835 </i>
    <i name="hartreedc">-124450.24161191 </i>
    <i name="XCdc">    719.51220843 </i>
    <i name="pawpsdc">  21070.06655984 </i>
    <i name="pawaedc"> -22796.16355062 </i>
    <i name="eentropy">     -0.03152204 </i>
    <i name="bandstr">   -174.06064274 </i>
    <i name="atom">  22280.27950853 </i>
    <i name="e_fr_energy">    -62.83479093 </i>
    <i name="e_wo_entrp">    -62.80326889 </i>
    <i name="e_0_energy">    -62.82428358 </i>
   </energy>
  </scstep>
  <scstep>
   <time name="dav">    1.06    1.07</time>
   <time name="total">    1.18    1.19</time>
   <energy>
    <i name="e_fr_energy">    -62.84847361 </i>
    <i name="e_wo_entrp">    -62.81779111 </i>
    <i name="e_0_energy">    -62.83824611 </i>
   </energy>
  </scstep>
  <scstep>
   <time name="dav">    0.98    0.99</time>
   <time name="total">    1.10    1.11</time>
   <energy>
    <i name="e_fr_energy">    -62.87005980 </i>
    <i name="e_wo_entrp">    -62.84884087 </i>
    <i name="e_0_energy">    -62.86298682 </i>
   </energy>
  </scstep>
  <scstep>
   <time name="dav">    1.01    1.02</time>
   <time name="total">    1.13    1.14</time>
   <energy>
    <i name="e_fr_energy">    -62.84847014 </i>
    <i name="e_wo_entrp">    -62.82237479 </i>
    <i name="e_0_energy">    -62.83977169 </i>
   </energy>
  </scstep>
  <scstep>
   <time name="dav">    1.14    1.15</time>
   <time name="total">    1.26    1.27</time>
   <energy>
    <i name="e_fr_energy">    -62.84762099 </i>
    <i name="e_wo_entrp">    -62.80916993 </i>
    <i name="e_0_energy">    -62.83480397 </i>
   </energy>
  </scstep>
  <scstep>
   <time name="dav">    1.18    1.19</time>
   <time name="total">    1.30    1.31</time>
   <energy>
    <i name="e_fr_energy">    -62.84612427 </i>
    <i name="e_wo_entrp">    -62.82042975 </i>
    <i name="e_0_energy">    -62.83755943 </i>
   </energy>
  </scstep>
  <scstep>
   <time name="dav">    1.12    1.13</time>
   <time name="total">    1.24    1.25</time>
   <energy>
    <i name="e_fr_energy">    -62.84499269 </i>
    <i name="e_wo_entrp">    -62.81455941 </i>
    <i name="e_0_energy">    -62.83484826 </i>
   </energy>
  </scstep>
  <scstep>
   <time name="dav">    0.83    0.84</time>
   <time name="total">    0.87    0.88</time>
   <energy>
    <i name="alphaZ">    521.04204123 </i>
    <i name="ewald"> 102766.76221835 </i>
    <i name="hartreedc">-124445.21999013 </i>
    <i name="XCdc">    719.38997404 </i>
    <i name="pawpsdc">  21075.29328932 </i>
    <i name="pawaedc"> -22801.58939701 </i>
    <i name="eentropy">     -0.03069686 </i>
    <i name="bandstr">   -178.77202323 </i>
    <i name="atom">  22280.27950853 </i>
    <i name="e_fr_energy">    -62.84507576 </i>
    <i name="e_wo_entrp">    -62.81437890 </i>
    <i name="e_0_energy">    -62.83484348 </i>
   </energy>
  </scstep>
  <structure>
   <crystal>
    <varray name="basis" >
     <v>       3.63000011       0.00000000       0.00000000 </v>
     <v>       0.00000000       3.63000011       0.00000000 </v>
     <v>       0.00000000       0.00000000      27.70499992 </v>
    </varray>
    <i name="volume">    365.06603650 </i>
    <varray name="rec_basis" >
     <v>       0.27548208       0.00000000       0.00000000 </v>
     <v>       0.00000000       0.27548208       0.00000000 </v>
     <v>       0.00000000       0.00000000       0.03609457 </v>
    </varray>
   </crystal>
   <varray name="positions" >
    <v>       0.00000000       0.00000000       0.00042015 </v>
    <v>       0.50000000       0.50000000       0.00042735 </v>
    <v>       0.00000000       0.50000000       0.06508961 </v>
    <v>       0.50000000       0.00000000       0.06508961 </v>
    <v>       0.00000000      -0.00000000       0.12878000 </v>
    <v>       0.50000000       0.50000000       0.12878380 </v>
    <v>       0.00000000       0.50000000       0.19192736 </v>
    <v>       0.50000000      -0.00000000       0.19192736 </v>
    <v>       0.00000000       0.00000000       0.25404173 </v>
    <v>       0.50000000       0.50000000       0.25417954 </v>
    <v>       0.00000000       0.50000000       0.31748265 </v>
    <v>       0.50000000       0.00000000       0.31748265 </v>
    <v>       0.00000000      -0.00000000       0.38119286 </v>
    <v>       0.50000000       0.50000000       0.38146053 </v>
    <v>       0.00000000       0.50000000       0.44379819 </v>
    <v>       0.50000000       0.00000000       0.44379819 </v>
    <v>       1.00000000       1.00000000       0.50071645 </v>
    <v>       1.00000000       1.00000000       0.53028536 </v>
   </varray>
  </structure>
  <varray name="forces" >
   <v>       0.00000000      -0.00000000       0.14854509 </v>
   <v>       0.00000000       0.00000000       0.15153930 </v>
   <v>       0.00000000      -0.00000000      -0.11237366 </v>
   <v>       0.00000000       0.00000000      -0.11237366 </v>
   <v>       0.00000000       0.00000000      -0.03537753 </v>
   <v>       0.00000000       0.00000000      -0.03560787 </v>
   <v>       0.00000000      -0.00000000       0.00367759 </v>
   <v>       0.00000000      -0.00000000       0.00367759 </v>
   <v>       0.00000000      -0.00000000      -0.00289149 </v>
   <v>       0.00000000      -0.00000000       0.03421507 </v>
   <v>       0.00000000      -0.00000000       0.00630202 </v>
   <v>       0.00000000      -0.00000000       0.00630202 </v>
   <v>       0.00000000      -0.00000000      -0.10755171 </v>
   <v>       0.00000000      -0.00000000      -0.02314499 </v>
   <v>       0.00000000      -0.00000000      -0.22130940 </v>
   <v>       0.00000000      -0.00000000      -0.22130940 </v>
   <v>       0.00000000      -0.00000000       1.08167510 </v>
   <v>       0.00000000      -0.00000000      -0.56399409 </v>
  </varray>
  <varray name="stress" >
   <v>     -19.87260155       0.00000000       0.00000000 </v>
   <v>       0.00000000     -19.87260155      -0.00000000 </v>
   <v>       0.00000000      -0.00000000      -6.88170904 </v>
  </varray>
  <energy>
   <i name="e_fr_energy">    -69.79148814 </i>
   <i name="e_wo_entrp">    -69.76079128 </i>
   <i name="e_0_energy">    -69.78125585 </i>
  </energy>
  <time name="totalsc">   10.59   10.72</time>
 </calculation>
 <calculation>
  <scstep>
   <time name="dav">    0.90    0.90</time>
   <time name="total">    1.02    1.03</time>
   <energy>
    <i name="alphaZ">    521.04204123 </i>
    <i name="ewald"> 102680.38474375 </i>
    <i name="hartreedc">-124358.85622998 </i>
    <i name="XCdc">    719.38467994 </i>
    <i name="pawpsdc">  21075.48319603 </i>
    <i name="pawaedc"> -22801.79536002 </i>
    <i name="eentropy">     -0.02921132 </i>
    <i name="bandstr">   -178.75367690 </i>
    <i name="atom">  22280.27950853 </i>
    <i name="e_fr_energy">    -62.86030874 </i>
    <i name="e_wo_entrp">    -62.83109742 </i>
    <i name="e_0_energy">    -62.85057163 </i>
   </energy>
  </scstep>
  <scstep>
   <time name="dav">    1.23    1.24</time>
   <time name="total">    1.35    1.36</time>
   <energy>
    <i name="e_fr_energy">    -62.86537198 </i>
    <i name="e_wo_entrp">    -62.83604970 </i>
    <i name="e_0_energy">    -62.85559789 </i>
   </energy>
  </scstep>
  <scstep>
   <time name="dav">    1.18    1.19</time>
   <time name="total">    1.31    1.32</time>
   <energy>
    <i name="e_fr_energy">    -62.86321505 </i>
    <i name="e_wo_entrp">    -62.83362406 </i>
    <i name="e_0_energy">    -62.85335139 </i>
   </energy>
  </scstep>
  <scstep>
   <time name="dav">    0.88    0.89</time>
   <time name="total">    1.00    1.01</time>
   <energy>
    <i name="e_fr_energy">    -62.86271113 </i>
    <i name="e_wo_entrp">    -62.83383792 </i>
    <i name="e_0_energy">    -62.85308673 </i>
   </energy>
  </scstep>
  <scstep>
   <time name="dav">    0.90    0.91</time>
   <time name="total">    0.93    0.94</time>
   <energy>
    <i name="alphaZ">    521.04204123 </i>
    <i name="ewald"> 102680.38474375 </i>
    <i name="hartreedc">-124360.48531721 </i>
    <i name="XCdc">    719.43138638 </i>
    <i name="pawpsdc">  21073.72793434 </i>
    <i name="pawaedc"> -22800.02081391 </i>
    <i name="eentropy">     -0.03150551 </i>
    <i name="bandstr">   -177.19067799 </i>
    <i name="atom">  22280.27950853 </i>
    <i name="e_fr_energy">    -62.86270041 </i>
    <i name="e_wo_entrp">    -62.83119489 </i>
    <i name="e_0_energy">    -62.85219857 </i>
   </energy>
  </scstep>
  <structure>
   <crystal>
    <varray name="basis" >
     <v>       3.63000011       0.00000000       0.00000000 </v>
     <v>       0.00000000       3.63000011       0.00000000 </v>
     <v>       0.00000000       0.00000000      27.70499992 </v>
    </varray>
    <i name="volume">    365.06603650 </i>
    <varray name="rec_basis" >
     <v>       0.27548208       0.00000000       0.00000000 </v>
     <v>       0.00000000       0.27548208       0.00000000 </v>
     <v>       0.00000000       0.00000000       0.03609457 </v>
    </varray>
   </crystal>
   <varray name="positions" >
    <v>       0.00000000       0.00000000       0.00024450 </v>
    <v>       0.50000000       0.50000000       0.00024869 </v>
    <v>       0.00000000       0.50000000       0.06526605 </v>
    <v>       0.50000000       0.00000000       0.06526605 </v>
    <v>       0.00000000      -0.00000000       0.12877214 </v>
    <v>       0.50000000       0.50000000       0.12877435 </v>
    <v>       0.00000000       0.50000000       0.19192924 </v>
    <v>       0.50000000      -0.00000000       0.19192924 </v>
    <v>       0.00000000       0.00000000       0.25405167 </v>
    <v>       0.50000000       0.50000000       0.25413186 </v>
    <v>       0.00000000       0.50000000       0.31748094 </v>
    <v>       0.50000000       0.00000000       0.31748094 </v>
    <v>       0.00000000      -0.00000000       0.38124698 </v>
    <v>       0.50000000       0.50000000       0.38140275 </v>
    <v>       0.00000000       0.50000000       0.44405010 </v>
    <v>       0.50000000       0.00000000       0.44405010 </v>
    <v>       1.00000000       1.00000000       0.50104678 </v>
    <v>       1.00000000       1.00000000       0.52951100 </v>
   </varray>
  </structure>
  <varray name="forces" >
   <v>       0.00000000      -0.00000000       0.18989831 </v>
   <v>       0.00000000      -0.00000000       0.19198815 </v>
   <v>       0.00000000      -0.00000000      -0.17072108 </v>
   <v>       0.00000000      -0.00000000      -0.17072108 </v>
   <v>       0.00000000       0.00000000      -0.01044545 </v>
   <v>       0.00000000       0.00000000      -0.00975460 </v>
   <v>       0.00000000      -0.00000000       0.00428182 </v>
   <v>       0.00000000      -0.00000000       0.00428182 </v>
   <v>       0.00000000       0.00000000      -0.00270574 </v>
   <v>       0.00000000      -0.00000000       0.06094179 </v>
   <v>       0.00000000       0.00000000       0.00969339 </v>
   <v>       0.00000000      -0.00000000       0.00969339 </v>
   <v>       0.00000000       0.00000000      -0.10118930 </v>
   <v>       0.00000000      -0.00000000       0.02083430 </v>
   <v>       0.00000000       0.00000000      -0.28940877 </v>
   <v>       0.00000000      -0.00000000      -0.28940877 </v>
   <v>       0.00000000      -0.00000000       0.65205905 </v>
   <v>       0.00000000      -0.00000000      -0.09931724 </v>
  </varray>
  <varray name="stress" >
   <v>     -23.32046139       0.00000000       0.00000000 </v>
   <v>       0.00000000     -23.32046139       0.00000000 </v>
   <v>       0.00000000       0.00000000      -9.28133548 </v>
  </varray>
  <energy>
   <i name="e_fr_energy">    -69.80047577 </i>
   <i name="e_wo_entrp">    -69.76897025 </i>
   <i name="e_0_energy">    -69.78997393 </i>
  </energy>
  <time name="totalsc">    7.10    7.17</time>
 </calculation>
 <calculation>
  <scstep>
   <time name="dav">    0.86    0.87</time>
   <time name="total">    0.99    1.00</time>
   <energy>
    <i name="alphaZ">    521.04204123 </i>
    <i name="ewald"> 102930.49175803 </i>
    <i name="hartreedc">-124608.55567698 </i>
    <i name="XCdc">    719.51868548 </i>
    <i name="pawpsdc">  21073.51571705 </i>
    <i name="pawaedc"> -22799.77727925 </i>
    <i name="eentropy">     -0.02879347 </i>
    <i name="bandstr">   -179.35614101 </i>
    <i name="atom">  22280.27950853 </i>
    <i name="e_fr_energy">    -62.87018039 </i>
    <i name="e_wo_entrp">    -62.84138692 </i>
    <i name="e_0_energy">    -62.86058257 </i>
   </energy>
  </scstep>
  <scstep>
   <time name="dav">    1.22    1.23</time>
   <time name="total">    1.35    1.36</time>
   <energy>
    <i name="e_fr_energy">    -62.89938024 </i>
    <i name="e_wo_entrp">    -62.86384499 </i>
    <i name="e_0_energy">    -62.88753516 </i>
   </energy>
  </scstep>
  <scstep>
   <time name="dav">    1.08    1.09</time>
   <time name="total">    1.21    1.22</time>
   <energy>
    <i name="e_fr_energy">    -62.89048267 </i>
    <i name="e_wo_entrp">    -62.85792516 </i>
    <i name="e_0_energy">    -62.87963017 </i>
   </energy>
  </scstep>
  <scstep>
   <time name="dav">    0.95    0.96</time>
   <time name="total">    1.07    1.08</time>
   <energy>
    <i name="e_fr_energy">    -62.88527130 </i>
    <i name="e_wo_entrp">    -62.85786038 </i>
    <i name="e_0_energy">    -62.87613433 </i>
   </energy>
  </scstep>
  <scstep>
   <time name="dav">    0.90    0.91</time>
   <time name="total">    1.02    1.03</time>
   <energy>
    <i name="e_fr_energy">    -62.88476394 </i>
    <i name="e_wo_entrp">    -62.85360682 </i>
    <i name="e_0_energy">    -62.87437823 </i>
   </energy>
  </scstep>
  <scstep>
   <time name="dav">    0.87    0.88</time>
   <time name="total">    0.99    1.00</time>
   <energy>
    <i name="e_fr_energy">    -62.88480981 </i>
    <i name="e_wo_entrp">    -62.85413084 </i>
    <i name="e_0_energy">    -62.87458349 </i>
   </energy>
  </scstep>
  <scstep>
   <time name="dav">    0.94    0.95</time>
   <time name="total">    1.06    1.07</time>
   <energy>
    <i name="e_fr_energy">    -62.88450914 </i>
    <i name="e_wo_entrp">    -62.85278060 </i>
    <i name="e_0_energy">    -62.87393296 </i>
   </energy>
  </scstep>
  <scstep>
   <time name="dav">    0.76    0.76</time>
   <time name="total">    0.79    0.80</time>
   <energy>
    <i name="alphaZ">    521.04204123 </i>
    <i name="ewald"> 102930.49175803 </i>
    <i name="hartreedc">-124607.54494987 </i>
    <i name="XCdc">    719.49945663 </i>
    <i name="pawpsdc">  21085.71628241 </i>
    <i name="pawaedc"> -22812.27500023 </i>
    <i name="eentropy">     -0.03155334 </i>
    <i name="bandstr">   -180.06210915 </i>
    <i name="atom">  22280.27950853 </i>
    <i name="e_fr_energy">    -62.88456575 </i>
    <i name="e_wo_entrp">    -62.85301241 </i>
    <i name="e_0_energy">    -62.87404797 </i>
   </energy>
  </scstep>
  <structure>
   <crystal>
    <varray name="basis" >
     <v>       3.63000011       0.00000000       0.00000000 </v>
     <v>       0.00000000       3.63000011       0.00000000 </v>
     <v>       0.00000000       0.00000000      27.70499992 </v>
    </varray>
    <i name="volume">    365.06603650 </i>
    <varray name="rec_basis" >
     <v>       0.27548208       0.00000000       0.00000000 </v>
     <v>       0.00000000       0.27548208       0.00000000 </v>
     <v>       0.00000000       0.00000000       0.03609457 </v>
    </varray>
   </crystal>
   <varray name="positions" >
    <v>       0.00000000      -0.00000000       0.00070771 </v>
    <v>       0.50000000       0.50000000       0.00071798 </v>
    <v>       0.00000000       0.50000000       0.06483272 </v>
    <v>       0.50000000       0.00000000       0.06483272 </v>
    <v>       0.00000000      -0.00000000       0.12876264 </v>
    <v>       0.50000000       0.50000000       0.12876740 </v>
    <v>       0.00000000       0.50000000       0.19193436 </v>
    <v>       0.50000000      -0.00000000       0.19193436 </v>
    <v>       0.00000000       0.00000000       0.25403828 </v>
    <v>       0.50000000       0.50000000       0.25427259 </v>
    <v>       0.00000000       0.50000000       0.31749797 </v>
    <v>       0.50000000      -0.00000000       0.31749797 </v>
    <v>       0.00000000      -0.00000000       0.38103615 </v>
    <v>       0.50000000       0.50000000       0.38148869 </v>
    <v>       0.00000000       0.50000000       0.44335855 </v>
    <v>       0.50000000      -0.00000000       0.44335855 </v>
    <v>       1.00000000       1.00000000       0.50178602 </v>
    <v>       1.00000000       1.00000000       0.53005872 </v>
   </varray>
  </structure>
  <varray name="forces" >
   <v>       0.00000000      -0.00000000       0.10661714 </v>
   <v>       0.00000000       0.00000000       0.10961494 </v>
   <v>       0.00000000       0.00000000      -0.04752045 </v>
   <v>       0.00000000      -0.00000000      -0.04752045 </v>
   <v>       0.00000000       0.00000000      -0.05505143 </v>
   <v>       0.00000000      -0.00000000      -0.05603054 </v>
   <v>       0.00000000       0.00000000       0.00567739 </v>
   <v>       0.00000000      -0.00000000       0.00567739 </v>
   <v>       0.00000000      -0.00000000       0.00150442 </v>
   <v>       0.00000000      -0.00000000       0.02261427 </v>
   <v>       0.00000000      -0.00000000       0.00663788 </v>
   <v>       0.00000000       0.00000000       0.00663788 </v>
   <v>       0.00000000      -0.00000000      -0.12077860 </v>
   <v>       0.00000000      -0.00000000      -0.07244310 </v>
   <v>       0.00000000       0.00000000      -0.19921482 </v>
   <v>       0.00000000      -0.00000000      -0.19921482 </v>
   <v>       0.00000000      -0.00000000       0.55649522 </v>
   <v>       0.00000000      -0.00000000      -0.02370234 </v>
  </varray>
  <varray name="stress" >
   <v>     -22.58766347       0.00000000       0.00000000 </v>
   <v>       0.00000000     -22.58766347       0.00000000 </v>
   <v>       0.00000000       0.00000000      -7.02174085 </v>
  </varray>
  <energy>
   <i name="e_fr_energy">    -69.82843125 </i>
   <i name="e_wo_entrp">    -69.79687792 </i>
   <i name="e_0_energy">    -69.81791347 </i>
  </energy>
  <time name="totalsc">    9.97   10.11</time>
 </calculation>
 <calculation>
  <scstep>
   <time name="dav">    0.86    0.87</time>
   <time name="total">    0.98    0.99</time>
   <energy>
    <i name="alphaZ">    521.04204123 </i>
    <i name="ewald"> 103539.95039423 </i>
    <i name="hartreedc">-125215.34156909 </i>
    <i name="XCdc">    719.73535880 </i>
    <i name="pawpsdc">  21085.90270612 </i>
    <i name="pawaedc"> -22812.42091129 </i>
    <i name="eentropy">     -0.03593438 </i>
    <i name="bandstr">   -181.91079341 </i>
    <i name="atom">  22280.27950853 </i>
    <i name="e_fr_energy">    -62.79919926 </i>
    <i name="e_wo_entrp">    -62.76326488 </i>
    <i name="e_0_energy">    -62.78722113 </i>
   </energy>
  </scstep>
  <scstep>
   <time name="dav">    1.21    1.22</time>
   <time name="total">    1.33    1.34</time>
   <energy>
    <i name="e_fr_energy">    -62.94066521 </i>
    <i name="e_wo_entrp">    -62.91852731 </i>
    <i name="e_0_energy">    -62.93328591 </i>
   </energy>
  </scstep>
  <scstep>
   <time name="dav">    1.03    1.04</time>
   <time name="total">    1.15    1.16</time>
   <energy>
    <i name="e_fr_energy">    -62.92311623 </i>
    <i name="e_wo_entrp">    -62.89891839 </i>
    <i name="e_0_energy">    -62.91505028 </i>
   </energy>
  </scstep>
  <scstep>
   <time name="dav">    1.10    1.11</time>
   <time name="total">    1.22    1.23</time>
   <energy>
    <i name="e_fr_energy">    -62.89659051 </i>
    <i name="e_wo_entrp">    -62.86606307 </i>
    <i name="e_0_energy">    -62.88641470 </i>
   </energy>
  </scstep>
  <scstep>
   <time name="dav">    1.06    1.07</time>
   <time name="total">    1.18    1.19</time>
   <energy>
    <i name="e_fr_energy">    -62.89634619 </i>
    <i name="e_wo_entrp">    -62.85625719 </i>
    <i name="e_0_energy">    -62.88298319 </i>
   </energy>
  </scstep>
  <scstep>
   <time name="dav">    0.91    0.92</time>
   <time name="total">    1.03    1.04</time>
   <energy>
    <i name="e_fr_energy">    -62.89549875 </i>
    <i name="e_wo_entrp">    -62.86359373 </i>
    <i name="e_0_energy">    -62.88486374 </i>
   </energy>
  </scstep>
  <scstep>
   <time name="dav">    1.17    1.18</time>
   <time name="total">    1.29    1.30</time>
   <energy>
    <i name="e_fr_energy">    -62.89316277 </i>
    <i name="e_wo_entrp">    -62.85654280 </i>
    <i name="e_0_energy">    -62.88095611 </i>
   </energy>
  </scstep>
  <scstep>
   <time name="dav">    1.01    1.02</time>
   <time name="total">    1.13    1.14</time>
   <energy>
    <i name="e_fr_energy">    -62.89339618 </i>
    <i name="e_wo_entrp">    -62.85776150 </i>
    <i name="e_0_energy">    -62.88151795 </i>
   </energy>
  </scstep>
  <scstep>
   <time name="dav">    0.85    0.86</time>
   <time name="total">    0.89    0.89</time>
   <energy>
    <i name="alphaZ">    521.04204123 </i>
    <i name="ewald"> 103539.95039423 </i>
    <i name="hartreedc">-125211.91321510 </i>
    <i name="XCdc">    719.67282536 </i>
    <i name="pawpsdc">  21119.47479999 </i>
    <i name="pawaedc"> -22846.68624239 </i>
    <i name="eentropy">     -0.03565677 </i>
    <i name="bandstr">   -184.67765910 </i>
    <i name="atom">  22280.27950853 </i>
    <i name="e_fr_energy">    -62.89320402 </i>
    <i name="e_wo_entrp">    -62.85754724 </i>
    <i name="e_0_energy">    -62.88131842 </i>
   </energy>
  </scstep>
  <structure>
   <crystal>
    <varray name="basis" >
     <v>       3.63000011       0.00000000       0.00000000 </v>
     <v>       0.00000000       3.63000011       0.00000000 </v>
     <v>       0.00000000       0.00000000      27.70499992 </v>
    </varray>
    <i name="volume">    365.06603650 </i>
    <varray name="rec_basis" >
     <v>       0.27548208       0.00000000       0.00000000 </v>
     <v>       0.00000000       0.27548208       0.00000000 </v>
     <v>       0.00000000       0.00000000       0.03609457 </v>
    </varray>
   </crystal>
   <varray name="positions" >
    <v>       0.00000000      -0.00000000       0.00182951 </v>
    <v>       0.50000000       0.50000000       0.00185451 </v>
    <v>       0.00000000       0.50000000       0.06378329 </v>
    <v>       0.50000000       0.00000000       0.06378329 </v>
    <v>       0.00000000      -0.00000000       0.12873964 </v>
    <v>       0.50000000       0.50000000       0.12875057 </v>
    <v>       0.00000000       0.50000000       0.19194674 </v>
    <v>       0.50000000      -0.00000000       0.19194674 </v>
    <v>       0.00000000       0.00000000       0.25400588 </v>
    <v>       0.50000000       0.50000000       0.25461339 </v>
    <v>       0.00000000       0.50000000       0.31753922 </v>
    <v>       0.50000000      -0.00000000       0.31753922 </v>
    <v>       0.00000000      -0.00000000       0.38052556 </v>
    <v>       0.50000000       0.50000000       0.38169682 </v>
    <v>       0.00000000       0.50000000       0.44168376 </v>
    <v>       0.50000000      -0.00000000       0.44168376 </v>
    <v>       1.00000000       1.00000000       0.50357629 </v>
    <v>       1.00000000       1.00000000       0.53138519 </v>
   </varray>
  </structure>
  <varray name="forces" >
   <v>       0.00000000      -0.00000000      -0.11804424 </v>
   <v>       0.00000000       0.00000000      -0.11601747 </v>
   <v>       0.00000000       0.00000000       0.30744220 </v>
   <v>       0.00000000       0.00000000       0.30744220 </v>
   <v>       0.00000000      -0.00000000      -0.15204525 </v>
   <v>       0.00000000      -0.00000000      -0.15726436 </v>
   <v>       0.00000000      -0.00000000       0.00385924 </v>
   <v>       0.00000000      -0.00000000       0.00385924 </v>
   <v>       0.00000000      -0.00000000       0.01318280 </v>
   <v>       0.00000000      -0.00000000      -0.05459657 </v>
   <v>       0.00000000       0.00000000      -0.00536684 </v>
   <v>       0.00000000      -0.00000000      -0.00536684 </v>
   <v>       0.00000000      -0.00000000      -0.20834692 </v>
   <v>       0.00000000      -0.00000000      -0.34432546 </v>
   <v>       0.00000000       0.00000000       0.03805096 </v>
   <v>       0.00000000      -0.00000000       0.03805096 </v>
   <v>       0.00000000      -0.00000000       0.28289407 </v>
   <v>       0.00000000      -0.00000000       0.16659228 </v>
  </varray>
  <varray name="stress" >
   <v>     -20.08867796       0.00000000       0.00000000 </v>
   <v>       0.00000000     -20.08867796       0.00000000 </v>
   <v>       0.00000000       0.00000000      -3.28307733 </v>
  </varray>
  <energy>
   <i name="e_fr_energy">    -69.85279886 </i>
   <i name="e_wo_entrp">    -69.81714209 </i>
   <i name="e_0_energy">    -69.84091327 </i>
  </energy>
  <time name="totalsc">   11.71   11.89</time>
 </calculation>
 <calculation>
  <scstep>
   <time name="dav">    0.85    0.86</time>
   <time name="total">    0.98    0.99</time>
   <energy>
    <i name="alphaZ">    521.04204123 </i>
    <i name="ewald"> 103941.10493464 </i>
    <i name="hartreedc">-125612.82972877 </i>
    <i name="XCdc">    719.72870739 </i>
    <i name="pawpsdc">  21119.24817826 </i>
    <i name="pawaedc"> -22846.38657388 </i>
    <i name="eentropy">     -0.03734637 </i>
    <i name="bandstr">   -185.03629285 </i>
    <i name="atom">  22280.27950853 </i>
    <i name="e_fr_energy">    -62.88657181 </i>
    <i name="e_wo_entrp">    -62.84922544 </i>
    <i name="e_0_energy">    -62.87412302 </i>
   </energy>
  </scstep>
  <scstep>
   <time name="dav">    1.09    1.10</time>
   <time name="total">    1.22    1.23</time>
   <energy>
    <i name="e_fr_energy">    -62.91673369 </i>
    <i name="e_wo_entrp">    -62.88146194 </i>
    <i name="e_0_energy">    -62.90497644 </i>
   </energy>
  </scstep>
  <scstep>
   <time name="dav">    0.92    0.93</time>
   <time name="total">    1.04    1.05</time>
   <energy>
    <i name="e_fr_energy">    -62.91163692 </i>
    <i name="e_wo_entrp">    -62.87560125 </i>
    <i name="e_0_energy">    -62.89962503 </i>
   </energy>
  </scstep>
  <scstep>
   <time name="dav">    0.95    0.96</time>
   <time name="total">    1.08    1.09</time>
   <energy>
    <i name="e_fr_energy">    -62.91026083 </i>
    <i name="e_wo_entrp">    -62.87376401 </i>
    <i name="e_0_energy">    -62.89809523 </i>
   </energy>
  </scstep>
  <scstep>
   <time name="dav">    0.98    0.99</time>
   <time name="total">    1.11    1.12</time>
   <energy>
    <i name="e_fr_energy">    -62.91023284 </i>
    <i name="e_wo_entrp">    -62.87103659 </i>
    <i name="e_0_energy">    -62.89716742 </i>
   </energy>
  </scstep>
  <scstep>
   <time name="dav">    0.97    0.98</time>
   <time name="total">    1.10    1.11</time>
   <energy>
    <i name="e_fr_energy">    -62.91071130 </i>
    <i name="e_wo_entrp">    -62.87903842 </i>
    <i name="e_0_energy">    -62.90015367 </i>
   </energy>
  </scstep>
  <scstep>
   <time name="dav">    1.20    1.21</time>
   <time name="total">    1.33    1.34</time>
   <energy>
    <i name="e_fr_energy">    -62.90900474 </i>
    <i name="e_wo_entrp">    -62.87085598 </i>
    <i name="e_0_energy">    -62.89628849 </i>
   </energy>
  </scstep>
  <scstep>
   <time name="dav">    0.84    0.84</time>
   <time name="total">    0.87    0.88</time>
   <energy>
    <i name="alphaZ">    521.04204123 </i>
    <i name="ewald"> 103941.10493464 </i>
    <i name="hartreedc">-125611.10239258 </i>
    <i name="XCdc">    719.73469335 </i>
    <i name="pawpsdc">  21129.32971237 </i>
    <i name="pawaedc"> -22856.66058363 </i>
    <i name="eentropy">     -0.03711537 </i>
    <i name="bandstr">   -186.59977261 </i>
    <i name="atom">  22280.27950853 </i>
    <i name="e_fr_energy">    -62.90897407 </i>
    <i name="e_wo_entrp">    -62.87185870 </i>
    <i name="e_0_energy">    -62.89660228 </i>
   </energy>
  </scstep>
  <structure>
   <crystal>
    <varray name="basis" >
     <v>       3.63000011       0.00000000       0.00000000 </v>
     <v>       0.00000000       3.63000011       0.00000000 </v>
     <v>       0.00000000       0.00000000      27.70499992 </v>
    </varray>
    <i name="volume">    365.06603650 </i>
    <varray name="rec_basis" >
     <v>       0.27548208       0.00000000       0.00000000 </v>
     <v>       0.00000000       0.27548208       0.00000000 </v>
     <v>       0.00000000       0.00000000       0.03609457 </v>
    </varray>
   </crystal>
   <varray name="positions" >
    <v>       0.00000000      -0.00000000       0.00203703 </v>
    <v>       0.50000000       0.50000000       0.00207322 </v>
    <v>       0.00000000       0.50000000       0.06405581 </v>
    <v>       0.50000000       0.00000000       0.06405581 </v>
    <v>       0.00000000      -0.00000000       0.12836951 </v>
    <v>       0.50000000       0.50000000       0.12837077 </v>
    <v>       0.00000000       0.50000000       0.19196126 </v>
    <v>       0.50000000      -0.00000000       0.19196126 </v>
    <v>       0.00000000       0.00000000       0.25402303 </v>
    <v>       0.50000000       0.50000000       0.25463205 </v>
    <v>       0.00000000       0.50000000       0.31754442 </v>
    <v>       0.50000000      -0.00000000       0.31754442 </v>
    <v>       0.00000000      -0.00000000       0.37981036 </v>
    <v>       0.50000000       0.50000000       0.38097163 </v>
    <v>       0.00000000       0.50000000       0.44104665 </v>
    <v>       0.50000000      -0.00000000       0.44104665 </v>
    <v>       1.00000000       1.00000000       0.50502374 </v>
    <v>       1.00000000       1.00000000       0.53235577 </v>
   </varray>
  </structure>
  <varray name="forces" >
   <v>       0.00000000       0.00000000      -0.11804140 </v>
   <v>       0.00000000      -0.00000000      -0.11648291 </v>
   <v>       0.00000000       0.00000000       0.21784142 </v>
   <v>       0.00000000      -0.00000000       0.21784142 </v>
   <v>       0.00000000      -0.00000000      -0.02931655 </v>
   <v>       0.00000000      -0.00000000      -0.03285532 </v>
   <v>       0.00000000       0.00000000      -0.03247073 </v>
   <v>       0.00000000       0.00000000      -0.03247073 </v>
   <v>       0.00000000       0.00000000       0.00925389 </v>
   <v>       0.00000000       0.00000000      -0.06189651 </v>
   <v>       0.00000000      -0.00000000      -0.08681428 </v>
   <v>       0.00000000       0.00000000      -0.08681428 </v>
   <v>       0.00000000      -0.00000000      -0.10948855 </v>
   <v>       0.00000000       0.00000000      -0.25077590 </v>
   <v>       0.00000000       0.00000000       0.04562450 </v>
   <v>       0.00000000       0.00000000       0.04562450 </v>
   <v>       0.00000000       0.00000000      -0.05553129 </v>
   <v>       0.00000000       0.00000000       0.47677272 </v>
  </varray>
  <varray name="stress" >
   <v>     -16.47290181       0.00000000      -0.00000000 </v>
   <v>       0.00000000     -16.47290181       0.00000000 </v>
   <v>      -0.00000000       0.00000000       1.56800694 </v>
  </varray>
  <energy>
   <i name="e_fr_energy">    -69.87881521 </i>
   <i name="e_wo_entrp">    -69.84169984 </i>
   <i name="e_0_energy">    -69.86644342 </i>
  </energy>
  <time name="totalsc">   10.21   10.34</time>
 </calculation>
 <calculation>
  <scstep>
   <time name="dav">    0.83    0.84</time>
   <time name="total">    0.96    0.97</time>
   <energy>
    <i name="alphaZ">    521.04204123 </i>
    <i name="ewald"> 104505.67223385 </i>
    <i name="hartreedc">-126175.10465279 </i>
    <i name="XCdc">    719.83116681 </i>
    <i name="pawpsdc">  21129.37920904 </i>
    <i name="pawaedc"> -22856.68530718 </i>
    <i name="eentropy">     -0.03924539 </i>
    <i name="bandstr">   -187.23926551 </i>
    <i name="atom">  22280.27950853 </i>
    <i name="e_fr_energy">    -62.86431141 </i>
    <i name="e_wo_entrp">    -62.82506602 </i>
    <i name="e_0_energy">    -62.85122961 </i>
   </energy>
  </scstep>
  <scstep>
   <time name="dav">    1.11    1.11</time>
   <time name="total">    1.23    1.24</time>
   <energy>
    <i name="e_fr_energy">    -62.92261586 </i>
    <i name="e_wo_entrp">    -62.88511138 </i>
    <i name="e_0_energy">    -62.91011437 </i>
   </energy>
  </scstep>
  <scstep>
   <time name="dav">    0.95    0.95</time>
   <time name="total">    1.07    1.08</time>
   <energy>
    <i name="e_fr_energy">    -62.91533917 </i>
    <i name="e_wo_entrp">    -62.87820258 </i>
    <i name="e_0_energy">    -62.90296031 </i>
   </energy>
  </scstep>
  <scstep>
   <time name="dav">    0.99    1.00</time>
   <time name="total">    1.12    1.13</time>
   <energy>
    <i name="e_fr_energy">    -62.91147335 </i>
    <i name="e_wo_entrp">    -62.87394507 </i>
    <i name="e_0_energy">    -62.89896392 </i>
   </energy>
  </scstep>
  <scstep>
   <time name="dav">    1.04    1.05</time>
   <time name="total">    1.17    1.18</time>
   <energy>
    <i name="e_fr_energy">    -62.91159776 </i>
    <i name="e_wo_entrp">    -62.86826412 </i>
    <i name="e_0_energy">    -62.89715321 </i>
   </energy>
  </scstep>
  <scstep>
   <time name="dav">    1.02    1.03</time>
   <time name="total">    1.14    1.15</time>
   <energy>
    <i name="e_fr_energy">    -62.91081116 </i>
    <i name="e_wo_entrp">    -62.87571874 </i>
    <i name="e_0_energy">    -62.89911369 </i>
   </energy>
  </scstep>
  <scstep>
   <time name="dav">    1.27    1.28</time>
   <time name="total">    1.40    1.41</time>
   <energy>
    <i name="e_fr_energy">    -62.90865734 </i>
    <i name="e_wo_entrp">    -62.86837885 </i>
    <i name="e_0_energy">    -62.89523118 </i>
   </energy>
  </scstep>
  <scstep>
   <time name="dav">    1.01    1.02</time>
   <time name="total">    1.14    1.15</time>
   <energy>
    <i name="e_fr_energy">    -62.90867984 </i>
    <i name="e_wo_entrp">    -62.86929959 </i>
    <i name="e_0_energy">    -62.89555309 </i>
   </energy>
  </scstep>
  <scstep>
   <time name="dav">    0.72    0.73</time>
   <time name="total">    0.76    0.76</time>
   <energy>
    <i name="alphaZ">    521.04204123 </i>
    <i name="ewald"> 104505.67223385 </i>
    <i name="hartreedc">-126172.94888060 </i>
    <i name="XCdc">    719.83373392 </i>
    <i name="pawpsdc">  21144.42386711 </i>
    <i name="pawaedc"> -22871.99787673 </i>
    <i name="eentropy">     -0.03914623 </i>
    <i name="bandstr">   -189.17410032 </i>
    <i name="atom">  22280.27950853 </i>
    <i name="e_fr_energy">    -62.90861924 </i>
    <i name="e_wo_entrp">    -62.86947301 </i>
    <i name="e_0_energy">    -62.89557050 </i>
   </energy>
  </scstep>
  <structure>
   <crystal>
    <varray name="basis" >
     <v>       3.63000011       0.00000000       0.00000000 </v>
     <v>       0.00000000       3.63000011       0.00000000 </v>
     <v>       0.00000000       0.00000000      27.70499992 </v>
    </varray>
    <i name="volume">    365.06603650 </i>
    <varray name="rec_basis" >
     <v>       0.27548208       0.00000000       0.00000000 </v>
     <v>       0.00000000       0.27548208       0.00000000 </v>
     <v>       0.00000000       0.00000000       0.03609457 </v>
    </varray>
   </crystal>
   <varray name="positions" >
    <v>       0.00000000      -0.00000000       0.00232783 </v>
    <v>       0.50000000       0.50000000       0.00237971 </v>
    <v>       0.00000000       0.50000000       0.06443770 </v>
    <v>       0.50000000       0.00000000       0.06443770 </v>
    <v>       0.00000000      -0.00000000       0.12785084 </v>
    <v>       0.50000000       0.50000000       0.12783853 </v>
    <v>       0.00000000       0.50000000       0.19198160 </v>
    <v>       0.50000000      -0.00000000       0.19198160 </v>
    <v>       0.00000000       0.00000000       0.25404706 </v>
    <v>       0.50000000       0.50000000       0.25465821 </v>
    <v>       0.00000000       0.50000000       0.31755170 </v>
    <v>       0.50000000      -0.00000000       0.31755170 </v>
    <v>       0.00000000      -0.00000000       0.37880812 </v>
    <v>       0.50000000       0.50000000       0.37995538 </v>
    <v>       0.00000000       0.50000000       0.44015384 </v>
    <v>       0.50000000      -0.00000000       0.44015384 </v>
    <v>       1.00000000       1.00000000       0.50705211 </v>
    <v>       1.00000000       1.00000000       0.53371589 </v>
   </varray>
  </structure>
  <varray name="forces" >
   <v>       0.00000000      -0.00000000      -0.10438632 </v>
   <v>       0.00000000      -0.00000000      -0.10529135 </v>
   <v>       0.00000000       0.00000000       0.11057355 </v>
   <v>       0.00000000      -0.00000000       0.11057355 </v>
   <v>       0.00000000       0.00000000       0.13104672 </v>
   <v>       0.00000000      -0.00000000       0.13042900 </v>
   <v>       0.00000000      -0.00000000      -0.08448295 </v>
   <v>       0.00000000      -0.00000000      -0.08448295 </v>
   <v>       0.00000000       0.00000000       0.01061209 </v>
   <v>       0.00000000      -0.00000000      -0.06910757 </v>
   <v>       0.00000000       0.00000000      -0.20024778 </v>
   <v>       0.00000000      -0.00000000      -0.20024778 </v>
   <v>       0.00000000       0.00000000       0.03940296 </v>
   <v>       0.00000000      -0.00000000      -0.13275941 </v>
   <v>       0.00000000      -0.00000000       0.04040894 </v>
   <v>       0.00000000      -0.00000000       0.04040894 </v>
   <v>       0.00000000      -0.00000000      -0.63220228 </v>
   <v>       0.00000000      -0.00000000       0.99975266 </v>
  </varray>
  <varray name="stress" >
   <v>     -16.23231589       0.00000000       0.00000000 </v>
   <v>       0.00000000     -16.23231589       0.00000000 </v>
   <v>       0.00000000       0.00000000       3.57248447 </v>
  </varray>
  <energy>
   <i name="e_fr_energy">    -69.89323359 </i>
   <i name="e_wo_entrp">    -69.85408736 </i>
   <i name="e_0_energy">    -69.88018484 </i>
  </energy>
  <time name="totalsc">   11.47   11.61</time>
 </calculation>
 <calculation>
  <scstep>
   <time name="dav">    0.86    0.87</time>
   <time name="total">    0.99    0.99</time>
   <energy>
    <i name="alphaZ">    521.04204123 </i>
    <i name="ewald"> 104667.10106196 </i>
    <i name="hartreedc">-126334.67380170 </i>
    <i name="XCdc">    719.83629475 </i>
    <i name="pawpsdc">  21144.46534836 </i>
    <i name="pawaedc"> -22871.97094627 </i>
    <i name="eentropy">     -0.03983673 </i>
    <i name="bandstr">   -188.95337047 </i>
    <i name="atom">  22280.27950853 </i>
    <i name="e_fr_energy">    -62.91370034 </i>
    <i name="e_wo_entrp">    -62.87386361 </i>
    <i name="e_0_energy">    -62.90042143 </i>
   </energy>
  </scstep>
  <scstep>
   <time name="dav">    1.05    1.06</time>
   <time name="total">    1.17    1.18</time>
   <energy>
    <i name="e_fr_energy">    -62.91705529 </i>
    <i name="e_wo_entrp">    -62.87699913 </i>
    <i name="e_0_energy">    -62.90370324 </i>
   </energy>
  </scstep>
  <scstep>
   <time name="dav">    0.91    0.92</time>
   <time name="total">    1.03    1.04</time>
   <energy>
    <i name="e_fr_energy">    -62.91749488 </i>
    <i name="e_wo_entrp">    -62.87888460 </i>
    <i name="e_0_energy">    -62.90462478 </i>
   </energy>
  </scstep>
  <scstep>
   <time name="dav">    0.80    0.80</time>
   <time name="total">    0.92    0.93</time>
   <energy>
    <i name="e_fr_energy">    -62.91687329 </i>
    <i name="e_wo_entrp">    -62.87741837 </i>
    <i name="e_0_energy">    -62.90372165 </i>
   </energy>
  </scstep>
  <scstep>
   <time name="dav">    0.65    0.65</time>
   <time name="total">    0.68    0.69</time>
   <energy>
    <i name="alphaZ">    521.04204123 </i>
    <i name="ewald"> 104667.10106196 </i>
    <i name="hartreedc">-126334.71281653 </i>
    <i name="XCdc">    719.82685383 </i>
    <i name="pawpsdc">  21146.30640831 </i>
    <i name="pawaedc"> -22873.83554791 </i>
    <i name="eentropy">     -0.04129216 </i>
    <i name="bandstr">   -188.88309384 </i>
    <i name="atom">  22280.27950853 </i>
    <i name="e_fr_energy">    -62.91687657 </i>
    <i name="e_wo_entrp">    -62.87558442 </i>
    <i name="e_0_energy">    -62.90311252 </i>
   </energy>
  </scstep>
  <structure>
   <crystal>
    <varray name="basis" >
     <v>       3.63000011       0.00000000       0.00000000 </v>
     <v>       0.00000000       3.63000011       0.00000000 </v>
     <v>       0.00000000       0.00000000      27.70499992 </v>
    </varray>
    <i name="volume">    365.06603650 </i>
    <varray name="rec_basis" >
     <v>       0.27548208       0.00000000       0.00000000 </v>
     <v>       0.00000000       0.27548208       0.00000000 </v>
     <v>       0.00000000       0.00000000       0.03609457 </v>
    </varray>
   </crystal>
   <varray name="positions" >
    <v>       0.00000000      -0.00000000       0.00237300 </v>
    <v>       0.50000000       0.50000000       0.00242883 </v>
    <v>       0.00000000       0.50000000       0.06457611 </v>
    <v>       0.50000000       0.00000000       0.06457611 </v>
    <v>       0.00000000      -0.00000000       0.12775266 </v>
    <v>       0.50000000       0.50000000       0.12773649 </v>
    <v>       0.00000000       0.50000000       0.19196011 </v>
    <v>       0.50000000      -0.00000000       0.19196011 </v>
    <v>       0.00000000       0.00000000       0.25405694 </v>
    <v>       0.50000000       0.50000000       0.25464321 </v>
    <v>       0.00000000       0.50000000       0.31748972 </v>
    <v>       0.50000000      -0.00000000       0.31748972 </v>
    <v>       0.00000000      -0.00000000       0.37855012 </v>
    <v>       0.50000000       0.50000000       0.37963863 </v>
    <v>       0.00000000       0.50000000       0.43992571 </v>
    <v>       0.50000000      -0.00000000       0.43992571 </v>
    <v>       1.00000000       1.00000000       0.50739784 </v>
    <v>       1.00000000       1.00000000       0.53440234 </v>
   </varray>
  </structure>
  <varray name="forces" >
   <v>       0.00000000      -0.00000000      -0.09858800 </v>
   <v>       0.00000000       0.00000000      -0.10035345 </v>
   <v>       0.00000000      -0.00000000       0.05713151 </v>
   <v>       0.00000000      -0.00000000       0.05713151 </v>
   <v>       0.00000000      -0.00000000       0.17078658 </v>
   <v>       0.00000000      -0.00000000       0.17130736 </v>
   <v>       0.00000000      -0.00000000      -0.08760514 </v>
   <v>       0.00000000      -0.00000000      -0.08760514 </v>
   <v>       0.00000000       0.00000000      -0.00859658 </v>
   <v>       0.00000000      -0.00000000      -0.08314842 </v>
   <v>       0.00000000      -0.00000000      -0.22891168 </v>
   <v>       0.00000000       0.00000000      -0.22891168 </v>
   <v>       0.00000000      -0.00000000       0.07844054 </v>
   <v>       0.00000000       0.00000000      -0.09229406 </v>
   <v>       0.00000000      -0.00000000       0.05118391 </v>
   <v>       0.00000000      -0.00000000       0.05118391 </v>
   <v>       0.00000000       0.00000000      -0.31254555 </v>
   <v>       0.00000000      -0.00000000       0.69139439 </v>
  </varray>
  <varray name="stress" >
   <v>     -13.77502118       0.00000000      -0.00000000 </v>
   <v>       0.00000000     -13.77502118       0.00000000 </v>
   <v>       0.00000000       0.00000000       4.27844037 </v>
  </varray>
  <energy>
   <i name="e_fr_energy">    -69.90557054 </i>
   <i name="e_wo_entrp">    -69.86427838 </i>
   <i name="e_0_energy">    -69.89180649 </i>
  </energy>
  <time name="totalsc">    6.28    6.37</time>
 </calculation>
 <calculation>
  <scstep>
   <time name="dav">    0.85    0.86</time>
   <time name="total">    0.98    0.99</time>
   <energy>
    <i name="alphaZ">    521.04204123 </i>
    <i name="ewald"> 105059.15743366 </i>
    <i name="hartreedc">-126725.53748838 </i>
    <i name="XCdc">    719.85066995 </i>
    <i name="pawpsdc">  21146.54882984 </i>
    <i name="pawaedc"> -22874.08036482 </i>
    <i name="eentropy">     -0.03835242 </i>
    <i name="bandstr">   -190.12332650 </i>
    <i name="atom">  22280.27950853 </i>
    <i name="e_fr_energy">    -62.90104890 </i>
    <i name="e_wo_entrp">    -62.86269648 </i>
    <i name="e_0_energy">    -62.88826476 </i>
   </energy>
  </scstep>
  <scstep>
   <time name="dav">    1.16    1.17</time>
   <time name="total">    1.29    1.30</time>
   <energy>
    <i name="e_fr_energy">    -62.92838671 </i>
    <i name="e_wo_entrp">    -62.87781720 </i>
    <i name="e_0_energy">    -62.91153021 </i>
   </energy>
  </scstep>
  <scstep>
   <time name="dav">    1.05    1.06</time>
   <time name="total">    1.18    1.19</time>
   <energy>
    <i name="e_fr_energy">    -62.92491649 </i>
    <i name="e_wo_entrp">    -62.88535182 </i>
    <i name="e_0_energy">    -62.91172827 </i>
   </energy>
  </scstep>
  <scstep>
   <time name="dav">    1.00    1.01</time>
   <time name="total">    1.13    1.14</time>
   <energy>
    <i name="e_fr_energy">    -62.91987335 </i>
    <i name="e_wo_entrp">    -62.88171173 </i>
    <i name="e_0_energy">    -62.90715281 </i>
   </energy>
  </scstep>
  <scstep>
   <time name="dav">    1.02    1.03</time>
   <time name="total">    1.15    1.16</time>
   <energy>
    <i name="e_fr_energy">    -62.91868717 </i>
    <i name="e_wo_entrp">    -62.87714898 </i>
    <i name="e_0_energy">    -62.90484110 </i>
   </energy>
  </scstep>
  <scstep>
   <time name="dav">    1.01    1.02</time>
   <time name="total">    1.14    1.15</time>
   <energy>
[...]
  </varray>
  <varray name="stress" >
   <v>     -17.09902653       0.00000000       0.00000000 </v>
   <v>       0.00000000     -17.09902653      -0.00000000 </v>
   <v>       0.00000000       0.00000000      -2.24932678 </v>
  </varray>
  <energy>
   <i name="e_fr_energy">    -70.02019664 </i>
   <i name="e_wo_entrp">    -69.99688022 </i>
   <i name="e_0_energy">    -70.01242450 </i>
  </energy>
  <time name="totalsc">    2.82    2.89</time>
 </calculation>
 <calculation>
  <scstep>
   <time name="dav">    0.62    0.62</time>
   <time name="total">    0.74    0.75</time>
   <energy>
    <i name="alphaZ">    521.04204123 </i>
    <i name="ewald"> 104184.78233340 </i>
    <i name="hartreedc">-125841.69851345 </i>
    <i name="XCdc">    719.54963850 </i>
    <i name="pawpsdc">  21119.30392731 </i>
    <i name="pawaedc"> -22846.32697982 </i>
    <i name="eentropy">     -0.02337100 </i>
    <i name="bandstr">   -199.98056158 </i>
    <i name="atom">  22280.27950853 </i>
    <i name="e_fr_energy">    -63.07197688 </i>
    <i name="e_wo_entrp">    -63.04860588 </i>
    <i name="e_0_energy">    -63.06418655 </i>
   </energy>
  </scstep>
  <scstep>
   <time name="dav">    0.58    0.58</time>
   <time name="total">    0.61    0.62</time>
   <energy>
    <i name="alphaZ">    521.04204123 </i>
    <i name="ewald"> 104184.78233340 </i>
    <i name="hartreedc">-125841.66125029 </i>
    <i name="XCdc">    719.54975665 </i>
    <i name="pawpsdc">  21119.30402082 </i>
    <i name="pawaedc"> -22846.32751417 </i>
    <i name="eentropy">     -0.02323840 </i>
    <i name="bandstr">   -200.01766630 </i>
    <i name="atom">  22280.27950853 </i>
    <i name="e_fr_energy">    -63.07200853 </i>
    <i name="e_wo_entrp">    -63.04877013 </i>
    <i name="e_0_energy">    -63.06426240 </i>
   </energy>
  </scstep>
  <structure>
   <crystal>
    <varray name="basis" >
     <v>       3.63000011       0.00000000       0.00000000 </v>
     <v>       0.00000000       3.63000011       0.00000000 </v>
     <v>       0.00000000       0.00000000      27.70499992 </v>
    </varray>
    <i name="volume">    365.06603650 </i>
    <varray name="rec_basis" >
     <v>       0.27548208       0.00000000       0.00000000 </v>
     <v>       0.00000000       0.27548208       0.00000000 </v>
     <v>       0.00000000       0.00000000       0.03609457 </v>
    </varray>
   </crystal>
   <varray name="positions" >
    <v>       0.00000000       0.00000000       0.00032734 </v>
    <v>       0.50000000       0.50000000       0.00033037 </v>
    <v>       0.00000000       0.50000000       0.06354584 </v>
    <v>       0.50000000       0.00000000       0.06354584 </v>
    <v>       0.00000000      -0.00000000       0.12672129 </v>
    <v>       0.50000000       0.50000000       0.12670837 </v>
    <v>       0.00000000       0.50000000       0.18948257 </v>
    <v>       0.50000000      -0.00000000       0.18948257 </v>
    <v>       0.00000000       0.00000000       0.25124252 </v>
    <v>       0.50000000       0.50000000       0.25124710 </v>
    <v>       0.00000000       0.50000000       0.31399081 </v>
    <v>       0.50000000      -0.00000000       0.31399081 </v>
    <v>       0.00000000      -0.00000000       0.37713084 </v>
    <v>       0.50000000       0.50000000       0.37746166 </v>
    <v>       0.00000000       0.50000000       0.43969339 </v>
    <v>       0.50000000      -0.00000000       0.43969339 </v>
    <v>       1.00000000       1.00000000       0.52241711 </v>
    <v>       1.00000000       1.00000000       0.54987154 </v>
   </varray>
  </structure>
  <varray name="forces" >
   <v>       0.00000000       0.00000000       0.00412658 </v>
   <v>       0.00000000       0.00000000       0.00490555 </v>
   <v>       0.00000000      -0.00000000      -0.02302918 </v>
   <v>       0.00000000      -0.00000000      -0.02302918 </v>
   <v>       0.00000000      -0.00000000      -0.00323201 </v>
   <v>       0.00000000       0.00000000      -0.00107601 </v>
   <v>       0.00000000       0.00000000      -0.00561998 </v>
   <v>       0.00000000       0.00000000      -0.00561998 </v>
   <v>       0.00000000      -0.00000000      -0.00868276 </v>
   <v>       0.00000000       0.00000000      -0.00117135 </v>
   <v>       0.00000000       0.00000000       0.01319855 </v>
   <v>       0.00000000       0.00000000       0.01319855 </v>
   <v>       0.00000000       0.00000000      -0.00434702 </v>
   <v>       0.00000000      -0.00000000      -0.02667736 </v>
   <v>       0.00000000       0.00000000       0.00951095 </v>
   <v>       0.00000000      -0.00000000       0.00951095 </v>
   <v>       0.00000000       0.00000000       0.06755421 </v>
   <v>       0.00000000       0.00000000      -0.01952051 </v>
  </varray>
  <varray name="stress" >
   <v>     -17.13830378       0.00000000       0.00000000 </v>
   <v>       0.00000000     -17.13830378       0.00000000 </v>
   <v>       0.00000000      -0.00000000      -2.06430395 </v>
  </varray>
  <energy>
   <i name="e_fr_energy">    -70.02005202 </i>
   <i name="e_wo_entrp">    -69.99681362 </i>
   <i name="e_0_energy">    -70.01230588 </i>
  </energy>
  <time name="totalsc">    2.83    2.86</time>
 </calculation>
 <calculation>
  <scstep>
   <time name="dav">    0.60    0.60</time>
   <time name="total">    0.72    0.73</time>
   <energy>
    <i name="alphaZ">    521.04204123 </i>
    <i name="ewald"> 104184.78233277 </i>
    <i name="hartreedc">-125841.67195912 </i>
    <i name="XCdc">    719.54976568 </i>
    <i name="pawpsdc">  21119.30511973 </i>
    <i name="pawaedc"> -22846.32874025 </i>
    <i name="eentropy">     -0.02329182 </i>
    <i name="bandstr">   -200.00675910 </i>
    <i name="atom">  22280.27950853 </i>
    <i name="e_fr_energy">    -63.07198236 </i>
    <i name="e_wo_entrp">    -63.04869054 </i>
    <i name="e_0_energy">    -63.06421842 </i>
   </energy>
  </scstep>
  <scstep>
   <time name="dav">    0.62    0.63</time>
   <time name="total">    0.66    0.66</time>
   <energy>
    <i name="alphaZ">    521.04204123 </i>
    <i name="ewald"> 104184.78233277 </i>
    <i name="hartreedc">-125841.77261532 </i>
    <i name="XCdc">    719.54980171 </i>
    <i name="pawpsdc">  21119.31433144 </i>
    <i name="pawaedc"> -22846.33865095 </i>
    <i name="eentropy">     -0.02352720 </i>
    <i name="bandstr">   -199.90530509 </i>
    <i name="atom">  22280.27950853 </i>
    <i name="e_fr_energy">    -63.07208288 </i>
    <i name="e_wo_entrp">    -63.04855568 </i>
    <i name="e_0_energy">    -63.06424048 </i>
   </energy>
  </scstep>
  <structure>
   <crystal>
    <varray name="basis" >
     <v>       3.63000011       0.00000000       0.00000000 </v>
     <v>       0.00000000       3.63000011       0.00000000 </v>
     <v>       0.00000000       0.00000000      27.70499992 </v>
    </varray>
    <i name="volume">    365.06603650 </i>
    <varray name="rec_basis" >
     <v>       0.27548208       0.00000000       0.00000000 </v>
     <v>       0.00000000       0.27548208       0.00000000 </v>
     <v>       0.00000000       0.00000000       0.03609457 </v>
    </varray>
   </crystal>
   <varray name="positions" >
    <v>       0.00000000       0.00000000       0.00032734 </v>
    <v>       0.50000000       0.50000000       0.00033037 </v>
    <v>       0.00000000       0.50000000       0.06354584 </v>
    <v>       0.50000000       0.00000000       0.06354584 </v>
    <v>       0.00000000      -0.00000000       0.12672129 </v>
    <v>       0.50000000       0.50000000       0.12670837 </v>
    <v>       0.00000000       0.50000000       0.18948257 </v>
    <v>       0.50000000      -0.00000000       0.18948257 </v>
    <v>       0.00000000       0.00000000       0.25124252 </v>
    <v>       0.50000000       0.50000000       0.25124710 </v>
    <v>       0.00000000       0.50000000       0.31399081 </v>
    <v>       0.50000000      -0.00000000       0.31399081 </v>
    <v>       0.00000000      -0.00000000       0.37713084 </v>
    <v>       0.50000000       0.50000000       0.37746166 </v>
    <v>       0.00000000       0.50000000       0.43969339 </v>
    <v>       0.50000000      -0.00000000       0.43969339 </v>
    <v>       1.00000000       1.00000000       0.52241711 </v>
    <v>       1.00000000       1.00000000       0.54987154 </v>
   </varray>
  </structure>
  <varray name="forces" >
   <v>       0.00000000       0.00000000       0.00474066 </v>
   <v>       0.00000000      -0.00000000       0.00554354 </v>
   <v>       0.00000000       0.00000000      -0.02129480 </v>
   <v>       0.00000000       0.00000000      -0.02129480 </v>
   <v>       0.00000000      -0.00000000      -0.00247558 </v>
   <v>       0.00000000      -0.00000000      -0.00022263 </v>
   <v>       0.00000000       0.00000000      -0.00724152 </v>
   <v>       0.00000000      -0.00000000      -0.00724152 </v>
   <v>       0.00000000       0.00000000      -0.01067493 </v>
   <v>       0.00000000       0.00000000      -0.00302144 </v>
   <v>       0.00000000      -0.00000000       0.01361606 </v>
   <v>       0.00000000      -0.00000000       0.01361606 </v>
   <v>       0.00000000      -0.00000000      -0.00380969 </v>
   <v>       0.00000000       0.00000000      -0.02649542 </v>
   <v>       0.00000000       0.00000000       0.00949377 </v>
   <v>       0.00000000       0.00000000       0.00949377 </v>
   <v>       0.00000000       0.00000000       0.06712867 </v>
   <v>       0.00000000       0.00000000      -0.01986021 </v>
  </varray>
  <varray name="stress" >
   <v>     -17.28219313       0.00000000       0.00000000 </v>
   <v>       0.00000000     -17.28219313       0.00000000 </v>
   <v>       0.00000000      -0.00000000      -2.39317872 </v>
  </varray>
  <energy>
   <i name="e_fr_energy">    -70.02012636 </i>
   <i name="e_wo_entrp">    -69.99659917 </i>
   <i name="e_0_energy">    -70.01228396 </i>
  </energy>
  <time name="totalsc">    2.86    2.89</time>
 </calculation>
 <calculation>
  <scstep>
   <time name="dav">    0.62    0.62</time>
   <time name="total">    0.74    0.75</time>
   <energy>
    <i name="alphaZ">    521.04204123 </i>
    <i name="ewald"> 104184.78233268 </i>
    <i name="hartreedc">-125841.74264734 </i>
    <i name="XCdc">    719.54977823 </i>
    <i name="pawpsdc">  21119.31177040 </i>
    <i name="pawaedc"> -22846.33588147 </i>
    <i name="eentropy">     -0.02348345 </i>
    <i name="bandstr">   -199.93539986 </i>
    <i name="atom">  22280.27950853 </i>
    <i name="e_fr_energy">    -63.07198105 </i>
    <i name="e_wo_entrp">    -63.04849760 </i>
    <i name="e_0_energy">    -63.06415323 </i>
   </energy>
  </scstep>
  <scstep>
   <time name="dav">    0.62    0.62</time>
   <time name="total">    0.65    0.66</time>
   <energy>
    <i name="alphaZ">    521.04204123 </i>
    <i name="ewald"> 104184.78233268 </i>
    <i name="hartreedc">-125841.51711300 </i>
    <i name="XCdc">    719.54959249 </i>
    <i name="pawpsdc">  21119.29070264 </i>
    <i name="pawaedc"> -22846.31286683 </i>
    <i name="eentropy">     -0.02273109 </i>
    <i name="bandstr">   -200.16358853 </i>
    <i name="atom">  22280.27950853 </i>
    <i name="e_fr_energy">    -63.07212188 </i>
    <i name="e_wo_entrp">    -63.04939079 </i>
    <i name="e_0_energy">    -63.06454485 </i>
   </energy>
  </scstep>
  <structure>
   <crystal>
    <varray name="basis" >
     <v>       3.63000011       0.00000000       0.00000000 </v>
     <v>       0.00000000       3.63000011       0.00000000 </v>
     <v>       0.00000000       0.00000000      27.70499992 </v>
    </varray>
    <i name="volume">    365.06603650 </i>
    <varray name="rec_basis" >
     <v>       0.27548208       0.00000000       0.00000000 </v>
     <v>       0.00000000       0.27548208       0.00000000 </v>
     <v>       0.00000000       0.00000000       0.03609457 </v>
    </varray>
   </crystal>
   <varray name="positions" >
    <v>       0.00000000       0.00000000       0.00032734 </v>
    <v>       0.50000000       0.50000000       0.00033037 </v>
    <v>       0.00000000       0.50000000       0.06354584 </v>
    <v>       0.50000000       0.00000000       0.06354584 </v>
    <v>       0.00000000      -0.00000000       0.12672129 </v>
    <v>       0.50000000       0.50000000       0.12670837 </v>
    <v>       0.00000000       0.50000000       0.18948257 </v>
    <v>       0.50000000      -0.00000000       0.18948257 </v>
    <v>       0.00000000       0.00000000       0.25124252 </v>
    <v>       0.50000000       0.50000000       0.25124710 </v>
    <v>       0.00000000       0.50000000       0.31399081 </v>
    <v>       0.50000000      -0.00000000       0.31399081 </v>
    <v>       0.00000000      -0.00000000       0.37713084 </v>
    <v>       0.50000000       0.50000000       0.37746166 </v>
    <v>       0.00000000       0.50000000       0.43969339 </v>
    <v>       0.50000000      -0.00000000       0.43969339 </v>
    <v>       1.00000000       1.00000000       0.52241711 </v>
    <v>       1.00000000       1.00000000       0.54987154 </v>
   </varray>
  </structure>
  <varray name="forces" >
   <v>       0.00000000       0.00000000       0.00444429 </v>
   <v>       0.00000000       0.00000000       0.00526647 </v>
   <v>       0.00000000       0.00000000      -0.02375108 </v>
   <v>       0.00000000       0.00000000      -0.02375108 </v>
   <v>       0.00000000       0.00000000      -0.00348125 </v>
   <v>       0.00000000       0.00000000      -0.00118246 </v>
   <v>       0.00000000      -0.00000000      -0.00764396 </v>
   <v>       0.00000000      -0.00000000      -0.00764396 </v>
   <v>       0.00000000       0.00000000      -0.01064205 </v>
   <v>       0.00000000       0.00000000      -0.00279927 </v>
   <v>       0.00000000       0.00000000       0.01459956 </v>
   <v>       0.00000000       0.00000000       0.01459956 </v>
   <v>       0.00000000       0.00000000      -0.00236900 </v>
   <v>       0.00000000      -0.00000000      -0.02538012 </v>
   <v>       0.00000000      -0.00000000       0.01113703 </v>
   <v>       0.00000000      -0.00000000       0.01113703 </v>
   <v>       0.00000000       0.00000000       0.06711066 </v>
   <v>       0.00000000       0.00000000      -0.01965039 </v>
  </varray>
  <varray name="stress" >
   <v>     -16.71304954       0.00000000       0.00000000 </v>
   <v>       0.00000000     -16.71304954       0.00000000 </v>
   <v>       0.00000000      -0.00000000      -1.64644797 </v>
  </varray>
  <energy>
   <i name="e_fr_energy">    -70.02016537 </i>
   <i name="e_wo_entrp">    -69.99743428 </i>
   <i name="e_0_energy">    -70.01258834 </i>
  </energy>
  <time name="totalsc">    2.87    2.92</time>
 </calculation>
 <calculation>
  <scstep>
   <time name="dav">    0.65    0.66</time>
   <time name="total">    0.78    0.78</time>
   <energy>
    <i name="alphaZ">    521.04204123 </i>
    <i name="ewald"> 104185.89669526 </i>
    <i name="hartreedc">-125842.70000025 </i>
    <i name="XCdc">    719.54976168 </i>
    <i name="pawpsdc">  21119.29714188 </i>
    <i name="pawaedc"> -22846.32009577 </i>
    <i name="eentropy">     -0.02301202 </i>
    <i name="bandstr">   -200.09385822 </i>
    <i name="atom">  22280.27950853 </i>
    <i name="e_fr_energy">    -63.07181769 </i>
    <i name="e_wo_entrp">    -63.04880567 </i>
    <i name="e_0_energy">    -63.06414702 </i>
   </energy>
  </scstep>
  <scstep>
   <time name="dav">    0.63    0.64</time>
   <time name="total">    0.76    0.76</time>
   <energy>
    <i name="e_fr_energy">    -63.07293179 </i>
    <i name="e_wo_entrp">    -63.04872034 </i>
    <i name="e_0_energy">    -63.06486130 </i>
   </energy>
  </scstep>
  <scstep>
   <time name="dav">    0.63    0.64</time>
   <time name="total">    0.76    0.76</time>
   <energy>
    <i name="e_fr_energy">    -63.07184257 </i>
    <i name="e_wo_entrp">    -63.04776674 </i>
    <i name="e_0_energy">    -63.06381730 </i>
   </energy>
  </scstep>
  <scstep>
   <time name="dav">    0.58    0.59</time>
   <time name="total">    0.61    0.62</time>
   <energy>
    <i name="alphaZ">    521.04204123 </i>
    <i name="ewald"> 104185.89669526 </i>
    <i name="hartreedc">-125842.75822259 </i>
    <i name="XCdc">    719.54958500 </i>
    <i name="pawpsdc">  21119.30534161 </i>
    <i name="pawaedc"> -22846.32838618 </i>
    <i name="eentropy">     -0.02311961 </i>
    <i name="bandstr">   -200.03527870 </i>
    <i name="atom">  22280.27950853 </i>
    <i name="e_fr_energy">    -63.07183546 </i>
    <i name="e_wo_entrp">    -63.04871585 </i>
    <i name="e_0_energy">    -63.06412892 </i>
   </energy>
  </scstep>
  <structure>
   <crystal>
    <varray name="basis" >
     <v>       3.63000011       0.00000000       0.00000000 </v>
     <v>       0.00000000       3.63000011       0.00000000 </v>
     <v>       0.00000000       0.00000000      27.70499992 </v>
    </varray>
    <i name="volume">    365.06603650 </i>
    <varray name="rec_basis" >
     <v>       0.27548208       0.00000000       0.00000000 </v>
     <v>       0.00000000       0.27548208       0.00000000 </v>
     <v>       0.00000000       0.00000000       0.03609457 </v>
    </varray>
   </crystal>
   <varray name="positions" >
    <v>       0.00000000       0.00000000       0.00032568 </v>
    <v>       0.50000000       0.50000000       0.00032849 </v>
    <v>       0.00000000       0.50000000       0.06355222 </v>
    <v>       0.50000000       0.00000000       0.06355222 </v>
    <v>       0.00000000      -0.00000000       0.12672161 </v>
    <v>       0.50000000       0.50000000       0.12670812 </v>
    <v>       0.00000000       0.50000000       0.18948443 </v>
    <v>       0.50000000      -0.00000000       0.18948443 </v>
    <v>       0.00000000       0.00000000       0.25124546 </v>
    <v>       0.50000000       0.50000000       0.25124767 </v>
    <v>       0.00000000       0.50000000       0.31398720 </v>
    <v>       0.50000000      -0.00000000       0.31398720 </v>
    <v>       0.00000000      -0.00000000       0.37713354 </v>
    <v>       0.50000000       0.50000000       0.37747002 </v>
    <v>       0.00000000       0.50000000       0.43969098 </v>
    <v>       0.50000000      -0.00000000       0.43969098 </v>
    <v>       1.00000000       1.00000000       0.52240778 </v>
    <v>       1.00000000       1.00000000       0.54986534 </v>
   </varray>
  </structure>
  <varray name="forces" >
   <v>       0.00000000      -0.00000000       0.06771552 </v>
   <v>       0.00000000       0.00000000       0.07397181 </v>
   <v>       0.00000000      -0.00000000      -0.15509512 </v>
   <v>       0.00000000      -0.00000000      -0.15509512 </v>
   <v>       0.00000000       0.00000000       0.00964034 </v>
   <v>       0.00000000      -0.00000000       0.02596256 </v>
   <v>       0.00000000      -0.00000000      -0.03428421 </v>
   <v>       0.00000000      -0.00000000      -0.03428421 </v>
   <v>       0.00000000      -0.00000000      -0.06575856 </v>
   <v>       0.00000000       0.00000000       0.00306992 </v>
   <v>       0.00000000       0.00000000       0.12558052 </v>
   <v>       0.00000000      -0.00000000       0.12558052 </v>
   <v>       0.00000000       0.00000000      -0.05447921 </v>
   <v>       0.00000000      -0.00000000      -0.20328571 </v>
   <v>       0.00000000      -0.00000000       0.09118421 </v>
   <v>       0.00000000      -0.00000000       0.09118421 </v>
   <v>       0.00000000      -0.00000000       0.09098117 </v>
   <v>       0.00000000      -0.00000000      -0.00258862 </v>
  </varray>
  <varray name="stress" >
   <v>     -17.12884183       0.00000000       0.00000000 </v>
   <v>       0.00000000     -17.12884183       0.00000000 </v>
   <v>       0.00000000       0.00000000      -2.03460167 </v>
  </varray>
  <energy>
   <i name="e_fr_energy">    -70.01992794 </i>
   <i name="e_wo_entrp">    -69.99680833 </i>
   <i name="e_0_energy">    -70.01222140 </i>
  </energy>
