unknown system                          
           1
     3.630000    0.000000    0.000000
     0.000000    3.630000    0.000000
     0.000000    0.000000   27.705000
   Cu   H 
    16     2
Direct configuration=     1
   0.00000000  0.00000000  0.00000000
   0.50000000  0.50000000  0.00000000
   0.00000000  0.50000000  0.06551164
   0.50000000  0.00000000  0.06551164
   0.00000000  0.00000000  0.12876120
   0.50000000  0.50000000  0.12876120
   0.00000000  0.50000000  0.19193187
   0.50000000  0.00000000  0.19193187
   0.00000000  0.00000000  0.25406550
   0.50000000  0.50000000  0.25406550
   0.00000000  0.50000000  0.31747855
   0.50000000  0.00000000  0.31747855
   0.00000000  0.00000000  0.38132233
   0.50000000  0.50000000  0.38132233
   0.00000000  0.50000000  0.44440075
   0.50000000  0.00000000  0.44440075
   1.00000000  1.00000000  0.50150658
   1.00000000  1.00000000  0.52843313
Direct configuration=     2
   0.00000000  0.00000000  0.00042015
   0.50000000  0.50000000  0.00042735
   0.00000000  0.50000000  0.06508961
   0.50000000  0.00000000  0.06508961
   0.00000000 -0.00000000  0.12878000
   0.50000000  0.50000000  0.12878380
   0.00000000  0.50000000  0.19192736
   0.50000000 -0.00000000  0.19192736
   0.00000000  0.00000000  0.25404173
   0.50000000  0.50000000  0.25417954
   0.00000000  0.50000000  0.31748265
   0.50000000  0.00000000  0.31748265
   0.00000000 -0.00000000  0.38119286
   0.50000000  0.50000000  0.38146053
   0.00000000  0.50000000  0.44379819
   0.50000000  0.00000000  0.44379819
   1.00000000  1.00000000  0.50071645
   1.00000000  1.00000000  0.53028536
Direct configuration=     3
   0.00000000  0.00000000  0.00024450
   0.50000000  0.50000000  0.00024869
   0.00000000  0.50000000  0.06526605
   0.50000000  0.00000000  0.06526605
   0.00000000 -0.00000000  0.12877214
   0.50000000  0.50000000  0.12877435
   0.00000000  0.50000000  0.19192924
   0.50000000 -0.00000000  0.19192924
   0.00000000  0.00000000  0.25405167
   0.50000000  0.50000000  0.25413186
   0.00000000  0.50000000  0.31748094
   0.50000000  0.00000000  0.31748094
   0.00000000 -0.00000000  0.38124698
   0.50000000  0.50000000  0.38140275
   0.00000000  0.50000000  0.44405010
   0.50000000  0.00000000  0.44405010
   1.00000000  1.00000000  0.50104678
   1.00000000  1.00000000  0.52951100
Direct configuration=     4
   0.00000000 -0.00000000  0.00070771
   0.50000000  0.50000000  0.00071798
   0.00000000  0.50000000  0.06483272
   0.50000000  0.00000000  0.06483272
   0.00000000 -0.00000000  0.12876264
   0.50000000  0.50000000  0.12876740
   0.00000000  0.50000000  0.19193436
   0.50000000 -0.00000000  0.19193436
   0.00000000  0.00000000  0.25403828
   0.50000000  0.50000000  0.25427259
   0.00000000  0.50000000  0.31749797
   0.50000000 -0.00000000  0.31749797
   0.00000000 -0.00000000  0.38103615
   0.50000000  0.50000000  0.38148869
   0.00000000  0.50000000  0.44335855
   0.50000000 -0.00000000  0.44335855
   1.00000000  1.00000000  0.50178602
   1.00000000  1.00000000  0.53005872
Direct configuration=     5
   0.00000000 -0.00000000  0.00182951
   0.50000000  0.50000000  0.00185451
   0.00000000  0.50000000  0.06378329
   0.50000000  0.00000000  0.06378329
   0.00000000 -0.00000000  0.12873964
   0.50000000  0.50000000  0.12875057
   0.00000000  0.50000000  0.19194674
   0.50000000 -0.00000000  0.19194674
   0.00000000  0.00000000  0.25400588
   0.50000000  0.50000000  0.25461339
   0.00000000  0.50000000  0.31753922
   0.50000000 -0.00000000  0.31753922
   0.00000000 -0.00000000  0.38052556
   0.50000000  0.50000000  0.38169682
   0.00000000  0.50000000  0.44168376
   0.50000000 -0.00000000  0.44168376
   1.00000000  1.00000000  0.50357629
   1.00000000  1.00000000  0.53138519
Direct configuration=     6
   0.00000000 -0.00000000  0.00203703
   0.50000000  0.50000000  0.00207322
   0.00000000  0.50000000  0.06405581
   0.50000000  0.00000000  0.06405581
   0.00000000 -0.00000000  0.12836951
   0.50000000  0.50000000  0.12837077
   0.00000000  0.50000000  0.19196126
   0.50000000 -0.00000000  0.19196126
   0.00000000  0.00000000  0.25402303
   0.50000000  0.50000000  0.25463205
   0.00000000  0.50000000  0.31754442
   0.50000000 -0.00000000  0.31754442
   0.00000000 -0.00000000  0.37981036
   0.50000000  0.50000000  0.38097163
   0.00000000  0.50000000  0.44104665
   0.50000000 -0.00000000  0.44104665
   1.00000000  1.00000000  0.50502374
   1.00000000  1.00000000  0.53235577
Direct configuration=     7
   0.00000000 -0.00000000  0.00232783
   0.50000000  0.50000000  0.00237971
   0.00000000  0.50000000  0.06443770
   0.50000000  0.00000000  0.06443770
   0.00000000 -0.00000000  0.12785084
   0.50000000  0.50000000  0.12783853
   0.00000000  0.50000000  0.19198160
   0.50000000 -0.00000000  0.19198160
   0.00000000  0.00000000  0.25404706
   0.50000000  0.50000000  0.25465821
   0.00000000  0.50000000  0.31755170
   0.50000000 -0.00000000  0.31755170
   0.00000000 -0.00000000  0.37880812
   0.50000000  0.50000000  0.37995538
   0.00000000  0.50000000  0.44015384
   0.50000000 -0.00000000  0.44015384
   1.00000000  1.00000000  0.50705211
   1.00000000  1.00000000  0.53371589
Direct configuration=     8
   0.00000000 -0.00000000  0.00237300
   0.50000000  0.50000000  0.00242883
   0.00000000  0.50000000  0.06457611
   0.50000000  0.00000000  0.06457611
   0.00000000 -0.00000000  0.12775266
   0.50000000  0.50000000  0.12773649
   0.00000000  0.50000000  0.19196011
   0.50000000 -0.00000000  0.19196011
   0.00000000  0.00000000  0.25405694
   0.50000000  0.50000000  0.25464321
   0.00000000  0.50000000  0.31748972
   0.50000000 -0.00000000  0.31748972
   0.00000000 -0.00000000  0.37855012
   0.50000000  0.50000000  0.37963863
   0.00000000  0.50000000  0.43992571
   0.50000000 -0.00000000  0.43992571
   1.00000000  1.00000000  0.50739784
   1.00000000  1.00000000  0.53440234
Direct configuration=     9
   0.00000000 -0.00000000  0.00248246
   0.50000000  0.50000000  0.00254786
   0.00000000  0.50000000  0.06491148
   0.50000000  0.00000000  0.06491148
   0.00000000 -0.00000000  0.12751477
   0.50000000  0.50000000  0.12748925
   0.00000000  0.50000000  0.19190805
   0.50000000 -0.00000000  0.19190805
   0.00000000  0.00000000  0.25408088
   0.50000000  0.50000000  0.25460685
   0.00000000  0.50000000  0.31733955
   0.50000000 -0.00000000  0.31733955
   0.00000000 -0.00000000  0.37792499
   0.50000000  0.50000000  0.37887112
   0.00000000  0.50000000  0.43937294
   0.50000000 -0.00000000  0.43937294
   1.00000000  1.00000000  0.50823554
   1.00000000  1.00000000  0.53606562
Direct configuration=    10
   0.00000000 -0.00000000  0.00247253
   0.50000000  0.50000000  0.00253821
   0.00000000  0.50000000  0.06496186
   0.50000000  0.00000000  0.06496186
   0.00000000 -0.00000000  0.12758425
   0.50000000  0.50000000  0.12755832
   0.00000000  0.50000000  0.19185083
   0.50000000 -0.00000000  0.19185083
   0.00000000  0.00000000  0.25407218
   0.50000000  0.50000000  0.25455345
   0.00000000  0.50000000  0.31718178
   0.50000000 -0.00000000  0.31718178
   0.00000000 -0.00000000  0.37788309
   0.50000000  0.50000000  0.37872559
   0.00000000  0.50000000  0.43929575
   0.50000000 -0.00000000  0.43929575
   1.00000000  1.00000000  0.50855411
   1.00000000  1.00000000  0.53636120
Direct configuration=    11
   0.00000000 -0.00000000  0.00244274
   0.50000000  0.50000000  0.00250927
   0.00000000  0.50000000  0.06511298
   0.50000000  0.00000000  0.06511298
   0.00000000 -0.00000000  0.12779268
   0.50000000  0.50000000  0.12776556
   0.00000000  0.50000000  0.19167916
   0.50000000 -0.00000000  0.19167916
   0.00000000  0.00000000  0.25404610
   0.50000000  0.50000000  0.25439324
   0.00000000  0.50000000  0.31670850
   0.50000000 -0.00000000  0.31670850
   0.00000000 -0.00000000  0.37775740
   0.50000000  0.50000000  0.37828901
   0.00000000  0.50000000  0.43906417
   0.50000000 -0.00000000  0.43906417
   1.00000000  1.00000000  0.50950981
   1.00000000  1.00000000  0.53724796
Direct configuration=    12
   0.00000000 -0.00000000  0.00238316
   0.50000000  0.50000000  0.00245140
   0.00000000  0.50000000  0.06541523
   0.50000000  0.00000000  0.06541523
   0.00000000 -0.00000000  0.12820953
   0.50000000  0.50000000  0.12818004
   0.00000000  0.50000000  0.19133582
   0.50000000 -0.00000000  0.19133582
   0.00000000  0.00000000  0.25399393
   0.50000000  0.50000000  0.25407282
   0.00000000  0.50000000  0.31576192
   0.50000000 -0.00000000  0.31576192
   0.00000000 -0.00000000  0.37750601
   0.50000000  0.50000000  0.37741583
   0.00000000  0.50000000  0.43860102
   0.50000000 -0.00000000  0.43860102
   1.00000000  1.00000000  0.51142121
   1.00000000  1.00000000  0.53902147
Direct configuration=    13
   0.00000000 -0.00000000  0.00226400
   0.50000000  0.50000000  0.00233565
   0.00000000  0.50000000  0.06601972
   0.50000000  0.00000000  0.06601972
   0.00000000 -0.00000000  0.12904325
   0.50000000  0.50000000  0.12900899
   0.00000000  0.50000000  0.19064915
   0.50000000 -0.00000000  0.19064915
   0.00000000  0.00000000  0.25388960
   0.50000000  0.50000000  0.25343199
   0.00000000  0.50000000  0.31386877
   0.50000000 -0.00000000  0.31386877
   0.00000000  0.00000000  0.37700323
   0.50000000  0.50000000  0.37566947
   0.00000000  0.50000000  0.43767470
   0.50000000 -0.00000000  0.43767470
   1.00000000  1.00000000  0.51524401
   1.00000000  1.00000000  0.54256850
Direct configuration=    14
   0.00000000 -0.00000000  0.00233168
   0.50000000  0.50000000  0.00240138
   0.00000000  0.50000000  0.06567642
   0.50000000  0.00000000  0.06567642
   0.00000000 -0.00000000  0.12856976
   0.50000000  0.50000000  0.12853821
   0.00000000  0.50000000  0.19103913
   0.50000000 -0.00000000  0.19103913
   0.00000000  0.00000000  0.25394885
   0.50000000  0.50000000  0.25379593
   0.00000000  0.50000000  0.31494393
   0.50000000 -0.00000000  0.31494393
   0.00000000  0.00000000  0.37728877
   0.50000000  0.50000000  0.37666126
   0.00000000  0.50000000  0.43820078
   0.50000000 -0.00000000  0.43820078
   1.00000000  1.00000000  0.51307296
   1.00000000  1.00000000  0.54055407
Direct configuration=    15
   0.00000000 -0.00000000  0.00237419
   0.50000000  0.50000000  0.00243519
   0.00000000  0.50000000  0.06566691
   0.50000000  0.00000000  0.06566691
   0.00000000 -0.00000000  0.12877422
   0.50000000  0.50000000  0.12875616
   0.00000000  0.50000000  0.19114525
   0.50000000 -0.00000000  0.19114525
   0.00000000  0.00000000  0.25325555
   0.50000000  0.50000000  0.25307736
   0.00000000  0.50000000  0.31457751
   0.50000000 -0.00000000  0.31457751
   0.00000000  0.00000000  0.37697882
   0.50000000  0.50000000  0.37636730
   0.00000000  0.50000000  0.43815136
   0.50000000 -0.00000000  0.43815136
   1.00000000  1.00000000  0.51416940
   1.00000000  1.00000000  0.54161312
Direct configuration=    16
   0.00000000 -0.00000000  0.00243640
   0.50000000  0.50000000  0.00248466
   0.00000000  0.50000000  0.06565299
   0.50000000  0.00000000  0.06565299
   0.00000000 -0.00000000  0.12907337
   0.50000000  0.50000000  0.12907508
   0.00000000  0.50000000  0.19130053
   0.50000000 -0.00000000  0.19130053
   0.00000000  0.00000000  0.25224110
   0.50000000  0.50000000  0.25202596
   0.00000000  0.50000000  0.31404138
   0.50000000 -0.00000000  0.31404138
   0.00000000  0.00000000  0.37652531
   0.50000000  0.50000000  0.37593718
   0.00000000  0.50000000  0.43807906
   0.50000000 -0.00000000  0.43807906
   1.00000000  1.00000000  0.51577371
   1.00000000  1.00000000  0.54316271
Direct configuration=    17
   0.00000000 -0.00000000  0.00244125
   0.50000000  0.50000000  0.00248851
   0.00000000  0.50000000  0.06565190
   0.50000000  0.00000000  0.06565190
   0.00000000 -0.00000000  0.12909669
   0.50000000  0.50000000  0.12909994
   0.00000000  0.50000000  0.19131264
   0.50000000 -0.00000000  0.19131264
   0.00000000  0.00000000  0.25216202
   0.50000000  0.50000000  0.25194399
   0.00000000  0.50000000  0.31399958
   0.50000000 -0.00000000  0.31399958
   0.00000000  0.00000000  0.37648996
   0.50000000  0.50000000  0.37590365
   0.00000000  0.50000000  0.43807343
   0.50000000 -0.00000000  0.43807343
   1.00000000  1.00000000  0.51589878
   1.00000000  1.00000000  0.54328351
Direct configuration=    18
   0.00000000 -0.00000000  0.00243856
   0.50000000  0.50000000  0.00248637
   0.00000000  0.50000000  0.06565250
   0.50000000  0.00000000  0.06565250
   0.00000000 -0.00000000  0.12908373
   0.50000000  0.50000000  0.12908612
   0.00000000  0.50000000  0.19130591
   0.50000000 -0.00000000  0.19130591
   0.00000000  0.00000000  0.25220596
   0.50000000  0.50000000  0.25198954
   0.00000000  0.50000000  0.31402281
   0.50000000 -0.00000000  0.31402281
   0.00000000  0.00000000  0.37650960
   0.50000000  0.50000000  0.37592228
   0.00000000  0.50000000  0.43807656
   0.50000000 -0.00000000  0.43807656
   1.00000000  1.00000000  0.51582928
   1.00000000  1.00000000  0.54321638
Direct configuration=    19
   0.00000000 -0.00000000  0.00244022
   0.50000000  0.50000000  0.00248769
   0.00000000  0.50000000  0.06565213
   0.50000000  0.00000000  0.06565213
   0.00000000 -0.00000000  0.12909175
   0.50000000  0.50000000  0.12909467
   0.00000000  0.50000000  0.19131007
   0.50000000 -0.00000000  0.19131007
   0.00000000  0.00000000  0.25217876
   0.50000000  0.50000000  0.25196135
   0.00000000  0.50000000  0.31400843
   0.50000000 -0.00000000  0.31400843
   0.00000000  0.00000000  0.37649745
   0.50000000  0.50000000  0.37591075
   0.00000000  0.50000000  0.43807462
   0.50000000 -0.00000000  0.43807462
   1.00000000  1.00000000  0.51587230
   1.00000000  1.00000000  0.54325793
Direct configuration=    20
   0.00000000 -0.00000000  0.00250260
   0.50000000  0.50000000  0.00253808
   0.00000000  0.50000000  0.06561043
   0.50000000  0.00000000  0.06561043
   0.00000000 -0.00000000  0.12889524
   0.50000000  0.50000000  0.12890455
   0.00000000  0.50000000  0.19116927
   0.50000000 -0.00000000  0.19116927
   0.00000000  0.00000000  0.25197181
   0.50000000  0.50000000  0.25190934
   0.00000000  0.50000000  0.31386726
   0.50000000 -0.00000000  0.31386726
   0.00000000  0.00000000  0.37628925
   0.50000000  0.50000000  0.37607875
   0.00000000  0.50000000  0.43817099
   0.50000000 -0.00000000  0.43817099
   1.00000000  1.00000000  0.51625537
   1.00000000  1.00000000  0.54390248
Direct configuration=    21
   0.00000000 -0.00000000  0.00258301
   0.50000000  0.50000000  0.00260302
   0.00000000  0.50000000  0.06555667
   0.50000000  0.00000000  0.06555667
   0.00000000 -0.00000000  0.12864192
   0.50000000  0.50000000  0.12865948
   0.00000000  0.50000000  0.19098778
   0.50000000 -0.00000000  0.19098778
   0.00000000  0.00000000  0.25170505
   0.50000000  0.50000000  0.25184229
   0.00000000  0.50000000  0.31368529
   0.50000000 -0.00000000  0.31368529
   0.00000000 -0.00000000  0.37602088
   0.50000000  0.50000000  0.37629531
   0.00000000  0.50000000  0.43829522
   0.50000000 -0.00000000  0.43829522
   1.00000000  1.00000000  0.51674917
   1.00000000  1.00000000  0.54473334
Direct configuration=    22
   0.00000000 -0.00000000  0.00259818
   0.50000000  0.50000000  0.00261527
   0.00000000  0.50000000  0.06554310
   0.50000000  0.00000000  0.06554310
   0.00000000 -0.00000000  0.12858869
   0.50000000  0.50000000  0.12860725
   0.00000000  0.50000000  0.19094302
   0.50000000 -0.00000000  0.19094302
   0.00000000  0.00000000  0.25165793
   0.50000000  0.50000000  0.25183169
   0.00000000  0.50000000  0.31365372
   0.50000000 -0.00000000  0.31365372
   0.00000000 -0.00000000  0.37597427
   0.50000000  0.50000000  0.37633990
   0.00000000  0.50000000  0.43832354
   0.50000000 -0.00000000  0.43832354
   1.00000000  1.00000000  0.51689677
   1.00000000  1.00000000  0.54484666
Direct configuration=    23
   0.00000000 -0.00000000  0.00264367
   0.50000000  0.50000000  0.00265203
   0.00000000  0.50000000  0.06550242
   0.50000000  0.00000000  0.06550242
   0.00000000 -0.00000000  0.12842901
   0.50000000  0.50000000  0.12845056
   0.00000000  0.50000000  0.19080875
   0.50000000 -0.00000000  0.19080875
   0.00000000  0.00000000  0.25151657
   0.50000000  0.50000000  0.25179991
   0.00000000  0.50000000  0.31355900
   0.50000000 -0.00000000  0.31355900
   0.00000000 -0.00000000  0.37583444
   0.50000000  0.50000000  0.37647366
   0.00000000  0.50000000  0.43840849
   0.50000000 -0.00000000  0.43840849
   1.00000000  1.00000000  0.51733959
   1.00000000  1.00000000  0.54518660
Direct configuration=    24
   0.00000000 -0.00000000  0.00273466
   0.50000000  0.50000000  0.00272556
   0.00000000  0.50000000  0.06542105
   0.50000000  0.00000000  0.06542105
   0.00000000  0.00000000  0.12810965
   0.50000000  0.50000000  0.12813718
   0.00000000  0.50000000  0.19054022
   0.50000000 -0.00000000  0.19054022
   0.00000000  0.00000000  0.25123386
   0.50000000  0.50000000  0.25173634
   0.00000000  0.50000000  0.31336957
   0.50000000 -0.00000000  0.31336957
   0.00000000 -0.00000000  0.37555479
   0.50000000  0.50000000  0.37674118
   0.00000000  0.50000000  0.43857839
   0.50000000 -0.00000000  0.43857839
   1.00000000  1.00000000  0.51822523
   1.00000000  1.00000000  0.54586649
Direct configuration=    25
   0.00000000 -0.00000000  0.00291663
   0.50000000  0.50000000  0.00287261
   0.00000000  0.50000000  0.06525831
   0.50000000  0.00000000  0.06525831
   0.00000000  0.00000000  0.12747091
   0.50000000  0.50000000  0.12751041
   0.00000000  0.50000000  0.19000316
   0.50000000 -0.00000000  0.19000316
   0.00000000  0.00000000  0.25066843
   0.50000000  0.50000000  0.25160920
   0.00000000  0.50000000  0.31299070
   0.50000000 -0.00000000  0.31299070
   0.00000000 -0.00000000  0.37499548
   0.50000000  0.50000000  0.37727622
   0.00000000  0.50000000  0.43891819
   0.50000000 -0.00000000  0.43891819
   1.00000000  1.00000000  0.51999650
   1.00000000  1.00000000  0.54722627
Direct configuration=    26
   0.00000000 -0.00000000  0.00279009
   0.50000000  0.50000000  0.00277035
   0.00000000  0.50000000  0.06537148
   0.50000000  0.00000000  0.06537148
   0.00000000  0.00000000  0.12791508
   0.50000000  0.50000000  0.12794626
   0.00000000  0.50000000  0.19037663
   0.50000000 -0.00000000  0.19037663
   0.00000000  0.00000000  0.25106162
   0.50000000  0.50000000  0.25169761
   0.00000000  0.50000000  0.31325416
   0.50000000 -0.00000000  0.31325416
   0.00000000 -0.00000000  0.37538442
   0.50000000  0.50000000  0.37690416
   0.00000000  0.50000000  0.43868190
   0.50000000 -0.00000000  0.43868190
   1.00000000  1.00000000  0.51876478
   1.00000000  1.00000000  0.54628070
Direct configuration=    27
   0.00000000 -0.00000000  0.00277364
   0.50000000  0.50000000  0.00275706
   0.00000000  0.50000000  0.06538618
   0.50000000  0.00000000  0.06538618
   0.00000000  0.00000000  0.12797280
   0.50000000  0.50000000  0.12800290
   0.00000000  0.50000000  0.19042516
   0.50000000 -0.00000000  0.19042516
   0.00000000  0.00000000  0.25111272
   0.50000000  0.50000000  0.25170910
   0.00000000  0.50000000  0.31328840
   0.50000000 -0.00000000  0.31328840
   0.00000000 -0.00000000  0.37543496
   0.50000000  0.50000000  0.37685581
   0.00000000  0.50000000  0.43865119
   0.50000000 -0.00000000  0.43865119
   1.00000000  1.00000000  0.51860472
   1.00000000  1.00000000  0.54615782
Direct configuration=    28
   0.00000000 -0.00000000  0.00278245
   0.50000000  0.50000000  0.00276418
   0.00000000  0.50000000  0.06537831
   0.50000000  0.00000000  0.06537831
   0.00000000  0.00000000  0.12794189
   0.50000000  0.50000000  0.12797257
   0.00000000  0.50000000  0.19039917
   0.50000000 -0.00000000  0.19039917
   0.00000000  0.00000000  0.25108536
   0.50000000  0.50000000  0.25170295
   0.00000000  0.50000000  0.31327007
   0.50000000 -0.00000000  0.31327007
   0.00000000 -0.00000000  0.37540789
   0.50000000  0.50000000  0.37688170
   0.00000000  0.50000000  0.43866763
   0.50000000 -0.00000000  0.43866763
   1.00000000  1.00000000  0.51869042
   1.00000000  1.00000000  0.54622361
Direct configuration=    29
   0.00000000 -0.00000000  0.00277723
   0.50000000  0.50000000  0.00275997
   0.00000000  0.50000000  0.06538297
   0.50000000  0.00000000  0.06538297
   0.00000000  0.00000000  0.12796020
   0.50000000  0.50000000  0.12799053
   0.00000000  0.50000000  0.19041457
   0.50000000 -0.00000000  0.19041457
   0.00000000  0.00000000  0.25110156
   0.50000000  0.50000000  0.25170659
   0.00000000  0.50000000  0.31328093
   0.50000000 -0.00000000  0.31328093
   0.00000000 -0.00000000  0.37542393
   0.50000000  0.50000000  0.37686636
   0.00000000  0.50000000  0.43865789
   0.50000000 -0.00000000  0.43865789
   1.00000000  1.00000000  0.51863965
   1.00000000  1.00000000  0.54618464
Direct configuration=    30
   0.00000000 -0.00000000  0.00277984
   0.50000000  0.50000000  0.00276207
   0.00000000  0.50000000  0.06538064
   0.50000000  0.00000000  0.06538064
   0.00000000  0.00000000  0.12795105
   0.50000000  0.50000000  0.12798155
   0.00000000  0.50000000  0.19040687
   0.50000000 -0.00000000  0.19040687
   0.00000000  0.00000000  0.25109346
   0.50000000  0.50000000  0.25170477
   0.00000000  0.50000000  0.31327550
   0.50000000 -0.00000000  0.31327550
   0.00000000 -0.00000000  0.37541591
   0.50000000  0.50000000  0.37687403
   0.00000000  0.50000000  0.43866276
   0.50000000 -0.00000000  0.43866276
   1.00000000  1.00000000  0.51866504
   1.00000000  1.00000000  0.54620413
Direct configuration=    31
   0.00000000 -0.00000000  0.00277868
   0.50000000  0.50000000  0.00276114
   0.00000000  0.50000000  0.06538168
   0.50000000  0.00000000  0.06538168
   0.00000000  0.00000000  0.12795511
   0.50000000  0.50000000  0.12798554
   0.00000000  0.50000000  0.19041029
   0.50000000 -0.00000000  0.19041029
   0.00000000  0.00000000  0.25109706
   0.50000000  0.50000000  0.25170558
   0.00000000  0.50000000  0.31327791
   0.50000000 -0.00000000  0.31327791
   0.00000000 -0.00000000  0.37541947
   0.50000000  0.50000000  0.37687062
   0.00000000  0.50000000  0.43866060
   0.50000000 -0.00000000  0.43866060
   1.00000000  1.00000000  0.51865376
   1.00000000  1.00000000  0.54619547
Direct configuration=    32
   0.00000000 -0.00000000  0.00277968
   0.50000000  0.50000000  0.00276194
   0.00000000  0.50000000  0.06538079
   0.50000000  0.00000000  0.06538079
   0.00000000  0.00000000  0.12795162
   0.50000000  0.50000000  0.12798212
   0.00000000  0.50000000  0.19040735
   0.50000000 -0.00000000  0.19040735
   0.00000000  0.00000000  0.25109397
   0.50000000  0.50000000  0.25170488
   0.00000000  0.50000000  0.31327584
   0.50000000 -0.00000000  0.31327584
   0.00000000 -0.00000000  0.37541641
   0.50000000  0.50000000  0.37687355
   0.00000000  0.50000000  0.43866245
   0.50000000 -0.00000000  0.43866245
   1.00000000  1.00000000  0.51866344
   1.00000000  1.00000000  0.54620290
Direct configuration=    33
   0.00000000 -0.00000000  0.00277918
   0.50000000  0.50000000  0.00276154
   0.00000000  0.50000000  0.06538123
   0.50000000  0.00000000  0.06538123
   0.00000000  0.00000000  0.12795337
   0.50000000  0.50000000  0.12798383
   0.00000000  0.50000000  0.19040882
   0.50000000 -0.00000000  0.19040882
   0.00000000  0.00000000  0.25109551
   0.50000000  0.50000000  0.25170523
   0.00000000  0.50000000  0.31327687
   0.50000000 -0.00000000  0.31327687
   0.00000000 -0.00000000  0.37541794
   0.50000000  0.50000000  0.37687208
   0.00000000  0.50000000  0.43866153
   0.50000000 -0.00000000  0.43866153
   1.00000000  1.00000000  0.51865860
   1.00000000  1.00000000  0.54619918
Direct configuration=    34
   0.00000000 -0.00000000  0.00277954
   0.50000000  0.50000000  0.00276182
   0.00000000  0.50000000  0.06538091
   0.50000000  0.00000000  0.06538091
   0.00000000  0.00000000  0.12795212
   0.50000000  0.50000000  0.12798261
   0.00000000  0.50000000  0.19040777
   0.50000000 -0.00000000  0.19040777
   0.00000000  0.00000000  0.25109441
   0.50000000  0.50000000  0.25170498
   0.00000000  0.50000000  0.31327614
   0.50000000 -0.00000000  0.31327614
   0.00000000 -0.00000000  0.37541685
   0.50000000  0.50000000  0.37687313
   0.00000000  0.50000000  0.43866219
   0.50000000 -0.00000000  0.43866219
   1.00000000  1.00000000  0.51866206
   1.00000000  1.00000000  0.54620184
Direct configuration=    35
   0.00000000 -0.00000000  0.00276020
   0.50000000  0.50000000  0.00274489
   0.00000000  0.50000000  0.06535971
   0.50000000  0.00000000  0.06535971
   0.00000000  0.00000000  0.12797121
   0.50000000  0.50000000  0.12799820
   0.00000000  0.50000000  0.19037898
   0.50000000 -0.00000000  0.19037898
   0.00000000  0.00000000  0.25111476
   0.50000000  0.50000000  0.25167779
   0.00000000  0.50000000  0.31330530
   0.50000000 -0.00000000  0.31330530
   0.00000000 -0.00000000  0.37547640
   0.50000000  0.50000000  0.37683242
   0.00000000  0.50000000  0.43866306
   0.50000000 -0.00000000  0.43866306
   1.00000000  1.00000000  0.51871160
   1.00000000  1.00000000  0.54618180
Direct configuration=    36
   0.00000000 -0.00000000  0.00270591
   0.50000000  0.50000000  0.00269735
   0.00000000  0.50000000  0.06530016
   0.50000000  0.00000000  0.06530016
   0.00000000  0.00000000  0.12802482
   0.50000000  0.50000000  0.12804200
   0.00000000  0.50000000  0.19029813
   0.50000000 -0.00000000  0.19029813
   0.00000000  0.00000000  0.25117190
   0.50000000  0.50000000  0.25160143
   0.00000000  0.50000000  0.31338720
   0.50000000 -0.00000000  0.31338720
   0.00000000 -0.00000000  0.37564360
   0.50000000  0.50000000  0.37671812
   0.00000000  0.50000000  0.43866551
   0.50000000 -0.00000000  0.43866551
   1.00000000  1.00000000  0.51885072
   1.00000000  1.00000000  0.54612554
Direct configuration=    37
   0.00000000 -0.00000000  0.00259732
   0.50000000  0.50000000  0.00260225
   0.00000000  0.50000000  0.06518107
   0.50000000  0.00000000  0.06518107
   0.00000000  0.00000000  0.12813204
   0.50000000  0.50000000  0.12812960
   0.00000000  0.50000000  0.19013644
   0.50000000 -0.00000000  0.19013644
   0.00000000  0.00000000  0.25128617
   0.50000000  0.50000000  0.25144870
   0.00000000  0.50000000  0.31355099
   0.50000000 -0.00000000  0.31355099
   0.00000000 -0.00000000  0.37597800
   0.50000000  0.50000000  0.37648951
   0.00000000  0.50000000  0.43867040
   0.50000000 -0.00000000  0.43867040
   1.00000000  1.00000000  0.51912897
   1.00000000  1.00000000  0.54601302
Direct configuration=    38
   0.00000000 -0.00000000  0.00267936
   0.50000000  0.50000000  0.00267409
   0.00000000  0.50000000  0.06527105
   0.50000000  0.00000000  0.06527105
   0.00000000  0.00000000  0.12805104
   0.50000000  0.50000000  0.12806342
   0.00000000  0.50000000  0.19025860
   0.50000000 -0.00000000  0.19025860
   0.00000000  0.00000000  0.25119984
   0.50000000  0.50000000  0.25156408
   0.00000000  0.50000000  0.31342725
   0.50000000 -0.00000000  0.31342725
   0.00000000 -0.00000000  0.37572536
   0.50000000  0.50000000  0.37666222
   0.00000000  0.50000000  0.43866670
   0.50000000 -0.00000000  0.43866670
   1.00000000  1.00000000  0.51891875
   1.00000000  1.00000000  0.54609803
Direct configuration=    39
   0.00000000 -0.00000000  0.00265457
   0.50000000  0.50000000  0.00265186
   0.00000000  0.50000000  0.06524914
   0.50000000  0.00000000  0.06524914
   0.00000000  0.00000000  0.12806292
   0.50000000  0.50000000  0.12807188
   0.00000000  0.50000000  0.19023042
   0.50000000 -0.00000000  0.19023042
   0.00000000  0.00000000  0.25122029
   0.50000000  0.50000000  0.25153604
   0.00000000  0.50000000  0.31345816
   0.50000000 -0.00000000  0.31345816
   0.00000000 -0.00000000  0.37579216
   0.50000000  0.50000000  0.37662317
   0.00000000  0.50000000  0.43866838
   0.50000000 -0.00000000  0.43866838
   1.00000000  1.00000000  0.51891637
   1.00000000  1.00000000  0.54614193
Direct configuration=    40
   0.00000000 -0.00000000  0.00258022
   0.50000000  0.50000000  0.00258517
   0.00000000  0.50000000  0.06518341
   0.50000000  0.00000000  0.06518341
   0.00000000  0.00000000  0.12809856
   0.50000000  0.50000000  0.12809728
   0.00000000  0.50000000  0.19014588
   0.50000000 -0.00000000  0.19014588
   0.00000000  0.00000000  0.25128164
   0.50000000  0.50000000  0.25145193
   0.00000000  0.50000000  0.31355090
   0.50000000 -0.00000000  0.31355090
   0.00000000 -0.00000000  0.37599256
   0.50000000  0.50000000  0.37650601
   0.00000000  0.50000000  0.43867340
   0.50000000 -0.00000000  0.43867340
   1.00000000  1.00000000  0.51890920
   1.00000000  1.00000000  0.54627363
Direct configuration=    41
   0.00000000 -0.00000000  0.00243150
   0.50000000  0.50000000  0.00245179
   0.00000000  0.50000000  0.06505194
   0.50000000  0.00000000  0.06505194
   0.00000000  0.00000000  0.12816985
   0.50000000  0.50000000  0.12814807
   0.00000000  0.50000000  0.18997679
   0.50000000 -0.00000000  0.18997679
   0.00000000  0.00000000  0.25140434
   0.50000000  0.50000000  0.25128370
   0.00000000  0.50000000  0.31373639
   0.50000000 -0.00000000  0.31373639
   0.00000000 -0.00000000  0.37639337
   0.50000000  0.50000000  0.37627170
   0.00000000  0.50000000  0.43868345
   0.50000000 -0.00000000  0.43868345
   1.00000000  1.00000000  0.51889488
   1.00000000  1.00000000  0.54653703
Direct configuration=    42
   0.00000000 -0.00000000  0.00251304
   0.50000000  0.50000000  0.00252492
   0.00000000  0.50000000  0.06512402
   0.50000000  0.00000000  0.06512402
   0.00000000  0.00000000  0.12813076
   0.50000000  0.50000000  0.12812022
   0.00000000  0.50000000  0.19006950
   0.50000000 -0.00000000  0.19006950
   0.00000000  0.00000000  0.25133707
   0.50000000  0.50000000  0.25137594
   0.00000000  0.50000000  0.31363469
   0.50000000 -0.00000000  0.31363469
   0.00000000 -0.00000000  0.37617362
   0.50000000  0.50000000  0.37640017
   0.00000000  0.50000000  0.43867794