  66  66   0   0
  0.2212521E+02  0.7260000E-09  0.7260000E-09  0.2770500E-08  0.5000000E-15
  1.000000000000000E-004
  CAR 
 unknown system                          
     13.34578636     -9.54262562  301      1.87658267      1.00000000
     -9.543  0.0000E+00  0.0000E+00  0.0000E+00  0.0000E+00
     -9.466  0.0000E+00  0.0000E+00  0.0000E+00  0.0000E+00
     -9.390  0.0000E+00  0.0000E+00  0.0000E+00  0.0000E+00
     -9.314  0.0000E+00  0.0000E+00  0.0000E+00  0.0000E+00
     -9.237  0.0000E+00  0.0000E+00  0.0000E+00  0.0000E+00
     -9.161 -0.1501E-30 -0.1501E-30 -0.1145E-31 -0.1145E-31
     -9.085 -0.5924E-28 -0.5924E-28 -0.4531E-29 -0.4531E-29
     -9.009 -0.1746E-25 -0.1746E-25 -0.1337E-26 -0.1337E-26
     -8.932 -0.3835E-23 -0.3835E-23 -0.2939E-24 -0.2939E-24
     -8.856 -0.6275E-21 -0.6275E-21 -0.4817E-22 -0.4817E-22
     -8.780 -0.7644E-19 -0.7644E-19 -0.5880E-20 -0.5880E-20
     -8.703 -0.6727E-17 -0.6727E-17 -0.5191E-18 -0.5191E-18
     -8.627 -0.4514E-15 -0.4514E-15 -0.3496E-16 -0.3496E-16
     -8.551 -0.2248E-13 -0.2248E-13 -0.1750E-14 -0.1750E-14
     -8.474 -0.8291E-12 -0.8291E-12 -0.6500E-13 -0.6500E-13
     -8.398 -0.2260E-10 -0.2260E-10 -0.1790E-11 -0.1790E-11
     -8.322 -0.4541E-09 -0.4541E-09 -0.3644E-10 -0.3644E-10
     -8.246 -0.6693E-08 -0.6693E-08 -0.5471E-09 -0.5471E-09
     -8.169 -0.7189E-07 -0.7189E-07 -0.6032E-08 -0.6032E-08
     -8.093 -0.5567E-06 -0.5567E-06 -0.4850E-07 -0.4850E-07
     -8.017 -0.3051E-05 -0.3051E-05 -0.2813E-06 -0.2813E-06
     -7.940 -0.1140E-04 -0.1140E-04 -0.1151E-05 -0.1151E-05
     -7.864 -0.2641E-04 -0.2641E-04 -0.3166E-05 -0.3166E-05
     -7.788 -0.2435E-04 -0.2435E-04 -0.5023E-05 -0.5023E-05
     -7.712  0.5634E-04  0.5634E-04 -0.7250E-06 -0.7250E-06
     -7.635  0.2451E-03  0.2451E-03  0.1798E-04  0.1798E-04
     -7.559  0.4256E-03  0.4256E-03  0.5045E-04  0.5045E-04
     -7.483  0.4441E-03  0.4441E-03  0.8433E-04  0.8433E-04
     -7.406  0.4536E-03  0.4536E-03  0.1189E-03  0.1189E-03
     -7.330  0.8663E-03  0.8663E-03  0.1850E-03  0.1850E-03
     -7.254  0.1663E-02  0.1663E-02  0.3119E-03  0.3119E-03
     -7.177  0.2157E-02  0.2157E-02  0.4765E-03  0.4765E-03
     -7.101  0.1981E-02  0.1981E-02  0.6276E-03  0.6276E-03
     -7.025  0.1761E-02  0.1761E-02  0.7619E-03  0.7619E-03
     -6.949  0.2097E-02  0.2097E-02  0.9219E-03  0.9219E-03
     -6.872  0.2588E-02  0.2588E-02  0.1119E-02  0.1119E-02
     -6.796  0.2666E-02  0.2666E-02  0.1323E-02  0.1323E-02
     -6.720  0.2497E-02  0.2497E-02  0.1513E-02  0.1513E-02
     -6.643  0.2288E-02  0.2288E-02  0.1688E-02  0.1688E-02
     -6.567  0.1822E-02  0.1822E-02  0.1827E-02  0.1827E-02
     -6.491  0.1383E-02  0.1383E-02  0.1932E-02  0.1932E-02
     -6.415  0.1836E-02  0.1836E-02  0.2072E-02  0.2072E-02
     -6.338  0.3172E-02  0.3172E-02  0.2314E-02  0.2314E-02
     -6.262  0.4088E-02  0.4088E-02  0.2626E-02  0.2626E-02
     -6.186  0.3696E-02  0.3696E-02  0.2908E-02  0.2908E-02
     -6.109  0.2906E-02  0.2906E-02  0.3130E-02  0.3130E-02
     -6.033  0.3291E-02  0.3291E-02  0.3381E-02  0.3381E-02
     -5.957  0.4896E-02  0.4896E-02  0.3755E-02  0.3755E-02
     -5.880  0.6165E-02  0.6165E-02  0.4225E-02  0.4225E-02
     -5.804  0.5983E-02  0.5983E-02  0.4681E-02  0.4681E-02
     -5.728  0.4808E-02  0.4808E-02  0.5048E-02  0.5048E-02
     -5.652  0.3936E-02  0.3936E-02  0.5349E-02  0.5349E-02
     -5.575  0.4326E-02  0.4326E-02  0.5679E-02  0.5679E-02
     -5.499  0.5589E-02  0.5589E-02  0.6105E-02  0.6105E-02
     -5.423  0.6005E-02  0.6005E-02  0.6563E-02  0.6563E-02
     -5.346  0.4500E-02  0.4500E-02  0.6907E-02  0.6907E-02
     -5.270  0.2249E-02  0.2249E-02  0.7078E-02  0.7078E-02
     -5.194  0.1292E-02  0.1292E-02  0.7177E-02  0.7177E-02
     -5.118  0.2087E-02  0.2087E-02  0.7336E-02  0.7336E-02
     -5.041  0.3458E-02  0.3458E-02  0.7600E-02  0.7600E-02
     -4.965  0.4596E-02  0.4596E-02  0.7950E-02  0.7950E-02
     -4.889  0.6041E-02  0.6041E-02  0.8411E-02  0.8411E-02
     -4.812  0.8368E-02  0.8368E-02  0.9050E-02  0.9050E-02
     -4.736  0.1092E-01  0.1092E-01  0.9883E-02  0.9883E-02
     -4.660  0.1258E-01  0.1258E-01  0.1084E-01  0.1084E-01
     -4.583  0.1291E-01  0.1291E-01  0.1183E-01  0.1183E-01
     -4.507  0.1193E-01  0.1193E-01  0.1274E-01  0.1274E-01
     -4.431  0.9893E-02  0.9893E-02  0.1349E-01  0.1349E-01
     -4.355  0.7455E-02  0.7455E-02  0.1406E-01  0.1406E-01
     -4.278  0.5742E-02  0.5742E-02  0.1450E-01  0.1450E-01
     -4.202  0.5618E-02  0.5618E-02  0.1493E-01  0.1493E-01
     -4.126  0.6642E-02  0.6642E-02  0.1544E-01  0.1544E-01
     -4.049  0.7716E-02  0.7716E-02  0.1602E-01  0.1602E-01
     -3.973  0.8806E-02  0.8806E-02  0.1670E-01  0.1670E-01
     -3.897  0.1034E-01  0.1034E-01  0.1748E-01  0.1748E-01
     -3.821  0.1199E-01  0.1199E-01  0.1840E-01  0.1840E-01
     -3.744  0.1366E-01  0.1366E-01  0.1944E-01  0.1944E-01
     -3.668  0.1566E-01  0.1566E-01  0.2064E-01  0.2064E-01
     -3.592  0.1722E-01  0.1722E-01  0.2195E-01  0.2195E-01
     -3.515  0.1726E-01  0.1726E-01  0.2327E-01  0.2327E-01
     -3.439  0.1592E-01  0.1592E-01  0.2448E-01  0.2448E-01
     -3.363  0.1424E-01  0.1424E-01  0.2557E-01  0.2557E-01
     -3.286  0.1415E-01  0.1415E-01  0.2665E-01  0.2665E-01
     -3.210  0.1862E-01  0.1862E-01  0.2807E-01  0.2807E-01
     -3.134  0.2908E-01  0.2908E-01  0.3029E-01  0.3029E-01
     -3.058  0.4146E-01  0.4146E-01  0.3345E-01  0.3345E-01
     -2.981  0.4781E-01  0.4781E-01  0.3710E-01  0.3710E-01
     -2.905  0.4505E-01  0.4505E-01  0.4053E-01  0.4053E-01
     -2.829  0.3984E-01  0.3984E-01  0.4357E-01  0.4357E-01
     -2.752  0.4082E-01  0.4082E-01  0.4669E-01  0.4669E-01
     -2.676  0.4818E-01  0.4818E-01  0.5036E-01  0.5036E-01
     -2.600  0.5623E-01  0.5623E-01  0.5465E-01  0.5465E-01
     -2.524  0.6400E-01  0.6400E-01  0.5954E-01  0.5954E-01
     -2.447  0.7634E-01  0.7634E-01  0.6536E-01  0.6536E-01
     -2.371  0.9268E-01  0.9268E-01  0.7243E-01  0.7243E-01
     -2.295  0.1018E+00  0.1018E+00  0.8020E-01  0.8020E-01
     -2.218  0.9436E-01  0.9436E-01  0.8740E-01  0.8740E-01
     -2.142  0.7663E-01  0.7663E-01  0.9325E-01  0.9325E-01
     -2.066  0.6448E-01  0.6448E-01  0.9817E-01  0.9817E-01
     -1.989  0.6601E-01  0.6601E-01  0.1032E+00  0.1032E+00
     -1.913  0.7657E-01  0.7657E-01  0.1090E+00  0.1090E+00
     -1.837  0.8719E-01  0.8719E-01  0.1157E+00  0.1157E+00
     -1.761  0.9233E-01  0.9233E-01  0.1227E+00  0.1227E+00
     -1.684  0.9235E-01  0.9235E-01  0.1298E+00  0.1298E+00
     -1.608  0.9267E-01  0.9267E-01  0.1369E+00  0.1369E+00
     -1.532  0.9907E-01  0.9907E-01  0.1444E+00  0.1444E+00
     -1.455  0.1117E+00  0.1117E+00  0.1529E+00  0.1529E+00
     -1.379  0.1247E+00  0.1247E+00  0.1624E+00  0.1624E+00
     -1.303  0.1324E+00  0.1324E+00  0.1725E+00  0.1725E+00
     -1.227  0.1350E+00  0.1350E+00  0.1828E+00  0.1828E+00
     -1.150  0.1365E+00  0.1365E+00  0.1933E+00  0.1933E+00
     -1.074  0.1362E+00  0.1362E+00  0.2037E+00  0.2037E+00
     -0.998  0.1313E+00  0.1313E+00  0.2137E+00  0.2137E+00
     -0.921  0.1235E+00  0.1235E+00  0.2231E+00  0.2231E+00
     -0.845  0.1176E+00  0.1176E+00  0.2321E+00  0.2321E+00
     -0.769  0.1155E+00  0.1155E+00  0.2409E+00  0.2409E+00
     -0.692  0.1195E+00  0.1195E+00  0.2500E+00  0.2500E+00
     -0.616  0.1310E+00  0.1310E+00  0.2600E+00  0.2600E+00
     -0.540  0.1436E+00  0.1436E+00  0.2710E+00  0.2710E+00
     -0.464  0.1484E+00  0.1484E+00  0.2823E+00  0.2823E+00
     -0.387  0.1457E+00  0.1457E+00  0.2934E+00  0.2934E+00
     -0.311  0.1427E+00  0.1427E+00  0.3043E+00  0.3043E+00
     -0.235  0.1426E+00  0.1426E+00  0.3152E+00  0.3152E+00
     -0.158  0.1441E+00  0.1441E+00  0.3262E+00  0.3262E+00
     -0.082  0.1492E+00  0.1492E+00  0.3375E+00  0.3375E+00
     -0.006  0.1640E+00  0.1640E+00  0.3500E+00  0.3500E+00
      0.071  0.1870E+00  0.1870E+00  0.3643E+00  0.3643E+00
      0.147  0.2030E+00  0.2030E+00  0.3798E+00  0.3798E+00
      0.223  0.1948E+00  0.1948E+00  0.3947E+00  0.3947E+00
      0.299  0.1588E+00  0.1588E+00  0.4068E+00  0.4068E+00
      0.376  0.1076E+00  0.1076E+00  0.4150E+00  0.4150E+00
      0.452  0.6104E-01  0.6104E-01  0.4196E+00  0.4196E+00
      0.528  0.3211E-01  0.3211E-01  0.4221E+00  0.4221E+00
      0.605  0.1999E-01  0.1999E-01  0.4236E+00  0.4236E+00
      0.681  0.1698E-01  0.1698E-01  0.4249E+00  0.4249E+00
      0.757  0.1727E-01  0.1727E-01  0.4262E+00  0.4262E+00
      0.833  0.1807E-01  0.1807E-01  0.4276E+00  0.4276E+00
      0.910  0.1865E-01  0.1865E-01  0.4290E+00  0.4290E+00
      0.986  0.1959E-01  0.1959E-01  0.4305E+00  0.4305E+00
      1.062  0.1994E-01  0.1994E-01  0.4321E+00  0.4321E+00
      1.139  0.1749E-01  0.1749E-01  0.4334E+00  0.4334E+00
      1.215  0.1254E-01  0.1254E-01  0.4343E+00  0.4343E+00
      1.291  0.7847E-02  0.7847E-02  0.4349E+00  0.4349E+00
      1.368  0.4986E-02  0.4986E-02  0.4353E+00  0.4353E+00
      1.444  0.3562E-02  0.3562E-02  0.4356E+00  0.4356E+00
      1.520  0.3126E-02  0.3126E-02  0.4358E+00  0.4358E+00
      1.596  0.4308E-02  0.4308E-02  0.4362E+00  0.4362E+00
      1.673  0.8231E-02  0.8231E-02  0.4368E+00  0.4368E+00
      1.749  0.1524E-01  0.1524E-01  0.4379E+00  0.4379E+00
      1.825  0.2370E-01  0.2370E-01  0.4398E+00  0.4398E+00
      1.902  0.2944E-01  0.2944E-01  0.4420E+00  0.4420E+00
      1.978  0.2779E-01  0.2779E-01  0.4441E+00  0.4441E+00
      2.054  0.1859E-01  0.1859E-01  0.4455E+00  0.4455E+00
      2.130  0.7808E-02  0.7808E-02  0.4461E+00  0.4461E+00
      2.207  0.2174E-02  0.2174E-02  0.4463E+00  0.4463E+00
      2.283  0.3180E-02  0.3180E-02  0.4465E+00  0.4465E+00
      2.359  0.7034E-02  0.7034E-02  0.4471E+00  0.4471E+00
      2.436  0.9439E-02  0.9439E-02  0.4478E+00  0.4478E+00
      2.512  0.9778E-02  0.9778E-02  0.4485E+00  0.4485E+00
      2.588  0.1016E-01  0.1016E-01  0.4493E+00  0.4493E+00
      2.665  0.1180E-01  0.1180E-01  0.4502E+00  0.4502E+00
      2.741  0.1379E-01  0.1379E-01  0.4513E+00  0.4513E+00
      2.817  0.1415E-01  0.1415E-01  0.4524E+00  0.4524E+00
      2.893  0.1176E-01  0.1176E-01  0.4533E+00  0.4533E+00
      2.970  0.8605E-02  0.8605E-02  0.4539E+00  0.4539E+00
      3.046  0.8735E-02  0.8735E-02  0.4546E+00  0.4546E+00
      3.122  0.1348E-01  0.1348E-01  0.4556E+00  0.4556E+00
      3.199  0.1936E-01  0.1936E-01  0.4571E+00  0.4571E+00
      3.275  0.2157E-01  0.2157E-01  0.4587E+00  0.4587E+00
      3.351  0.1834E-01  0.1834E-01  0.4601E+00  0.4601E+00
      3.427  0.1172E-01  0.1172E-01  0.4610E+00  0.4610E+00
      3.504  0.5337E-02  0.5337E-02  0.4614E+00  0.4614E+00
      3.580  0.2335E-02  0.2335E-02  0.4616E+00  0.4616E+00
      3.656  0.4160E-02  0.4160E-02  0.4619E+00  0.4619E+00
      3.733  0.9462E-02  0.9462E-02  0.4626E+00  0.4626E+00
      3.809  0.1418E-01  0.1418E-01  0.4637E+00  0.4637E+00
      3.885  0.1452E-01  0.1452E-01  0.4648E+00  0.4648E+00
      3.962  0.1058E-01  0.1058E-01  0.4656E+00  0.4656E+00
      4.038  0.6313E-02  0.6313E-02  0.4661E+00  0.4661E+00
      4.114  0.5415E-02  0.5415E-02  0.4665E+00  0.4665E+00
      4.190  0.7387E-02  0.7387E-02  0.4671E+00  0.4671E+00
      4.267  0.8892E-02  0.8892E-02  0.4678E+00  0.4678E+00
      4.343  0.8447E-02  0.8447E-02  0.4684E+00  0.4684E+00
      4.419  0.7252E-02  0.7252E-02  0.4690E+00  0.4690E+00
      4.496  0.6575E-02  0.6575E-02  0.4695E+00  0.4695E+00
      4.572  0.7445E-02  0.7445E-02  0.4700E+00  0.4700E+00
      4.648  0.1081E-01  0.1081E-01  0.4709E+00  0.4709E+00
      4.724  0.1515E-01  0.1515E-01  0.4720E+00  0.4720E+00
      4.801  0.1668E-01  0.1668E-01  0.4733E+00  0.4733E+00
      4.877  0.1412E-01  0.1412E-01  0.4744E+00  0.4744E+00
      4.953  0.1054E-01  0.1054E-01  0.4752E+00  0.4752E+00
      5.030  0.9058E-02  0.9058E-02  0.4759E+00  0.4759E+00
      5.106  0.9597E-02  0.9597E-02  0.4766E+00  0.4766E+00
      5.182  0.1043E-01  0.1043E-01  0.4774E+00  0.4774E+00
      5.259  0.1067E-01  0.1067E-01  0.4782E+00  0.4782E+00
      5.335  0.1097E-01  0.1097E-01  0.4791E+00  0.4791E+00
      5.411  0.1246E-01  0.1246E-01  0.4800E+00  0.4800E+00
      5.487  0.1446E-01  0.1446E-01  0.4811E+00  0.4811E+00
      5.564  0.1426E-01  0.1426E-01  0.4822E+00  0.4822E+00
      5.640  0.1094E-01  0.1094E-01  0.4830E+00  0.4830E+00
      5.716  0.7250E-02  0.7250E-02  0.4836E+00  0.4836E+00
      5.793  0.6049E-02  0.6049E-02  0.4840E+00  0.4840E+00
      5.869  0.7241E-02  0.7241E-02  0.4846E+00  0.4846E+00
      5.945  0.9132E-02  0.9132E-02  0.4853E+00  0.4853E+00
      6.021  0.1083E-01  0.1083E-01  0.4861E+00  0.4861E+00
      6.098  0.1216E-01  0.1216E-01  0.4870E+00  0.4870E+00
      6.174  0.1261E-01  0.1261E-01  0.4880E+00  0.4880E+00
      6.250  0.1214E-01  0.1214E-01  0.4889E+00  0.4889E+00
      6.327  0.1230E-01  0.1230E-01  0.4899E+00  0.4899E+00
      6.403  0.1482E-01  0.1482E-01  0.4910E+00  0.4910E+00
      6.479  0.1896E-01  0.1895E-01  0.4924E+00  0.4924E+00
      6.556  0.2128E-01  0.2128E-01  0.4941E+00  0.4941E+00
      6.632  0.1955E-01  0.1955E-01  0.4956E+00  0.4956E+00
      6.708  0.1628E-01  0.1628E-01  0.4968E+00  0.4968E+00
      6.784  0.1570E-01  0.1570E-01  0.4980E+00  0.4980E+00
      6.861  0.1740E-01  0.1740E-01  0.4993E+00  0.4993E+00
      6.937  0.1678E-01  0.1678E-01  0.5006E+00  0.5006E+00
      7.013  0.1209E-01  0.1209E-01  0.5015E+00  0.5015E+00
      7.090  0.7055E-02  0.7055E-02  0.5021E+00  0.5021E+00
      7.166  0.5771E-02  0.5771E-02  0.5025E+00  0.5025E+00
      7.242  0.8250E-02  0.8250E-02  0.5031E+00  0.5031E+00
      7.319  0.1161E-01  0.1161E-01  0.5040E+00  0.5040E+00
      7.395  0.1347E-01  0.1347E-01  0.5051E+00  0.5051E+00
      7.471  0.1367E-01  0.1367E-01  0.5061E+00  0.5061E+00
      7.547  0.1373E-01  0.1372E-01  0.5071E+00  0.5071E+00
      7.624  0.1469E-01  0.1469E-01  0.5083E+00  0.5083E+00
      7.700  0.1645E-01  0.1645E-01  0.5095E+00  0.5095E+00
      7.776  0.1916E-01  0.1916E-01  0.5110E+00  0.5110E+00
      7.853  0.2279E-01  0.2279E-01  0.5127E+00  0.5127E+00
      7.929  0.2471E-01  0.2471E-01  0.5146E+00  0.5146E+00
      8.005  0.2142E-01  0.2142E-01  0.5162E+00  0.5162E+00
      8.081  0.1383E-01  0.1383E-01  0.5173E+00  0.5173E+00
      8.158  0.7866E-02  0.7866E-02  0.5179E+00  0.5179E+00
      8.234  0.9017E-02  0.9017E-02  0.5186E+00  0.5186E+00
      8.310  0.1649E-01  0.1649E-01  0.5198E+00  0.5198E+00
      8.387  0.2312E-01  0.2312E-01  0.5216E+00  0.5216E+00
      8.463  0.2246E-01  0.2246E-01  0.5233E+00  0.5233E+00
      8.539  0.1575E-01  0.1575E-01  0.5245E+00  0.5245E+00
      8.616  0.9489E-02  0.9489E-02  0.5252E+00  0.5252E+00
      8.692  0.7794E-02  0.7793E-02  0.5258E+00  0.5258E+00
      8.768  0.1025E-01  0.1025E-01  0.5266E+00  0.5266E+00
      8.844  0.1483E-01  0.1483E-01  0.5278E+00  0.5278E+00
      8.921  0.1928E-01  0.1928E-01  0.5292E+00  0.5292E+00
      8.997  0.2144E-01  0.2144E-01  0.5309E+00  0.5309E+00
      9.073  0.2086E-01  0.2086E-01  0.5325E+00  0.5325E+00
      9.150  0.1940E-01  0.1940E-01  0.5339E+00  0.5339E+00
      9.226  0.1888E-01  0.1888E-01  0.5354E+00  0.5354E+00
      9.302  0.1921E-01  0.1921E-01  0.5368E+00  0.5368E+00
      9.378  0.1941E-01  0.1941E-01  0.5383E+00  0.5383E+00
      9.455  0.1915E-01  0.1915E-01  0.5398E+00  0.5398E+00
      9.531  0.1876E-01  0.1876E-01  0.5412E+00  0.5412E+00
      9.607  0.1826E-01  0.1826E-01  0.5426E+00  0.5426E+00
      9.684  0.1710E-01  0.1710E-01  0.5439E+00  0.5439E+00
      9.760  0.1546E-01  0.1546E-01  0.5451E+00  0.5451E+00
      9.836  0.1483E-01  0.1483E-01  0.5462E+00  0.5462E+00
      9.913  0.1580E-01  0.1580E-01  0.5474E+00  0.5474E+00
      9.989  0.1672E-01  0.1672E-01  0.5487E+00  0.5487E+00
     10.065  0.1602E-01  0.1602E-01  0.5499E+00  0.5499E+00
     10.141  0.1491E-01  0.1491E-01  0.5511E+00  0.5511E+00
     10.218  0.1620E-01  0.1620E-01  0.5523E+00  0.5523E+00
     10.294  0.2072E-01  0.2072E-01  0.5539E+00  0.5539E+00
     10.370  0.2584E-01  0.2584E-01  0.5558E+00  0.5558E+00
     10.447  0.2761E-01  0.2761E-01  0.5580E+00  0.5580E+00
     10.523  0.2457E-01  0.2457E-01  0.5598E+00  0.5598E+00
     10.599  0.1905E-01  0.1905E-01  0.5613E+00  0.5613E+00
     10.675  0.1450E-01  0.1450E-01  0.5624E+00  0.5624E+00
     10.752  0.1211E-01  0.1211E-01  0.5633E+00  0.5633E+00
     10.828  0.1125E-01  0.1125E-01  0.5642E+00  0.5642E+00
     10.904  0.1153E-01  0.1153E-01  0.5651E+00  0.5651E+00
     10.981  0.1260E-01  0.1260E-01  0.5660E+00  0.5660E+00
     11.057  0.1305E-01  0.1305E-01  0.5670E+00  0.5670E+00
     11.133  0.1168E-01  0.1168E-01  0.5679E+00  0.5679E+00
     11.210  0.9262E-02  0.9263E-02  0.5686E+00  0.5686E+00
     11.286  0.7305E-02  0.7305E-02  0.5692E+00  0.5692E+00
     11.362  0.5814E-02  0.5814E-02  0.5696E+00  0.5696E+00
     11.438  0.3892E-02  0.3892E-02  0.5699E+00  0.5699E+00
     11.515  0.1689E-02  0.1689E-02  0.5700E+00  0.5700E+00
     11.591  0.1875E-03  0.1875E-03  0.5700E+00  0.5700E+00
     11.667 -0.2888E-03 -0.2888E-03  0.5700E+00  0.5700E+00
     11.744 -0.2222E-03 -0.2222E-03  0.5700E+00  0.5700E+00
     11.820 -0.8679E-04 -0.8680E-04  0.5700E+00  0.5700E+00
     11.896 -0.2197E-04 -0.2197E-04  0.5700E+00  0.5700E+00
     11.972 -0.3856E-05 -0.3856E-05  0.5700E+00  0.5700E+00
     12.049 -0.4828E-06 -0.4828E-06  0.5700E+00  0.5700E+00
     12.125 -0.4378E-07 -0.4378E-07  0.5700E+00  0.5700E+00
     12.201 -0.2901E-08 -0.2901E-08  0.5700E+00  0.5700E+00
     12.278 -0.1413E-09 -0.1413E-09  0.5700E+00  0.5700E+00
     12.354 -0.5078E-11 -0.5079E-11  0.5700E+00  0.5700E+00
     12.430 -0.1351E-12 -0.1351E-12  0.5700E+00  0.5700E+00
     12.507 -0.2665E-14 -0.2665E-14  0.5700E+00  0.5700E+00
     12.583 -0.4042E-16 -0.4042E-16  0.5700E+00  0.5700E+00
     12.659  0.0000E+00  0.0000E+00  0.5700E+00  0.5700E+00
     12.735  0.0000E+00  0.0000E+00  0.5700E+00  0.5700E+00
     12.812  0.0000E+00  0.0000E+00  0.5700E+00  0.5700E+00
     12.888  0.0000E+00  0.0000E+00  0.5700E+00  0.5700E+00
     12.964  0.0000E+00  0.0000E+00  0.5700E+00  0.5700E+00
     13.041  0.0000E+00  0.0000E+00  0.5700E+00  0.5700E+00
     13.117  0.0000E+00  0.0000E+00  0.5700E+00  0.5700E+00
     13.193  0.0000E+00  0.0000E+00  0.5700E+00  0.5700E+00
     13.269  0.0000E+00  0.0000E+00  0.5700E+00  0.5700E+00
     13.346  0.0000E+00  0.0000E+00  0.5700E+00  0.5700E+00
