<?xml version="1.0" encoding="ISO-8859-1"?>
<modeling>
 <generator>
  <i name="program" type="string">vasp </i>
  <i name="version" type="string">6.3.2  </i>
  <i name="subversion" type="string">27Jun22 (build Aug 17 2022 15:43:34) complex                          parallel </i>
  <i name="platform" type="string">tv2STDVTST </i>
  <i name="date" type="string">2025 02 17 </i>
  <i name="time" type="string">15:56:13 </i>
 </generator>
 <incar>
  <i type="int" name="ISTART">     0</i>
  <i type="string" name="PREC">Normal</i>
  <i type="int" name="ISPIN">     2</i>
  <i type="int" name="ICHARG">     2</i>
  <i type="int" name="IBRION">     2</i>
  <i name="EDIFF">      0.00020000</i>
  <i name="EDIFFG">     -0.03000000</i>
  <i type="int" name="NSW">   800</i>
  <i type="int" name="ISIF">     2</i>
  <i type="int" name="ISYM">     1</i>
  <i name="ENCUT">    400.00000000</i>
  <i name="POTIM">      0.50000000</i>
  <i type="logical" name="LREAL"> F  </i>
  <i type="int" name="ISMEAR">     1</i>
  <i name="SIGMA">      0.20000000</i>
  <i type="logical" name="LWAVE"> F  </i>
  <i type="logical" name="LCHARG"> F  </i>
  <i type="string" name="GGA">PE</i>
  <i type="int" name="IVDW">    11</i>
 </incar>
 <primitive_cell>
  <structure name="primitive_cell" >
   <crystal>
    <varray name="basis" >
     <v>       7.26000023       0.00000000       0.00000000 </v>
     <v>       0.00000000       7.26000023       0.00000000 </v>
     <v>       0.00000000       0.00000000      27.70499992 </v>
    </varray>
    <i name="volume">   1460.26414606 </i>
    <varray name="rec_basis" >
     <v>       0.13774104       0.00000000       0.00000000 </v>
     <v>       0.00000000       0.13774104       0.00000000 </v>
     <v>       0.00000000       0.00000000       0.03609457 </v>
    </varray>
   </crystal>
   <varray name="positions" >
    <v>       0.00000000       0.00000000       0.00000000 </v>
    <v>       0.00000000       0.50000000       0.00000000 </v>
    <v>       0.50000000       0.00000000       0.00000000 </v>
    <v>       0.50000000       0.50000000       0.00000000 </v>
    <v>       0.25000000       0.25000000       0.00000000 </v>
    <v>       0.25000000       0.75000000       0.00000000 </v>
    <v>       0.75000000       0.25000000       0.00000000 </v>
    <v>       0.75000000       0.75000000       0.00000000 </v>
    <v>       0.00000000       0.25000000       0.06551164 </v>
    <v>       0.00000000       0.75000000       0.06551164 </v>
    <v>       0.50000000       0.25000000       0.06551164 </v>
    <v>       0.50000000       0.75000000       0.06551164 </v>
    <v>       0.25000000       0.00000000       0.06551164 </v>
    <v>       0.25000000       0.50000000       0.06551164 </v>
    <v>       0.75000000       0.00000000       0.06551164 </v>
    <v>       0.75000000       0.50000000       0.06551164 </v>
    <v>       0.00000000       0.00000000       0.13164128 </v>
    <v>       0.00000000       0.50000000       0.13164128 </v>
    <v>       0.50000000       0.00000000       0.13164128 </v>
    <v>       0.50000000       0.50000000       0.13164128 </v>
    <v>       0.25000000       0.25000000       0.13164128 </v>
    <v>       0.25000000       0.75000000       0.13164128 </v>
    <v>       0.75000000       0.25000000       0.13164128 </v>
    <v>       0.75000000       0.75000000       0.13164128 </v>
    <v>       0.00000000       0.25000000       0.19677891 </v>
    <v>       0.00000000       0.75000000       0.19677891 </v>
    <v>       0.50000000       0.25000000       0.19677891 </v>
    <v>       0.50000000       0.75000000       0.19677891 </v>
    <v>       0.25000000       0.00000000       0.19677891 </v>
    <v>       0.25000000       0.50000000       0.19677891 </v>
    <v>       0.75000000       0.00000000       0.19677891 </v>
    <v>       0.75000000       0.50000000       0.19677891 </v>
    <v>       0.00000000       0.00000000       0.26184662 </v>
    <v>       0.00000000       0.50000000       0.26184662 </v>
    <v>       0.50000000       0.00000000       0.26184662 </v>
    <v>       0.50000000       0.50000000       0.26184662 </v>
    <v>       0.25000000       0.25000000       0.26184662 </v>
    <v>       0.25000000       0.75000000       0.26184662 </v>
    <v>       0.75000000       0.25000000       0.26184662 </v>
    <v>       0.75000000       0.75000000       0.26184662 </v>
    <v>       0.00000000       0.25000000       0.32758887 </v>
    <v>       0.00000000       0.75000000       0.32758887 </v>
    <v>       0.50000000       0.25000000       0.32758887 </v>
    <v>       0.50000000       0.75000000       0.32758887 </v>
    <v>       0.25000000       0.00000000       0.32758887 </v>
    <v>       0.25000000       0.50000000       0.32758887 </v>
    <v>       0.75000000       0.00000000       0.32758887 </v>
    <v>       0.75000000       0.50000000       0.32758887 </v>
    <v>       0.00000000       0.00000000       0.39185763 </v>
    <v>       0.00000000       0.50000000       0.39185763 </v>
    <v>       0.50000000       0.00000000       0.39185763 </v>
    <v>       0.50000000       0.50000000       0.39185763 </v>
    <v>       0.25000000       0.25000000       0.39185763 </v>
    <v>       0.25000000       0.75000000       0.39185763 </v>
    <v>       0.75000000       0.25000000       0.39185763 </v>
    <v>       0.75000000       0.75000000       0.39185763 </v>
    <v>       0.00000000       0.25000000       0.45475490 </v>
    <v>       0.00000000       0.75000000       0.45475490 </v>
    <v>       0.50000000       0.25000000       0.45475490 </v>
    <v>       0.50000000       0.75000000       0.45475490 </v>
    <v>       0.25000000       0.00000000       0.45475490 </v>
    <v>       0.25000000       0.50000000       0.45475490 </v>
    <v>       0.75000000       0.00000000       0.45475490 </v>
    <v>       0.75000000       0.50000000       0.45475490 </v>
    <v>       0.50000000       0.50000000       0.50150658 </v>
    <v>       0.50000000       0.57265863       0.52054652 </v>
   </varray>
  </structure>
  <varray name="primitive_index" >
   <v type="int" >        1 </v>
   <v type="int" >        2 </v>
   <v type="int" >        3 </v>
   <v type="int" >        4 </v>
   <v type="int" >        5 </v>
   <v type="int" >        6 </v>
   <v type="int" >        7 </v>
   <v type="int" >        8 </v>
   <v type="int" >        9 </v>
   <v type="int" >       10 </v>
   <v type="int" >       11 </v>
   <v type="int" >       12 </v>
   <v type="int" >       13 </v>
   <v type="int" >       14 </v>
   <v type="int" >       15 </v>
   <v type="int" >       16 </v>
   <v type="int" >       17 </v>
   <v type="int" >       18 </v>
   <v type="int" >       19 </v>
   <v type="int" >       20 </v>
   <v type="int" >       21 </v>
   <v type="int" >       22 </v>
   <v type="int" >       23 </v>
   <v type="int" >       24 </v>
   <v type="int" >       25 </v>
   <v type="int" >       26 </v>
   <v type="int" >       27 </v>
   <v type="int" >       28 </v>
   <v type="int" >       29 </v>
   <v type="int" >       30 </v>
   <v type="int" >       31 </v>
   <v type="int" >       32 </v>
   <v type="int" >       33 </v>
   <v type="int" >       34 </v>
   <v type="int" >       35 </v>
   <v type="int" >       36 </v>
   <v type="int" >       37 </v>
   <v type="int" >       38 </v>
   <v type="int" >       39 </v>
   <v type="int" >       40 </v>
   <v type="int" >       41 </v>
   <v type="int" >       42 </v>
   <v type="int" >       43 </v>
   <v type="int" >       44 </v>
   <v type="int" >       45 </v>
   <v type="int" >       46 </v>
   <v type="int" >       47 </v>
   <v type="int" >       48 </v>
   <v type="int" >       49 </v>
   <v type="int" >       50 </v>
   <v type="int" >       51 </v>
   <v type="int" >       52 </v>
   <v type="int" >       53 </v>
   <v type="int" >       54 </v>
   <v type="int" >       55 </v>
   <v type="int" >       56 </v>
   <v type="int" >       57 </v>
   <v type="int" >       58 </v>
   <v type="int" >       59 </v>
   <v type="int" >       60 </v>
   <v type="int" >       61 </v>
   <v type="int" >       62 </v>
   <v type="int" >       63 </v>
   <v type="int" >       64 </v>
   <v type="int" >       65 </v>
   <v type="int" >       66 </v>
  </varray>
 </primitive_cell>
 <kpoints>
  <generation param="Monkhorst-Pack">
   <v type="int" name="divisions">       3        3        1 </v>
   <v name="usershift">      0.00000000       0.00000000       0.00000000 </v>
   <v name="genvec1">      0.33333333       0.00000000       0.00000000 </v>
   <v name="genvec2">      0.00000000       0.33333333       0.00000000 </v>
   <v name="genvec3">      0.00000000       0.00000000       1.00000000 </v>
   <v name="shift">      0.00000000       0.00000000       0.00000000 </v>
  </generation>
  <varray name="kpointlist" >
   <v>       0.00000000       0.00000000       0.00000000 </v>
   <v>       0.33333333       0.00000000       0.00000000 </v>
   <v>       0.00000000       0.33333333       0.00000000 </v>
   <v>       0.33333333       0.33333333       0.00000000 </v>
  </varray>
  <varray name="weights" >
   <v>       0.11111111 </v>
   <v>       0.22222222 </v>
   <v>       0.22222222 </v>
   <v>       0.44444444 </v>
  </varray>
 </kpoints>
 <parameters>
  <separator name="general" >
   <i type="string" name="SYSTEM">unknown system</i>
   <i type="logical" name="LCOMPAT"> F  </i>
  </separator>
  <separator name="electronic" >
   <i type="string" name="PREC">normal</i>
   <i name="ENMAX">    400.00000000</i>
   <i name="ENAUG">    586.98000000</i>
   <i name="EDIFF">      0.00020000</i>
   <i type="int" name="IALGO">    38</i>
   <i type="int" name="IWAVPR">    11</i>
   <i type="int" name="NBANDS">   456</i>
   <i type="int" name="NBANDSLOW">    -1</i>
   <i type="int" name="NBANDSHIGH">    -1</i>
   <i name="NELECT">    706.00000000</i>
   <i type="int" name="TURBO">     0</i>
   <i type="int" name="IRESTART">     0</i>
   <i type="int" name="NREBOOT">     0</i>
   <i type="int" name="NMIN">     0</i>
   <i name="EREF">      0.00000000</i>
   <separator name="electronic smearing" >
    <i type="int" name="ISMEAR">     1</i>
    <i name="SIGMA">      0.20000000</i>
    <i name="KSPACING">      0.50000000</i>
    <i type="logical" name="KGAMMA"> T  </i>
    <i type="logical" name="KBLOWUP"> T  </i>
   </separator>
   <separator name="electronic projectors" >
    <i type="logical" name="LREAL"> F  </i>
    <v name="ROPT">      0.00000000      0.00000000</v>
    <i type="int" name="LMAXPAW">  -100</i>
    <i type="int" name="LMAXMIX">     2</i>
    <i type="logical" name="NLSPLINE"> F  </i>
   </separator>
   <separator name="electronic startup" >
    <i type="int" name="ISTART">     0</i>
    <i type="int" name="ICHARG">     2</i>
    <i type="int" name="INIWAV">     1</i>
   </separator>
   <separator name="electronic spin" >
    <i type="int" name="ISPIN">     2</i>
    <i type="logical" name="LNONCOLLINEAR"> F  </i>
    <v name="MAGMOM">      1.00000000      1.00000000      1.00000000      1.00000000      1.00000000      1.00000000      1.00000000      1.00000000      1.00000000      1.00000000      1.00000000      1.00000000      1.00000000      1.00000000      1.00000000      1.00000000      1.00000000      1.00000000      1.00000000      1.00000000
      1.00000000      1.00000000      1.00000000      1.00000000      1.00000000      1.00000000      1.00000000      1.00000000      1.00000000      1.00000000      1.00000000      1.00000000      1.00000000      1.00000000      1.00000000      1.00000000      1.00000000      1.00000000      1.00000000      1.00000000
      1.00000000      1.00000000      1.00000000      1.00000000      1.00000000      1.00000000      1.00000000      1.00000000      1.00000000      1.00000000      1.00000000      1.00000000      1.00000000      1.00000000      1.00000000      1.00000000      1.00000000      1.00000000      1.00000000      1.00000000
      1.00000000      1.00000000      1.00000000      1.00000000      1.00000000      1.00000000</v>
    <i name="NUPDOWN">     -1.00000000</i>
    <i type="logical" name="LSORBIT"> F  </i>
    <v name="SAXIS">      0.00000000      0.00000000      1.00000000</v>
    <i type="logical" name="LSPIRAL"> F  </i>
    <v name="QSPIRAL">      0.00000000      0.00000000      0.00000000</v>
    <i type="logical" name="LZEROZ"> F  </i>
   </separator>
   <separator name="electronic exchange-correlation" >
    <i type="logical" name="LASPH"> F  </i>
    <i type="logical" name="LMETAGGA"> F  </i>
   </separator>
   <separator name="electronic convergence" >
    <i type="int" name="NELM">    60</i>
    <i type="int" name="NELMDL">    -5</i>
    <i type="int" name="NELMIN">     2</i>
    <i name="ENINI">    400.00000000</i>
    <separator name="electronic convergence detail" >
     <i type="logical" name="LDIAG"> T  </i>
     <i type="logical" name="LSUBROT"> F  </i>
     <i name="WEIMIN">      0.00100000</i>
     <i name="EBREAK">      0.00000011</i>
     <i name="DEPER">      0.30000000</i>
     <i type="int" name="NRMM">     4</i>
     <i name="TIME">      0.40000000</i>
    </separator>
   </separator>
   <separator name="electronic mixer" >
    <i name="AMIX">      0.40000000</i>
    <i name="BMIX">      1.00000000</i>
    <i name="AMIN">      0.10000000</i>
    <i name="AMIX_MAG">      1.60000000</i>
    <i name="BMIX_MAG">      1.00000000</i>
    <separator name="electronic mixer details" >
     <i type="int" name="IMIX">     4</i>
     <i type="logical" name="MIXFIRST"> F  </i>
     <i type="int" name="MAXMIX">   -45</i>
     <i name="WC">    100.00000000</i>
     <i type="int" name="INIMIX">     1</i>
     <i type="int" name="MIXPRE">     1</i>
     <i type="int" name="MREMOVE">     5</i>
    </separator>
   </separator>
   <separator name="electronic dipolcorrection" >
    <i type="logical" name="LDIPOL"> F  </i>
    <i type="logical" name="LMONO"> F  </i>
    <i type="int" name="IDIPOL">     0</i>
    <i name="EPSILON">      1.00000000</i>
    <v name="DIPOL">   -100.00000000   -100.00000000   -100.00000000</v>
    <i name="EFIELD">      0.00000000</i>
   </separator>
  </separator>
  <separator name="grids" >
   <i type="int" name="NGX">    36</i>
   <i type="int" name="NGY">    36</i>
   <i type="int" name="NGZ">   140</i>
   <i type="int" name="NGXF">    72</i>
   <i type="int" name="NGYF">    72</i>
   <i type="int" name="NGZF">   280</i>
   <i type="logical" name="ADDGRID"> F  </i>
  </separator>
  <separator name="ionic" >
   <i type="int" name="NSW">   800</i>
   <i type="int" name="IBRION">     2</i>
   <i type="int" name="MDALGO">     0</i>
   <i type="int" name="ISIF">     2</i>
   <i name="PSTRESS">      0.00000000</i>
   <i name="EDIFFG">     -0.03000000</i>
   <i type="int" name="NFREE">     1</i>
   <i name="POTIM">      0.50000000</i>
   <i name="SMASS">     -3.00000000</i>
   <i name="SCALEE">      1.00000000</i>
  </separator>
  <separator name="ionic md" >
   <i name="TEBEG">      0.00010000</i>
   <i name="TEEND">      0.00010000</i>
   <i type="int" name="NBLOCK">     1</i>
   <i type="int" name="KBLOCK">   800</i>
   <i type="int" name="NPACO">   256</i>
   <i name="APACO">     10.00000000</i>
  </separator>
  <separator name="symmetry" >
   <i type="int" name="ISYM">     1</i>
   <i name="SYMPREC">      0.00001000</i>
  </separator>
  <separator name="dos" >
   <i type="int" name="LORBIT">     0</i>
   <v name="RWIGS">     -1.00000000     -1.00000000</v>
   <i type="int" name="NEDOS">   301</i>
   <i name="EMIN">     10.00000000</i>
   <i name="EMAX">    -10.00000000</i>
   <i name="EFERMI">      0.00000000</i>
  </separator>
  <separator name="writing" >
   <i type="int" name="NWRITE">     2</i>
   <i type="logical" name="LWAVE"> F  </i>
   <i type="logical" name="LDOWNSAMPLE"> F  </i>
   <i type="logical" name="LCHARG"> F  </i>
   <i type="logical" name="LPARD"> F  </i>
   <i type="logical" name="LVTOT"> F  </i>
   <i type="logical" name="LVHAR"> F  </i>
   <i type="logical" name="LELF"> F  </i>
   <i type="logical" name="LOPTICS"> F  </i>
   <v name="STM">      0.00000000      0.00000000      0.00000000      0.00000000      0.00000000      0.00000000      0.00000000</v>
  </separator>
  <separator name="performance" >
   <i type="int" name="NPAR">     4</i>
   <i type="int" name="NSIM">     4</i>
   <i type="int" name="NBLK">    -1</i>
   <i type="logical" name="LPLANE"> T  </i>
   <i type="logical" name="LSCALAPACK"> T  </i>
   <i type="logical" name="LSCAAWARE"> F  </i>
   <i type="logical" name="LSCALU"> F  </i>
   <i type="logical" name="LASYNC"> F  </i>
   <i type="logical" name="LORBITALREAL"> F  </i>
  </separator>
  <separator name="miscellaneous" >
   <i type="int" name="IDIOT">     3</i>
   <i type="int" name="PHON_NSTRUCT">    -1</i>
   <i type="logical" name="LMUSIC"> F  </i>
   <v name="POMASS">     63.54600000      1.00000000</v>
   <v name="DARWINR">      0.00000000      0.00000000</v>
   <v name="DARWINV">      1.00000000      1.00000000</v>
   <i type="logical" name="LCORR"> T  </i>
  </separator>
  <i type="logical" name="GGA_COMPAT"> T  </i>
  <i type="logical" name="LBERRY"> F  </i>
  <i type="int" name="ICORELEVEL">     0</i>
  <i type="logical" name="LDAU"> F  </i>
  <i type="int" name="I_CONSTRAINED_M">     0</i>
  <separator name="electronic exchange-correlation" >
   <i type="string" name="GGA">PE</i>
   <i type="int" name="VOSKOWN">     0</i>
   <i type="logical" name="LHFCALC"> F  </i>
   <i type="string" name="PRECFOCK"></i>
   <i type="logical" name="LSYMGRAD"> F  </i>
   <i type="logical" name="LHFONE"> F  </i>
   <i type="logical" name="LRHFCALC"> F  </i>
   <i type="logical" name="LTHOMAS"> F  </i>
   <i type="logical" name="LMODELHF"> F  </i>
   <i type="logical" name="LFOCKACE"> F  </i>
   <i name="ENCUT4O">     -1.00000000</i>
   <i type="int" name="EXXOEP">     0</i>
   <i type="int" name="FOURORBIT">     0</i>
   <i name="AEXX">      0.00000000</i>
   <i name="HFALPHA">      0.00000000</i>
   <i name="MCALPHA">      0.00000000</i>
   <i name="ALDAX">      1.00000000</i>
   <i name="AGGAX">      1.00000000</i>
   <i name="ALDAC">      1.00000000</i>
   <i name="AGGAC">      1.00000000</i>
   <i type="int" name="NKREDX">     1</i>
   <i type="int" name="NKREDY">     1</i>
   <i type="int" name="NKREDZ">     1</i>
   <i type="logical" name="SHIFTRED"> F  </i>
   <i type="logical" name="ODDONLY"> F  </i>
   <i type="logical" name="EVENONLY"> F  </i>
   <i type="int" name="LMAXFOCK">     0</i>
   <i type="int" name="NMAXFOCKAE">     0</i>
   <i type="logical" name="LFOCKAEDFT"> F  </i>
   <i name="HFSCREEN">      0.00000000</i>
   <i name="HFSCREENC">      0.00000000</i>
   <i type="int" name="NBANDSGWLOW">     0</i>
  </separator>
  <separator name="vdW DFT" >
   <i type="logical" name="LUSE_VDW"> F  </i>
   <i name="Zab_VDW">     -0.84910000</i>
   <i name="PARAM1">      0.12340000</i>
   <i name="PARAM2">      1.00000000</i>
   <i name="PARAM3">      0.00000000</i>
  </separator>
  <separator name="model GW" >
   <i type="int" name="MODEL_GW">     0</i>
   <i name="MODEL_EPS0">     13.27512860</i>
   <i name="MODEL_ALPHA">      1.00000000</i>
  </separator>
  <separator name="linear response parameters" >
   <i type="logical" name="LEPSILON"> F  </i>
   <i type="logical" name="LRPA"> F  </i>
   <i type="logical" name="LNABLA"> F  </i>
   <i type="logical" name="LVEL"> F  </i>
   <i name="CSHIFT">      0.10000000</i>
   <i name="OMEGAMAX">     -1.00000000</i>
   <i name="DEG_THRESHOLD">      0.00200000</i>
   <i name="RTIME">     -0.10000000</i>
   <i name="WPLASMAI">      0.00000000</i>
   <v name="DFIELD">      0.00000000      0.00000000      0.00000000</v>
   <v name="WPLASMA">      0.00000000      0.00000000      0.00000000      0.00000000      0.00000000      0.00000000      0.00000000      0.00000000      0.00000000</v>
  </separator>
  <separator name="orbital magnetization" >
   <i type="logical" name="NUCIND"> F  </i>
   <v name="MAGPOS">      0.00000000      0.00000000      0.00000000</v>
   <i type="logical" name="LNICSALL"> T  </i>
   <i type="logical" name="ORBITALMAG"> F  </i>
   <i type="logical" name="LMAGBLOCH"> F  </i>
   <i type="logical" name="LCHIMAG"> F  </i>
   <i type="logical" name="LGAUGE"> T  </i>
   <i type="int" name="MAGATOM">     0</i>
   <v name="MAGDIPOL">      0.00000000      0.00000000      0.00000000</v>
   <v name="AVECCONST">      0.00000000      0.00000000      0.00000000</v>
  </separator>
  <separator name="response functions" >
   <i type="logical" name="LFINITE_TEMPERATURE"> F  </i>
   <i type="logical" name="LADDER"> F  </i>
   <i type="logical" name="LRPAFORCE"> F  </i>
   <i type="logical" name="LFXC"> F  </i>
   <i type="logical" name="LHARTREE"> T  </i>
   <i type="int" name="IBSE">     0</i>
   <v type="int" name="KPOINT">    -1     0     0     0</v>
   <i type="logical" name="LTCTC"> F  </i>
   <i type="logical" name="LTCTE"> F  </i>
   <i type="logical" name="LTETE"> F  </i>
   <i type="logical" name="LTRIPLET"> F  </i>
   <i type="logical" name="LFXCEPS"> F  </i>
   <i type="logical" name="LFXHEG"> F  </i>
   <i type="int" name="NATURALO">     2</i>
   <i type="logical" name="LHOLEGF"> F  </i>
   <i type="logical" name="L2ORDER"> F  </i>
   <i type="logical" name="LDMP1"> F  </i>
   <i type="logical" name="LMP2LT"> F  </i>
   <i type="logical" name="LSMP2LT"> F  </i>
   <i type="logical" name="LGWLF"> F  </i>
   <i name="ENCUTGW">     -2.00000000</i>
   <i name="ENCUTGWSOFT">     -2.00000000</i>
   <i name="ENCUTLF">     -1.00000000</i>
   <i type="logical" name="LESF_SPLINES"> F  </i>
   <i type="int" name="LMAXMP2">    -1</i>
   <i name="SCISSOR">      0.00000000</i>
   <i type="int" name="NOMEGA">     0</i>
   <i type="int" name="NOMEGAR">     0</i>
   <i type="int" name="NBANDSGW">    -1</i>
   <i type="int" name="NBANDSO">    -1</i>
   <i type="int" name="NBANDSV">    -1</i>
   <i type="int" name="NELMGW">     1</i>
   <i type="int" name="NELMHF">     1</i>
   <i type="int" name="DIM">     3</i>
   <i type="int" name="IESPILON">     4</i>
   <i type="int" name="ANTIRES">     0</i>
   <i name="OMEGAMAX">    -30.00000000</i>
   <i name="OMEGAMIN">    -30.00000000</i>
   <i name="OMEGATL">   -200.00000000</i>
   <i type="int" name="OMEGAGRID">     0</i>
   <i name="CSHIFT">     -0.10000000</i>
   <i type="logical" name="LSELFENERGY"> F  </i>
   <i type="logical" name="LSPECTRAL"> F  </i>
   <i type="logical" name="LSPECTRALGW"> F  </i>
   <i type="logical" name="LSINGLES"> F  </i>
   <i type="logical" name="LFERMIGW"> F  </i>
   <i type="logical" name="ODDONLYGW"> F  </i>
   <i type="logical" name="EVENONLYGW"> F  </i>
   <i type="int" name="NKREDLFX">     1</i>
   <i type="int" name="NKREDLFY">     1</i>
   <i type="int" name="NKREDLFZ">     1</i>
   <i type="int" name="MAXMEM">  2800</i>
   <i type="int" name="TELESCOPE">     0</i>
   <i type="int" name="NTAUPAR">    -1</i>
   <i type="int" name="NOMEGAPAR">    -1</i>
   <i name="DAMP_NEWTON">      0.80000001</i>
   <i name="LAMBDA">      1.00000000</i>
  </separator>
  <separator name="External order field" >
   <i name="OFIELD_KAPPA">      0.00000000</i>
   <v name="OFIELD_K">      0.00000000      0.00000000      0.00000000</v>
   <i name="OFIELD_Q6_NEAR">      0.00000000</i>
   <i name="OFIELD_Q6_FAR">      0.00000000</i>
   <i name="OFIELD_A">      0.00000000</i>
  </separator>
  <separator name="optional k-points parameters" >
   <i type="int" name="KPOINTS_OPT_MODE">     1</i>
   <i type="logical" name="LKPOINTS_OPT"> F  </i>
  </separator>
 </parameters>
 <atominfo>
  <atoms>      66 </atoms>
  <types>       2 </types>
  <array name="atoms" >
   <dimension dim="1">ion</dimension>
   <field type="string">element</field>
   <field type="int">atomtype</field>
   <set>
    <rc><c>Cu</c><c>   1</c></rc>
    <rc><c>Cu</c><c>   1</c></rc>
    <rc><c>Cu</c><c>   1</c></rc>
    <rc><c>Cu</c><c>   1</c></rc>
    <rc><c>Cu</c><c>   1</c></rc>
    <rc><c>Cu</c><c>   1</c></rc>
    <rc><c>Cu</c><c>   1</c></rc>
    <rc><c>Cu</c><c>   1</c></rc>
    <rc><c>Cu</c><c>   1</c></rc>
    <rc><c>Cu</c><c>   1</c></rc>
    <rc><c>Cu</c><c>   1</c></rc>
    <rc><c>Cu</c><c>   1</c></rc>
    <rc><c>Cu</c><c>   1</c></rc>
    <rc><c>Cu</c><c>   1</c></rc>
    <rc><c>Cu</c><c>   1</c></rc>
    <rc><c>Cu</c><c>   1</c></rc>
    <rc><c>Cu</c><c>   1</c></rc>
    <rc><c>Cu</c><c>   1</c></rc>
    <rc><c>Cu</c><c>   1</c></rc>
    <rc><c>Cu</c><c>   1</c></rc>
    <rc><c>Cu</c><c>   1</c></rc>
    <rc><c>Cu</c><c>   1</c></rc>
    <rc><c>Cu</c><c>   1</c></rc>
    <rc><c>Cu</c><c>   1</c></rc>
    <rc><c>Cu</c><c>   1</c></rc>
    <rc><c>Cu</c><c>   1</c></rc>
    <rc><c>Cu</c><c>   1</c></rc>
    <rc><c>Cu</c><c>   1</c></rc>
    <rc><c>Cu</c><c>   1</c></rc>
    <rc><c>Cu</c><c>   1</c></rc>
    <rc><c>Cu</c><c>   1</c></rc>
    <rc><c>Cu</c><c>   1</c></rc>
    <rc><c>Cu</c><c>   1</c></rc>
    <rc><c>Cu</c><c>   1</c></rc>
    <rc><c>Cu</c><c>   1</c></rc>
    <rc><c>Cu</c><c>   1</c></rc>
    <rc><c>Cu</c><c>   1</c></rc>
    <rc><c>Cu</c><c>   1</c></rc>
    <rc><c>Cu</c><c>   1</c></rc>
    <rc><c>Cu</c><c>   1</c></rc>
    <rc><c>Cu</c><c>   1</c></rc>
    <rc><c>Cu</c><c>   1</c></rc>
    <rc><c>Cu</c><c>   1</c></rc>
    <rc><c>Cu</c><c>   1</c></rc>
    <rc><c>Cu</c><c>   1</c></rc>
    <rc><c>Cu</c><c>   1</c></rc>
    <rc><c>Cu</c><c>   1</c></rc>
    <rc><c>Cu</c><c>   1</c></rc>
    <rc><c>Cu</c><c>   1</c></rc>
    <rc><c>Cu</c><c>   1</c></rc>
    <rc><c>Cu</c><c>   1</c></rc>
    <rc><c>Cu</c><c>   1</c></rc>
    <rc><c>Cu</c><c>   1</c></rc>
    <rc><c>Cu</c><c>   1</c></rc>
    <rc><c>Cu</c><c>   1</c></rc>
    <rc><c>Cu</c><c>   1</c></rc>
    <rc><c>Cu</c><c>   1</c></rc>
    <rc><c>Cu</c><c>   1</c></rc>
    <rc><c>Cu</c><c>   1</c></rc>
    <rc><c>Cu</c><c>   1</c></rc>
    <rc><c>Cu</c><c>   1</c></rc>
    <rc><c>Cu</c><c>   1</c></rc>
    <rc><c>Cu</c><c>   1</c></rc>
    <rc><c>Cu</c><c>   1</c></rc>
    <rc><c>H </c><c>   2</c></rc>
    <rc><c>H </c><c>   2</c></rc>
   </set>
  </array>
  <array name="atomtypes" >
   <dimension dim="1">type</dimension>
   <field type="int">atomspertype</field>
   <field type="string">element</field>
   <field>mass</field>
   <field>valence</field>
   <field type="string">pseudopotential</field>
   <set>
    <rc><c>  64</c><c>Cu</c><c>     63.54600000</c><c>     11.00000000</c><c>  PAW_PBE Cu 22Jun2005                  </c></rc>
    <rc><c>   2</c><c>H </c><c>      1.00000000</c><c>      1.00000000</c><c>  PAW_PBE H 15Jun2001                   </c></rc>
   </set>
  </array>
 </atominfo>
 <structure name="initialpos" >
  <crystal>
   <varray name="basis" >
    <v>       7.26000023       0.00000000       0.00000000 </v>
    <v>       0.00000000       7.26000023       0.00000000 </v>
    <v>       0.00000000       0.00000000      27.70499992 </v>
   </varray>
   <i name="volume">   1460.26414606 </i>
   <varray name="rec_basis" >
    <v>       0.13774104       0.00000000       0.00000000 </v>
    <v>       0.00000000       0.13774104       0.00000000 </v>
    <v>       0.00000000       0.00000000       0.03609457 </v>
   </varray>
  </crystal>
  <varray name="positions" >
   <v>       0.00000000       0.00000000       0.00000000 </v>
   <v>       0.00000000       0.50000000       0.00000000 </v>
   <v>       0.50000000       0.00000000       0.00000000 </v>
   <v>       0.50000000       0.50000000       0.00000000 </v>
   <v>       0.25000000       0.25000000       0.00000000 </v>
   <v>       0.25000000       0.75000000       0.00000000 </v>
   <v>       0.75000000       0.25000000       0.00000000 </v>
   <v>       0.75000000       0.75000000       0.00000000 </v>
   <v>       0.00000000       0.25000000       0.06551164 </v>
   <v>       0.00000000       0.75000000       0.06551164 </v>
   <v>       0.50000000       0.25000000       0.06551164 </v>
   <v>       0.50000000       0.75000000       0.06551164 </v>
   <v>       0.25000000       0.00000000       0.06551164 </v>
   <v>       0.25000000       0.50000000       0.06551164 </v>
   <v>       0.75000000       0.00000000       0.06551164 </v>
   <v>       0.75000000       0.50000000       0.06551164 </v>
   <v>       0.00000000       0.00000000       0.13164128 </v>
   <v>       0.00000000       0.50000000       0.13164128 </v>
   <v>       0.50000000       0.00000000       0.13164128 </v>
   <v>       0.50000000       0.50000000       0.13164128 </v>
   <v>       0.25000000       0.25000000       0.13164128 </v>
   <v>       0.25000000       0.75000000       0.13164128 </v>
   <v>       0.75000000       0.25000000       0.13164128 </v>
   <v>       0.75000000       0.75000000       0.13164128 </v>
   <v>       0.00000000       0.25000000       0.19677891 </v>
   <v>       0.00000000       0.75000000       0.19677891 </v>
   <v>       0.50000000       0.25000000       0.19677891 </v>
   <v>       0.50000000       0.75000000       0.19677891 </v>
   <v>       0.25000000       0.00000000       0.19677891 </v>
   <v>       0.25000000       0.50000000       0.19677891 </v>
   <v>       0.75000000       0.00000000       0.19677891 </v>
   <v>       0.75000000       0.50000000       0.19677891 </v>
   <v>       0.00000000       0.00000000       0.26184662 </v>
   <v>       0.00000000       0.50000000       0.26184662 </v>
   <v>       0.50000000       0.00000000       0.26184662 </v>
   <v>       0.50000000       0.50000000       0.26184662 </v>
   <v>       0.25000000       0.25000000       0.26184662 </v>
   <v>       0.25000000       0.75000000       0.26184662 </v>
   <v>       0.75000000       0.25000000       0.26184662 </v>
   <v>       0.75000000       0.75000000       0.26184662 </v>
   <v>       0.00000000       0.25000000       0.32758887 </v>
   <v>       0.00000000       0.75000000       0.32758887 </v>
   <v>       0.50000000       0.25000000       0.32758887 </v>
   <v>       0.50000000       0.75000000       0.32758887 </v>
   <v>       0.25000000       0.00000000       0.32758887 </v>
   <v>       0.25000000       0.50000000       0.32758887 </v>
   <v>       0.75000000       0.00000000       0.32758887 </v>
   <v>       0.75000000       0.50000000       0.32758887 </v>
   <v>       0.00000000       0.00000000       0.39185763 </v>
   <v>       0.00000000       0.50000000       0.39185763 </v>
   <v>       0.50000000       0.00000000       0.39185763 </v>
   <v>       0.50000000       0.50000000       0.39185763 </v>
   <v>       0.25000000       0.25000000       0.39185763 </v>
   <v>       0.25000000       0.75000000       0.39185763 </v>
   <v>       0.75000000       0.25000000       0.39185763 </v>
   <v>       0.75000000       0.75000000       0.39185763 </v>
   <v>       0.00000000       0.25000000       0.45475490 </v>
   <v>       0.00000000       0.75000000       0.45475490 </v>
   <v>       0.50000000       0.25000000       0.45475490 </v>
   <v>       0.50000000       0.75000000       0.45475490 </v>
   <v>       0.25000000       0.00000000       0.45475490 </v>
   <v>       0.25000000       0.50000000       0.45475490 </v>
   <v>       0.75000000       0.00000000       0.45475490 </v>
   <v>       0.75000000       0.50000000       0.45475490 </v>
   <v>       0.50000000       0.50000000       0.50150658 </v>
   <v>       0.50000000       0.57265863       0.52054652 </v>
  </varray>
 </structure>
 <calculation>
  <scstep>
   <time name="dav">   42.07   42.37</time>
   <time name="total">   42.20   42.50</time>
   <energy>
    <i name="alphaZ">   2059.53800561 </i>
    <i name="ewald"> 387544.87742758 </i>
    <i name="hartreedc">-475066.06422573 </i>
    <i name="XCdc">   2932.79913164 </i>
    <i name="pawpsdc">  78601.82840687 </i>
    <i name="pawaedc"> -85374.54502045 </i>
    <i name="eentropy">     -0.03080883 </i>
    <i name="bandstr">   7105.18295306 </i>
    <i name="atom">  89046.24623812 </i>
    <i name="e_fr_energy">   6849.83210786 </i>
    <i name="e_wo_entrp">   6849.86291670 </i>
    <i name="e_0_energy">   6849.84237748 </i>
   </energy>
  </scstep>
  <scstep>
   <time name="dav">   41.12   41.40</time>
   <time name="total">   41.12   41.41</time>
   <energy>
    <i name="e_fr_energy">    961.52325376 </i>
    <i name="e_wo_entrp">    961.52810198 </i>
    <i name="e_0_energy">    961.52486983 </i>
   </energy>
  </scstep>
  <scstep>
   <time name="dav">   41.33   41.61</time>
   <time name="total">   41.33   41.61</time>
   <energy>
    <i name="e_fr_energy">   -179.75158122 </i>
    <i name="e_wo_entrp">   -179.83218980 </i>
    <i name="e_0_energy">   -179.77845075 </i>
   </energy>
  </scstep>
  <scstep>
   <time name="dav">   44.42   44.73</time>
   <time name="total">   44.43   44.74</time>
   <energy>
    <i name="e_fr_energy">   -271.63368680 </i>
    <i name="e_wo_entrp">   -271.75536309 </i>
    <i name="e_0_energy">   -271.67424557 </i>
   </energy>
  </scstep>
  <scstep>
   <time name="dav">   44.48   44.78</time>
   <time name="total">   45.36   45.66</time>
   <energy>
    <i name="e_fr_energy">   -273.99091351 </i>
    <i name="e_wo_entrp">   -274.11458071 </i>
    <i name="e_0_energy">   -274.03213591 </i>
   </energy>
  </scstep>
  <scstep>
   <time name="dav">   47.98   48.58</time>
   <time name="total">   49.01   49.61</time>
   <energy>
    <i name="e_fr_energy">   -224.76651499 </i>
    <i name="e_wo_entrp">   -224.78086110 </i>
    <i name="e_0_energy">   -224.77129703 </i>
   </energy>
  </scstep>
  <scstep>
   <time name="dav">   44.99   45.30</time>
   <time name="total">   45.94   46.25</time>
   <energy>
    <i name="e_fr_energy">   -197.91374974 </i>
    <i name="e_wo_entrp">   -197.97876129 </i>
    <i name="e_0_energy">   -197.93542025 </i>
   </energy>
  </scstep>
  <scstep>
   <time name="dav">   46.74   47.04</time>
   <time name="total">   47.70   48.00</time>
   <energy>
    <i name="e_fr_energy">   -201.21147099 </i>
    <i name="e_wo_entrp">   -201.41058243 </i>
    <i name="e_0_energy">   -201.27784147 </i>
   </energy>
  </scstep>
  <scstep>
   <time name="dav">   50.54   50.86</time>
   <time name="total">   51.51   51.83</time>
   <energy>
    <i name="e_fr_energy">   -196.93002846 </i>
    <i name="e_wo_entrp">   -197.00468945 </i>
    <i name="e_0_energy">   -196.95491545 </i>
   </energy>
  </scstep>
  <scstep>
   <time name="dav">   53.17   53.51</time>
   <time name="total">   54.15   54.50</time>
   <energy>
    <i name="e_fr_energy">   -193.93853820 </i>
    <i name="e_wo_entrp">   -193.99787239 </i>
    <i name="e_0_energy">   -193.95831626 </i>
   </energy>
  </scstep>
  <scstep>
   <time name="dav">   55.25   55.60</time>
   <time name="total">   56.20   56.56</time>
   <energy>
    <i name="e_fr_energy">   -195.01063652 </i>
    <i name="e_wo_entrp">   -195.07749315 </i>
    <i name="e_0_energy">   -195.03292206 </i>
   </energy>
  </scstep>
  <scstep>
   <time name="dav">   49.62   50.26</time>
   <time name="total">   50.97   51.77</time>
   <energy>
    <i name="e_fr_energy">   -199.11993774 </i>
    <i name="e_wo_entrp">   -199.14882427 </i>
    <i name="e_0_energy">   -199.12956659 </i>
   </energy>
  </scstep>
  <scstep>
   <time name="dav">   47.82   48.35</time>
   <time name="total">   48.79   49.32</time>
   <energy>
    <i name="e_fr_energy">   -203.44762403 </i>
    <i name="e_wo_entrp">   -203.47869724 </i>
    <i name="e_0_energy">   -203.45798177 </i>
   </energy>
  </scstep>
  <scstep>
   <time name="dav">   47.19   47.49</time>
   <time name="total">   48.15   48.46</time>
   <energy>
    <i name="e_fr_energy">   -210.72903367 </i>
    <i name="e_wo_entrp">   -210.74939148 </i>
    <i name="e_0_energy">   -210.73581961 </i>
   </energy>
  </scstep>
  <scstep>
   <time name="dav">   48.76   49.07</time>
   <time name="total">   49.74   50.06</time>
   <energy>
    <i name="e_fr_energy">   -216.10553725 </i>
    <i name="e_wo_entrp">   -216.13353427 </i>
    <i name="e_0_energy">   -216.11486959 </i>
   </energy>
  </scstep>
  <scstep>
   <time name="dav">   50.01   50.34</time>
   <time name="total">   50.97   51.32</time>
   <energy>
    <i name="e_fr_energy">   -223.51824811 </i>
    <i name="e_wo_entrp">   -223.51381180 </i>
    <i name="e_0_energy">   -223.51676934 </i>
   </energy>
  </scstep>
  <scstep>
   <time name="dav">   44.57   44.87</time>
   <time name="total">   45.55   45.86</time>
   <energy>
    <i name="e_fr_energy">   -226.18692086 </i>
    <i name="e_wo_entrp">   -226.14337092 </i>
    <i name="e_0_energy">   -226.17240421 </i>
   </energy>
  </scstep>
  <scstep>
   <time name="dav">   48.05   48.87</time>
   <time name="total">   48.99   49.82</time>
   <energy>
    <i name="e_fr_energy">   -227.31339202 </i>
    <i name="e_wo_entrp">   -227.24856421 </i>
    <i name="e_0_energy">   -227.29178275 </i>
   </energy>
  </scstep>
  <scstep>
   <time name="dav">   50.94   51.48</time>
   <time name="total">   51.90   52.45</time>
   <energy>
    <i name="e_fr_energy">   -228.89676506 </i>
    <i name="e_wo_entrp">   -228.79976068 </i>
    <i name="e_0_energy">   -228.86443027 </i>
   </energy>
  </scstep>
  <scstep>
   <time name="dav">   50.83   51.20</time>
   <time name="total">   51.78   52.16</time>
   <energy>
    <i name="e_fr_energy">   -230.62068125 </i>
    <i name="e_wo_entrp">   -230.48052458 </i>
    <i name="e_0_energy">   -230.57396236 </i>
   </energy>
  </scstep>
  <scstep>
   <time name="dav">   47.71   48.03</time>
   <time name="total">   48.67   48.99</time>
   <energy>
    <i name="e_fr_energy">   -231.65528202 </i>
    <i name="e_wo_entrp">   -231.50034096 </i>
    <i name="e_0_energy">   -231.60363500 </i>
   </energy>
  </scstep>
  <scstep>
   <time name="dav">   53.38   53.73</time>
   <time name="total">   54.34   54.71</time>
   <energy>
    <i name="e_fr_energy">   -232.60047547 </i>
    <i name="e_wo_entrp">   -232.42505799 </i>
    <i name="e_0_energy">   -232.54200297 </i>
   </energy>
  </scstep>
  <scstep>
   <time name="dav">   54.75   55.12</time>
   <time name="total">   55.72   56.10</time>
   <energy>
    <i name="e_fr_energy">   -233.46417861 </i>
    <i name="e_wo_entrp">   -233.26952610 </i>
    <i name="e_0_energy">   -233.39929444 </i>
   </energy>
  </scstep>
  <scstep>
   <time name="dav">   52.72   53.59</time>
   <time name="total">   53.67   54.55</time>
   <energy>
    <i name="e_fr_energy">   -233.85879888 </i>
    <i name="e_wo_entrp">   -233.66763566 </i>
    <i name="e_0_energy">   -233.79507781 </i>
   </energy>
  </scstep>
  <scstep>
   <time name="dav">   47.30   47.65</time>
   <time name="total">   48.23   48.59</time>
   <energy>
    <i name="e_fr_energy">   -234.11179331 </i>
    <i name="e_wo_entrp">   -233.92187694 </i>
    <i name="e_0_energy">   -234.04848785 </i>
   </energy>
  </scstep>
  <scstep>
   <time name="dav">   49.39   49.78</time>
   <time name="total">   50.35   50.75</time>
   <energy>
    <i name="e_fr_energy">   -234.41248027 </i>
    <i name="e_wo_entrp">   -234.22136744 </i>
    <i name="e_0_energy">   -234.34877599 </i>
   </energy>
  </scstep>
  <scstep>
   <time name="dav">   44.51   44.80</time>
   <time name="total">   45.47   45.77</time>
   <energy>
    <i name="e_fr_energy">   -234.61111636 </i>
    <i name="e_wo_entrp">   -234.42047438 </i>
    <i name="e_0_energy">   -234.54756903 </i>
   </energy>
  </scstep>
  <scstep>
   <time name="dav">   46.05   46.33</time>
   <time name="total">   47.04   47.32</time>
   <energy>
    <i name="e_fr_energy">   -234.80402973 </i>
    <i name="e_wo_entrp">   -234.61391795 </i>
    <i name="e_0_energy">   -234.74065914 </i>
   </energy>
  </scstep>
  <scstep>
   <time name="dav">   48.75   49.09</time>
   <time name="total">   49.70   50.04</time>
   <energy>
    <i name="e_fr_energy">   -234.91428376 </i>
    <i name="e_wo_entrp">   -234.72358994 </i>
    <i name="e_0_energy">   -234.85071915 </i>
   </energy>
  </scstep>
  <scstep>
   <time name="dav">   47.69   48.44</time>
   <time name="total">   48.99   49.88</time>
   <energy>
    <i name="e_fr_energy">   -234.92840484 </i>
    <i name="e_wo_entrp">   -234.73820995 </i>
    <i name="e_0_energy">   -234.86500654 </i>
   </energy>
  </scstep>
  <scstep>
   <time name="dav">   31.03   31.28</time>
   <time name="total">   31.98   32.23</time>
   <energy>
    <i name="e_fr_energy">   -234.93487092 </i>
    <i name="e_wo_entrp">   -234.74451640 </i>
    <i name="e_0_energy">   -234.87141942 </i>
   </energy>
  </scstep>
  <scstep>
   <time name="dav">   32.03   32.29</time>
   <time name="total">   32.98   33.25</time>
   <energy>
    <i name="e_fr_energy">   -234.93653839 </i>
    <i name="e_wo_entrp">   -234.74619342 </i>
    <i name="e_0_energy">   -234.87309006 </i>
   </energy>
  </scstep>
  <scstep>
   <time name="dav">   31.15   31.59</time>
   <time name="total">   32.10   32.54</time>
   <energy>
    <i name="e_fr_energy">   -234.93703856 </i>
    <i name="e_wo_entrp">   -234.74681944 </i>
    <i name="e_0_energy">   -234.87363219 </i>
   </energy>
  </scstep>
  <scstep>
   <time name="dav">   30.44   30.64</time>
   <time name="total">   31.38   31.59</time>
   <energy>
    <i name="e_fr_energy">   -234.93725424 </i>
    <i name="e_wo_entrp">   -234.74697163 </i>
    <i name="e_0_energy">   -234.87382671 </i>
   </energy>
  </scstep>
  <scstep>
   <time name="dav">   29.69   29.92</time>
   <time name="total">   30.66   30.89</time>
   <energy>
    <i name="e_fr_energy">   -234.93745608 </i>
    <i name="e_wo_entrp">   -234.74706526 </i>
    <i name="e_0_energy">   -234.87399247 </i>
   </energy>
  </scstep>
  <scstep>
   <time name="dav">   30.00   30.19</time>
   <time name="total">   30.93   31.14</time>
   <energy>
    <i name="e_fr_energy">   -234.93782558 </i>
    <i name="e_wo_entrp">   -234.74744518 </i>
    <i name="e_0_energy">   -234.87436544 </i>
   </energy>
  </scstep>
  <scstep>
   <time name="dav">   30.74   30.94</time>
   <time name="total">   31.70   31.90</time>
   <energy>
    <i name="e_fr_energy">   -234.93840052 </i>
    <i name="e_wo_entrp">   -234.74802721 </i>
    <i name="e_0_energy">   -234.87494275 </i>
   </energy>
  </scstep>
  <scstep>
   <time name="dav">   30.30   30.50</time>
   <time name="total">   31.25   31.45</time>
   <energy>
    <i name="e_fr_energy">   -234.93865190 </i>
    <i name="e_wo_entrp">   -234.74828637 </i>
    <i name="e_0_energy">   -234.87519673 </i>
   </energy>
  </scstep>
  <scstep>
   <time name="dav">   30.22   30.53</time>
   <time name="total">   31.19   31.50</time>
   <energy>
    <i name="e_fr_energy">   -234.93887254 </i>
    <i name="e_wo_entrp">   -234.74851517 </i>
    <i name="e_0_energy">   -234.87542009 </i>
   </energy>
  </scstep>
  <scstep>
   <time name="dav">   31.50   31.88</time>
   <time name="total">   31.63   32.02</time>
   <energy>
    <i name="alphaZ">   2059.53800561 </i>
    <i name="ewald"> 387544.87742758 </i>
    <i name="hartreedc">-474096.82516141 </i>
    <i name="XCdc">   2858.82785683 </i>
    <i name="pawpsdc">  83688.07518154 </i>
    <i name="pawaedc"> -90580.45607795 </i>
    <i name="eentropy">     -0.19034972 </i>
    <i name="bandstr">   -755.03203898 </i>
    <i name="atom">  89046.24623812 </i>
    <i name="e_fr_energy">   -234.93891839 </i>
    <i name="e_wo_entrp">   -234.74856867 </i>
    <i name="e_0_energy">   -234.87546848 </i>
   </energy>
  </scstep>
  <structure>
   <crystal>
    <varray name="basis" >
     <v>       7.26000023       0.00000000       0.00000000 </v>
     <v>       0.00000000       7.26000023       0.00000000 </v>
     <v>       0.00000000       0.00000000      27.70499992 </v>
    </varray>
    <i name="volume">   1460.26414606 </i>
    <varray name="rec_basis" >
     <v>       0.13774104       0.00000000       0.00000000 </v>
     <v>       0.00000000       0.13774104       0.00000000 </v>
     <v>       0.00000000       0.00000000       0.03609457 </v>
    </varray>
   </crystal>
   <varray name="positions" >
    <v>       0.00000000       0.00000000       0.00000000 </v>
    <v>       0.00000000       0.50000000       0.00000000 </v>
    <v>       0.50000000       0.00000000       0.00000000 </v>
    <v>       0.50000000       0.50000000       0.00000000 </v>
    <v>       0.25000000       0.25000000       0.00000000 </v>
    <v>       0.25000000       0.75000000       0.00000000 </v>
    <v>       0.75000000       0.25000000       0.00000000 </v>
    <v>       0.75000000       0.75000000       0.00000000 </v>
    <v>       0.00000000       0.25000000       0.06551164 </v>
    <v>       0.00000000       0.75000000       0.06551164 </v>
    <v>       0.50000000       0.25000000       0.06551164 </v>
    <v>       0.50000000       0.75000000       0.06551164 </v>
    <v>       0.25000000       0.00000000       0.06551164 </v>
    <v>       0.25000000       0.50000000       0.06551164 </v>
    <v>       0.75000000       0.00000000       0.06551164 </v>
    <v>       0.75000000       0.50000000       0.06551164 </v>
    <v>       0.00000000       0.00000000       0.13164128 </v>
    <v>       0.00000000       0.50000000       0.13164128 </v>
    <v>       0.50000000       0.00000000       0.13164128 </v>
    <v>       0.50000000       0.50000000       0.13164128 </v>
    <v>       0.25000000       0.25000000       0.13164128 </v>
    <v>       0.25000000       0.75000000       0.13164128 </v>
    <v>       0.75000000       0.25000000       0.13164128 </v>
    <v>       0.75000000       0.75000000       0.13164128 </v>
    <v>       0.00000000       0.25000000       0.19677891 </v>
    <v>       0.00000000       0.75000000       0.19677891 </v>
    <v>       0.50000000       0.25000000       0.19677891 </v>
    <v>       0.50000000       0.75000000       0.19677891 </v>
    <v>       0.25000000       0.00000000       0.19677891 </v>
    <v>       0.25000000       0.50000000       0.19677891 </v>
    <v>       0.75000000       0.00000000       0.19677891 </v>
    <v>       0.75000000       0.50000000       0.19677891 </v>
    <v>       0.00000000       0.00000000       0.26184662 </v>
    <v>       0.00000000       0.50000000       0.26184662 </v>
    <v>       0.50000000       0.00000000       0.26184662 </v>
    <v>       0.50000000       0.50000000       0.26184662 </v>
    <v>       0.25000000       0.25000000       0.26184662 </v>
    <v>       0.25000000       0.75000000       0.26184662 </v>
    <v>       0.75000000       0.25000000       0.26184662 </v>
    <v>       0.75000000       0.75000000       0.26184662 </v>
    <v>       0.00000000       0.25000000       0.32758887 </v>
    <v>       0.00000000       0.75000000       0.32758887 </v>
    <v>       0.50000000       0.25000000       0.32758887 </v>
    <v>       0.50000000       0.75000000       0.32758887 </v>
    <v>       0.25000000       0.00000000       0.32758887 </v>
    <v>       0.25000000       0.50000000       0.32758887 </v>
    <v>       0.75000000       0.00000000       0.32758887 </v>
    <v>       0.75000000       0.50000000       0.32758887 </v>
    <v>       0.00000000       0.00000000       0.39185763 </v>
    <v>       0.00000000       0.50000000       0.39185763 </v>
    <v>       0.50000000       0.00000000       0.39185763 </v>
    <v>       0.50000000       0.50000000       0.39185763 </v>
    <v>       0.25000000       0.25000000       0.39185763 </v>
    <v>       0.25000000       0.75000000       0.39185763 </v>
    <v>       0.75000000       0.25000000       0.39185763 </v>
    <v>       0.75000000       0.75000000       0.39185763 </v>
    <v>       0.00000000       0.25000000       0.45475490 </v>
    <v>       0.00000000       0.75000000       0.45475490 </v>
    <v>       0.50000000       0.25000000       0.45475490 </v>
    <v>       0.50000000       0.75000000       0.45475490 </v>
    <v>       0.25000000       0.00000000       0.45475490 </v>
    <v>       0.25000000       0.50000000       0.45475490 </v>
    <v>       0.75000000       0.00000000       0.45475490 </v>
    <v>       0.75000000       0.50000000       0.45475490 </v>
    <v>       0.50000000       0.50000000       0.50150658 </v>
    <v>       0.50000000       0.57265863       0.52054652 </v>
   </varray>
  </structure>
  <varray name="forces" >
   <v>       0.00000000      -0.00478949       0.30407594 </v>
   <v>       0.00000000       0.00674755       0.31296982 </v>
   <v>       0.00000000       0.00480565       0.31177257 </v>
   <v>       0.00000000      -0.01010038       0.30941189 </v>
   <v>       0.01542700       0.00888283       0.31727441 </v>
   <v>       0.00244391      -0.00717404       0.32114217 </v>
   <v>      -0.01542700       0.00888283       0.31727441 </v>
   <v>      -0.00244391      -0.00717404       0.32114217 </v>
   <v>       0.00000000       0.00398661      -0.06118455 </v>
   <v>       0.00000000      -0.00334533      -0.06448326 </v>
   <v>       0.00000000       0.00095421      -0.06832968 </v>
   <v>       0.00000000       0.02024185      -0.05976063 </v>
   <v>       0.00426303      -0.00740903      -0.06253366 </v>
   <v>      -0.00890157      -0.00350737      -0.06555499 </v>
   <v>      -0.00426303      -0.00740903      -0.06253366 </v>
   <v>       0.00890157      -0.00350737      -0.06555499 </v>
   <v>       0.00000000      -0.00795756      -0.05240318 </v>
   <v>       0.00000000       0.00095899      -0.06013018 </v>
   <v>       0.00000000      -0.00509758      -0.06053226 </v>
   <v>       0.00000000      -0.00840120      -0.08786100 </v>
   <v>       0.01565002       0.01590585      -0.04740432 </v>
   <v>       0.00902978      -0.00579240      -0.05001384 </v>
   <v>      -0.01565002       0.01590585      -0.04740432 </v>
   <v>      -0.00902978      -0.00579240      -0.05001384 </v>
   <v>       0.00000000       0.00615338       0.03079624 </v>
   <v>       0.00000000      -0.00706340       0.05091522 </v>
   <v>       0.00000000       0.01551427       0.03975309 </v>
   <v>       0.00000000      -0.00832606       0.02018858 </v>
   <v>       0.00773760      -0.00640638       0.04100668 </v>
   <v>       0.01259385       0.00348749       0.02944382 </v>
   <v>      -0.00773760      -0.00640638       0.04100668 </v>
   <v>      -0.01259385       0.00348749       0.02944382 </v>
   <v>       0.00000000       0.00308634       0.00993393 </v>
   <v>       0.00000000      -0.00631018      -0.03175793 </v>
   <v>       0.00000000      -0.00982594      -0.03089230 </v>
   <v>       0.00000000      -0.01042401       0.04963933 </v>
   <v>       0.00103942       0.00747470       0.01883677 </v>
   <v>       0.00530428       0.00420533       0.03710538 </v>
   <v>      -0.00103942       0.00747470       0.01883677 </v>
   <v>      -0.00530428       0.00420533       0.03710538 </v>
   <v>       0.00000000      -0.00349344      -0.19028152 </v>
   <v>       0.00000000      -0.00077950      -0.20453045 </v>
   <v>       0.00000000      -0.04000171      -0.21932643 </v>
   <v>       0.00000000       0.01341272      -0.21112531 </v>
   <v>      -0.00239592       0.01017601      -0.19360453 </v>
   <v>      -0.02666861       0.00330648      -0.21554545 </v>
   <v>       0.00239592       0.01017601      -0.19360453 </v>
   <v>       0.02666861       0.00330648      -0.21554545 </v>
   <v>       0.00000000       0.00318066      -0.03807202 </v>
   <v>       0.00000000       0.01332255       0.00653723 </v>
   <v>       0.00000000      -0.05484198       0.00526393 </v>
   <v>       0.00000000      -0.04959467      -0.23990595 </v>
   <v>       0.02154842       0.03268239       0.02244399 </v>
   <v>       0.01737493      -0.00612921       0.01043541 </v>
   <v>      -0.02154842       0.03268239       0.02244399 </v>
   <v>      -0.01737493      -0.00612921       0.01043541 </v>
   <v>       0.00000000       0.00418823      -0.00259338 </v>
   <v>       0.00000000      -0.01454056      -0.01876928 </v>
   <v>       0.00000000      -0.29351130      -0.16784698 </v>
   <v>       0.00000000       0.28224693      -0.07227718 </v>
   <v>       0.01323775       0.00180481      -0.00249615 </v>
   <v>      -0.32946869      -0.06698118      -0.18220079 </v>
   <v>      -0.01323775       0.00180481      -0.00249615 </v>
   <v>       0.32946869      -0.06698118      -0.18220079 </v>
   <v>       0.00000000      -0.94758639      -0.72260642 </v>
   <v>       0.00000000       1.13813818       1.25674236 </v>
  </varray>
  <varray name="stress" >
   <v>     -44.98686061       0.00000000       0.00000000 </v>
   <v>       0.00000000     -44.37460875       0.99763744 </v>
   <v>       0.00000000       0.99763744     -23.89418654 </v>
  </varray>
  <energy>
   <i name="e_fr_energy">   -261.36591410 </i>
   <i name="e_wo_entrp">   -261.17556439 </i>
   <i name="e_0_energy">   -261.30246420 </i>
  </energy>
  <time name="totalsc"> 1878.38 1894.43</time>
 </calculation>
 <calculation>
  <scstep>
   <time name="dav">   42.82   43.13</time>
   <time name="total">   43.79   44.11</time>
   <energy>
    <i name="alphaZ">   2059.53800561 </i>
    <i name="ewald"> 388443.03497956 </i>
    <i name="hartreedc">-474995.51369499 </i>
    <i name="XCdc">   2858.93818313 </i>
    <i name="pawpsdc">  83688.09454321 </i>
    <i name="pawaedc"> -90580.48355554 </i>
    <i name="eentropy">     -0.18147036 </i>
    <i name="bandstr">   -754.58268332 </i>
    <i name="atom">  89046.24623812 </i>
    <i name="e_fr_energy">   -234.90945460 </i>
    <i name="e_wo_entrp">   -234.72798424 </i>
    <i name="e_0_energy">   -234.84896448 </i>
   </energy>
  </scstep>
  <scstep>
   <time name="dav">   54.53   54.93</time>
   <time name="total">   55.49   55.89</time>
   <energy>
    <i name="e_fr_energy">   -234.96374229 </i>
    <i name="e_wo_entrp">   -234.78090043 </i>
    <i name="e_0_energy">   -234.90279501 </i>
   </energy>
  </scstep>
  <scstep>
   <time name="dav">   46.08   46.39</time>
   <time name="total">   47.05   47.36</time>
   <energy>
    <i name="e_fr_energy">   -234.96651002 </i>
    <i name="e_wo_entrp">   -234.78205715 </i>
    <i name="e_0_energy">   -234.90502573 </i>
   </energy>
  </scstep>
  <scstep>
   <time name="dav">   46.50   47.08</time>
   <time name="total">   47.48   48.07</time>
   <energy>
    <i name="e_fr_energy">   -234.97920291 </i>
    <i name="e_wo_entrp">   -234.80301242 </i>
    <i name="e_0_energy">   -234.92047275 </i>
   </energy>
  </scstep>
  <scstep>
   <time name="dav">   57.92   58.38</time>
   <time name="total">   58.88   59.35</time>
   <energy>
    <i name="e_fr_energy">   -234.96180249 </i>
    <i name="e_wo_entrp">   -234.77745954 </i>
    <i name="e_0_energy">   -234.90035484 </i>
   </energy>
  </scstep>
  <scstep>
   <time name="dav">   64.28   64.70</time>
   <time name="total">   65.23   65.66</time>
   <energy>
    <i name="e_fr_energy">   -234.95709254 </i>
    <i name="e_wo_entrp">   -234.77301108 </i>
    <i name="e_0_energy">   -234.89573206 </i>
   </energy>
  </scstep>
  <scstep>
   <time name="dav">   50.91   51.26</time>
   <time name="total">   51.87   52.22</time>
   <energy>
    <i name="e_fr_energy">   -234.95608950 </i>
    <i name="e_wo_entrp">   -234.77166964 </i>
    <i name="e_0_energy">   -234.89461621 </i>
   </energy>
  </scstep>
  <scstep>
   <time name="dav">   42.47   42.74</time>
   <time name="total">   43.42   43.70</time>
   <energy>
    <i name="e_fr_energy">   -234.95642315 </i>
    <i name="e_wo_entrp">   -234.77198556 </i>
    <i name="e_0_energy">   -234.89494395 </i>
   </energy>
  </scstep>
  <scstep>
   <time name="dav">   41.33   41.59</time>
   <time name="total">   41.46   41.72</time>
   <energy>
    <i name="alphaZ">   2059.53800561 </i>
    <i name="ewald"> 388443.03497956 </i>
    <i name="hartreedc">-474989.67225820 </i>
    <i name="XCdc">   2858.70395751 </i>
    <i name="pawpsdc">  83705.32416621 </i>
    <i name="pawaedc"> -90598.06528665 </i>
    <i name="eentropy">     -0.18453173 </i>
    <i name="bandstr">   -759.88176560 </i>
    <i name="atom">  89046.24623812 </i>
    <i name="e_fr_energy">   -234.95649518 </i>
    <i name="e_wo_entrp">   -234.77196345 </i>
    <i name="e_0_energy">   -234.89498460 </i>
   </energy>
  </scstep>
  <structure>
   <crystal>
    <varray name="basis" >
     <v>       7.26000023       0.00000000       0.00000000 </v>
     <v>       0.00000000       7.26000023       0.00000000 </v>
     <v>       0.00000000       0.00000000      27.70499992 </v>
    </varray>
    <i name="volume">   1460.26414606 </i>
    <varray name="rec_basis" >
     <v>       0.13774104       0.00000000       0.00000000 </v>
     <v>       0.00000000       0.13774104       0.00000000 </v>
     <v>       0.00000000       0.00000000       0.03609457 </v>
    </varray>
   </crystal>
   <varray name="positions" >
    <v>       0.00000000      -0.00003183       0.00052949 </v>
    <v>       0.00000000       0.50004484       0.00054497 </v>
    <v>       0.50000000       0.00003193       0.00054289 </v>
    <v>       0.50000000       0.49993288       0.00053878 </v>
    <v>       0.25010251       0.25005903       0.00055247 </v>
    <v>       0.25001624       0.74995233       0.00055920 </v>
    <v>       0.74989749       0.25005903       0.00055247 </v>
    <v>       0.74998376       0.74995233       0.00055920 </v>
    <v>       0.00000000       0.25002649       0.06540510 </v>
    <v>       0.00000000       0.74997777       0.06539936 </v>
    <v>       0.50000000       0.25000634       0.06539266 </v>
    <v>       0.50000000       0.75013451       0.06540758 </v>
    <v>       0.25002833      -0.00004923       0.06540275 </v>
    <v>       0.24994085       0.49997669       0.06539749 </v>
    <v>       0.74997167      -0.00004923       0.06540275 </v>
    <v>       0.75005915       0.49997669       0.06539749 </v>
    <v>       0.00000000      -0.00005288       0.13155003 </v>
    <v>       0.00000000       0.50000637       0.13153658 </v>
    <v>       0.50000000      -0.00003387       0.13153588 </v>
    <v>       0.50000000       0.49994417       0.13148829 </v>
    <v>       0.25010399       0.25010569       0.13155874 </v>
    <v>       0.25006000       0.74996151       0.13155419 </v>
    <v>       0.74989601       0.25010569       0.13155874 </v>
    <v>       0.74994000       0.74996151       0.13155419 </v>
    <v>       0.00000000       0.25004089       0.19683254 </v>
    <v>       0.00000000       0.74995306       0.19686757 </v>
    <v>       0.50000000       0.25010309       0.19684814 </v>
    <v>       0.50000000       0.74994467       0.19681407 </v>
    <v>       0.25005142      -0.00004257       0.19685032 </v>
    <v>       0.25008369       0.50002317       0.19683018 </v>
    <v>       0.74994858      -0.00004257       0.19685032 </v>
    <v>       0.74991631       0.50002317       0.19683018 </v>
    <v>       0.00000000       0.00002051       0.26186392 </v>
    <v>       0.00000000       0.49995807       0.26179132 </v>
    <v>       0.50000000      -0.00006529       0.26179283 </v>
    <v>       0.50000000       0.49993073       0.26193306 </v>
    <v>       0.25000691       0.25004967       0.26187943 </v>
    <v>       0.25003525       0.75002794       0.26191124 </v>
    <v>       0.74999309       0.25004967       0.26187943 </v>
    <v>       0.74996475       0.75002794       0.26191124 </v>
    <v>       0.00000000       0.24997679       0.32725753 </v>
    <v>       0.00000000       0.74999482       0.32723272 </v>
    <v>       0.50000000       0.24973419       0.32720696 </v>
    <v>       0.50000000       0.75008913       0.32722124 </v>
    <v>       0.24998408       0.00006762       0.32725175 </v>
    <v>       0.24982279       0.50002197       0.32721354 </v>
    <v>       0.75001592       0.00006762       0.32725175 </v>
    <v>       0.75017721       0.50002197       0.32721354 </v>
    <v>       0.00000000       0.00002114       0.39179133 </v>
    <v>       0.00000000       0.50008853       0.39186901 </v>
    <v>       0.50000000      -0.00036442       0.39186679 </v>
    <v>       0.50000000       0.49967044       0.39143988 </v>
    <v>       0.25014319       0.25021717       0.39189671 </v>
    <v>       0.25011546       0.74995927       0.39187580 </v>
    <v>       0.74985681       0.25021717       0.39189671 </v>
    <v>       0.74988454       0.74995927       0.39187580 </v>
    <v>       0.00000000       0.25002783       0.45475038 </v>
    <v>       0.00000000       0.74990338       0.45472221 </v>
    <v>       0.50000000       0.24804962       0.45446262 </v>
    <v>       0.50000000       0.75187553       0.45462904 </v>
    <v>       0.25008796       0.00001199       0.45475055 </v>
    <v>       0.24781068       0.49955491       0.45443763 </v>
    <v>       0.74991204       0.00001199       0.45475055 </v>
    <v>       0.75218932       0.49955491       0.45443763 </v>
    <v>       0.50000000       0.49370329       0.50024831 </v>
    <v>       0.50000000       0.58022155       0.52273489 </v>
   </varray>
  </structure>
  <varray name="forces" >
   <v>       0.00000000      -0.00362805       0.23866344 </v>
   <v>       0.00000000       0.00517535       0.24218894 </v>
   <v>       0.00000000       0.00441608       0.24031978 </v>
   <v>       0.00000000      -0.00706934       0.23865108 </v>
   <v>       0.01247315       0.00609875       0.24532555 </v>
   <v>       0.00259560      -0.00605033       0.24890045 </v>
   <v>      -0.01247315       0.00609875       0.24532555 </v>
   <v>      -0.00259560      -0.00605033       0.24890045 </v>
   <v>       0.00000000       0.00058481      -0.00233322 </v>
   <v>       0.00000000      -0.00200423      -0.00498334 </v>
   <v>       0.00000000       0.00017304      -0.00832736 </v>
   <v>       0.00000000       0.01440635      -0.00207574 </v>
   <v>       0.00165239      -0.00471406      -0.00335759 </v>
   <v>      -0.00651162      -0.00238391      -0.00645442 </v>
   <v>      -0.00165239      -0.00471406      -0.00335759 </v>
   <v>       0.00651162      -0.00238391      -0.00645442 </v>
   <v>       0.00000000      -0.00590903      -0.02802235 </v>
   <v>       0.00000000       0.00191999      -0.03325314 </v>
   <v>       0.00000000      -0.00145194      -0.03373723 </v>
   <v>       0.00000000      -0.00626414      -0.05663596 </v>
   <v>       0.01111041       0.00854372      -0.02698248 </v>
   <v>       0.00419042      -0.00337953      -0.02952212 </v>
   <v>      -0.01111041       0.00854372      -0.02698248 </v>
   <v>      -0.00419042      -0.00337953      -0.02952212 </v>
   <v>       0.00000000       0.00367959       0.00648202 </v>
   <v>       0.00000000      -0.00568097       0.02685111 </v>
   <v>       0.00000000       0.01278662       0.01976979 </v>
   <v>       0.00000000      -0.00926638       0.00264987 </v>
   <v>       0.00562792      -0.00532648       0.01732527 </v>
   <v>       0.01121823       0.00427786       0.01185168 </v>
   <v>      -0.00562792      -0.00532648       0.01732527 </v>
   <v>      -0.01121823       0.00427786       0.01185168 </v>
   <v>       0.00000000       0.00357068      -0.01830602 </v>
   <v>       0.00000000      -0.00519522      -0.04793314 </v>
   <v>       0.00000000      -0.00796020      -0.04751357 </v>
   <v>       0.00000000      -0.00760206       0.01159152 </v>
   <v>       0.00014383       0.00434344      -0.01768319 </v>
   <v>       0.00471959       0.00353031      -0.00062765 </v>
   <v>      -0.00014383       0.00434344      -0.01768319 </v>
   <v>      -0.00471959       0.00353031      -0.00062765 </v>
   <v>       0.00000000      -0.00068869      -0.12009398 </v>
   <v>       0.00000000      -0.00063686      -0.13507778 </v>
   <v>       0.00000000      -0.04561967      -0.14737463 </v>
   <v>       0.00000000       0.01664650      -0.13906868 </v>
   <v>      -0.00159081       0.00988625      -0.12170880 </v>
   <v>      -0.03110160       0.00128839      -0.14306732 </v>
   <v>       0.00159081       0.00988625      -0.12170880 </v>
   <v>       0.03110160       0.00128839      -0.14306732 </v>
   <v>       0.00000000       0.00348734      -0.05292617 </v>
   <v>       0.00000000       0.01221508      -0.07117708 </v>
   <v>       0.00000000      -0.04749625      -0.06441585 </v>
   <v>       0.00000000      -0.02751772      -0.16887972 </v>
   <v>       0.00643012       0.00582557      -0.04514358 </v>
   <v>       0.01022089       0.00052787      -0.04377956 </v>
   <v>      -0.00643012       0.00582557      -0.04514358 </v>
   <v>      -0.01022089       0.00052787      -0.04377956 </v>
   <v>       0.00000000      -0.03169163      -0.01344363 </v>
   <v>       0.00000000       0.01166934      -0.02864013 </v>
   <v>       0.00000000      -0.10386576      -0.06871377 </v>
   <v>       0.00000000       0.08355190       0.06214901 </v>
   <v>      -0.01322360      -0.00027286      -0.00975187 </v>
   <v>      -0.12695774      -0.04692256      -0.07580684 </v>
   <v>       0.01322360      -0.00027286      -0.00975187 </v>
   <v>       0.12695774      -0.04692256      -0.07580684 </v>
   <v>       0.00000000       0.66369754       0.77140632 </v>
   <v>       0.00000000      -0.46897695      -0.56682543 </v>
  </varray>
  <varray name="stress" >
   <v>     -44.15397439       0.00000000       0.00000000 </v>
   <v>       0.00000000     -44.45821718       0.06839563 </v>
   <v>       0.00000000       0.06839570     -24.46989369 </v>
  </varray>
  <energy>
   <i name="e_fr_energy">   -261.46381008 </i>
   <i name="e_wo_entrp">   -261.27927835 </i>
   <i name="e_0_energy">   -261.40229950 </i>
  </energy>
  <time name="totalsc">  550.59  554.74</time>
 </calculation>
 <calculation>
  <scstep>
   <time name="dav">   42.09   42.36</time>
   <time name="total">   43.02   43.31</time>
   <energy>
    <i name="alphaZ">   2059.53800561 </i>
    <i name="ewald"> 388236.87415065 </i>
    <i name="hartreedc">-474782.90912663 </i>
    <i name="XCdc">   2858.67682410 </i>
    <i name="pawpsdc">  83705.59134519 </i>
    <i name="pawaedc"> -90598.37088360 </i>
    <i name="eentropy">     -0.18654627 </i>
    <i name="bandstr">   -760.44388016 </i>
    <i name="atom">  89046.24623812 </i>
    <i name="e_fr_energy">   -234.98387299 </i>
    <i name="e_wo_entrp">   -234.79732672 </i>
    <i name="e_0_energy">   -234.92169090 </i>
   </energy>
  </scstep>
  <scstep>
   <time name="dav">   54.94   55.34</time>
   <time name="total">   55.90   56.30</time>
   <energy>
    <i name="e_fr_energy">   -234.98721019 </i>
    <i name="e_wo_entrp">   -234.80142614 </i>
    <i name="e_0_energy">   -234.92528217 </i>
   </energy>
  </scstep>
  <scstep>
   <time name="dav">   44.87   45.16</time>
   <time name="total">   45.81   46.11</time>
   <energy>
    <i name="e_fr_energy">   -234.98758786 </i>
    <i name="e_wo_entrp">   -234.80084646 </i>
    <i name="e_0_energy">   -234.92534072 </i>
   </energy>
  </scstep>
  <scstep>
   <time name="dav">   37.87   38.12</time>
   <time name="total">   38.86   39.11</time>
   <energy>
    <i name="e_fr_energy">   -234.98703781 </i>
    <i name="e_wo_entrp">   -234.80153467 </i>
    <i name="e_0_energy">   -234.92520343 </i>
   </energy>
  </scstep>
  <scstep>
   <time name="dav">   32.13   32.34</time>
   <time name="total">   32.26   32.47</time>
   <energy>
    <i name="alphaZ">   2059.53800561 </i>
    <i name="ewald"> 388236.87415065 </i>
    <i name="hartreedc">-474785.19542784 </i>
    <i name="XCdc">   2858.72713692 </i>
    <i name="pawpsdc">  83702.21091410 </i>
    <i name="pawaedc"> -90595.00459935 </i>
    <i name="eentropy">     -0.18592771 </i>
    <i name="bandstr">   -758.19736554 </i>
    <i name="atom">  89046.24623812 </i>
    <i name="e_fr_energy">   -234.98687505 </i>
    <i name="e_wo_entrp">   -234.80094734 </i>
    <i name="e_0_energy">   -234.92489915 </i>
   </energy>
  </scstep>
  <structure>
   <crystal>
    <varray name="basis" >
     <v>       7.26000023       0.00000000       0.00000000 </v>
     <v>       0.00000000       7.26000023       0.00000000 </v>
     <v>       0.00000000       0.00000000      27.70499992 </v>
    </varray>
    <i name="volume">   1460.26414606 </i>
    <varray name="rec_basis" >
     <v>       0.13774104       0.00000000       0.00000000 </v>
     <v>       0.00000000       0.13774104       0.00000000 </v>
     <v>       0.00000000       0.00000000       0.03609457 </v>
    </varray>
   </crystal>
   <varray name="positions" >
    <v>       0.00000000      -0.00002454       0.00040819 </v>
    <v>       0.00000000       0.50003457       0.00042013 </v>
    <v>       0.50000000       0.00002462       0.00041852 </v>
    <v>       0.50000000       0.49994826       0.00041535 </v>
    <v>       0.25007903       0.25004550       0.00042591 </v>
    <v>       0.25001252       0.74996325       0.00043110 </v>
    <v>       0.74992097       0.25004550       0.00042591 </v>
    <v>       0.74998748       0.74996325       0.00043110 </v>
    <v>       0.00000000       0.25002042       0.06542951 </v>
    <v>       0.00000000       0.74998286       0.06542508 </v>
    <v>       0.50000000       0.25000489       0.06541992 </v>
    <v>       0.50000000       0.75010369       0.06543142 </v>
    <v>       0.25002184      -0.00003795       0.06542770 </v>
    <v>       0.24995440       0.49998203       0.06542364 </v>
    <v>       0.74997816      -0.00003795       0.06542770 </v>
    <v>       0.75004560       0.49998203       0.06542364 </v>
    <v>       0.00000000      -0.00004076       0.13157094 </v>
    <v>       0.00000000       0.50000491       0.13156056 </v>
    <v>       0.50000000      -0.00002611       0.13156002 </v>
    <v>       0.50000000       0.49995696       0.13152334 </v>
    <v>       0.25008017       0.25008148       0.13157765 </v>
    <v>       0.25004626       0.74997033       0.13157414 </v>
    <v>       0.74991983       0.25008148       0.13157765 </v>
    <v>       0.74995374       0.74997033       0.13157414 </v>
    <v>       0.00000000       0.25003152       0.19682025 </v>
    <v>       0.00000000       0.74996382       0.19684726 </v>
    <v>       0.50000000       0.25007948       0.19683228 </v>
    <v>       0.50000000       0.74995735       0.19680602 </v>
    <v>       0.25003964      -0.00003282       0.19683396 </v>
    <v>       0.25006451       0.50001787       0.19681844 </v>
    <v>       0.74996036      -0.00003282       0.19683396 </v>
    <v>       0.74993549       0.50001787       0.19681844 </v>
    <v>       0.00000000       0.00001581       0.26185996 </v>
    <v>       0.00000000       0.49996767       0.26180399 </v>
    <v>       0.50000000      -0.00005034       0.26180516 </v>
    <v>       0.50000000       0.49994660       0.26191326 </v>
    <v>       0.25000532       0.25003829       0.26187191 </v>
    <v>       0.25002717       0.75002154       0.26189643 </v>
    <v>       0.74999468       0.25003829       0.26187191 </v>
    <v>       0.74997283       0.75002154       0.26189643 </v>
    <v>       0.00000000       0.24998210       0.32733344 </v>
    <v>       0.00000000       0.74999601       0.32731431 </v>
    <v>       0.50000000       0.24979508       0.32729445 </v>
    <v>       0.50000000       0.75006871       0.32730546 </v>
    <v>       0.24998773       0.00005213       0.32732898 </v>
    <v>       0.24986338       0.50001694       0.32729953 </v>
    <v>       0.75001227       0.00005213       0.32732898 </v>
    <v>       0.75013662       0.50001694       0.32729953 </v>
    <v>       0.00000000       0.00001629       0.39180652 </v>
    <v>       0.00000000       0.50006825       0.39186640 </v>
    <v>       0.50000000      -0.00028094       0.39186469 </v>
    <v>       0.50000000       0.49974594       0.39153558 </v>
    <v>       0.25011039       0.25016742       0.39188775 </v>
    <v>       0.25008901       0.74996860       0.39187163 </v>
    <v>       0.74988961       0.25016742       0.39188775 </v>
    <v>       0.74991099       0.74996860       0.39187163 </v>
    <v>       0.00000000       0.25002146       0.45475141 </v>
    <v>       0.00000000       0.74992551       0.45472970 </v>
    <v>       0.50000000       0.24849643       0.45452958 </v>
    <v>       0.50000000       0.75144587       0.45465787 </v>
    <v>       0.25006781       0.00000925       0.45475154 </v>
    <v>       0.24831223       0.49965687       0.45451031 </v>
    <v>       0.74993219       0.00000925       0.45475154 </v>
    <v>       0.75168777       0.49965687       0.45451031 </v>
    <v>       0.50000000       0.49514579       0.50053656 </v>
    <v>       0.50000000       0.57848898       0.52223356 </v>
   </varray>
  </structure>
  <varray name="forces" >
   <v>       0.00000000      -0.00398245       0.26937913 </v>
   <v>       0.00000000       0.00612888       0.27435126 </v>
   <v>       0.00000000       0.00495456       0.27265764 </v>
   <v>       0.00000000      -0.00806677       0.27066441 </v>
   <v>       0.01403952       0.00749941       0.27854115 </v>
   <v>       0.00273064      -0.00651982       0.28250547 </v>
   <v>      -0.01403952       0.00749941       0.27854115 </v>
   <v>      -0.00273064      -0.00651982       0.28250547 </v>
   <v>       0.00000000       0.00199654      -0.01869320 </v>
   <v>       0.00000000      -0.00250013      -0.02165087 </v>
   <v>       0.00000000       0.00051337      -0.02544223 </v>
   <v>       0.00000000       0.01751055      -0.01792260 </v>
   <v>       0.00281309      -0.00566816      -0.01981153 </v>
   <v>      -0.00771308      -0.00266713      -0.02310529 </v>
   <v>      -0.00281309      -0.00566816      -0.01981153 </v>
   <v>       0.00771308      -0.00266713      -0.02310529 </v>
   <v>       0.00000000      -0.00681462      -0.03403117 </v>
   <v>       0.00000000       0.00192117      -0.04074805 </v>
   <v>       0.00000000      -0.00249461      -0.04122908 </v>
   <v>       0.00000000      -0.00716600      -0.06677192 </v>
   <v>       0.01338879       0.01172592      -0.03194262 </v>
   <v>       0.00607828      -0.00415764      -0.03467666 </v>
   <v>      -0.01338879       0.01172592      -0.03194262 </v>
   <v>      -0.00607828      -0.00415764      -0.03467666 </v>
   <v>       0.00000000       0.00493547       0.01852904 </v>
   <v>       0.00000000      -0.00631903       0.04013778 </v>
   <v>       0.00000000       0.01453069       0.03116408 </v>
   <v>       0.00000000      -0.00942811       0.01197052 </v>
   <v>       0.00681350      -0.00570874       0.02992202 </v>
   <v>       0.01245396       0.00452631       0.02188135 </v>
   <v>      -0.00681350      -0.00570874       0.02992202 </v>
   <v>      -0.01245396       0.00452631       0.02188135 </v>
   <v>       0.00000000       0.00380684      -0.00842440 </v>
   <v>       0.00000000      -0.00574989      -0.04400483 </v>
   <v>       0.00000000      -0.00897155      -0.04348819 </v>
   <v>       0.00000000      -0.00887838       0.02674203 </v>
   <v>       0.00040033       0.00579914      -0.00493456 </v>
   <v>       0.00518688       0.00438918       0.01373149 </v>
   <v>      -0.00040033       0.00579914      -0.00493456 </v>
   <v>      -0.00518688       0.00438918       0.01373149 </v>
   <v>       0.00000000      -0.00164495      -0.14950184 </v>
   <v>       0.00000000      -0.00032636      -0.16520595 </v>
   <v>       0.00000000      -0.04692399      -0.17964029 </v>
   <v>       0.00000000       0.01712681      -0.17107912 </v>
   <v>      -0.00206661       0.01103406      -0.15176650 </v>
   <v>      -0.03189698       0.00230279      -0.17522132 </v>
   <v>       0.00206661       0.01103406      -0.15176650 </v>
   <v>       0.03189698       0.00230279      -0.17522132 </v>
   <v>       0.00000000       0.00418685      -0.05314105 </v>
   <v>       0.00000000       0.01333838      -0.05101513 </v>
   <v>       0.00000000      -0.05252289      -0.04664804 </v>
   <v>       0.00000000      -0.03738546      -0.20886562 </v>
   <v>       0.01130495       0.01501250      -0.02698198 </v>
   <v>       0.01208872      -0.00035615      -0.03170349 </v>
   <v>      -0.01130495       0.01501250      -0.02698198 </v>
   <v>      -0.01208872      -0.00035615      -0.03170349 </v>
   <v>       0.00000000      -0.02137444      -0.00830413 </v>
   <v>       0.00000000       0.00421721      -0.02576855 </v>
   <v>       0.00000000      -0.17187299      -0.10947025 </v>
   <v>       0.00000000       0.14806507       0.01912068 </v>
   <v>      -0.00550528       0.00175886      -0.00624648 </v>
   <v>      -0.19746930      -0.05595436      -0.11599275 </v>
   <v>       0.00550528       0.00175886      -0.00624648 </v>
   <v>       0.19746930      -0.05595436      -0.11599275 </v>
   <v>       0.00000000       0.39759685       0.52638971 </v>
   <v>       0.00000000      -0.20443895      -0.23845642 </v>
  </varray>
  <varray name="stress" >
   <v>     -45.65237955       0.00000000       0.00000000 </v>
   <v>       0.00000000     -45.77662055       0.24342919 </v>
   <v>       0.00000000       0.24342913     -25.76561922 </v>
  </varray>
  <energy>
   <i name="e_fr_energy">   -261.45329365 </i>
   <i name="e_wo_entrp">   -261.26736594 </i>
   <i name="e_0_energy">   -261.39131775 </i>
  </energy>
  <time name="totalsc">  311.74  314.06</time>
 </calculation>
 <calculation>
  <scstep>
   <time name="dav">   43.93   44.20</time>
   <time name="total">   44.89   45.17</time>
   <energy>
    <i name="alphaZ">   2059.53800561 </i>
    <i name="ewald"> 389276.69858188 </i>
    <i name="hartreedc">-475821.24781796 </i>
    <i name="XCdc">   2858.96688884 </i>
    <i name="pawpsdc">  83701.63134136 </i>
    <i name="pawaedc"> -90594.36497851 </i>
    <i name="eentropy">     -0.18610868 </i>
    <i name="bandstr">   -762.26674991 </i>
    <i name="atom">  89046.24623812 </i>
    <i name="e_fr_energy">   -234.98459925 </i>
    <i name="e_wo_entrp">   -234.79849057 </i>
    <i name="e_0_energy">   -234.92256303 </i>
   </energy>
  </scstep>
  <scstep>
   <time name="dav">   57.10   57.45</time>
   <time name="total">   58.04   58.39</time>
   <energy>
    <i name="e_fr_energy">   -235.02803431 </i>
    <i name="e_wo_entrp">   -234.84242395 </i>
    <i name="e_0_energy">   -234.96616419 </i>
   </energy>
  </scstep>
  <scstep>
   <time name="dav">   44.09   44.36</time>
   <time name="total">   45.04   45.32</time>
   <energy>
    <i name="e_fr_energy">   -235.02635293 </i>
    <i name="e_wo_entrp">   -234.83973366 </i>
    <i name="e_0_energy">   -234.96414650 </i>
   </energy>
  </scstep>
  <scstep>
   <time name="dav">   45.03   45.31</time>
   <time name="total">   45.98   46.26</time>
   <energy>
    <i name="e_fr_energy">   -235.02605410 </i>
    <i name="e_wo_entrp">   -234.84066348 </i>
    <i name="e_0_energy">   -234.96425723 </i>
   </energy>
  </scstep>
  <scstep>
   <time name="dav">   50.04   50.47</time>
   <time name="total">   51.02   51.46</time>
   <energy>
    <i name="e_fr_energy">   -235.02565352 </i>
    <i name="e_wo_entrp">   -234.83933274 </i>
    <i name="e_0_energy">   -234.96354659 </i>
   </energy>
  </scstep>
  <scstep>
   <time name="dav">   45.25   45.63</time>
   <time name="total">   46.22   46.60</time>
   <energy>
    <i name="e_fr_energy">   -235.02534526 </i>
    <i name="e_wo_entrp">   -234.83935858 </i>
    <i name="e_0_energy">   -234.96334970 </i>
   </energy>
  </scstep>
  <scstep>
   <time name="dav">   49.01   49.41</time>
   <time name="total">   49.96   50.37</time>
   <energy>
    <i name="e_fr_energy">   -235.02477604 </i>
    <i name="e_wo_entrp">   -234.83891706 </i>
    <i name="e_0_energy">   -234.96282305 </i>
   </energy>
  </scstep>
  <scstep>
   <time name="dav">   40.32   40.58</time>
   <time name="total">   40.45   40.71</time>
   <energy>
    <i name="alphaZ">   2059.53800561 </i>
    <i name="ewald"> 389276.69858188 </i>
[...]
       <r>    12.8880     0.0000   456.0000 </r>
       <r>    12.9643     0.0000   456.0000 </r>
       <r>    13.0406     0.0000   456.0000 </r>
       <r>    13.1169     0.0000   456.0000 </r>
       <r>    13.1932     0.0000   456.0000 </r>
       <r>    13.2695     0.0000   456.0000 </r>
       <r>    13.3458     0.0000   456.0000 </r>
      </set>
      <set comment="spin 2">
       <r>    -9.5426     0.0000     0.0000 </r>
       <r>    -9.4663     0.0000     0.0000 </r>
       <r>    -9.3900     0.0000     0.0000 </r>
       <r>    -9.3137     0.0000     0.0000 </r>
       <r>    -9.2374     0.0000     0.0000 </r>
       <r>    -9.1612    -0.0000    -0.0000 </r>
       <r>    -9.0849    -0.0000    -0.0000 </r>
       <r>    -9.0086    -0.0000    -0.0000 </r>
       <r>    -8.9323    -0.0000    -0.0000 </r>
       <r>    -8.8560    -0.0000    -0.0000 </r>
       <r>    -8.7797    -0.0000    -0.0000 </r>
       <r>    -8.7034    -0.0000    -0.0000 </r>
       <r>    -8.6271    -0.0000    -0.0000 </r>
       <r>    -8.5508    -0.0000    -0.0000 </r>
       <r>    -8.4745    -0.0000    -0.0000 </r>
       <r>    -8.3982    -0.0000    -0.0000 </r>
       <r>    -8.3219    -0.0000    -0.0000 </r>
       <r>    -8.2456    -0.0000    -0.0000 </r>
       <r>    -8.1693    -0.0001    -0.0000 </r>
       <r>    -8.0930    -0.0004    -0.0000 </r>
       <r>    -8.0167    -0.0024    -0.0002 </r>
       <r>    -7.9404    -0.0091    -0.0009 </r>
       <r>    -7.8641    -0.0211    -0.0025 </r>
       <r>    -7.7878    -0.0195    -0.0040 </r>
       <r>    -7.7116     0.0451    -0.0006 </r>
       <r>    -7.6353     0.1961     0.0144 </r>
       <r>    -7.5590     0.3405     0.0404 </r>
       <r>    -7.4827     0.3553     0.0675 </r>
       <r>    -7.4064     0.3629     0.0951 </r>
       <r>    -7.3301     0.6930     0.1480 </r>
       <r>    -7.2538     1.3304     0.2495 </r>
       <r>    -7.1775     1.7256     0.3812 </r>
       <r>    -7.1012     1.5845     0.5021 </r>
       <r>    -7.0249     1.4084     0.6095 </r>
       <r>    -6.9486     1.6774     0.7375 </r>
       <r>    -6.8723     2.0704     0.8955 </r>
       <r>    -6.7960     2.1327     1.0582 </r>
       <r>    -6.7197     1.9978     1.2106 </r>
       <r>    -6.6434     1.8301     1.3502 </r>
       <r>    -6.5671     1.4578     1.4614 </r>
       <r>    -6.4908     1.1068     1.5459 </r>
       <r>    -6.4145     1.4689     1.6580 </r>
       <r>    -6.3382     2.5376     1.8516 </r>
       <r>    -6.2620     3.2706     2.1011 </r>
       <r>    -6.1857     2.9567     2.3267 </r>
       <r>    -6.1094     2.3248     2.5040 </r>
       <r>    -6.0331     2.6325     2.7049 </r>
       <r>    -5.9568     3.9164     3.0037 </r>
       <r>    -5.8805     4.9320     3.3800 </r>
       <r>    -5.8042     4.7866     3.7452 </r>
       <r>    -5.7279     3.8465     4.0386 </r>
       <r>    -5.6516     3.1487     4.2789 </r>
       <r>    -5.5753     3.4609     4.5429 </r>
       <r>    -5.4990     4.4709     4.8840 </r>
       <r>    -5.4227     4.8041     5.2505 </r>
       <r>    -5.3464     3.5999     5.5252 </r>
       <r>    -5.2701     1.7993     5.6625 </r>
       <r>    -5.1938     1.0333     5.7413 </r>
       <r>    -5.1175     1.6698     5.8687 </r>
       <r>    -5.0412     2.7664     6.0798 </r>
       <r>    -4.9649     3.6765     6.3603 </r>
       <r>    -4.8886     4.8327     6.7290 </r>
       <r>    -4.8124     6.6943     7.2397 </r>
       <r>    -4.7361     8.7351     7.9062 </r>
       <r>    -4.6598    10.0667     8.6742 </r>
       <r>    -4.5835    10.3284     9.4622 </r>
       <r>    -4.5072     9.5472    10.1906 </r>
       <r>    -4.4309     7.9145    10.7944 </r>
       <r>    -4.3546     5.9642    11.2495 </r>
       <r>    -4.2783     4.5938    11.5999 </r>
       <r>    -4.2020     4.4948    11.9429 </r>
       <r>    -4.1257     5.3134    12.3483 </r>
       <r>    -4.0494     6.1729    12.8192 </r>
       <r>    -3.9731     7.0450    13.3567 </r>
       <r>    -3.8968     8.2705    13.9877 </r>
       <r>    -3.8205     9.5881    14.7192 </r>
       <r>    -3.7442    10.9313    15.5532 </r>
       <r>    -3.6679    12.5282    16.5091 </r>
       <r>    -3.5916    13.7723    17.5598 </r>
       <r>    -3.5153    13.8057    18.6131 </r>
       <r>    -3.4390    12.7327    19.5846 </r>
       <r>    -3.3628    11.3916    20.4537 </r>
       <r>    -3.2865    11.3166    21.3171 </r>
       <r>    -3.2102    14.8984    22.4537 </r>
       <r>    -3.1339    23.2675    24.2289 </r>
       <r>    -3.0576    33.1669    26.7594 </r>
       <r>    -2.9813    38.2488    29.6776 </r>
       <r>    -2.9050    36.0366    32.4270 </r>
       <r>    -2.8287    31.8754    34.8589 </r>
       <r>    -2.7524    32.6567    37.3504 </r>
       <r>    -2.6761    38.5475    40.2914 </r>
       <r>    -2.5998    44.9855    43.7235 </r>
       <r>    -2.5235    51.1989    47.6297 </r>
       <r>    -2.4472    61.0688    52.2890 </r>
       <r>    -2.3709    74.1461    57.9459 </r>
       <r>    -2.2946    81.4498    64.1601 </r>
       <r>    -2.2183    75.4867    69.9193 </r>
       <r>    -2.1420    61.3074    74.5968 </r>
       <r>    -2.0657    51.5829    78.5323 </r>
       <r>    -1.9894    52.8066    82.5611 </r>
       <r>    -1.9132    61.2568    87.2347 </r>
       <r>    -1.8369    69.7507    92.5563 </r>
       <r>    -1.7606    73.8646    98.1918 </r>
       <r>    -1.6843    73.8771   103.8282 </r>
       <r>    -1.6080    74.1383   109.4846 </r>
       <r>    -1.5317    79.2569   115.5315 </r>
       <r>    -1.4554    89.3525   122.3486 </r>
       <r>    -1.3791    99.7583   129.9596 </r>
       <r>    -1.3028   105.8907   138.0385 </r>
       <r>    -1.2265   108.0107   146.2792 </r>
       <r>    -1.1502   109.1659   154.6079 </r>
       <r>    -1.0739   108.9845   162.9229 </r>
       <r>    -0.9976   105.0031   170.9341 </r>
       <r>    -0.9213    98.8325   178.4745 </r>
       <r>    -0.8450    94.1195   185.6553 </r>
       <r>    -0.7687    92.4104   192.7057 </r>
       <r>    -0.6924    95.6308   200.0018 </r>
       <r>    -0.6161   104.8332   208.0001 </r>
       <r>    -0.5399   114.8727   216.7642 </r>
       <r>    -0.4636   118.7198   225.8219 </r>
       <r>    -0.3873   116.5543   234.7144 </r>
       <r>    -0.3110   114.1259   243.4216 </r>
       <r>    -0.2347   114.0977   252.1267 </r>
       <r>    -0.1584   115.2948   260.9231 </r>
       <r>    -0.0821   119.3658   270.0300 </r>
       <r>    -0.0058   131.1959   280.0396 </r>
       <r>     0.0705   149.5878   291.4523 </r>
       <r>     0.1468   162.3821   303.8412 </r>
       <r>     0.2231   155.8419   315.7312 </r>
       <r>     0.2994   127.0274   325.4227 </r>
       <r>     0.3757    86.0759   331.9898 </r>
       <r>     0.4520    48.8336   335.7156 </r>
       <r>     0.5283    25.6861   337.6753 </r>
       <r>     0.6046    15.9955   338.8956 </r>
       <r>     0.6809    13.5866   339.9322 </r>
       <r>     0.7572    13.8179   340.9865 </r>
       <r>     0.8335    14.4528   342.0891 </r>
       <r>     0.9097    14.9203   343.2275 </r>
       <r>     0.9860    15.6712   344.4231 </r>
       <r>     1.0623    15.9527   345.6402 </r>
       <r>     1.1386    13.9908   346.7076 </r>
       <r>     1.2149    10.0324   347.4730 </r>
       <r>     1.2912     6.2773   347.9520 </r>
       <r>     1.3675     3.9891   348.2563 </r>
       <r>     1.4438     2.8493   348.4737 </r>
       <r>     1.5201     2.5011   348.6645 </r>
       <r>     1.5964     3.4464   348.9275 </r>
       <r>     1.6727     6.5845   349.4298 </r>
       <r>     1.7490    12.1906   350.3599 </r>
       <r>     1.8253    18.9639   351.8067 </r>
       <r>     1.9016    23.5540   353.6038 </r>
       <r>     1.9779    22.2303   355.2998 </r>
       <r>     2.0542    14.8681   356.4342 </r>
       <r>     2.1305     6.2465   356.9108 </r>
       <r>     2.2068     1.7390   357.0434 </r>
       <r>     2.2831     2.5439   357.2375 </r>
       <r>     2.3593     5.6273   357.6669 </r>
       <r>     2.4356     7.5515   358.2430 </r>
       <r>     2.5119     7.8222   358.8398 </r>
       <r>     2.5882     8.1311   359.4602 </r>
       <r>     2.6645     9.4393   360.1803 </r>
       <r>     2.7408    11.0304   361.0219 </r>
       <r>     2.8171    11.3222   361.8857 </r>
       <r>     2.8934     9.4088   362.6036 </r>
       <r>     2.9697     6.8842   363.1288 </r>
       <r>     3.0460     6.9883   363.6620 </r>
       <r>     3.1223    10.7873   364.4850 </r>
       <r>     3.1986    15.4917   365.6669 </r>
       <r>     3.2749    17.2549   366.9834 </r>
       <r>     3.3512    14.6722   368.1028 </r>
       <r>     3.4275     9.3737   368.8179 </r>
       <r>     3.5038     4.2698   369.1437 </r>
       <r>     3.5801     1.8681   369.2862 </r>
       <r>     3.6564     3.3283   369.5402 </r>
       <r>     3.7327     7.5696   370.1177 </r>
       <r>     3.8089    11.3402   370.9829 </r>
       <r>     3.8852    11.6141   371.8690 </r>
       <r>     3.9615     8.4630   372.5147 </r>
       <r>     4.0378     5.0502   372.9000 </r>
       <r>     4.1141     4.3319   373.2305 </r>
       <r>     4.1904     5.9098   373.6814 </r>
       <r>     4.2667     7.1135   374.2241 </r>
       <r>     4.3430     6.7576   374.7397 </r>
       <r>     4.4193     5.8016   375.1823 </r>
       <r>     4.4956     5.2599   375.5836 </r>
       <r>     4.5719     5.9558   376.0380 </r>
       <r>     4.6482     8.6481   376.6978 </r>
       <r>     4.7245    12.1212   377.6226 </r>
       <r>     4.8008    13.3411   378.6404 </r>
       <r>     4.8771    11.2941   379.5021 </r>
       <r>     4.9534     8.4293   380.1452 </r>
       <r>     5.0297     7.2461   380.6981 </r>
       <r>     5.1060     7.6777   381.2838 </r>
       <r>     5.1823     8.3406   381.9202 </r>
       <r>     5.2585     8.5336   382.5712 </r>
       <r>     5.3348     8.7751   383.2407 </r>
       <r>     5.4111     9.9682   384.0013 </r>
       <r>     5.4874    11.5672   384.8838 </r>
       <r>     5.5637    11.4095   385.7543 </r>
       <r>     5.6400     8.7544   386.4222 </r>
       <r>     5.7163     5.8002   386.8647 </r>
       <r>     5.7926     4.8394   387.2339 </r>
       <r>     5.8689     5.7926   387.6759 </r>
       <r>     5.9452     7.3059   388.2333 </r>
       <r>     6.0215     8.6645   388.8943 </r>
       <r>     6.0978     9.7272   389.6365 </r>
       <r>     6.1741    10.0880   390.4061 </r>
       <r>     6.2504     9.7134   391.1472 </r>
       <r>     6.3267     9.8392   391.8979 </r>
       <r>     6.4030    11.8558   392.8024 </r>
       <r>     6.4793    15.1638   393.9593 </r>
       <r>     6.5556    17.0232   395.2581 </r>
       <r>     6.6319    15.6419   396.4515 </r>
       <r>     6.7081    13.0238   397.4452 </r>
       <r>     6.7844    12.5592   398.4034 </r>
       <r>     6.8607    13.9207   399.4654 </r>
       <r>     6.9370    13.4250   400.4897 </r>
       <r>     7.0133     9.6739   401.2278 </r>
       <r>     7.0896     5.6442   401.6584 </r>
       <r>     7.1659     4.6166   402.0106 </r>
       <r>     7.2422     6.5997   402.5141 </r>
       <r>     7.3185     9.2916   403.2230 </r>
       <r>     7.3948    10.7737   404.0450 </r>
       <r>     7.4711    10.9336   404.8792 </r>
       <r>     7.5474    10.9799   405.7169 </r>
       <r>     7.6237    11.7513   406.6134 </r>
       <r>     7.7000    13.1575   407.6173 </r>
       <r>     7.7763    15.3271   408.7867 </r>
       <r>     7.8526    18.2345   410.1779 </r>
       <r>     7.9289    19.7652   411.6858 </r>
       <r>     8.0052    17.1344   412.9931 </r>
       <r>     8.0815    11.0624   413.8371 </r>
       <r>     8.1577     6.2929   414.3172 </r>
       <r>     8.2340     7.2133   414.8676 </r>
       <r>     8.3103    13.1957   415.8743 </r>
       <r>     8.3866    18.4956   417.2854 </r>
       <r>     8.4629    17.9660   418.6562 </r>
       <r>     8.5392    12.5985   419.6174 </r>
       <r>     8.6155     7.5912   420.1965 </r>
       <r>     8.6918     6.2345   420.6722 </r>
       <r>     8.7681     8.2004   421.2978 </r>
       <r>     8.8444    11.8655   422.2031 </r>
       <r>     8.9207    15.4278   423.3802 </r>
       <r>     8.9970    17.1492   424.6886 </r>
       <r>     9.0733    16.6867   425.9617 </r>
       <r>     9.1496    15.5210   427.1458 </r>
       <r>     9.2259    15.1010   428.2980 </r>
       <r>     9.3022    15.3657   429.4703 </r>
       <r>     9.3785    15.5301   430.6551 </r>
       <r>     9.4548    15.3232   431.8242 </r>
       <r>     9.5311    15.0068   432.9692 </r>
       <r>     9.6073    14.6057   434.0835 </r>
       <r>     9.6836    13.6783   435.1271 </r>
       <r>     9.7599    12.3709   436.0709 </r>
       <r>     9.8362    11.8641   436.9761 </r>
       <r>     9.9125    12.6415   437.9406 </r>
       <r>     9.9888    13.3731   438.9609 </r>
       <r>    10.0651    12.8125   439.9384 </r>
       <r>    10.1414    11.9318   440.8487 </r>
       <r>    10.2177    12.9615   441.8376 </r>
       <r>    10.2940    16.5743   443.1022 </r>
       <r>    10.3703    20.6681   444.6790 </r>
       <r>    10.4466    22.0915   446.3645 </r>
       <r>    10.5229    19.6541   447.8640 </r>
       <r>    10.5992    15.2401   449.0267 </r>
       <r>    10.6755    11.5978   449.9116 </r>
       <r>    10.7518     9.6902   450.6509 </r>
       <r>    10.8281     9.0017   451.3377 </r>
       <r>    10.9044     9.2254   452.0415 </r>
       <r>    10.9807    10.0821   452.8107 </r>
       <r>    11.0569    10.4387   453.6072 </r>
       <r>    11.1332     9.3424   454.3199 </r>
       <r>    11.2095     7.4101   454.8853 </r>
       <r>    11.2858     5.8441   455.3311 </r>
       <r>    11.3621     4.6515   455.6860 </r>
       <r>    11.4384     3.1135   455.9236 </r>
       <r>    11.5147     1.3510   456.0267 </r>
       <r>    11.5910     0.1500   456.0381 </r>
       <r>    11.6673    -0.2310   456.0205 </r>
       <r>    11.7436    -0.1777   456.0069 </r>
       <r>    11.8199    -0.0694   456.0016 </r>
       <r>    11.8962    -0.0176   456.0003 </r>
       <r>    11.9725    -0.0031   456.0000 </r>
       <r>    12.0488    -0.0004   456.0000 </r>
       <r>    12.1251    -0.0000   456.0000 </r>
       <r>    12.2014    -0.0000   456.0000 </r>
       <r>    12.2777    -0.0000   456.0000 </r>
       <r>    12.3540    -0.0000   456.0000 </r>
       <r>    12.4302    -0.0000   456.0000 </r>
       <r>    12.5065    -0.0000   456.0000 </r>
       <r>    12.5828    -0.0000   456.0000 </r>
       <r>    12.6591     0.0000   456.0000 </r>
       <r>    12.7354     0.0000   456.0000 </r>
       <r>    12.8117     0.0000   456.0000 </r>
       <r>    12.8880     0.0000   456.0000 </r>
       <r>    12.9643     0.0000   456.0000 </r>
       <r>    13.0406     0.0000   456.0000 </r>
       <r>    13.1169     0.0000   456.0000 </r>
       <r>    13.1932     0.0000   456.0000 </r>
       <r>    13.2695     0.0000   456.0000 </r>
       <r>    13.3458     0.0000   456.0000 </r>
      </set>
     </set>
    </array>
   </total>
  </dos>
 </calculation>
 <structure name="finalpos" >
  <crystal>
   <varray name="basis" >
    <v>       7.26000023       0.00000000       0.00000000 </v>
    <v>       0.00000000       7.26000023       0.00000000 </v>
    <v>       0.00000000       0.00000000      27.70499992 </v>
   </varray>
   <i name="volume">   1460.26414606 </i>
   <varray name="rec_basis" >
    <v>       0.13774104       0.00000000       0.00000000 </v>
    <v>       0.00000000       0.13774104       0.00000000 </v>
    <v>       0.00000000       0.00000000       0.03609457 </v>
   </varray>
  </crystal>
  <varray name="positions" >
   <v>       0.00000000      -0.00158692       0.00790620 </v>
   <v>       0.00000000       0.49850810       0.00790923 </v>
   <v>       0.50000000      -0.00150688       0.00791290 </v>
   <v>       0.50000000       0.49844027       0.00791433 </v>
   <v>       0.25007270       0.24849185       0.00791354 </v>
   <v>       0.25000827       0.74842611       0.00792481 </v>
   <v>       0.74992730       0.24849185       0.00791354 </v>
   <v>       0.74999173       0.74842611       0.00792481 </v>
   <v>       0.00000000       0.24847942       0.07022905 </v>
   <v>       0.00000000       0.74846686       0.07020890 </v>
   <v>       0.50000000       0.24844748       0.07019513 </v>
   <v>       0.50000000       0.74859085       0.07021931 </v>
   <v>       0.25001024      -0.00152256       0.07021800 </v>
   <v>       0.24993363       0.49847002       0.07019860 </v>
   <v>       0.74998976      -0.00152256       0.07021800 </v>
   <v>       0.75006637       0.49847002       0.07019860 </v>
   <v>       0.00000000      -0.00153155       0.13383540 </v>
   <v>       0.00000000       0.49864219       0.13383261 </v>
   <v>       0.50000000      -0.00140850       0.13383388 </v>
   <v>       0.50000000       0.49853854       0.13374270 </v>
   <v>       0.25013482       0.24866642       0.13383169 </v>
   <v>       0.25002075       0.74851413       0.13381429 </v>
   <v>       0.74986518       0.24866642       0.13383169 </v>
   <v>       0.74997925       0.74851413       0.13381429 </v>
   <v>       0.00000000       0.24876048       0.19657672 </v>
   <v>       0.00000000       0.74870836       0.19668079 </v>
   <v>       0.50000000       0.24889320       0.19668769 </v>
   <v>       0.50000000       0.74860156       0.19664083 </v>
   <v>       0.25003847      -0.00133047       0.19662482 </v>
   <v>       0.25016838       0.49881937       0.19664951 </v>
   <v>       0.74996153      -0.00133047       0.19662482 </v>
   <v>       0.74983162       0.49881937       0.19664951 </v>
   <v>       0.00000000      -0.00115354       0.25910548 </v>
   <v>       0.00000000       0.49865883       0.25903560 </v>
   <v>       0.50000000      -0.00131280       0.25904806 </v>
   <v>       0.50000000       0.49867809       0.25922217 </v>
   <v>       0.24989768       0.24871501       0.25909240 </v>
   <v>       0.24998154       0.74881472       0.25914761 </v>
   <v>       0.75010232       0.24871501       0.25909240 </v>
   <v>       0.75001846       0.74881472       0.25914761 </v>
   <v>       0.00000000       0.24880082       0.32196654 </v>
   <v>       0.00000000       0.74883916       0.32193797 </v>
   <v>       0.50000000       0.24855660       0.32191162 </v>
   <v>       0.50000000       0.74889534       0.32190501 </v>
   <v>       0.25003042      -0.00116229       0.32194274 </v>
   <v>       0.24988038       0.49880886       0.32189065 </v>
   <v>       0.74996958      -0.00116229       0.32194274 </v>
   <v>       0.75011962       0.49880886       0.32189065 </v>
   <v>       0.00000000      -0.00118228       0.38560295 </v>
   <v>       0.00000000       0.49885084       0.38549389 </v>
   <v>       0.50000000      -0.00132546       0.38558961 </v>
   <v>       0.50000000       0.49871169       0.38551255 </v>
   <v>       0.24998002       0.24869550       0.38555999 </v>
   <v>       0.24998939       0.74890895       0.38560106 </v>
   <v>       0.75001998       0.24869550       0.38555999 </v>
   <v>       0.75001061       0.74890895       0.38560106 </v>
   <v>       0.00000000       0.24862056       0.44788300 </v>
   <v>       0.00000000       0.74871993       0.44782242 </v>
   <v>       0.50000000       0.24835993       0.44769685 </v>
   <v>       0.50000000       0.74929795       0.44766276 </v>
   <v>       0.24998386      -0.00113182       0.44788312 </v>
   <v>       0.24926418       0.49834490       0.44754120 </v>
   <v>       0.75001614      -0.00113182       0.44788312 </v>
   <v>       0.75073582       0.49834490       0.44754120 </v>
   <v>       0.50000000       0.55245883       0.52745339 </v>
   <v>       0.50000000       0.60608328       0.55104835 </v>
  </varray>
 </structure>
</modeling>
