unknown system                          
           1
     7.260000    0.000000    0.000000
     0.000000    7.260000    0.000000
     0.000000    0.000000   27.705000
   Cu   H 
    64     2
Direct configuration=     1
   0.00000000  0.00000000  0.00000000
   0.00000000  0.50000000  0.00000000
   0.50000000  0.00000000  0.00000000
   0.50000000  0.50000000  0.00000000
   0.25000000  0.25000000  0.00000000
   0.25000000  0.75000000  0.00000000
   0.75000000  0.25000000  0.00000000
   0.75000000  0.75000000  0.00000000
   0.00000000  0.25000000  0.06551164
   0.00000000  0.75000000  0.06551164
   0.50000000  0.25000000  0.06551164
   0.50000000  0.75000000  0.06551164
   0.25000000  0.00000000  0.06551164
   0.25000000  0.50000000  0.06551164
   0.75000000  0.00000000  0.06551164
   0.75000000  0.50000000  0.06551164
   0.00000000  0.00000000  0.13164128
   0.00000000  0.50000000  0.13164128
   0.50000000  0.00000000  0.13164128
   0.50000000  0.50000000  0.13164128
   0.25000000  0.25000000  0.13164128
   0.25000000  0.75000000  0.13164128
   0.75000000  0.25000000  0.13164128
   0.75000000  0.75000000  0.13164128
   0.00000000  0.25000000  0.19677891
   0.00000000  0.75000000  0.19677891
   0.50000000  0.25000000  0.19677891
   0.50000000  0.75000000  0.19677891
   0.25000000  0.00000000  0.19677891
   0.25000000  0.50000000  0.19677891
   0.75000000  0.00000000  0.19677891
   0.75000000  0.50000000  0.19677891
   0.00000000  0.00000000  0.26184662
   0.00000000  0.50000000  0.26184662
   0.50000000  0.00000000  0.26184662
   0.50000000  0.50000000  0.26184662
   0.25000000  0.25000000  0.26184662
   0.25000000  0.75000000  0.26184662
   0.75000000  0.25000000  0.26184662
   0.75000000  0.75000000  0.26184662
   0.00000000  0.25000000  0.32758887
   0.00000000  0.75000000  0.32758887
   0.50000000  0.25000000  0.32758887
   0.50000000  0.75000000  0.32758887
   0.25000000  0.00000000  0.32758887
   0.25000000  0.50000000  0.32758887
   0.75000000  0.00000000  0.32758887
   0.75000000  0.50000000  0.32758887
   0.00000000  0.00000000  0.39185763
   0.00000000  0.50000000  0.39185763
   0.50000000  0.00000000  0.39185763
   0.50000000  0.50000000  0.39185763
   0.25000000  0.25000000  0.39185763
   0.25000000  0.75000000  0.39185763
   0.75000000  0.25000000  0.39185763
   0.75000000  0.75000000  0.39185763
   0.00000000  0.25000000  0.45475490
   0.00000000  0.75000000  0.45475490
   0.50000000  0.25000000  0.45475490
   0.50000000  0.75000000  0.45475490
   0.25000000  0.00000000  0.45475490
   0.25000000  0.50000000  0.45475490
   0.75000000  0.00000000  0.45475490
   0.75000000  0.50000000  0.45475490
   0.50000000  0.50000000  0.50150658
   0.50000000  0.57265863  0.52054652
Direct configuration=     2
   0.00000000 -0.00003183  0.00052949
   0.00000000  0.50004484  0.00054497
   0.50000000  0.00003193  0.00054289
   0.50000000  0.49993288  0.00053878
   0.25010251  0.25005903  0.00055247
   0.25001624  0.74995233  0.00055920
   0.74989749  0.25005903  0.00055247
   0.74998376  0.74995233  0.00055920
   0.00000000  0.25002649  0.06540510
   0.00000000  0.74997777  0.06539936
   0.50000000  0.25000634  0.06539266
   0.50000000  0.75013451  0.06540758
   0.25002833 -0.00004923  0.06540275
   0.24994085  0.49997669  0.06539749
   0.74997167 -0.00004923  0.06540275
   0.75005915  0.49997669  0.06539749
   0.00000000 -0.00005288  0.13155003
   0.00000000  0.50000637  0.13153658
   0.50000000 -0.00003387  0.13153588
   0.50000000  0.49994417  0.13148829
   0.25010399  0.25010569  0.13155874
   0.25006000  0.74996151  0.13155419
   0.74989601  0.25010569  0.13155874
   0.74994000  0.74996151  0.13155419
   0.00000000  0.25004089  0.19683254
   0.00000000  0.74995306  0.19686757
   0.50000000  0.25010309  0.19684814
   0.50000000  0.74994467  0.19681407
   0.25005142 -0.00004257  0.19685032
   0.25008369  0.50002317  0.19683018
   0.74994858 -0.00004257  0.19685032
   0.74991631  0.50002317  0.19683018
   0.00000000  0.00002051  0.26186392
   0.00000000  0.49995807  0.26179132
   0.50000000 -0.00006529  0.26179283
   0.50000000  0.49993073  0.26193306
   0.25000691  0.25004967  0.26187943
   0.25003525  0.75002794  0.26191124
   0.74999309  0.25004967  0.26187943
   0.74996475  0.75002794  0.26191124
   0.00000000  0.24997679  0.32725753
   0.00000000  0.74999482  0.32723272
   0.50000000  0.24973419  0.32720696
   0.50000000  0.75008913  0.32722124
   0.24998408  0.00006762  0.32725175
   0.24982279  0.50002197  0.32721354
   0.75001592  0.00006762  0.32725175
   0.75017721  0.50002197  0.32721354
   0.00000000  0.00002114  0.39179133
   0.00000000  0.50008853  0.39186901
   0.50000000 -0.00036442  0.39186679
   0.50000000  0.49967044  0.39143988
   0.25014319  0.25021717  0.39189671
   0.25011546  0.74995927  0.39187580
   0.74985681  0.25021717  0.39189671
   0.74988454  0.74995927  0.39187580
   0.00000000  0.25002783  0.45475038
   0.00000000  0.74990338  0.45472221
   0.50000000  0.24804962  0.45446262
   0.50000000  0.75187553  0.45462904
   0.25008796  0.00001199  0.45475055
   0.24781068  0.49955491  0.45443763
   0.74991204  0.00001199  0.45475055
   0.75218932  0.49955491  0.45443763
   0.50000000  0.49370329  0.50024831
   0.50000000  0.58022155  0.52273489
Direct configuration=     3
   0.00000000 -0.00002454  0.00040819
   0.00000000  0.50003457  0.00042013
   0.50000000  0.00002462  0.00041852
   0.50000000  0.49994826  0.00041535
   0.25007903  0.25004550  0.00042591
   0.25001252  0.74996325  0.00043110
   0.74992097  0.25004550  0.00042591
   0.74998748  0.74996325  0.00043110
   0.00000000  0.25002042  0.06542951
   0.00000000  0.74998286  0.06542508
   0.50000000  0.25000489  0.06541992
   0.50000000  0.75010369  0.06543142
   0.25002184 -0.00003795  0.06542770
   0.24995440  0.49998203  0.06542364
   0.74997816 -0.00003795  0.06542770
   0.75004560  0.49998203  0.06542364
   0.00000000 -0.00004076  0.13157094
   0.00000000  0.50000491  0.13156056
   0.50000000 -0.00002611  0.13156002
   0.50000000  0.49995696  0.13152334
   0.25008017  0.25008148  0.13157765
   0.25004626  0.74997033  0.13157414
   0.74991983  0.25008148  0.13157765
   0.74995374  0.74997033  0.13157414
   0.00000000  0.25003152  0.19682025
   0.00000000  0.74996382  0.19684726
   0.50000000  0.25007948  0.19683228
   0.50000000  0.74995735  0.19680602
   0.25003964 -0.00003282  0.19683396
   0.25006451  0.50001787  0.19681844
   0.74996036 -0.00003282  0.19683396
   0.74993549  0.50001787  0.19681844
   0.00000000  0.00001581  0.26185996
   0.00000000  0.49996767  0.26180399
   0.50000000 -0.00005034  0.26180516
   0.50000000  0.49994660  0.26191326
   0.25000532  0.25003829  0.26187191
   0.25002717  0.75002154  0.26189643
   0.74999468  0.25003829  0.26187191
   0.74997283  0.75002154  0.26189643
   0.00000000  0.24998210  0.32733344
   0.00000000  0.74999601  0.32731431
   0.50000000  0.24979508  0.32729445
   0.50000000  0.75006871  0.32730546
   0.24998773  0.00005213  0.32732898
   0.24986338  0.50001694  0.32729953
   0.75001227  0.00005213  0.32732898
   0.75013662  0.50001694  0.32729953
   0.00000000  0.00001629  0.39180652
   0.00000000  0.50006825  0.39186640
   0.50000000 -0.00028094  0.39186469
   0.50000000  0.49974594  0.39153558
   0.25011039  0.25016742  0.39188775
   0.25008901  0.74996860  0.39187163
   0.74988961  0.25016742  0.39188775
   0.74991099  0.74996860  0.39187163
   0.00000000  0.25002146  0.45475141
   0.00000000  0.74992551  0.45472970
   0.50000000  0.24849643  0.45452958
   0.50000000  0.75144587  0.45465787
   0.25006781  0.00000925  0.45475154
   0.24831223  0.49965687  0.45451031
   0.74993219  0.00000925  0.45475154
   0.75168777  0.49965687  0.45451031
   0.50000000  0.49514579  0.50053656
   0.50000000  0.57848898  0.52223356
Direct configuration=     4
   0.00000000 -0.00005759  0.00098567
   0.00000000  0.50008443  0.00100967
   0.50000000  0.00006387  0.00100473
   0.50000000  0.49988065  0.00099724
   0.25019320  0.25010754  0.00102424
   0.25003382  0.74991021  0.00103768
   0.74980680  0.25010754  0.00102424
   0.74996618  0.74991021  0.00103768
   0.00000000  0.25003958  0.06537231
   0.00000000  0.74996156  0.06536156
   0.50000000  0.25000970  0.06534845
   0.50000000  0.75024772  0.06537611
   0.25004662 -0.00008597  0.06536807
   0.24989098  0.49995940  0.06535725
   0.74995338 -0.00008597  0.06536807
   0.75010902  0.49995940  0.06535725
   0.00000000 -0.00009695  0.13149201
   0.00000000  0.50001866  0.13146717
   0.50000000 -0.00005024  0.13146566
   0.50000000  0.49989783  0.13137486
   0.25019058  0.25018176  0.13150432
   0.25009952  0.74993452  0.13149516
   0.74980942  0.25018176  0.13150432
   0.74990048  0.74993452  0.13149516
   0.00000000  0.25007285  0.19686420
   0.00000000  0.74991224  0.19693570
   0.50000000  0.25019690  0.19690104
   0.50000000  0.74988400  0.19683453
   0.25009545 -0.00007946  0.19690120
   0.25016401  0.50005225  0.19686737
   0.74990455 -0.00007946  0.19690120
   0.74983599  0.50005225  0.19686737
   0.00000000  0.00004498  0.26185021
   0.00000000  0.49992093  0.26171731
   0.50000000 -0.00012324  0.26171970
   0.50000000  0.49987331  0.26197890
   0.25000956  0.25008725  0.26187176
   0.25006871  0.75005623  0.26193510
   0.74999044  0.25008725  0.26187176
   0.74993129  0.75005623  0.26193510
   0.00000000  0.24996598  0.32700375
   0.00000000  0.74999267  0.32695244
   0.50000000  0.24943235  0.32690228
   0.50000000  0.75019917  0.32693102
   0.24997072  0.00013868  0.32699411
   0.24961766  0.50003693  0.32691631
   0.75002928  0.00013868  0.32699411
   0.75038234  0.50003693  0.32691631
   0.00000000  0.00004803  0.39170196
   0.00000000  0.50017454  0.39178443
   0.50000000 -0.00070337  0.39178943
   0.50000000  0.49942805  0.39108606
   0.25021719  0.25031589  0.39185251
   0.25019398  0.74995635  0.39182342
   0.74978281  0.25031589  0.39185251
   0.74980602  0.74995635  0.39182342
   0.00000000  0.24989276  0.45473651
   0.00000000  0.74992855  0.45467887
   0.50000000  0.24692817  0.45427599
   0.50000000  0.75284481  0.45465876
   0.25005449  0.00002334  0.45474010
   0.24652305  0.49919290  0.45423975
   0.74994551  0.00002334  0.45474010
   0.75347695  0.49919290  0.45423975
   0.50000000  0.49612198  0.50110247
   0.50000000  0.57904816  0.52237424
Direct configuration=     5
   0.00000000 -0.00012100  0.00209321
   0.00000000  0.50018005  0.00214034
   0.50000000  0.00013914  0.00212903
   0.50000000  0.49975097  0.00211326
   0.25041216  0.25022651  0.00217180
   0.25007466  0.74980850  0.00220103
   0.74958784  0.25022651  0.00217180
   0.74992534  0.74980850  0.00220103
   0.00000000  0.25007632  0.06526261
   0.00000000  0.74992069  0.06523973
   0.50000000  0.25001893  0.06521139
   0.50000000  0.75052394  0.06527004
   0.25009416 -0.00017807  0.06525370
   0.24976936  0.49991600  0.06522991
   0.74990584 -0.00017807  0.06525370
   0.75023064  0.49991600  0.06522991
   0.00000000 -0.00020470  0.13134063
   0.00000000  0.50004502  0.13128806
   0.50000000 -0.00009651  0.13128468
   0.50000000  0.49978442  0.13109010
   0.25040232  0.25037409  0.13136369
   0.25020167  0.74986585  0.13134368
   0.74959768  0.25037409  0.13136369
   0.74979833  0.74986585  0.13134368
   0.00000000  0.25015210  0.19694847
   0.00000000  0.74981331  0.19710532
   0.50000000  0.25042211  0.19703292
   0.50000000  0.74974331  0.19688922
   0.25020250 -0.00016891  0.19703014
   0.25035483  0.50011820  0.19696123
   0.74979750 -0.00016891  0.19703014
   0.74964517  0.50011820  0.19696123
   0.00000000  0.00010092  0.26183150
   0.00000000  0.49983128  0.26155106
   0.50000000 -0.00026306  0.26155581
   0.50000000  0.49973276  0.26210479
   0.25001768  0.25018114  0.26187147
   0.25014837  0.75012275  0.26200926
   0.74998232  0.25018114  0.26187147
   0.74985163  0.75012275  0.26200926
   0.00000000  0.24993505  0.32637144
   0.00000000  0.74998626  0.32625842
   0.50000000  0.24873666  0.32615013
   0.50000000  0.75044938  0.32621287
   0.24993809  0.00030468  0.32635186
   0.24914640  0.50007527  0.32618135
   0.75006191  0.00030468  0.32635186
   0.75085360  0.50007527  0.32618135
   0.00000000  0.00010888  0.39150143
   0.00000000  0.50037840  0.39162722
   0.50000000 -0.00151355  0.39164510
   0.50000000  0.49881835  0.39022392
   0.25042204  0.25060064  0.39178492
   0.25039531  0.74993286  0.39173094
   0.74957796  0.25060064  0.39178492
   0.74960469  0.74993286  0.39173094
   0.00000000  0.24964593  0.45470792
   0.00000000  0.74993437  0.45458137
   0.50000000  0.24392040  0.45378963
   0.50000000  0.75552784  0.45466048
   0.25002893  0.00005037  0.45471815
   0.24309159  0.49830304  0.45372084
   0.74997107  0.00005037  0.45471815
   0.75690841  0.49830304  0.45372084
   0.50000000  0.49799421  0.50218783
   0.50000000  0.58012062  0.52264405
Direct configuration=     6
   0.00000000 -0.00013857  0.00240009
   0.00000000  0.50020655  0.00245363
   0.50000000  0.00016000  0.00244055
   0.50000000  0.49971504  0.00242248
   0.25047283  0.25025947  0.00248976
   0.25008598  0.74978032  0.00252337
   0.74952717  0.25025947  0.00248976
   0.74991402  0.74978032  0.00252337
   0.00000000  0.25008650  0.06523222
   0.00000000  0.74990937  0.06520598
   0.50000000  0.25002148  0.06517342
   0.50000000  0.75060048  0.06524064
   0.25010733 -0.00020358  0.06522201
   0.24973566  0.49990398  0.06519463
   0.74989267 -0.00020358  0.06522201
   0.75026434  0.49990398  0.06519463
   0.00000000 -0.00023455  0.13129868
   0.00000000  0.50005232  0.13123843
   0.50000000 -0.00010934  0.13123454
   0.50000000  0.49975300  0.13101120
   0.25046099  0.25042737  0.13132473
   0.25022997  0.74984683  0.13130171
   0.74953901  0.25042737  0.13132473
   0.74977003  0.74984683  0.13130171
   0.00000000  0.25017406  0.19697183
   0.00000000  0.74978590  0.19715232
   0.50000000  0.25048451  0.19706946
   0.50000000  0.74970433  0.19690437
   0.25023216 -0.00019370  0.19706587
   0.25040771  0.50013647  0.19698723
   0.74976784 -0.00019370  0.19706587
   0.74959229  0.50013647  0.19698723
   0.00000000  0.00011642  0.26182632
   0.00000000  0.49980644  0.26150500
   0.50000000 -0.00030180  0.26151040
   0.50000000  0.49969381  0.26213967
   0.25001992  0.25020715  0.26187139
   0.25017044  0.75014118  0.26202981
   0.74998008  0.25020715  0.26187139
   0.74982956  0.75014118  0.26202981
   0.00000000  0.24992648  0.32619625
   0.00000000  0.74998449  0.32606612
   0.50000000  0.24854390  0.32594173
   0.50000000  0.75051870  0.32601389
   0.24992906  0.00035067  0.32617391
   0.24901582  0.50008589  0.32597770
   0.75007094  0.00035067  0.32617391
   0.75098418  0.50008589  0.32597770
   0.00000000  0.00012575  0.39144586
   0.00000000  0.50043488  0.39158366
   0.50000000 -0.00173803  0.39160510
   0.50000000  0.49864942  0.38998504
   0.25047880  0.25067953  0.39176619
   0.25045110  0.74992635  0.39170532
   0.74952120  0.25067953  0.39176619
   0.74954890  0.74992635  0.39170532
   0.00000000  0.24957754  0.45470000
   0.00000000  0.74993598  0.45455436
   0.50000000  0.24308702  0.45365487
   0.50000000  0.75627125  0.45466095
   0.25002185  0.00005786  0.45471207
   0.24214082  0.49805648  0.45357707
   0.74997815  0.00005786  0.45471207
   0.75785918  0.49805648  0.45357707
   0.50000000  0.49851296  0.50248856
   0.50000000  0.58041777  0.52271880
Direct configuration=     7
   0.00000000 -0.00011607  0.00297470
   0.00000000  0.50019249  0.00301609
   0.50000000  0.00017084  0.00299825
   0.50000000  0.49977922  0.00299573
   0.25048308  0.25025244  0.00306882
   0.25014727  0.74973019  0.00310622
   0.74951692  0.25025244  0.00306882
   0.74985273  0.74973019  0.00310622
   0.00000000  0.24999367  0.06567759
   0.00000000  0.74991885  0.06565994
   0.50000000  0.24993947  0.06561465
   0.50000000  0.75057874  0.06566733
   0.25005260 -0.00014890  0.06567030
   0.24970429  0.49992801  0.06562869
   0.74994740 -0.00014890  0.06567030
   0.75029571  0.49992801  0.06562869
   0.00000000 -0.00023757  0.13134705
   0.00000000  0.50008755  0.13129240
   0.50000000 -0.00003827  0.13128851
   0.50000000  0.49977532  0.13097437
   0.25047237  0.25037658  0.13136588
   0.25019370  0.74981758  0.13133760
   0.74952763  0.25037658  0.13136588
   0.74980630  0.74981758  0.13133760
   0.00000000  0.25013736  0.19682851
   0.00000000  0.74977945  0.19706289
   0.50000000  0.25055804  0.19696570
   0.50000000  0.74951678  0.19679219
   0.25022004 -0.00020025  0.19695087
   0.25053441  0.50020767  0.19687796
   0.74977996 -0.00020025  0.19695087
   0.74946559  0.50020767  0.19687796
   0.00000000  0.00018506  0.26155909
   0.00000000  0.49976918  0.26116248
   0.50000000 -0.00036116  0.26117379
   0.50000000  0.49970612  0.26193019
   0.24995472  0.25016835  0.26157273
   0.25019714  0.75016477  0.26175243
   0.75004528  0.25016835  0.26157273
   0.74980286  0.75016477  0.26175243
   0.00000000  0.24993374  0.32608846
   0.00000000  0.75005469  0.32593563
   0.50000000  0.24796405  0.32573396
   0.50000000  0.75075356  0.32581648
   0.24990020  0.00040452  0.32605970
   0.24862480  0.50005682  0.32576753
   0.75009980  0.00040452  0.32605970
   0.75137520  0.50005682  0.32576753
   0.00000000  0.00015338  0.39109171
   0.00000000  0.50051076  0.39079466
   0.50000000 -0.00216214  0.39098877
   0.50000000  0.49882638  0.38978256
   0.25034472  0.25024292  0.39126893
   0.25059044  0.74988065  0.39133616
   0.74965528  0.25024292  0.39126893
   0.74940956  0.74988065  0.39133616
   0.00000000  0.24843041  0.45457877
   0.00000000  0.75064374  0.45438875
   0.50000000  0.24289638  0.45335925
   0.50000000  0.75590407  0.45453651
   0.24932782  0.00002514  0.45459572
   0.24194812  0.49783533  0.45328311
   0.75067218  0.00002514  0.45459572
   0.75805188  0.49783533  0.45328311
   0.50000000  0.50224285  0.50394372
   0.50000000  0.57968811  0.52258594
Direct configuration=     8
   0.00000000 -0.00011312  0.00305001
   0.00000000  0.50019064  0.00308981
   0.50000000  0.00017226  0.00307134
   0.50000000  0.49978763  0.00307086
   0.25048443  0.25025152  0.00314471
   0.25015531  0.74972362  0.00318260
   0.74951557  0.25025152  0.00314471
   0.74984469  0.74972362  0.00318260
   0.00000000  0.24998151  0.06573596
   0.00000000  0.74992009  0.06571943
   0.50000000  0.24992872  0.06567248
   0.50000000  0.75057589  0.06572325
   0.25004543 -0.00014173  0.06572905
   0.24970018  0.49993116  0.06568557
   0.74995457 -0.00014173  0.06572905
   0.75029982  0.49993116  0.06568557
   0.00000000 -0.00023797  0.13135339
   0.00000000  0.50009217  0.13129947
   0.50000000 -0.00002896  0.13129558
   0.50000000  0.49977825  0.13096955
   0.25047386  0.25036992  0.13137128
   0.25018895  0.74981375  0.13134230
   0.74952614  0.25036992  0.13137128
   0.74981105  0.74981375  0.13134230
   0.00000000  0.25013255  0.19680973
   0.00000000  0.74977860  0.19705117
   0.50000000  0.25056768  0.19695211
   0.50000000  0.74949220  0.19677748
   0.25021845 -0.00020111  0.19693580
   0.25055102  0.50021700  0.19686364
   0.74978155 -0.00020111  0.19693580
   0.74944898  0.50021700  0.19686364
   0.00000000  0.00019405  0.26152407
   0.00000000  0.49976430  0.26111759
   0.50000000 -0.00036894  0.26112967
   0.50000000  0.49970773  0.26190274
   0.24994617  0.25016326  0.26153359
   0.25020064  0.75016786  0.26171608
   0.75005383  0.25016326  0.26153359
   0.74979936  0.75016786  0.26171608
   0.00000000  0.24993469  0.32607434
   0.00000000  0.75006389  0.32591853
   0.50000000  0.24788806  0.32570673
   0.50000000  0.75078433  0.32579060
   0.24989642  0.00041157  0.32604474
   0.24857355  0.50005301  0.32573999
   0.75010358  0.00041157  0.32604474
   0.75142645  0.50005301  0.32573999
   0.00000000  0.00015700  0.39104530
   0.00000000  0.50052071  0.39069126
   0.50000000 -0.00221773  0.39090799
   0.50000000  0.49884957  0.38975603
   0.25032715  0.25018569  0.39120376
   0.25060871  0.74987466  0.39128778
   0.74967285  0.25018569  0.39120376
   0.74939129  0.74987466  0.39128778
   0.00000000  0.24828007  0.45456288
   0.00000000  0.75073649  0.45436705
   0.50000000  0.24287140  0.45332050
   0.50000000  0.75585595  0.45452020
   0.24923686  0.00002085  0.45458047
   0.24192286  0.49780634  0.45324458
   0.75076314  0.00002085  0.45458047
   0.75807714  0.49780634  0.45324458
   0.50000000  0.50273168  0.50413442
   0.50000000  0.57959249  0.52256853
Direct configuration=     9
   0.00000000 -0.00009771  0.00331279
   0.00000000  0.50016896  0.00334321
   0.50000000  0.00016692  0.00332287
   0.50000000  0.49983449  0.00333322
   0.25046244  0.25023380  0.00340531
   0.25018113  0.74971209  0.00344307
   0.74953756  0.25023380  0.00340531
   0.74981887  0.74971209  0.00344307
   0.00000000  0.24993200  0.06603571
   0.00000000  0.74993046  0.06602360
   0.50000000  0.24987880  0.06597010
   0.50000000  0.75054536  0.06601101
   0.25001298 -0.00010578  0.06603000
   0.24968890  0.49994374  0.06597896
   0.74998702 -0.00010578  0.06603000
   0.75031110  0.49994374  0.06597896
   0.00000000 -0.00023255  0.13142078
   0.00000000  0.50010396  0.13137319
   0.50000000  0.00000701  0.13136972
   0.50000000  0.49980170  0.13100039
   0.25045532  0.25032539  0.13143251
   0.25015947  0.74980787  0.13140174
   0.74954468  0.25032539  0.13143251
   0.74984053  0.74980787  0.13140174
   0.00000000  0.25010259  0.19670559
   0.00000000  0.74979274  0.19696953
   0.50000000  0.25059397  0.19686557
   0.50000000  0.74939871  0.19669422
   0.25019658 -0.00019932  0.19684316
   0.25060839  0.50024550  0.19677750
   0.74980342 -0.00019932  0.19684316
   0.74939161  0.50024550  0.19677750
   0.00000000  0.00022609  0.26136418
   0.00000000  0.49975219  0.26092608
   0.50000000 -0.00039128  0.26094183
   0.50000000  0.49971936  0.26176462
   0.24990452  0.25012655  0.26135182
   0.25020012  0.75017925  0.26153840
   0.75009548  0.25012655  0.26135182
   0.74979988  0.75017925  0.26153840
   0.00000000  0.24990645  0.32602532
   0.00000000  0.75014724  0.32586986
   0.50000000  0.24769387  0.32562628
   0.50000000  0.75083654  0.32570746
   0.24985674  0.00039919  0.32599658
   0.24847160  0.50002847  0.32565169
   0.75014326  0.00039919  0.32599658
   0.75152840  0.50002847  0.32565169
   0.00000000  0.00013389  0.39084211
   0.00000000  0.50052622  0.39026616
   0.50000000 -0.00238218  0.39058337
   0.50000000  0.49898334  0.38971693
   0.25024414  0.24991742  0.39091787
   0.25066195  0.74984106  0.39107862
   0.74975586  0.24991742  0.39091787
   0.74933805  0.74984106  0.39107862
   0.00000000  0.24769987  0.45445424
   0.00000000  0.75108110  0.45423992
   0.50000000  0.24296221  0.45313429
   0.50000000  0.75545704  0.45437687
   0.24889806 -0.00001547  0.45447844
   0.24203366  0.49773657  0.45306059
   0.75110194 -0.00001547  0.45447844
   0.75796634  0.49773657  0.45306059
   0.50000000  0.50294973  0.50451990
   0.50000000  0.58107688  0.52300849
Direct configuration=    10
   0.00000000 -0.00005150  0.00410113
   0.00000000  0.50010393  0.00410344
   0.50000000  0.00015088  0.00407746
   0.50000000  0.49997506  0.00412030
   0.25039648  0.25018066  0.00418711
   0.25025859  0.74967747  0.00422447
   0.74960352  0.25018066  0.00418711
   0.74974141  0.74967747  0.00422447
   0.00000000  0.24978348  0.06693496
   0.00000000  0.74996156  0.06693611
   0.50000000  0.24972905  0.06686298
   0.50000000  0.75045376  0.06687431
   0.24991566  0.00000209  0.06693286
   0.24965507  0.49998148  0.06685912
   0.75008434  0.00000209  0.06693286
   0.75034493  0.49998148  0.06685912
   0.00000000 -0.00021630  0.13162293
   0.00000000  0.50013933  0.13159434
   0.50000000  0.00011492  0.13159213
   0.50000000  0.49987207  0.13109293
   0.25039972  0.25019178  0.13161621
   0.25007101  0.74979022  0.13158007
   0.74960028  0.25019178  0.13161621
   0.74992899  0.74979022  0.13158007
   0.00000000  0.25001268  0.19639318
   0.00000000  0.74983517  0.19672460
   0.50000000  0.25067284  0.19660594
   0.50000000  0.74911822  0.19644443
   0.25013098 -0.00019393  0.19656526
   0.25078051  0.50033100  0.19651909
   0.74986902 -0.00019393  0.19656526
   0.74921949  0.50033100  0.19651909
   0.00000000  0.00032219  0.26088449
   0.00000000  0.49971587  0.26035157
   0.50000000 -0.00045830  0.26037829
   0.50000000  0.49975424  0.26135028
   0.24977957  0.25001643  0.26080651
   0.25019859  0.75021345  0.26100536
   0.75022043  0.25001643  0.26080651
   0.74980141  0.75021345  0.26100536
   0.00000000  0.24982175  0.32587827
   0.00000000  0.75039727  0.32572385
   0.50000000  0.24711132  0.32538494
   0.50000000  0.75099317  0.32545801
   0.24973769  0.00036203  0.32585210
   0.24816576  0.49995485  0.32538679
   0.75026231  0.00036203  0.32585210
   0.75183424  0.49995485  0.32538679
   0.00000000  0.00006455  0.39023254
   0.00000000  0.50054274  0.38899087
   0.50000000 -0.00287555  0.38960951
   0.50000000  0.49938468  0.38959963
   0.24999512  0.24911259  0.39006021
   0.25082168  0.74974027  0.39045112
   0.75000488  0.24911259  0.39006021
   0.74917832  0.74974027  0.39045112
   0.00000000  0.24595926  0.45412832
   0.00000000  0.75211494  0.45385853
   0.50000000  0.24323467  0.45257565
   0.50000000  0.75426030  0.45394687
   0.24788165 -0.00012443  0.45417235
   0.24236606  0.49752725  0.45250861
   0.75211835 -0.00012443  0.45417235
   0.75763394  0.49752725  0.45250861
   0.50000000  0.50360391  0.50567634
   0.50000000  0.58553007  0.52432836
Direct configuration=    11
   0.00000000  0.00004093  0.00567781
   0.00000000  0.49997385  0.00562389
   0.50000000  0.00011882  0.00558663
   0.50000000  0.50025621  0.00569447
   0.25026457  0.25007436  0.00575070
   0.25041351  0.74960824  0.00578727
   0.74973543  0.25007436  0.00575070
   0.74958649  0.74960824  0.00578727
   0.00000000  0.24948643  0.06873345
   0.00000000  0.75002376  0.06876114
   0.50000000  0.24942955  0.06864873
   0.50000000  0.75027056  0.06860091
   0.24972102  0.00021781  0.06873858
   0.24958741  0.50005695  0.06861944
   0.75027898  0.00021781  0.06873858
   0.75041259  0.50005695  0.06861944
   0.00000000 -0.00018381  0.13202725
   0.00000000  0.50021007  0.13203663
   0.50000000  0.00033075  0.13203695
   0.50000000  0.50001280  0.13127800
   0.25028852  0.24992457  0.13198360
   0.24989409  0.74975492  0.13193671
   0.74971148  0.24992457  0.13198360
   0.75010591  0.74975492  0.13193671
   0.00000000  0.24983288  0.19576835
   0.00000000  0.74992002  0.19623474
   0.50000000  0.25083059  0.19608670
   0.50000000  0.74855725  0.19594485
   0.24999977 -0.00018316  0.19600944
   0.25112473  0.50050200  0.19600226
   0.75000023 -0.00018316  0.19600944
   0.74887527  0.50050200  0.19600226
   0.00000000  0.00051441  0.25992513
   0.00000000  0.49964324  0.25920254
   0.50000000 -0.00059233  0.25925121
   0.50000000  0.49982402  0.26052160
   0.24952967  0.24979617  0.25971588
   0.25019553  0.75028183  0.25993927
   0.75047033  0.24979617  0.25971588
   0.74980447  0.75028183  0.25993927
   0.00000000  0.24965233  0.32558417
   0.00000000  0.75089735  0.32543183
   0.50000000  0.24594621  0.32490225
   0.50000000  0.75130642  0.32495913
   0.24949958  0.00028771  0.32556316
   0.24755408  0.49980761  0.32485700
   0.75050042  0.00028771  0.32556316
   0.75244592  0.49980761  0.32485700
   0.00000000 -0.00007413  0.38901340
   0.00000000  0.50057580  0.38644029
   0.50000000 -0.00386228  0.38766178
   0.50000000  0.50018735  0.38936504
   0.24949706  0.24750294  0.38834487
   0.25114114  0.74953870  0.38919612
   0.75050294  0.24750294  0.38834487
   0.74885886  0.74953870  0.38919612
   0.00000000  0.24247804  0.45347650
   0.00000000  0.75418260  0.45309576
   0.50000000  0.24377957  0.45145837
   0.50000000  0.75186683  0.45308687
   0.24584884 -0.00034236  0.45356016
   0.24303086  0.49710860  0.45140466
   0.75415116 -0.00034236  0.45356016
   0.75696914  0.49710860  0.45140466
   0.50000000  0.50491227  0.50798922
   0.50000000  0.59443645  0.52696811
Direct configuration=    12
   0.00000000 -0.00001985  0.00464095
   0.00000000  0.50005939  0.00462401
   0.50000000  0.00013990  0.00459416
   0.50000000  0.50007132  0.00465926
   0.25035132  0.25014426  0.00472244
   0.25031163  0.74965377  0.00475954
   0.74964868  0.25014426  0.00472244
   0.74968837  0.74965377  0.00475954
   0.00000000  0.24968178  0.06755072
   0.00000000  0.74998286  0.06756096
   0.50000000  0.24962651  0.06747437
   0.50000000  0.75039104  0.06746546
   0.24984902  0.00007595  0.06755110
   0.24963190  0.50000732  0.06746181
   0.75015098  0.00007595  0.06755110
   0.75036810  0.50000732  0.06746181
   0.00000000 -0.00020518  0.13176136
   0.00000000  0.50016355  0.13174577
   0.50000000  0.00018882  0.13174443
   0.50000000  0.49992025  0.13115629
   0.25036165  0.25010029  0.13174199
   0.25001043  0.74977813  0.13170217
   0.74963835  0.25010029  0.13174199
   0.74998957  0.74977813  0.13170217
   0.00000000  0.24995112  0.19617925
   0.00000000  0.74986422  0.19655688
   0.50000000  0.25072685  0.19642817
   0.50000000  0.74892616  0.19627339
   0.25008605 -0.00019024  0.19637496
   0.25089836  0.50038955  0.19634214
   0.74991395 -0.00019024  0.19637496
   0.74910164  0.50038955  0.19634214
   0.00000000  0.00038800  0.26055603
   0.00000000  0.49969101  0.25995817
   0.50000000 -0.00050419  0.25999240
   0.50000000  0.49977813  0.26106656
   0.24969401  0.24994102  0.26043310
   0.25019754  0.75023686  0.26064035
   0.75030599  0.24994102  0.26043310
   0.74980246  0.75023686  0.26064035
   0.00000000  0.24976374  0.32577758
   0.00000000  0.75056849  0.32562387
   0.50000000  0.24671241  0.32521968
   0.50000000  0.75110042  0.32528721
   0.24965617  0.00033659  0.32575318
   0.24795634  0.49990444  0.32520540
   0.75034383  0.00033659  0.32575318
   0.75204366  0.49990444  0.32520540
   0.00000000  0.00001707  0.38981513