       N       E                     dE             d eps       ncg     rms          rms(c)
DAV:   1     0.155450430420E+05    0.15545E+05   -0.56115E+05 16392   0.190E+03
DAV:   2     0.226460105620E+04   -0.13280E+05   -0.12709E+05 16384   0.452E+02
DAV:   3    -0.387710991888E+03   -0.26523E+04   -0.24001E+04 16384   0.233E+02
DAV:   4    -0.609163576925E+03   -0.22145E+03   -0.21031E+03 17848   0.947E+01
DAV:   5    -0.615133583062E+03   -0.59700E+01   -0.59366E+01 18144   0.158E+01    0.112E+02
DAV:   6    -0.499197071160E+03    0.11594E+03   -0.13747E+03 17760   0.123E+02    0.555E+01
DAV:   7    -0.441343005662E+03    0.57854E+02   -0.32089E+02 17904   0.803E+01    0.296E+01
DAV:   8    -0.441667244161E+03   -0.32424E+00   -0.95452E+01 19056   0.964E+01    0.320E+01
DAV:   9    -0.434855909640E+03    0.68113E+01   -0.30224E+01 21376   0.727E+01    0.272E+01
DAV:  10    -0.430127042749E+03    0.47289E+01   -0.23578E+01 23816   0.533E+01    0.232E+01
DAV:  11    -0.432367698155E+03   -0.22407E+01   -0.10302E+01 27696   0.406E+01    0.210E+01
DAV:  12    -0.442547517830E+03   -0.10180E+02   -0.40573E+01 18440   0.376E+01    0.195E+01
DAV:  13    -0.445846602112E+03   -0.32991E+01   -0.12572E+01 19064   0.219E+01    0.146E+01
DAV:  14    -0.456357235323E+03   -0.10511E+02   -0.16107E+01 18232   0.244E+01    0.863E+00
DAV:  15    -0.467625733587E+03   -0.11268E+02   -0.11625E+01 19912   0.277E+01    0.686E+00
DAV:  16    -0.489714898522E+03   -0.22089E+02   -0.20114E+01 22072   0.125E+01    0.488E+00
DAV:  17    -0.495239501510E+03   -0.55246E+01   -0.50536E+00 18288   0.696E+00    0.339E+00
DAV:  18    -0.499043020700E+03   -0.38035E+01   -0.21607E+00 18056   0.464E+00    0.278E+00
DAV:  19    -0.505050345926E+03   -0.60073E+01   -0.29430E+00 21856   0.370E+00    0.249E+00
DAV:  20    -0.510656831123E+03   -0.56065E+01   -0.32236E+00 18520   0.328E+00    0.208E+00
DAV:  21    -0.513273000679E+03   -0.26162E+01   -0.12409E+00 22856   0.342E+00    0.186E+00
DAV:  22    -0.515600666820E+03   -0.23277E+01   -0.11839E+00 19536   0.351E+00    0.143E+00
DAV:  23    -0.516794520107E+03   -0.11939E+01   -0.20839E-01 19176   0.209E+00    0.124E+00
DAV:  24    -0.518210530577E+03   -0.14160E+01   -0.41529E-01 20224   0.230E+00    0.950E-01
DAV:  25    -0.519094618609E+03   -0.88409E+00   -0.10042E-01 18544   0.198E+00    0.706E-01
DAV:  26    -0.519791442235E+03   -0.69682E+00   -0.50884E-02 18752   0.131E+00    0.506E-01
DAV:  27    -0.520614530277E+03   -0.82309E+00   -0.28174E-02 18752   0.105E+00    0.318E-01
DAV:  28    -0.521290452741E+03   -0.67592E+00   -0.15590E-02 18176   0.718E-01    0.291E-01
DAV:  29    -0.521395750810E+03   -0.10530E+00   -0.63177E-03 18336   0.550E-01    0.149E-01
DAV:  30    -0.521428635413E+03   -0.32885E-01   -0.42310E-03 19112   0.335E-01    0.119E-01
DAV:  31    -0.521443972695E+03   -0.15337E-01   -0.14273E-03 18048   0.192E-01    0.488E-02
DAV:  32    -0.521445255647E+03   -0.12830E-02   -0.41159E-04 12608   0.988E-02    0.347E-02
DAV:  33    -0.521445706946E+03   -0.45130E-03   -0.18370E-04 11128   0.717E-02    0.225E-02
DAV:  34    -0.521445784195E+03   -0.77249E-04   -0.11423E-04 10960   0.459E-02
   1 F= -.58179552E+03 E0= -.58183218E+03  d E =-.581796E+03  mag=     0.0030
       N       E                     dE             d eps       ncg     rms          rms(c)
DAV:   1    -0.521460262714E+03   -0.14556E-01   -0.65754E+01 17384   0.729E+00    0.151E+00
DAV:   2    -0.521590153696E+03   -0.12989E+00   -0.15983E+00 24160   0.367E+00    0.131E+00
DAV:   3    -0.521579457637E+03    0.10696E-01   -0.12193E-01 18424   0.320E+00    0.817E-01
DAV:   4    -0.521599820521E+03   -0.20363E-01   -0.33551E-02 19296   0.391E+00    0.824E-01
DAV:   5    -0.521579713777E+03    0.20107E-01   -0.36118E-02 23992   0.448E+00    0.380E-01
DAV:   6    -0.521574300835E+03    0.54129E-02   -0.16798E-02 28744   0.186E+00    0.179E-01
DAV:   7    -0.521574079289E+03    0.22155E-03   -0.79158E-03 23688   0.869E-01    0.956E-02
DAV:   8    -0.521574427175E+03   -0.34789E-03   -0.60904E-03 17912   0.416E-01    0.727E-02
DAV:   9    -0.521574550618E+03   -0.12344E-03   -0.18589E-03 17040   0.164E-01
   2 F= -.58193794E+03 E0= -.58197419E+03  d E =-.142426E+00  mag=     0.0020
       N       E                     dE             d eps       ncg     rms          rms(c)
DAV:   1    -0.521627205402E+03   -0.52778E-01   -0.11110E+01 16920   0.316E+00    0.481E-01
DAV:   2    -0.521657786215E+03   -0.30581E-01   -0.33229E-01 23864   0.902E-01    0.434E-01
DAV:   3    -0.521657280841E+03    0.50537E-03   -0.13626E-02 18760   0.807E-01    0.321E-01
DAV:   4    -0.521657416906E+03   -0.13606E-03   -0.41421E-03 19432   0.974E-01    0.235E-01
DAV:   5    -0.521662072364E+03   -0.46555E-02   -0.76091E-03 19336   0.198E+00    0.344E-01
DAV:   6    -0.521656293243E+03    0.57791E-02   -0.31700E-03 17872   0.147E+00    0.743E-02
DAV:   7    -0.521656192898E+03    0.10035E-03   -0.87088E-04 17736   0.301E-01
   3 F= -.58200695E+03 E0= -.58204331E+03  d E =-.211428E+00  mag=     0.0014
       N       E                     dE             d eps       ncg     rms          rms(c)
DAV:   1    -0.521709287846E+03   -0.52995E-01   -0.17710E+01 17304   0.427E+00    0.381E-01
DAV:   2    -0.521745424008E+03   -0.36136E-01   -0.37502E-01 24248   0.149E+00    0.451E-01
DAV:   3    -0.521745754562E+03   -0.33055E-03   -0.23131E-02 18120   0.148E+00    0.343E-01
DAV:   4    -0.521744962261E+03    0.79230E-03   -0.60756E-03 18368   0.117E+00    0.277E-01
DAV:   5    -0.521744140743E+03    0.82152E-03   -0.27015E-03 21040   0.706E-01    0.211E-01
DAV:   6    -0.521744269562E+03   -0.12882E-03   -0.39319E-03 25056   0.837E-01    0.176E-01
DAV:   7    -0.521743484311E+03    0.78525E-03   -0.21532E-03 19992   0.620E-01    0.447E-02
DAV:   8    -0.521743556126E+03   -0.71815E-04   -0.12492E-03 16504   0.159E-01
   4 F= -.58209124E+03 E0= -.58212724E+03  d E =-.842898E-01  mag=     0.0009
       N       E                     dE             d eps       ncg     rms          rms(c)
DAV:   1    -0.521739604449E+03    0.38799E-02   -0.28084E+01 17344   0.538E+00    0.465E-01
DAV:   2    -0.521797759944E+03   -0.58155E-01   -0.60241E-01 24304   0.183E+00    0.551E-01
DAV:   3    -0.521798252783E+03   -0.49284E-03   -0.33470E-02 18320   0.178E+00    0.418E-01
DAV:   4    -0.521797189098E+03    0.10637E-02   -0.99999E-03 18408   0.148E+00    0.342E-01
DAV:   5    -0.521795883354E+03    0.13057E-02   -0.42521E-03 25272   0.882E-01    0.261E-01
DAV:   6    -0.521795914428E+03   -0.31074E-04   -0.52480E-03 25808   0.973E-01    0.206E-01
DAV:   7    -0.521794822640E+03    0.10918E-02   -0.31256E-03 20328   0.763E-01    0.584E-02
DAV:   8    -0.521794933889E+03   -0.11125E-03   -0.19787E-03 17688   0.203E-01
   5 F= -.58213932E+03 E0= -.58217483E+03  d E =-.132377E+00  mag=     0.0006
       N       E                     dE             d eps       ncg     rms          rms(c)
DAV:   1    -0.521793972109E+03    0.85053E-03   -0.26567E+00 17296   0.166E+00    0.137E-01
DAV:   2    -0.521799505022E+03   -0.55329E-02   -0.55769E-02 24360   0.605E-01    0.166E-01
DAV:   3    -0.521799648261E+03   -0.14324E-03   -0.36924E-03 18088   0.686E-01    0.132E-01
DAV:   4    -0.521799422111E+03    0.22615E-03   -0.12279E-03 16912   0.480E-01    0.977E-02
DAV:   5    -0.521799347584E+03    0.74527E-04   -0.45926E-04 10656   0.224E-01
   6 F= -.58214282E+03 E0= -.58217820E+03  d E =-.135875E+00  mag=     0.0004
       N       E                     dE             d eps       ncg     rms          rms(c)
DAV:   1    -0.521812140089E+03   -0.12718E-01   -0.91980E+00 17560   0.304E+00    0.232E-01
DAV:   2    -0.521830788867E+03   -0.18649E-01   -0.17908E-01 25912   0.130E+00    0.343E-01
DAV:   3    -0.521830209773E+03    0.57909E-03   -0.13771E-02 18296   0.133E+00    0.238E-01
DAV:   4    -0.521829729378E+03    0.48040E-03   -0.45671E-03 18128   0.755E-01    0.189E-01
DAV:   5    -0.521829608846E+03    0.12053E-03   -0.24157E-03 17608   0.385E-01    0.161E-01
DAV:   6    -0.521829381679E+03    0.22717E-03   -0.23004E-03 18368   0.506E-01    0.127E-01
DAV:   7    -0.521829167502E+03    0.21418E-03   -0.15512E-03 18008   0.352E-01    0.160E-02
DAV:   8    -0.521829223474E+03   -0.55971E-04   -0.61086E-04 13440   0.929E-02
   7 F= -.58216839E+03 E0= -.58220389E+03  d E =-.255701E-01  mag=     0.0003
       N       E                     dE             d eps       ncg     rms          rms(c)
DAV:   1    -0.521802441214E+03    0.26726E-01   -0.26440E+01 17536   0.515E+00    0.388E-01
DAV:   2    -0.521856733920E+03   -0.54293E-01   -0.54993E-01 23960   0.173E+00    0.520E-01
DAV:   3    -0.521856516762E+03    0.21716E-03   -0.24274E-02 18488   0.165E+00    0.372E-01
DAV:   4    -0.521855424599E+03    0.10922E-02   -0.65415E-03 19000   0.125E+00    0.318E-01
DAV:   5    -0.521854254995E+03    0.11696E-02   -0.36208E-03 23960   0.661E-01    0.256E-01
DAV:   6    -0.521853257713E+03    0.99728E-03   -0.65161E-03 25176   0.473E-01    0.926E-02
DAV:   7    -0.521853278181E+03   -0.20468E-04   -0.14947E-03 17456   0.309E-01
   8 F= -.58218549E+03 E0= -.58222139E+03  d E =-.426669E-01  mag=     0.0002
       N       E                     dE             d eps       ncg     rms          rms(c)
DAV:   1    -0.521862856778E+03   -0.95991E-02   -0.26320E+00 17376   0.163E+00    0.161E-01
DAV:   2    -0.521867775802E+03   -0.49190E-02   -0.50801E-02 24024   0.500E-01    0.157E-01
DAV:   3    -0.521868083927E+03   -0.30813E-03   -0.35569E-03 17912   0.684E-01    0.148E-01
DAV:   4    -0.521867693269E+03    0.39066E-03   -0.84649E-04 13592   0.530E-01    0.928E-02
DAV:   5    -0.521867599873E+03    0.93396E-04   -0.22832E-04 10848   0.302E-01
   9 F= -.58219819E+03 E0= -.58223418E+03  d E =-.127057E-01  mag=     0.0001
       N       E                     dE             d eps       ncg     rms          rms(c)
DAV:   1    -0.521870344236E+03   -0.26510E-02   -0.32774E+00 17424   0.184E+00    0.178E-01
DAV:   2    -0.521876210162E+03   -0.58659E-02   -0.59811E-02 24688   0.678E-01    0.187E-01
DAV:   3    -0.521876257963E+03   -0.47801E-04   -0.55392E-03 17848   0.681E-01    0.147E-01
DAV:   4    -0.521876195220E+03    0.62743E-04   -0.12637E-03 16656   0.457E-01
  10 F= -.58220507E+03 E0= -.58224104E+03  d E =-.195800E-01  mag=     0.0001
       N       E                     dE             d eps       ncg     rms          rms(c)
DAV:   1    -0.521877165696E+03   -0.90773E-03   -0.37285E-01 23848   0.839E-01    0.135E-01
DAV:   2    -0.521883723772E+03   -0.65581E-02   -0.89563E-03 25232   0.179E+00    0.356E-01
DAV:   3    -0.521877054154E+03    0.66696E-02   -0.44887E-03 18680   0.151E+00    0.833E-02
DAV:   4    -0.521877208036E+03   -0.15388E-03   -0.95105E-04 18536   0.409E-01
  11 F= -.58220553E+03 E0= -.58224191E+03  d E =-.200428E-01  mag=     0.0001
       N       E                     dE             d eps       ncg     rms          rms(c)
DAV:   1    -0.521881314351E+03   -0.42602E-02   -0.86103E-01 17272   0.100E+00    0.903E-02
DAV:   2    -0.521883551084E+03   -0.22367E-02   -0.18771E-02 27064   0.579E-01    0.134E-01
DAV:   3    -0.521883190839E+03    0.36025E-03   -0.25970E-03 20584   0.605E-01    0.799E-02
DAV:   4    -0.521883185529E+03    0.53094E-05   -0.99342E-04 16216   0.218E-01
  12 F= -.58221224E+03 E0= -.58224834E+03  d E =-.670996E-02  mag=     0.0001
       N       E                     dE             d eps       ncg     rms          rms(c)
DAV:   1    -0.521880605157E+03    0.25857E-02   -0.77537E+00 17024   0.282E+00    0.283E-01
DAV:   2    -0.521895772894E+03   -0.15168E-01   -0.16339E-01 23568   0.801E-01    0.282E-01
DAV:   3    -0.521895518932E+03    0.25396E-03   -0.72813E-03 18224   0.567E-01    0.218E-01
DAV:   4    -0.521895408582E+03    0.11035E-03   -0.20024E-03 18440   0.596E-01    0.186E-01
DAV:   5    -0.521896229860E+03   -0.82128E-03   -0.21783E-03 16184   0.104E+00    0.189E-01
DAV:   6    -0.521894841079E+03    0.13888E-02   -0.91781E-04 11600   0.872E-01    0.850E-02
DAV:   7    -0.521894604073E+03    0.23701E-03   -0.43473E-04 12864   0.352E-01    0.518E-02
DAV:   8    -0.521894702989E+03   -0.98915E-04   -0.15119E-03 20520   0.115E-01
  13 F= -.58222595E+03 E0= -.58226209E+03  d E =-.204156E-01  mag=     0.0000
       N       E                     dE             d eps       ncg     rms          rms(c)
DAV:   1    -0.521830402860E+03    0.64201E-01   -0.31041E+01 17000   0.564E+00    0.538E-01
DAV:   2    -0.521892707712E+03   -0.62305E-01   -0.64637E-01 23912   0.198E+00    0.614E-01
DAV:   3    -0.521894549309E+03   -0.18416E-02   -0.40990E-02 18208   0.242E+00    0.496E-01
DAV:   4    -0.521890943816E+03    0.36055E-02   -0.10879E-02 18704   0.184E+00    0.370E-01
DAV:   5    -0.521889283881E+03    0.16599E-02   -0.71024E-03 24384   0.934E-01    0.251E-01
DAV:   6    -0.521888758286E+03    0.52559E-03   -0.93935E-03 22280   0.543E-01    0.802E-02
DAV:   7    -0.521888872997E+03   -0.11471E-03   -0.24840E-03 18624   0.301E-01    0.720E-02
DAV:   8    -0.521888905634E+03   -0.32638E-04   -0.11622E-03 16488   0.210E-01
  14 F= -.58222447E+03 E0= -.58226078E+03  d E =-.189375E-01  mag=     0.0000
       N       E                     dE             d eps       ncg     rms          rms(c)
DAV:   1    -0.521879968792E+03    0.89042E-02   -0.92964E+00 16984   0.308E+00    0.298E-01
DAV:   2    -0.521897934482E+03   -0.17966E-01   -0.19063E-01 23696   0.101E+00    0.327E-01
DAV:   3    -0.521898239201E+03   -0.30472E-03   -0.12347E-02 18072   0.111E+00    0.270E-01
DAV:   4    -0.521897681387E+03    0.55781E-03   -0.37008E-03 18384   0.986E-01    0.213E-01
DAV:   5    -0.521896932060E+03    0.74933E-03   -0.12111E-03 15632   0.585E-01    0.143E-01
DAV:   6    -0.521896784645E+03    0.14741E-03   -0.25967E-03 25304   0.415E-01    0.793E-02
DAV:   7    -0.521896739811E+03    0.44834E-04   -0.88773E-04 16000   0.341E-01
  15 F= -.58222995E+03 E0= -.58226634E+03  d E =-.244185E-01  mag=     0.0000
       N       E                     dE             d eps       ncg     rms          rms(c)
DAV:   1    -0.521896035559E+03    0.74909E-03   -0.11405E+00 16792   0.107E+00    0.122E-01
DAV:   2    -0.521898364014E+03   -0.23285E-02   -0.25081E-02 24144   0.395E-01    0.134E-01
DAV:   3    -0.521898392821E+03   -0.28807E-04   -0.16309E-03 17912   0.476E-01
  16 F= -.58223541E+03 E0= -.58227185E+03  d E =-.546548E-02  mag=     0.0000
       N       E                     dE             d eps       ncg     rms          rms(c)
DAV:   1    -0.521888260348E+03    0.10104E-01   -0.45967E+00 16832   0.217E+00    0.286E-01
DAV:   2    -0.521897713748E+03   -0.94534E-02   -0.93051E-02 26768   0.101E+00    0.294E-01
DAV:   3    -0.521897922262E+03   -0.20851E-03   -0.10528E-02 18608   0.145E+00    0.280E-01
DAV:   4    -0.521896560868E+03    0.13614E-02   -0.36453E-03 18016   0.796E-01    0.166E-01
DAV:   5    -0.521896737009E+03   -0.17614E-03   -0.28253E-03 19976   0.652E-01    0.151E-01
DAV:   6    -0.521896473973E+03    0.26304E-03   -0.25394E-03 19208   0.620E-01    0.797E-02
DAV:   7    -0.521896444495E+03    0.29477E-04   -0.12438E-03 17320   0.272E-01
  17 F= -.58224108E+03 E0= -.58227746E+03  d E =-.111264E-01  mag=     0.0000
       N       E                     dE             d eps       ncg     rms          rms(c)
DAV:   1    -0.521894387001E+03    0.20870E-02   -0.74265E-01 16688   0.848E-01    0.110E-01
DAV:   2    -0.521895896480E+03   -0.15095E-02   -0.16270E-02 23952   0.245E-01    0.936E-02
DAV:   3    -0.521895916273E+03   -0.19793E-04   -0.81070E-04 15720   0.259E-01
  18 F= -.58224525E+03 E0= -.58228171E+03  d E =-.417388E-02  mag=     0.0000
       N       E                     dE             d eps       ncg     rms          rms(c)
DAV:   1    -0.521893269357E+03    0.26271E-02   -0.37425E-01 19784   0.702E-01    0.121E-01
DAV:   2    -0.521898003995E+03   -0.47346E-02   -0.73816E-03 24064   0.147E+00    0.286E-01
DAV:   3    -0.521893502137E+03    0.45019E-02   -0.34867E-03 21240   0.127E+00    0.775E-02
DAV:   4    -0.521893602011E+03   -0.99874E-04   -0.14684E-03 19392   0.170E-01
  19 F= -.58224629E+03 E0= -.58228276E+03  d E =-.521550E-02  mag=     0.0000
       N       E                     dE             d eps       ncg     rms          rms(c)
DAV:   1    -0.521892385487E+03    0.11167E-02   -0.52421E-02 23712   0.317E-01    0.443E-02
DAV:   2    -0.521892502651E+03   -0.11716E-03   -0.79737E-04 14800   0.296E-01
  20 F= -.58224645E+03 E0= -.58228278E+03  d E =-.537736E-02  mag=     0.0000
       N       E                     dE             d eps       ncg     rms          rms(c)
DAV:   1    -0.521887307206E+03    0.50783E-02   -0.95886E-01 16808   0.986E-01    0.112E-01
DAV:   2    -0.521889228555E+03   -0.19213E-02   -0.20219E-02 23600   0.336E-01    0.113E-01
DAV:   3    -0.521889272981E+03   -0.44425E-04   -0.16166E-03 16856   0.375E-01
  21 F= -.58224936E+03 E0= -.58228610E+03  d E =-.290659E-02  mag=     0.0000
       N       E                     dE             d eps       ncg     rms          rms(c)
DAV:   1    -0.521868890985E+03    0.20338E-01   -0.57999E+00 16752   0.238E+00    0.294E-01
DAV:   2    -0.521880265016E+03   -0.11374E-01   -0.11117E-01 25648   0.109E+00    0.321E-01
DAV:   3    -0.521880380172E+03   -0.11516E-03   -0.12114E-02 18320   0.148E+00    0.295E-01
DAV:   4    -0.521879141205E+03    0.12390E-02   -0.39481E-03 17792   0.876E-01    0.185E-01
DAV:   5    -0.521879207964E+03   -0.66759E-04   -0.29813E-03 20856   0.634E-01    0.150E-01
DAV:   6    -0.521879081871E+03    0.12609E-03   -0.28880E-03 21688   0.668E-01    0.107E-01
DAV:   7    -0.521878930659E+03    0.15121E-03   -0.10683E-03 17296   0.347E-01
  22 F= -.58225407E+03 E0= -.58229094E+03  d E =-.762067E-02  mag=     0.0000
       N       E                     dE             d eps       ncg     rms          rms(c)
DAV:   1    -0.521805145522E+03    0.73936E-01   -0.23194E+01 16736   0.469E+00    0.513E-01
DAV:   2    -0.521852088809E+03   -0.46943E-01   -0.49158E-01 23448   0.172E+00    0.548E-01
DAV:   3    -0.521852228354E+03   -0.13955E-03   -0.27745E-02 17792   0.172E+00    0.411E-01
DAV:   4    -0.521851722165E+03    0.50619E-03   -0.86776E-03 18648   0.161E+00    0.363E-01
DAV:   5    -0.521850231057E+03    0.14911E-02   -0.40416E-03 23056   0.121E+00    0.261E-01
DAV:   6    -0.521850167725E+03    0.63333E-04   -0.52163E-03 29280   0.106E+00    0.193E-01
DAV:   7    -0.521849265447E+03    0.90228E-03   -0.31777E-03 19816   0.731E-01    0.507E-02
DAV:   8    -0.521849456542E+03   -0.19110E-03   -0.24449E-03 17200   0.145E-01    0.327E-02
DAV:   9    -0.521849454336E+03    0.22053E-05   -0.26335E-04 10560   0.855E-02
  23 F= -.58225467E+03 E0= -.58229196E+03  d E =-.821653E-02  mag=     0.0000
       N       E                     dE             d eps       ncg     rms          rms(c)
DAV:   1    -0.521854914937E+03   -0.54584E-02   -0.76577E+00 16720   0.269E+00    0.293E-01
DAV:   2    -0.521868954006E+03   -0.14039E-01   -0.15083E-01 23456   0.777E-01    0.287E-01
DAV:   3    -0.521868733567E+03    0.22044E-03   -0.78443E-03 17840   0.671E-01    0.229E-01
DAV:   4    -0.521868864240E+03   -0.13067E-03   -0.20659E-03 18232   0.809E-01    0.197E-01
DAV:   5    -0.521868424281E+03    0.43996E-03   -0.11312E-03 16376   0.837E-01    0.141E-01
DAV:   6    -0.521867932161E+03    0.49212E-03   -0.81915E-04 15632   0.524E-01    0.630E-02
DAV:   7    -0.521867922747E+03    0.94138E-05   -0.70621E-04 14032   0.329E-01
  24 F= -.58225586E+03 E0= -.58229310E+03  d E =-.940584E-02  mag=     0.0000
       N       E                     dE             d eps       ncg     rms          rms(c)
DAV:   1    -0.521859873479E+03    0.80587E-02   -0.18177E+00 16784   0.133E+00    0.197E-01
DAV:   2    -0.521864023994E+03   -0.41505E-02   -0.47349E-02 24904   0.561E-01    0.206E-01
DAV:   3    -0.521863790028E+03    0.23397E-03   -0.32655E-03 18304   0.448E-01    0.145E-01
DAV:   4    -0.521863694435E+03    0.95592E-04   -0.91770E-04 17152   0.362E-01
  25 F= -.58225886E+03 E0= -.58229585E+03  d E =-.300072E-02  mag=     0.0000
       N       E                     dE             d eps       ncg     rms          rms(c)
DAV:   1    -0.521866636130E+03   -0.28461E-02   -0.15597E-01 24512   0.794E-01    0.126E-01
DAV:   2    -0.521887457947E+03   -0.20822E-01   -0.10038E-02 23416   0.309E+00    0.598E-01
DAV:   3    -0.521866177574E+03    0.21280E-01   -0.49323E-03 19880   0.265E+00    0.596E-02
DAV:   4    -0.521866235587E+03   -0.58013E-04   -0.12643E-03 20344   0.206E-01
  26 F= -.58225926E+03 E0= -.58229643E+03  d E =-.339852E-02  mag=     0.0000
       N       E                     dE             d eps       ncg     rms          rms(c)
DAV:   1    -0.521861370679E+03    0.48069E-02   -0.12256E+00 17608   0.113E+00    0.795E-02
DAV:   2    -0.521863828727E+03   -0.24580E-02   -0.25243E-02 23920   0.330E-01    0.963E-02
DAV:   3    -0.521863852807E+03   -0.24079E-04   -0.11202E-03 16768   0.285E-01
  27 F= -.58226184E+03 E0= -.58229898E+03  d E =-.258254E-02  mag=     0.0000
       N       E                     dE             d eps       ncg     rms          rms(c)
DAV:   1    -0.521862883803E+03    0.94492E-03   -0.82335E-02 23392   0.365E-01    0.768E-02
DAV:   2    -0.521863600514E+03   -0.71671E-03   -0.79673E-04 12240   0.623E-01    0.133E-01
DAV:   3    -0.521862820539E+03    0.77997E-03   -0.53171E-04 11360   0.582E-01    0.483E-02
DAV:   4    -0.521862817596E+03    0.29434E-05   -0.41626E-04 11744   0.130E-01
  28 F= -.58226206E+03 E0= -.58229925E+03  d E =-.280431E-02  mag=     0.0000
       N       E                     dE             d eps       ncg     rms          rms(c)
DAV:   1    -0.521860063679E+03    0.27569E-02   -0.31558E-01 17600   0.574E-01    0.412E-02
DAV:   2    -0.521860723160E+03   -0.65948E-03   -0.68202E-03 23904   0.170E-01    0.512E-02
DAV:   3    -0.521860727276E+03   -0.41155E-05   -0.33487E-04 10568   0.134E-01
  29 F= -.58226249E+03 E0= -.58229965E+03  d E =-.322923E-02  mag=     0.0000
       N       E                     dE             d eps       ncg     rms          rms(c)
DAV:   1    -0.521861318325E+03   -0.59516E-03   -0.22599E-02 22912   0.188E-01    0.264E-02
DAV:   2    -0.521861562230E+03   -0.24391E-03   -0.12637E-04 10536   0.337E-01    0.678E-02
DAV:   3    -0.521861314097E+03    0.24813E-03   -0.10024E-04 10440   0.303E-01    0.138E-02
DAV:   4    -0.521861323439E+03   -0.93413E-05   -0.10367E-04  9992   0.375E-02
  30 F= -.58226240E+03 E0= -.58229954E+03  d E =-.313898E-02  mag=     0.0000
       N       E                     dE             d eps       ncg     rms          rms(c)
DAV:   1    -0.521860882747E+03    0.43135E-03   -0.11016E-02 18360   0.119E-01    0.111E-02
DAV:   2    -0.521860892676E+03   -0.99298E-05   -0.91374E-05  9280   0.492E-02
  31 F= -.58226244E+03 E0= -.58229961E+03  d E =-.318165E-02  mag=     0.0000
       N       E                     dE             d eps       ncg     rms          rms(c)
DAV:   1    -0.521859590010E+03    0.12927E-02   -0.17312E-01 16856   0.424E-01    0.516E-02
DAV:   2    -0.521859983152E+03   -0.39314E-03   -0.39904E-03 24400   0.166E-01    0.555E-02
DAV:   3    -0.521859993394E+03   -0.10242E-04   -0.43385E-04 11296   0.239E-01
  32 F= -.58226316E+03 E0= -.58230028E+03  d E =-.723031E-03  mag=     0.0000
       N       E                     dE             d eps       ncg     rms          rms(c)
DAV:   1    -0.521859957766E+03    0.25385E-04   -0.10155E-04 10120   0.133E-01    0.336E-02
DAV:   2    -0.521859975957E+03   -0.18191E-04   -0.53352E-05 10176   0.120E-01
  33 F= -.58226314E+03 E0= -.58230024E+03  d E =-.704381E-03  mag=     0.0000
       N       E                     dE             d eps       ncg     rms          rms(c)
DAV:   1    -0.521859173837E+03    0.78393E-03   -0.13604E-01 18328   0.419E-01    0.383E-02
DAV:   2    -0.521859847734E+03   -0.67390E-03   -0.15431E-03 15472   0.530E-01    0.109E-01
DAV:   3    -0.521859358304E+03    0.48943E-03   -0.12206E-03 18984   0.465E-01    0.328E-02
DAV:   4    -0.521859461448E+03   -0.10314E-03   -0.11352E-03 16344   0.702E-02
  34 F= -.58226381E+03 E0= -.58230100E+03  d E =-.670080E-03  mag=     0.0000
       N       E                     dE             d eps       ncg     rms          rms(c)
DAV:   1    -0.521854866333E+03    0.44920E-02   -0.10505E+00 16880   0.104E+00    0.862E-02
DAV:   2    -0.521857098833E+03   -0.22325E-02   -0.23421E-02 23216   0.289E-01    0.108E-01
DAV:   3    -0.521857079396E+03    0.19437E-04   -0.64266E-04 14936   0.158E-01
  35 F= -.58226474E+03 E0= -.58230199E+03  d E =-.159486E-02  mag=     0.0000
       N       E                     dE             d eps       ncg     rms          rms(c)
DAV:   1    -0.521857743616E+03   -0.64478E-03   -0.95972E-02 19656   0.360E-01    0.753E-02
DAV:   2    -0.521858709105E+03   -0.96549E-03   -0.91229E-04 11952   0.668E-01    0.137E-01
DAV:   3    -0.521857775405E+03    0.93370E-03   -0.62005E-04 13600   0.663E-01    0.406E-02
DAV:   4    -0.521857863548E+03   -0.88143E-04   -0.11833E-03 17680   0.133E-01
  36 F= -.58226451E+03 E0= -.58230167E+03  d E =-.136207E-02  mag=     0.0000
       N       E                     dE             d eps       ncg     rms          rms(c)
DAV:   1    -0.521857331933E+03    0.44347E-03   -0.31300E-02 21936   0.214E-01    0.202E-02
DAV:   2    -0.521857374184E+03   -0.42251E-04   -0.24031E-04 11168   0.143E-01
  37 F= -.58226459E+03 E0= -.58230174E+03  d E =-.144514E-02  mag=     0.0000
       N       E                     dE             d eps       ncg     rms          rms(c)
DAV:   1    -0.521855492752E+03    0.18392E-02   -0.15424E-01 16792   0.421E-01    0.431E-02
DAV:   2    -0.521855870517E+03   -0.37776E-03   -0.28424E-03 20144   0.253E-01    0.643E-02
DAV:   3    -0.521855842516E+03    0.28001E-04   -0.10840E-03 15648   0.260E-01
  38 F= -.58226520E+03 E0= -.58230241E+03  d E =-.614526E-03  mag=     0.0000
       N       E                     dE             d eps       ncg     rms          rms(c)
DAV:   1    -0.521847750092E+03    0.81204E-02   -0.13834E+00 16600   0.118E+00    0.128E-01
DAV:   2    -0.521850962325E+03   -0.32122E-02   -0.34604E-02 23080   0.332E-01    0.151E-01
DAV:   3    -0.521850919623E+03    0.42702E-04   -0.12539E-03 16848   0.172E-01
  39 F= -.58226672E+03 E0= -.58230402E+03  d E =-.213064E-02  mag=     0.0000
       N       E                     dE             d eps       ncg     rms          rms(c)
DAV:   1    -0.521827038033E+03    0.23924E-01   -0.55361E+00 16656   0.237E+00    0.286E-01
DAV:   2    -0.521839139943E+03   -0.12102E-01   -0.11808E-01 26224   0.101E+00    0.345E-01
DAV:   3    -0.521838312598E+03    0.82735E-03   -0.13220E-02 18688   0.115E+00    0.291E-01
DAV:   4    -0.521837945931E+03    0.36667E-03   -0.38802E-03 17768   0.415E-01    0.221E-01
DAV:   5    -0.521837782134E+03    0.16380E-03   -0.25731E-03 22000   0.319E-01    0.120E-01
DAV:   6    -0.521837543234E+03    0.23890E-03   -0.23482E-03 18144   0.489E-01    0.550E-02
DAV:   7    -0.521837474385E+03    0.68848E-04   -0.47884E-04 12336   0.231E-01
  40 F= -.58226616E+03 E0= -.58230359E+03  d E =-.157036E-02  mag=     0.0000
       N       E                     dE             d eps       ncg     rms          rms(c)
DAV:   1    -0.521842037965E+03   -0.44947E-02   -0.20760E+00 16640   0.144E+00    0.134E-01
DAV:   2    -0.521846376043E+03   -0.43381E-02   -0.45360E-02 23680   0.477E-01    0.171E-01
DAV:   3    -0.521846345195E+03    0.30849E-04   -0.28298E-03 18056   0.472E-01    0.141E-01
DAV:   4    -0.521846242205E+03    0.10299E-03   -0.54531E-04 13528   0.252E-01
  41 F= -.58226703E+03 E0= -.58230443E+03  d E =-.244428E-02  mag=     0.0000
       N       E                     dE             d eps       ncg     rms          rms(c)
DAV:   1    -0.521844166897E+03    0.21783E-02   -0.15428E-01 22760   0.507E-01    0.969E-02
DAV:   2    -0.521845136345E+03   -0.96945E-03   -0.35300E-03 20144   0.849E-01    0.166E-01
DAV:   3    -0.521844535041E+03    0.60130E-03   -0.10457E-03 17144   0.807E-01    0.933E-02
DAV:   4    -0.521844234080E+03    0.30096E-03   -0.23185E-04 10656   0.389E-01    0.319E-02
DAV:   5    -0.521844226016E+03    0.80646E-05   -0.19973E-04 10192   0.110E-01
  42 F= -.58226724E+03 E0= -.58230459E+03  d E =-.211656E-03  mag=     0.0000
       N       E                     dE             d eps       ncg     rms          rms(c)
DAV:   1    -0.521842159439E+03    0.20746E-02   -0.12324E-01 16632   0.354E-01    0.470E-02
DAV:   2    -0.521842465973E+03   -0.30653E-03   -0.31884E-03 23184   0.160E-01    0.569E-02
DAV:   3    -0.521842445918E+03    0.20055E-04   -0.17366E-04 10768   0.167E-01
  43 F= -.58226746E+03 E0= -.58230481E+03  d E =-.423042E-03  mag=     0.0000
       N       E                     dE             d eps       ncg     rms          rms(c)
DAV:   1    -0.521841302783E+03    0.11632E-02   -0.68817E-02 16648   0.283E-01    0.522E-02
DAV:   2    -0.521841467780E+03   -0.16500E-03   -0.99950E-04 13680   0.260E-01
  44 F= -.58226787E+03 E0= -.58230516E+03  d E =-.414454E-03  mag=     0.0000
       N       E                     dE             d eps       ncg     rms          rms(c)
DAV:   1    -0.521839458732E+03    0.18441E-02   -0.19473E-01 21456   0.535E-01    0.791E-02
DAV:   2    -0.521840007439E+03   -0.54871E-03   -0.34550E-03 19824   0.437E-01    0.106E-01
DAV:   3    -0.521839696876E+03    0.31056E-03   -0.50412E-04 12160   0.409E-01    0.654E-02
DAV:   4    -0.521839675875E+03    0.21001E-04   -0.41691E-04 11424   0.127E-01
  45 F= -.58226839E+03 E0= -.58230584E+03  d E =-.937594E-03  mag=     0.0000
       N       E                     dE             d eps       ncg     rms          rms(c)
DAV:   1    -0.521833900250E+03    0.57966E-02   -0.75515E-01 16576   0.892E-01    0.720E-02
DAV:   2    -0.521835919758E+03   -0.20195E-02   -0.20218E-02 23360   0.299E-01    0.104E-01
DAV:   3    -0.521835899149E+03    0.20609E-04   -0.90124E-04 16848   0.222E-01
  46 F= -.58226925E+03 E0= -.58230672E+03  d E =-.178984E-02  mag=     0.0000
       N       E                     dE             d eps       ncg     rms          rms(c)
DAV:   1    -0.521820025899E+03    0.15894E-01   -0.30358E+00 16576   0.177E+00    0.220E-01
DAV:   2    -0.521827432037E+03   -0.74061E-02   -0.76754E-02 24768   0.701E-01    0.267E-01
DAV:   3    -0.521827128395E+03    0.30364E-03   -0.59000E-03 18496   0.641E-01    0.225E-01
DAV:   4    -0.521826989429E+03    0.13897E-03   -0.15793E-03 17648   0.275E-01
  47 F= -.58226959E+03 E0= -.58230723E+03  d E =-.213459E-02  mag=     0.0000
       N       E                     dE             d eps       ncg     rms          rms(c)
DAV:   1    -0.521825830053E+03    0.12983E-02   -0.47760E-02 23680   0.376E-01    0.120E-01
DAV:   2    -0.521832378908E+03   -0.65489E-02   -0.40553E-03 18240   0.183E+00    0.371E-01
DAV:   3    -0.521825685429E+03    0.66935E-02   -0.15095E-03 17728   0.164E+00    0.920E-02
DAV:   4    -0.521825476221E+03    0.20921E-03   -0.91889E-05 11328   0.361E-01    0.394E-02
DAV:   5    -0.521825486421E+03   -0.10200E-04   -0.32989E-04 11632   0.184E-01
  48 F= -.58226939E+03 E0= -.58230719E+03  d E =0.201874E-03  mag=     0.0000
       N       E                     dE             d eps       ncg     rms          rms(c)
DAV:   1    -0.521824846792E+03    0.62943E-03   -0.17693E-02 23200   0.177E-01    0.289E-02
DAV:   2    -0.521824954374E+03   -0.10758E-03   -0.37283E-04 11600   0.235E-01
  49 F= -.58226963E+03 E0= -.58230739E+03  d E =-.371298E-04  mag=     0.0000
       N       E                     dE             d eps       ncg     rms          rms(c)
DAV:   1    -0.521823390193E+03    0.14566E-02   -0.66105E-02 22680   0.347E-01    0.475E-02
DAV:   2    -0.521823650716E+03   -0.26052E-03   -0.10830E-03 12712   0.304E-01    0.749E-02
DAV:   3    -0.521823467447E+03    0.18327E-03   -0.26937E-04 11072   0.285E-01
  50 F= -.58226968E+03 E0= -.58230742E+03  d E =-.935856E-04  mag=     0.0000
       N       E                     dE             d eps       ncg     rms          rms(c)
DAV:   1    -0.521819860188E+03    0.37905E-02   -0.26322E-01 16560   0.519E-01    0.742E-02
DAV:   2    -0.521820590996E+03   -0.73081E-03   -0.76425E-03 24192   0.220E-01    0.860E-02
DAV:   3    -0.521820560389E+03    0.30608E-04   -0.41194E-04 11280   0.235E-01
