<?xml version="1.0" encoding="ISO-8859-1"?>
<modeling>
 <generator>
  <i name="program" type="string">vasp </i>
  <i name="version" type="string">6.3.2  </i>
  <i name="subversion" type="string">27Jun22 (build Aug 17 2022 15:43:34) complex                          parallel </i>
  <i name="platform" type="string">tv2STDVTST </i>
  <i name="date" type="string">2025 02 07 </i>
  <i name="time" type="string">17:18:58 </i>
 </generator>
 <incar>
  <i type="int" name="ISTART">     0</i>
  <i type="string" name="PREC">Normal</i>
  <i type="int" name="ISPIN">     2</i>
  <i type="int" name="ICHARG">     2</i>
  <i type="int" name="IBRION">     2</i>
  <i name="EDIFF">      0.00020000</i>
  <i name="EDIFFG">     -0.03000000</i>
  <i type="int" name="NSW">   800</i>
  <i type="int" name="ISIF">     2</i>
  <i type="int" name="ISYM">     1</i>
  <i name="ENCUT">    400.00000000</i>
  <i name="POTIM">      0.50000000</i>
  <i type="logical" name="LREAL"> F  </i>
  <i type="int" name="ISMEAR">     1</i>
  <i name="SIGMA">      0.20000000</i>
  <i type="logical" name="LWAVE"> F  </i>
  <i type="logical" name="LCHARG"> F  </i>
  <i type="string" name="GGA">PE</i>
  <i type="int" name="IVDW">    11</i>
 </incar>
 <primitive_cell>
  <structure name="primitive_cell" >
   <crystal>
    <varray name="basis" >
     <v>      10.89000034       0.00000000       0.00000000 </v>
     <v>       0.00000000      10.89000034       0.00000000 </v>
     <v>       0.00000000       0.00000000      27.70499992 </v>
    </varray>
    <i name="volume">   3285.59432860 </i>
    <varray name="rec_basis" >
     <v>       0.09182736       0.00000000       0.00000000 </v>
     <v>       0.00000000       0.09182736       0.00000000 </v>
     <v>       0.00000000       0.00000000       0.03609457 </v>
    </varray>
   </crystal>
   <varray name="positions" >
    <v>       0.00000000       0.00000000       0.00000000 </v>
    <v>       0.00000000       0.33333333       0.00000000 </v>
    <v>       0.00000000       0.66666667       0.00000000 </v>
    <v>       0.33333333       0.00000000       0.00000000 </v>
    <v>       0.33333333       0.33333333       0.00000000 </v>
    <v>       0.33333333       0.66666667       0.00000000 </v>
    <v>       0.66666667       0.00000000       0.00000000 </v>
    <v>       0.66666667       0.33333333       0.00000000 </v>
    <v>       0.66666667       0.66666667       0.00000000 </v>
    <v>       0.16666667       0.16666667       0.00000000 </v>
    <v>       0.16666667       0.50000000       0.00000000 </v>
    <v>       0.16666667       0.83333333       0.00000000 </v>
    <v>       0.50000000       0.16666667       0.00000000 </v>
    <v>       0.50000000       0.50000000       0.00000000 </v>
    <v>       0.50000000       0.83333333       0.00000000 </v>
    <v>       0.83333333       0.16666667       0.00000000 </v>
    <v>       0.83333333       0.50000000       0.00000000 </v>
    <v>       0.83333333       0.83333333       0.00000000 </v>
    <v>       0.00000000       0.16666667       0.06551164 </v>
    <v>       0.00000000       0.50000000       0.06551164 </v>
    <v>       0.00000000       0.83333333       0.06551164 </v>
    <v>       0.33333333       0.16666667       0.06551164 </v>
    <v>       0.33333333       0.50000000       0.06551164 </v>
    <v>       0.33333333       0.83333333       0.06551164 </v>
    <v>       0.66666667       0.16666667       0.06551164 </v>
    <v>       0.66666667       0.50000000       0.06551164 </v>
    <v>       0.66666667       0.83333333       0.06551164 </v>
    <v>       0.16666667       0.00000000       0.06551164 </v>
    <v>       0.16666667       0.33333333       0.06551164 </v>
    <v>       0.16666667       0.66666667       0.06551164 </v>
    <v>       0.50000000       0.00000000       0.06551164 </v>
    <v>       0.50000000       0.33333333       0.06551164 </v>
    <v>       0.50000000       0.66666667       0.06551164 </v>
    <v>       0.83333333       0.00000000       0.06551164 </v>
    <v>       0.83333333       0.33333333       0.06551164 </v>
    <v>       0.83333333       0.66666667       0.06551164 </v>
    <v>       0.00000000       0.00000000       0.13119553 </v>
    <v>       0.00000000       0.33333333       0.13119553 </v>
    <v>       0.00000000       0.66666667       0.13119553 </v>
    <v>       0.33333333       0.00000000       0.13119553 </v>
    <v>       0.33333333       0.33333333       0.13119553 </v>
    <v>       0.33333333       0.66666667       0.13119553 </v>
    <v>       0.66666667       0.00000000       0.13119553 </v>
    <v>       0.66666667       0.33333333       0.13119553 </v>
    <v>       0.66666667       0.66666667       0.13119553 </v>
    <v>       0.16666667       0.16666667       0.13119553 </v>
    <v>       0.16666667       0.50000000       0.13119553 </v>
    <v>       0.16666667       0.83333333       0.13119553 </v>
    <v>       0.50000000       0.16666667       0.13119553 </v>
    <v>       0.50000000       0.50000000       0.13119553 </v>
    <v>       0.50000000       0.83333333       0.13119553 </v>
    <v>       0.83333333       0.16666667       0.13119553 </v>
    <v>       0.83333333       0.50000000       0.13119553 </v>
    <v>       0.83333333       0.83333333       0.13119553 </v>
    <v>       0.00000000       0.16666667       0.19620680 </v>
    <v>       0.00000000       0.50000000       0.19620680 </v>
    <v>       0.00000000       0.83333333       0.19620680 </v>
    <v>       0.33333333       0.16666667       0.19620680 </v>
    <v>       0.33333333       0.50000000       0.19620680 </v>
    <v>       0.33333333       0.83333333       0.19620680 </v>
    <v>       0.66666667       0.16666667       0.19620680 </v>
    <v>       0.66666667       0.50000000       0.19620680 </v>
    <v>       0.66666667       0.83333333       0.19620680 </v>
    <v>       0.16666667       0.00000000       0.19620680 </v>
    <v>       0.16666667       0.33333333       0.19620680 </v>
    <v>       0.16666667       0.66666667       0.19620680 </v>
    <v>       0.50000000       0.00000000       0.19620680 </v>
    <v>       0.50000000       0.33333333       0.19620680 </v>
    <v>       0.50000000       0.66666667       0.19620680 </v>
    <v>       0.83333333       0.00000000       0.19620680 </v>
    <v>       0.83333333       0.33333333       0.19620680 </v>
    <v>       0.83333333       0.66666667       0.19620680 </v>
    <v>       0.00000000       0.00000000       0.25873860 </v>
    <v>       0.00000000       0.33333333       0.25873860 </v>
    <v>       0.00000000       0.66666667       0.25873860 </v>
    <v>       0.33333333       0.00000000       0.25873860 </v>
    <v>       0.33333333       0.33333333       0.25873860 </v>
    <v>       0.33333333       0.66666667       0.25873860 </v>
    <v>       0.66666667       0.00000000       0.25873860 </v>
    <v>       0.66666667       0.33333333       0.25873860 </v>
    <v>       0.66666667       0.66666667       0.25873860 </v>
    <v>       0.16666667       0.16666667       0.25873860 </v>
    <v>       0.16666667       0.50000000       0.25873860 </v>
    <v>       0.16666667       0.83333333       0.25873860 </v>
    <v>       0.50000000       0.16666667       0.25873860 </v>
    <v>       0.50000000       0.50000000       0.25873860 </v>
    <v>       0.50000000       0.83333333       0.25873860 </v>
    <v>       0.83333333       0.16666667       0.25873860 </v>
    <v>       0.83333333       0.50000000       0.25873860 </v>
    <v>       0.83333333       0.83333333       0.25873860 </v>
    <v>       0.00000000       0.16666667       0.32119954 </v>
    <v>       0.00000000       0.50000000       0.32119954 </v>
    <v>       0.00000000       0.83333333       0.32119954 </v>
    <v>       0.33333333       0.16666667       0.32119954 </v>
    <v>       0.33333333       0.50000000       0.32119954 </v>
    <v>       0.33333333       0.83333333       0.32119954 </v>
    <v>       0.66666667       0.16666667       0.32119954 </v>
    <v>       0.66666667       0.50000000       0.32119954 </v>
    <v>       0.66666667       0.83333333       0.32119954 </v>
    <v>       0.16666667       0.00000000       0.32119954 </v>
    <v>       0.16666667       0.33333333       0.32119954 </v>
    <v>       0.16666667       0.66666667       0.32119954 </v>
    <v>       0.50000000       0.00000000       0.32119954 </v>
    <v>       0.50000000       0.33333333       0.32119954 </v>
    <v>       0.50000000       0.66666667       0.32119954 </v>
    <v>       0.83333333       0.00000000       0.32119954 </v>
    <v>       0.83333333       0.33333333       0.32119954 </v>
    <v>       0.83333333       0.66666667       0.32119954 </v>
    <v>       0.00000000       0.00000000       0.38476372 </v>
    <v>       0.00000000       0.33333333       0.38476372 </v>
    <v>       0.00000000       0.66666667       0.38476372 </v>
    <v>       0.33333333       0.00000000       0.38476372 </v>
    <v>       0.33333333       0.33333333       0.38476372 </v>
    <v>       0.33333333       0.66666667       0.38476372 </v>
    <v>       0.66666667       0.00000000       0.38476372 </v>
    <v>       0.66666667       0.33333333       0.38476372 </v>
    <v>       0.66666667       0.66666667       0.38476372 </v>
    <v>       0.16666667       0.16666667       0.38476372 </v>
    <v>       0.16666667       0.50000000       0.38476372 </v>
    <v>       0.16666667       0.83333333       0.38476372 </v>
    <v>       0.50000000       0.16666667       0.38476372 </v>
    <v>       0.50000000       0.50000000       0.38476372 </v>
    <v>       0.50000000       0.83333333       0.38476372 </v>
    <v>       0.83333333       0.16666667       0.38476372 </v>
    <v>       0.83333333       0.50000000       0.38476372 </v>
    <v>       0.83333333       0.83333333       0.38476372 </v>
    <v>       0.00000000       0.16666667       0.44736473 </v>
    <v>       0.00000000       0.50000000       0.44736473 </v>
    <v>       0.00000000       0.83333333       0.44736473 </v>
    <v>       0.33333333       0.16666667       0.44736473 </v>
    <v>       0.33333333       0.50000000       0.44736473 </v>
    <v>       0.33333333       0.83333333       0.44736473 </v>
    <v>       0.66666667       0.16666667       0.44736473 </v>
    <v>       0.66666667       0.50000000       0.44736473 </v>
    <v>       0.66666667       0.83333333       0.44736473 </v>
    <v>       0.16666667       0.00000000       0.44736473 </v>
    <v>       0.16666667       0.33333333       0.44736473 </v>
    <v>       0.16666667       0.66666667       0.44736473 </v>
    <v>       0.50000000       0.00000000       0.44736473 </v>
    <v>       0.50000000       0.33333333       0.44736473 </v>
    <v>       0.50000000       0.66666667       0.44736473 </v>
    <v>       0.83333333       0.00000000       0.44736473 </v>
    <v>       0.83333333       0.33333333       0.44736473 </v>
    <v>       0.83333333       0.66666667       0.44736473 </v>
    <v>       0.33333333       0.50000000       0.50150658 </v>
    <v>       0.33333333       0.56850321       0.50150658 </v>
   </varray>
  </structure>
  <varray name="primitive_index" >
   <v type="int" >        1 </v>
   <v type="int" >        2 </v>
   <v type="int" >        3 </v>
   <v type="int" >        4 </v>
   <v type="int" >        5 </v>
   <v type="int" >        6 </v>
   <v type="int" >        7 </v>
   <v type="int" >        8 </v>
   <v type="int" >        9 </v>
   <v type="int" >       10 </v>
   <v type="int" >       11 </v>
   <v type="int" >       12 </v>
   <v type="int" >       13 </v>
   <v type="int" >       14 </v>
   <v type="int" >       15 </v>
   <v type="int" >       16 </v>
   <v type="int" >       17 </v>
   <v type="int" >       18 </v>
   <v type="int" >       19 </v>
   <v type="int" >       20 </v>
   <v type="int" >       21 </v>
   <v type="int" >       22 </v>
   <v type="int" >       23 </v>
   <v type="int" >       24 </v>
   <v type="int" >       25 </v>
   <v type="int" >       26 </v>
   <v type="int" >       27 </v>
   <v type="int" >       28 </v>
   <v type="int" >       29 </v>
   <v type="int" >       30 </v>
   <v type="int" >       31 </v>
   <v type="int" >       32 </v>
   <v type="int" >       33 </v>
   <v type="int" >       34 </v>
   <v type="int" >       35 </v>
   <v type="int" >       36 </v>
   <v type="int" >       37 </v>
   <v type="int" >       38 </v>
   <v type="int" >       39 </v>
   <v type="int" >       40 </v>
   <v type="int" >       41 </v>
   <v type="int" >       42 </v>
   <v type="int" >       43 </v>
   <v type="int" >       44 </v>
   <v type="int" >       45 </v>
   <v type="int" >       46 </v>
   <v type="int" >       47 </v>
   <v type="int" >       48 </v>
   <v type="int" >       49 </v>
   <v type="int" >       50 </v>
   <v type="int" >       51 </v>
   <v type="int" >       52 </v>
   <v type="int" >       53 </v>
   <v type="int" >       54 </v>
   <v type="int" >       55 </v>
   <v type="int" >       56 </v>
   <v type="int" >       57 </v>
   <v type="int" >       58 </v>
   <v type="int" >       59 </v>
   <v type="int" >       60 </v>
   <v type="int" >       61 </v>
   <v type="int" >       62 </v>
   <v type="int" >       63 </v>
   <v type="int" >       64 </v>
   <v type="int" >       65 </v>
   <v type="int" >       66 </v>
   <v type="int" >       67 </v>
   <v type="int" >       68 </v>
   <v type="int" >       69 </v>
   <v type="int" >       70 </v>
   <v type="int" >       71 </v>
   <v type="int" >       72 </v>
   <v type="int" >       73 </v>
   <v type="int" >       74 </v>
   <v type="int" >       75 </v>
   <v type="int" >       76 </v>
   <v type="int" >       77 </v>
   <v type="int" >       78 </v>
   <v type="int" >       79 </v>
   <v type="int" >       80 </v>
   <v type="int" >       81 </v>
   <v type="int" >       82 </v>
   <v type="int" >       83 </v>
   <v type="int" >       84 </v>
   <v type="int" >       85 </v>
   <v type="int" >       86 </v>
   <v type="int" >       87 </v>
   <v type="int" >       88 </v>
   <v type="int" >       89 </v>
   <v type="int" >       90 </v>
   <v type="int" >       91 </v>
   <v type="int" >       92 </v>
   <v type="int" >       93 </v>
   <v type="int" >       94 </v>
   <v type="int" >       95 </v>
   <v type="int" >       96 </v>
   <v type="int" >       97 </v>
   <v type="int" >       98 </v>
   <v type="int" >       99 </v>
   <v type="int" >      100 </v>
   <v type="int" >      101 </v>
   <v type="int" >      102 </v>
   <v type="int" >      103 </v>
   <v type="int" >      104 </v>
   <v type="int" >      105 </v>
   <v type="int" >      106 </v>
   <v type="int" >      107 </v>
   <v type="int" >      108 </v>
   <v type="int" >      109 </v>
   <v type="int" >      110 </v>
   <v type="int" >      111 </v>
   <v type="int" >      112 </v>
   <v type="int" >      113 </v>
   <v type="int" >      114 </v>
   <v type="int" >      115 </v>
   <v type="int" >      116 </v>
   <v type="int" >      117 </v>
   <v type="int" >      118 </v>
   <v type="int" >      119 </v>
   <v type="int" >      120 </v>
   <v type="int" >      121 </v>
   <v type="int" >      122 </v>
   <v type="int" >      123 </v>
   <v type="int" >      124 </v>
   <v type="int" >      125 </v>
   <v type="int" >      126 </v>
   <v type="int" >      127 </v>
   <v type="int" >      128 </v>
   <v type="int" >      129 </v>
   <v type="int" >      130 </v>
   <v type="int" >      131 </v>
   <v type="int" >      132 </v>
   <v type="int" >      133 </v>
   <v type="int" >      134 </v>
   <v type="int" >      135 </v>
   <v type="int" >      136 </v>
   <v type="int" >      137 </v>
   <v type="int" >      138 </v>
   <v type="int" >      139 </v>
   <v type="int" >      140 </v>
   <v type="int" >      141 </v>
   <v type="int" >      142 </v>
   <v type="int" >      143 </v>
   <v type="int" >      144 </v>
   <v type="int" >      145 </v>
   <v type="int" >      146 </v>
  </varray>
 </primitive_cell>
 <kpoints>
  <generation param="Monkhorst-Pack">
   <v type="int" name="divisions">       3        3        1 </v>
   <v name="usershift">      0.00000000       0.00000000       0.00000000 </v>
   <v name="genvec1">      0.33333333       0.00000000       0.00000000 </v>
   <v name="genvec2">      0.00000000       0.33333333       0.00000000 </v>
   <v name="genvec3">      0.00000000       0.00000000       1.00000000 </v>
   <v name="shift">      0.00000000       0.00000000       0.00000000 </v>
  </generation>
  <varray name="kpointlist" >
   <v>       0.00000000       0.00000000       0.00000000 </v>
   <v>       0.33333333       0.00000000       0.00000000 </v>
   <v>       0.00000000       0.33333333       0.00000000 </v>
   <v>       0.33333333       0.33333333       0.00000000 </v>
  </varray>
  <varray name="weights" >
   <v>       0.11111111 </v>
   <v>       0.22222222 </v>
   <v>       0.22222222 </v>
   <v>       0.44444444 </v>
  </varray>
 </kpoints>
 <parameters>
  <separator name="general" >
   <i type="string" name="SYSTEM">unknown system</i>
   <i type="logical" name="LCOMPAT"> F  </i>
  </separator>
  <separator name="electronic" >
   <i type="string" name="PREC">normal</i>
   <i name="ENMAX">    400.00000000</i>
   <i name="ENAUG">    586.98000000</i>
   <i name="EDIFF">      0.00020000</i>
   <i type="int" name="IALGO">    38</i>
   <i type="int" name="IWAVPR">    11</i>
   <i type="int" name="NBANDS">  1024</i>
   <i type="int" name="NBANDSLOW">    -1</i>
   <i type="int" name="NBANDSHIGH">    -1</i>
   <i name="NELECT">   1586.00000000</i>
   <i type="int" name="TURBO">     0</i>
   <i type="int" name="IRESTART">     0</i>
   <i type="int" name="NREBOOT">     0</i>
   <i type="int" name="NMIN">     0</i>
   <i name="EREF">      0.00000000</i>
   <separator name="electronic smearing" >
    <i type="int" name="ISMEAR">     1</i>
    <i name="SIGMA">      0.20000000</i>
    <i name="KSPACING">      0.50000000</i>
    <i type="logical" name="KGAMMA"> T  </i>
    <i type="logical" name="KBLOWUP"> T  </i>
   </separator>
   <separator name="electronic projectors" >
    <i type="logical" name="LREAL"> F  </i>
    <v name="ROPT">      0.00000000      0.00000000</v>
    <i type="int" name="LMAXPAW">  -100</i>
    <i type="int" name="LMAXMIX">     2</i>
    <i type="logical" name="NLSPLINE"> F  </i>
   </separator>
   <separator name="electronic startup" >
    <i type="int" name="ISTART">     0</i>
    <i type="int" name="ICHARG">     2</i>
    <i type="int" name="INIWAV">     1</i>
   </separator>
   <separator name="electronic spin" >
    <i type="int" name="ISPIN">     2</i>
    <i type="logical" name="LNONCOLLINEAR"> F  </i>
    <v name="MAGMOM">      1.00000000      1.00000000      1.00000000      1.00000000      1.00000000      1.00000000      1.00000000      1.00000000      1.00000000      1.00000000      1.00000000      1.00000000      1.00000000      1.00000000      1.00000000      1.00000000      1.00000000      1.00000000      1.00000000      1.00000000
      1.00000000      1.00000000      1.00000000      1.00000000      1.00000000      1.00000000      1.00000000      1.00000000      1.00000000      1.00000000      1.00000000      1.00000000      1.00000000      1.00000000      1.00000000      1.00000000      1.00000000      1.00000000      1.00000000      1.00000000
      1.00000000      1.00000000      1.00000000      1.00000000      1.00000000      1.00000000      1.00000000      1.00000000      1.00000000      1.00000000      1.00000000      1.00000000      1.00000000      1.00000000      1.00000000      1.00000000      1.00000000      1.00000000      1.00000000      1.00000000
      1.00000000      1.00000000      1.00000000      1.00000000      1.00000000      1.00000000      1.00000000      1.00000000      1.00000000      1.00000000      1.00000000      1.00000000      1.00000000      1.00000000      1.00000000      1.00000000      1.00000000      1.00000000      1.00000000      1.00000000
      1.00000000      1.00000000      1.00000000      1.00000000      1.00000000      1.00000000      1.00000000      1.00000000      1.00000000      1.00000000      1.00000000      1.00000000      1.00000000      1.00000000      1.00000000      1.00000000      1.00000000      1.00000000      1.00000000      1.00000000
      1.00000000      1.00000000      1.00000000      1.00000000      1.00000000      1.00000000      1.00000000      1.00000000      1.00000000      1.00000000      1.00000000      1.00000000      1.00000000      1.00000000      1.00000000      1.00000000      1.00000000      1.00000000      1.00000000      1.00000000
      1.00000000      1.00000000      1.00000000      1.00000000      1.00000000      1.00000000      1.00000000      1.00000000      1.00000000      1.00000000      1.00000000      1.00000000      1.00000000      1.00000000      1.00000000      1.00000000      1.00000000      1.00000000      1.00000000      1.00000000
      1.00000000      1.00000000      1.00000000      1.00000000      1.00000000      1.00000000</v>
    <i name="NUPDOWN">     -1.00000000</i>
    <i type="logical" name="LSORBIT"> F  </i>
    <v name="SAXIS">      0.00000000      0.00000000      1.00000000</v>
    <i type="logical" name="LSPIRAL"> F  </i>
    <v name="QSPIRAL">      0.00000000      0.00000000      0.00000000</v>
    <i type="logical" name="LZEROZ"> F  </i>
   </separator>
   <separator name="electronic exchange-correlation" >
    <i type="logical" name="LASPH"> F  </i>
    <i type="logical" name="LMETAGGA"> F  </i>
   </separator>
   <separator name="electronic convergence" >
    <i type="int" name="NELM">    60</i>
    <i type="int" name="NELMDL">    -5</i>
    <i type="int" name="NELMIN">     2</i>
    <i name="ENINI">    400.00000000</i>
    <separator name="electronic convergence detail" >
     <i type="logical" name="LDIAG"> T  </i>
     <i type="logical" name="LSUBROT"> F  </i>
     <i name="WEIMIN">      0.00100000</i>
     <i name="EBREAK">      0.00000005</i>
     <i name="DEPER">      0.30000000</i>
     <i type="int" name="NRMM">     4</i>
     <i name="TIME">      0.40000000</i>
    </separator>
   </separator>
   <separator name="electronic mixer" >
    <i name="AMIX">      0.40000000</i>
    <i name="BMIX">      1.00000000</i>
    <i name="AMIN">      0.10000000</i>
    <i name="AMIX_MAG">      1.60000000</i>
    <i name="BMIX_MAG">      1.00000000</i>
    <separator name="electronic mixer details" >
     <i type="int" name="IMIX">     4</i>
     <i type="logical" name="MIXFIRST"> F  </i>
     <i type="int" name="MAXMIX">   -45</i>
     <i name="WC">    100.00000000</i>
     <i type="int" name="INIMIX">     1</i>
     <i type="int" name="MIXPRE">     1</i>
     <i type="int" name="MREMOVE">     5</i>
    </separator>
   </separator>
   <separator name="electronic dipolcorrection" >
    <i type="logical" name="LDIPOL"> F  </i>
    <i type="logical" name="LMONO"> F  </i>
    <i type="int" name="IDIPOL">     0</i>
    <i name="EPSILON">      1.00000000</i>
    <v name="DIPOL">   -100.00000000   -100.00000000   -100.00000000</v>
    <i name="EFIELD">      0.00000000</i>
   </separator>
  </separator>
  <separator name="grids" >
   <i type="int" name="NGX">    54</i>
   <i type="int" name="NGY">    54</i>
   <i type="int" name="NGZ">   140</i>
   <i type="int" name="NGXF">   108</i>
   <i type="int" name="NGYF">   108</i>
   <i type="int" name="NGZF">   280</i>
   <i type="logical" name="ADDGRID"> F  </i>
  </separator>
  <separator name="ionic" >
   <i type="int" name="NSW">   800</i>
   <i type="int" name="IBRION">     2</i>
   <i type="int" name="MDALGO">     0</i>
   <i type="int" name="ISIF">     2</i>
   <i name="PSTRESS">      0.00000000</i>
   <i name="EDIFFG">     -0.03000000</i>
   <i type="int" name="NFREE">     1</i>
   <i name="POTIM">      0.50000000</i>
   <i name="SMASS">     -3.00000000</i>
   <i name="SCALEE">      1.00000000</i>
  </separator>
  <separator name="ionic md" >
   <i name="TEBEG">      0.00010000</i>
   <i name="TEEND">      0.00010000</i>
   <i type="int" name="NBLOCK">     1</i>
   <i type="int" name="KBLOCK">   800</i>
   <i type="int" name="NPACO">   256</i>
   <i name="APACO">     10.00000000</i>
  </separator>
  <separator name="symmetry" >
   <i type="int" name="ISYM">     1</i>
   <i name="SYMPREC">      0.00001000</i>
  </separator>
  <separator name="dos" >
   <i type="int" name="LORBIT">     0</i>
   <v name="RWIGS">     -1.00000000     -1.00000000</v>
   <i type="int" name="NEDOS">   301</i>
   <i name="EMIN">     10.00000000</i>
   <i name="EMAX">    -10.00000000</i>
   <i name="EFERMI">      0.00000000</i>
  </separator>
  <separator name="writing" >
   <i type="int" name="NWRITE">     2</i>
   <i type="logical" name="LWAVE"> F  </i>
   <i type="logical" name="LDOWNSAMPLE"> F  </i>
   <i type="logical" name="LCHARG"> F  </i>
   <i type="logical" name="LPARD"> F  </i>
   <i type="logical" name="LVTOT"> F  </i>
   <i type="logical" name="LVHAR"> F  </i>
   <i type="logical" name="LELF"> F  </i>
   <i type="logical" name="LOPTICS"> F  </i>
   <v name="STM">      0.00000000      0.00000000      0.00000000      0.00000000      0.00000000      0.00000000      0.00000000</v>
  </separator>
  <separator name="performance" >
   <i type="int" name="NPAR">     4</i>
   <i type="int" name="NSIM">     4</i>
   <i type="int" name="NBLK">    -1</i>
   <i type="logical" name="LPLANE"> T  </i>
   <i type="logical" name="LSCALAPACK"> T  </i>
   <i type="logical" name="LSCAAWARE"> F  </i>
   <i type="logical" name="LSCALU"> F  </i>
   <i type="logical" name="LASYNC"> F  </i>
   <i type="logical" name="LORBITALREAL"> F  </i>
  </separator>
  <separator name="miscellaneous" >
   <i type="int" name="IDIOT">     3</i>
   <i type="int" name="PHON_NSTRUCT">    -1</i>
   <i type="logical" name="LMUSIC"> F  </i>
   <v name="POMASS">     63.54600000      1.00000000</v>
   <v name="DARWINR">      0.00000000      0.00000000</v>
   <v name="DARWINV">      1.00000000      1.00000000</v>
   <i type="logical" name="LCORR"> T  </i>
  </separator>
  <i type="logical" name="GGA_COMPAT"> T  </i>
  <i type="logical" name="LBERRY"> F  </i>
  <i type="int" name="ICORELEVEL">     0</i>
  <i type="logical" name="LDAU"> F  </i>
  <i type="int" name="I_CONSTRAINED_M">     0</i>
  <separator name="electronic exchange-correlation" >
   <i type="string" name="GGA">PE</i>
   <i type="int" name="VOSKOWN">     0</i>
   <i type="logical" name="LHFCALC"> F  </i>
   <i type="string" name="PRECFOCK"></i>
   <i type="logical" name="LSYMGRAD"> F  </i>
   <i type="logical" name="LHFONE"> F  </i>
   <i type="logical" name="LRHFCALC"> F  </i>
   <i type="logical" name="LTHOMAS"> F  </i>
   <i type="logical" name="LMODELHF"> F  </i>
   <i type="logical" name="LFOCKACE"> F  </i>
   <i name="ENCUT4O">     -1.00000000</i>
   <i type="int" name="EXXOEP">     0</i>
   <i type="int" name="FOURORBIT">     0</i>
   <i name="AEXX">      0.00000000</i>
   <i name="HFALPHA">      0.00000000</i>
   <i name="MCALPHA">      0.00000000</i>
   <i name="ALDAX">      1.00000000</i>
   <i name="AGGAX">      1.00000000</i>
   <i name="ALDAC">      1.00000000</i>
   <i name="AGGAC">      1.00000000</i>
   <i type="int" name="NKREDX">     1</i>
   <i type="int" name="NKREDY">     1</i>
   <i type="int" name="NKREDZ">     1</i>
   <i type="logical" name="SHIFTRED"> F  </i>
   <i type="logical" name="ODDONLY"> F  </i>
   <i type="logical" name="EVENONLY"> F  </i>
   <i type="int" name="LMAXFOCK">     0</i>
   <i type="int" name="NMAXFOCKAE">     0</i>
   <i type="logical" name="LFOCKAEDFT"> F  </i>
   <i name="HFSCREEN">      0.00000000</i>
   <i name="HFSCREENC">      0.00000000</i>
   <i type="int" name="NBANDSGWLOW">     0</i>
  </separator>
  <separator name="vdW DFT" >
   <i type="logical" name="LUSE_VDW"> F  </i>
   <i name="Zab_VDW">     -0.84910000</i>
   <i name="PARAM1">      0.12340000</i>
   <i name="PARAM2">      1.00000000</i>
   <i name="PARAM3">      0.00000000</i>
  </separator>
  <separator name="model GW" >
   <i type="int" name="MODEL_GW">     0</i>
   <i name="MODEL_EPS0">     13.50244245</i>
   <i name="MODEL_ALPHA">      1.00000000</i>
  </separator>
  <separator name="linear response parameters" >
   <i type="logical" name="LEPSILON"> F  </i>
   <i type="logical" name="LRPA"> F  </i>
   <i type="logical" name="LNABLA"> F  </i>
   <i type="logical" name="LVEL"> F  </i>
   <i name="CSHIFT">      0.10000000</i>
   <i name="OMEGAMAX">     -1.00000000</i>
   <i name="DEG_THRESHOLD">      0.00200000</i>
   <i name="RTIME">     -0.10000000</i>
   <i name="WPLASMAI">      0.00000000</i>
   <v name="DFIELD">      0.00000000      0.00000000      0.00000000</v>
   <v name="WPLASMA">      0.00000000      0.00000000      0.00000000      0.00000000      0.00000000      0.00000000      0.00000000      0.00000000      0.00000000</v>
  </separator>
  <separator name="orbital magnetization" >
   <i type="logical" name="NUCIND"> F  </i>
   <v name="MAGPOS">      0.00000000      0.00000000      0.00000000</v>
   <i type="logical" name="LNICSALL"> T  </i>
   <i type="logical" name="ORBITALMAG"> F  </i>
   <i type="logical" name="LMAGBLOCH"> F  </i>
   <i type="logical" name="LCHIMAG"> F  </i>
   <i type="logical" name="LGAUGE"> T  </i>
   <i type="int" name="MAGATOM">     0</i>
   <v name="MAGDIPOL">      0.00000000      0.00000000      0.00000000</v>
   <v name="AVECCONST">      0.00000000      0.00000000      0.00000000</v>
  </separator>
  <separator name="response functions" >
   <i type="logical" name="LFINITE_TEMPERATURE"> F  </i>
   <i type="logical" name="LADDER"> F  </i>
   <i type="logical" name="LRPAFORCE"> F  </i>
   <i type="logical" name="LFXC"> F  </i>
   <i type="logical" name="LHARTREE"> T  </i>
   <i type="int" name="IBSE">     0</i>
   <v type="int" name="KPOINT">    -1     0     0     0</v>
   <i type="logical" name="LTCTC"> F  </i>
   <i type="logical" name="LTCTE"> F  </i>
   <i type="logical" name="LTETE"> F  </i>
   <i type="logical" name="LTRIPLET"> F  </i>
   <i type="logical" name="LFXCEPS"> F  </i>
   <i type="logical" name="LFXHEG"> F  </i>
   <i type="int" name="NATURALO">     2</i>
   <i type="logical" name="LHOLEGF"> F  </i>
   <i type="logical" name="L2ORDER"> F  </i>
   <i type="logical" name="LDMP1"> F  </i>
   <i type="logical" name="LMP2LT"> F  </i>
   <i type="logical" name="LSMP2LT"> F  </i>
   <i type="logical" name="LGWLF"> F  </i>
   <i name="ENCUTGW">     -2.00000000</i>
   <i name="ENCUTGWSOFT">     -2.00000000</i>
   <i name="ENCUTLF">     -1.00000000</i>
   <i type="logical" name="LESF_SPLINES"> F  </i>
   <i type="int" name="LMAXMP2">    -1</i>
   <i name="SCISSOR">      0.00000000</i>
   <i type="int" name="NOMEGA">     0</i>
   <i type="int" name="NOMEGAR">     0</i>
   <i type="int" name="NBANDSGW">    -1</i>
   <i type="int" name="NBANDSO">    -1</i>
   <i type="int" name="NBANDSV">    -1</i>
   <i type="int" name="NELMGW">     1</i>
   <i type="int" name="NELMHF">     1</i>
   <i type="int" name="DIM">     3</i>
   <i type="int" name="IESPILON">     4</i>
   <i type="int" name="ANTIRES">     0</i>
   <i name="OMEGAMAX">    -30.00000000</i>
   <i name="OMEGAMIN">    -30.00000000</i>
   <i name="OMEGATL">   -200.00000000</i>
   <i type="int" name="OMEGAGRID">     0</i>
   <i name="CSHIFT">     -0.10000000</i>
   <i type="logical" name="LSELFENERGY"> F  </i>
   <i type="logical" name="LSPECTRAL"> F  </i>
   <i type="logical" name="LSPECTRALGW"> F  </i>
   <i type="logical" name="LSINGLES"> F  </i>
   <i type="logical" name="LFERMIGW"> F  </i>
   <i type="logical" name="ODDONLYGW"> F  </i>
   <i type="logical" name="EVENONLYGW"> F  </i>
   <i type="int" name="NKREDLFX">     1</i>
   <i type="int" name="NKREDLFY">     1</i>
   <i type="int" name="NKREDLFZ">     1</i>
   <i type="int" name="MAXMEM">  2800</i>
   <i type="int" name="TELESCOPE">     0</i>
   <i type="int" name="NTAUPAR">    -1</i>
   <i type="int" name="NOMEGAPAR">    -1</i>
   <i name="DAMP_NEWTON">      0.80000001</i>
   <i name="LAMBDA">      1.00000000</i>
  </separator>
  <separator name="External order field" >
   <i name="OFIELD_KAPPA">      0.00000000</i>
   <v name="OFIELD_K">      0.00000000      0.00000000      0.00000000</v>
   <i name="OFIELD_Q6_NEAR">      0.00000000</i>
   <i name="OFIELD_Q6_FAR">      0.00000000</i>
   <i name="OFIELD_A">      0.00000000</i>
  </separator>
  <separator name="optional k-points parameters" >
   <i type="int" name="KPOINTS_OPT_MODE">     1</i>
   <i type="logical" name="LKPOINTS_OPT"> F  </i>
  </separator>
 </parameters>
 <atominfo>
  <atoms>     146 </atoms>
  <types>       2 </types>
  <array name="atoms" >
   <dimension dim="1">ion</dimension>
   <field type="string">element</field>
   <field type="int">atomtype</field>
   <set>
    <rc><c>Cu</c><c>   1</c></rc>
    <rc><c>Cu</c><c>   1</c></rc>
    <rc><c>Cu</c><c>   1</c></rc>
    <rc><c>Cu</c><c>   1</c></rc>
    <rc><c>Cu</c><c>   1</c></rc>
    <rc><c>Cu</c><c>   1</c></rc>
    <rc><c>Cu</c><c>   1</c></rc>
    <rc><c>Cu</c><c>   1</c></rc>
    <rc><c>Cu</c><c>   1</c></rc>
    <rc><c>Cu</c><c>   1</c></rc>
    <rc><c>Cu</c><c>   1</c></rc>
    <rc><c>Cu</c><c>   1</c></rc>
    <rc><c>Cu</c><c>   1</c></rc>
    <rc><c>Cu</c><c>   1</c></rc>
    <rc><c>Cu</c><c>   1</c></rc>
    <rc><c>Cu</c><c>   1</c></rc>
    <rc><c>Cu</c><c>   1</c></rc>
    <rc><c>Cu</c><c>   1</c></rc>
    <rc><c>Cu</c><c>   1</c></rc>
    <rc><c>Cu</c><c>   1</c></rc>
    <rc><c>Cu</c><c>   1</c></rc>
    <rc><c>Cu</c><c>   1</c></rc>
    <rc><c>Cu</c><c>   1</c></rc>
    <rc><c>Cu</c><c>   1</c></rc>
    <rc><c>Cu</c><c>   1</c></rc>
    <rc><c>Cu</c><c>   1</c></rc>
    <rc><c>Cu</c><c>   1</c></rc>
    <rc><c>Cu</c><c>   1</c></rc>
    <rc><c>Cu</c><c>   1</c></rc>
    <rc><c>Cu</c><c>   1</c></rc>
    <rc><c>Cu</c><c>   1</c></rc>
    <rc><c>Cu</c><c>   1</c></rc>
    <rc><c>Cu</c><c>   1</c></rc>
    <rc><c>Cu</c><c>   1</c></rc>
    <rc><c>Cu</c><c>   1</c></rc>
    <rc><c>Cu</c><c>   1</c></rc>
    <rc><c>Cu</c><c>   1</c></rc>
    <rc><c>Cu</c><c>   1</c></rc>
    <rc><c>Cu</c><c>   1</c></rc>
    <rc><c>Cu</c><c>   1</c></rc>
    <rc><c>Cu</c><c>   1</c></rc>
    <rc><c>Cu</c><c>   1</c></rc>
    <rc><c>Cu</c><c>   1</c></rc>
    <rc><c>Cu</c><c>   1</c></rc>
    <rc><c>Cu</c><c>   1</c></rc>
    <rc><c>Cu</c><c>   1</c></rc>
    <rc><c>Cu</c><c>   1</c></rc>
    <rc><c>Cu</c><c>   1</c></rc>
    <rc><c>Cu</c><c>   1</c></rc>
    <rc><c>Cu</c><c>   1</c></rc>
    <rc><c>Cu</c><c>   1</c></rc>
    <rc><c>Cu</c><c>   1</c></rc>
    <rc><c>Cu</c><c>   1</c></rc>
    <rc><c>Cu</c><c>   1</c></rc>
    <rc><c>Cu</c><c>   1</c></rc>
    <rc><c>Cu</c><c>   1</c></rc>
    <rc><c>Cu</c><c>   1</c></rc>
    <rc><c>Cu</c><c>   1</c></rc>
    <rc><c>Cu</c><c>   1</c></rc>
    <rc><c>Cu</c><c>   1</c></rc>
    <rc><c>Cu</c><c>   1</c></rc>
    <rc><c>Cu</c><c>   1</c></rc>
    <rc><c>Cu</c><c>   1</c></rc>
    <rc><c>Cu</c><c>   1</c></rc>
    <rc><c>Cu</c><c>   1</c></rc>
    <rc><c>Cu</c><c>   1</c></rc>
    <rc><c>Cu</c><c>   1</c></rc>
    <rc><c>Cu</c><c>   1</c></rc>
    <rc><c>Cu</c><c>   1</c></rc>
    <rc><c>Cu</c><c>   1</c></rc>
    <rc><c>Cu</c><c>   1</c></rc>
    <rc><c>Cu</c><c>   1</c></rc>
    <rc><c>Cu</c><c>   1</c></rc>
    <rc><c>Cu</c><c>   1</c></rc>
    <rc><c>Cu</c><c>   1</c></rc>
    <rc><c>Cu</c><c>   1</c></rc>
    <rc><c>Cu</c><c>   1</c></rc>
    <rc><c>Cu</c><c>   1</c></rc>
    <rc><c>Cu</c><c>   1</c></rc>
    <rc><c>Cu</c><c>   1</c></rc>
    <rc><c>Cu</c><c>   1</c></rc>
    <rc><c>Cu</c><c>   1</c></rc>
    <rc><c>Cu</c><c>   1</c></rc>
    <rc><c>Cu</c><c>   1</c></rc>
    <rc><c>Cu</c><c>   1</c></rc>
    <rc><c>Cu</c><c>   1</c></rc>
    <rc><c>Cu</c><c>   1</c></rc>
    <rc><c>Cu</c><c>   1</c></rc>
    <rc><c>Cu</c><c>   1</c></rc>
    <rc><c>Cu</c><c>   1</c></rc>
    <rc><c>Cu</c><c>   1</c></rc>
    <rc><c>Cu</c><c>   1</c></rc>
    <rc><c>Cu</c><c>   1</c></rc>
    <rc><c>Cu</c><c>   1</c></rc>
    <rc><c>Cu</c><c>   1</c></rc>
    <rc><c>Cu</c><c>   1</c></rc>
    <rc><c>Cu</c><c>   1</c></rc>
    <rc><c>Cu</c><c>   1</c></rc>
    <rc><c>Cu</c><c>   1</c></rc>
    <rc><c>Cu</c><c>   1</c></rc>
    <rc><c>Cu</c><c>   1</c></rc>
    <rc><c>Cu</c><c>   1</c></rc>
    <rc><c>Cu</c><c>   1</c></rc>
    <rc><c>Cu</c><c>   1</c></rc>
    <rc><c>Cu</c><c>   1</c></rc>
    <rc><c>Cu</c><c>   1</c></rc>
    <rc><c>Cu</c><c>   1</c></rc>
    <rc><c>Cu</c><c>   1</c></rc>
    <rc><c>Cu</c><c>   1</c></rc>
    <rc><c>Cu</c><c>   1</c></rc>
    <rc><c>Cu</c><c>   1</c></rc>
    <rc><c>Cu</c><c>   1</c></rc>
    <rc><c>Cu</c><c>   1</c></rc>
    <rc><c>Cu</c><c>   1</c></rc>
    <rc><c>Cu</c><c>   1</c></rc>
    <rc><c>Cu</c><c>   1</c></rc>
    <rc><c>Cu</c><c>   1</c></rc>
    <rc><c>Cu</c><c>   1</c></rc>
    <rc><c>Cu</c><c>   1</c></rc>
    <rc><c>Cu</c><c>   1</c></rc>
    <rc><c>Cu</c><c>   1</c></rc>
    <rc><c>Cu</c><c>   1</c></rc>
    <rc><c>Cu</c><c>   1</c></rc>
    <rc><c>Cu</c><c>   1</c></rc>
    <rc><c>Cu</c><c>   1</c></rc>
    <rc><c>Cu</c><c>   1</c></rc>
    <rc><c>Cu</c><c>   1</c></rc>
    <rc><c>Cu</c><c>   1</c></rc>
    <rc><c>Cu</c><c>   1</c></rc>
    <rc><c>Cu</c><c>   1</c></rc>
    <rc><c>Cu</c><c>   1</c></rc>
    <rc><c>Cu</c><c>   1</c></rc>
    <rc><c>Cu</c><c>   1</c></rc>
    <rc><c>Cu</c><c>   1</c></rc>
    <rc><c>Cu</c><c>   1</c></rc>
    <rc><c>Cu</c><c>   1</c></rc>
    <rc><c>Cu</c><c>   1</c></rc>
    <rc><c>Cu</c><c>   1</c></rc>
    <rc><c>Cu</c><c>   1</c></rc>
    <rc><c>Cu</c><c>   1</c></rc>
    <rc><c>Cu</c><c>   1</c></rc>
    <rc><c>Cu</c><c>   1</c></rc>
    <rc><c>Cu</c><c>   1</c></rc>
    <rc><c>Cu</c><c>   1</c></rc>
    <rc><c>H </c><c>   2</c></rc>
    <rc><c>H </c><c>   2</c></rc>
   </set>
  </array>
  <array name="atomtypes" >
   <dimension dim="1">type</dimension>
   <field type="int">atomspertype</field>
   <field type="string">element</field>
   <field>mass</field>
   <field>valence</field>
   <field type="string">pseudopotential</field>
   <set>
    <rc><c> 144</c><c>Cu</c><c>     63.54600000</c><c>     11.00000000</c><c>  PAW_PBE Cu 22Jun2005                  </c></rc>
    <rc><c>   2</c><c>H </c><c>      1.00000000</c><c>      1.00000000</c><c>  PAW_PBE H 15Jun2001                   </c></rc>
   </set>
  </array>
 </atominfo>
 <structure name="initialpos" >
  <crystal>
   <varray name="basis" >
    <v>      10.89000034       0.00000000       0.00000000 </v>
    <v>       0.00000000      10.89000034       0.00000000 </v>
    <v>       0.00000000       0.00000000      27.70499992 </v>
   </varray>
   <i name="volume">   3285.59432860 </i>
   <varray name="rec_basis" >
    <v>       0.09182736       0.00000000       0.00000000 </v>
    <v>       0.00000000       0.09182736       0.00000000 </v>
    <v>       0.00000000       0.00000000       0.03609457 </v>
   </varray>
  </crystal>
  <varray name="positions" >
   <v>       0.00000000       0.00000000       0.00000000 </v>
   <v>       0.00000000       0.33333333       0.00000000 </v>
   <v>       0.00000000       0.66666667       0.00000000 </v>
   <v>       0.33333333       0.00000000       0.00000000 </v>
   <v>       0.33333333       0.33333333       0.00000000 </v>
   <v>       0.33333333       0.66666667       0.00000000 </v>
   <v>       0.66666667       0.00000000       0.00000000 </v>
   <v>       0.66666667       0.33333333       0.00000000 </v>
   <v>       0.66666667       0.66666667       0.00000000 </v>
   <v>       0.16666667       0.16666667       0.00000000 </v>
   <v>       0.16666667       0.50000000       0.00000000 </v>
   <v>       0.16666667       0.83333333       0.00000000 </v>
   <v>       0.50000000       0.16666667       0.00000000 </v>
   <v>       0.50000000       0.50000000       0.00000000 </v>
   <v>       0.50000000       0.83333333       0.00000000 </v>
   <v>       0.83333333       0.16666667       0.00000000 </v>
   <v>       0.83333333       0.50000000       0.00000000 </v>
   <v>       0.83333333       0.83333333       0.00000000 </v>
   <v>       0.00000000       0.16666667       0.06551164 </v>
   <v>       0.00000000       0.50000000       0.06551164 </v>
   <v>       0.00000000       0.83333333       0.06551164 </v>
   <v>       0.33333333       0.16666667       0.06551164 </v>
   <v>       0.33333333       0.50000000       0.06551164 </v>
   <v>       0.33333333       0.83333333       0.06551164 </v>
   <v>       0.66666667       0.16666667       0.06551164 </v>
   <v>       0.66666667       0.50000000       0.06551164 </v>
   <v>       0.66666667       0.83333333       0.06551164 </v>
   <v>       0.16666667       0.00000000       0.06551164 </v>
   <v>       0.16666667       0.33333333       0.06551164 </v>
   <v>       0.16666667       0.66666667       0.06551164 </v>
   <v>       0.50000000       0.00000000       0.06551164 </v>
   <v>       0.50000000       0.33333333       0.06551164 </v>
   <v>       0.50000000       0.66666667       0.06551164 </v>
   <v>       0.83333333       0.00000000       0.06551164 </v>
   <v>       0.83333333       0.33333333       0.06551164 </v>
   <v>       0.83333333       0.66666667       0.06551164 </v>
   <v>       0.00000000       0.00000000       0.13119553 </v>
   <v>       0.00000000       0.33333333       0.13119553 </v>
   <v>       0.00000000       0.66666667       0.13119553 </v>
   <v>       0.33333333       0.00000000       0.13119553 </v>
   <v>       0.33333333       0.33333333       0.13119553 </v>
   <v>       0.33333333       0.66666667       0.13119553 </v>
   <v>       0.66666667       0.00000000       0.13119553 </v>
   <v>       0.66666667       0.33333333       0.13119553 </v>
   <v>       0.66666667       0.66666667       0.13119553 </v>
   <v>       0.16666667       0.16666667       0.13119553 </v>
   <v>       0.16666667       0.50000000       0.13119553 </v>
   <v>       0.16666667       0.83333333       0.13119553 </v>
   <v>       0.50000000       0.16666667       0.13119553 </v>
   <v>       0.50000000       0.50000000       0.13119553 </v>
   <v>       0.50000000       0.83333333       0.13119553 </v>
   <v>       0.83333333       0.16666667       0.13119553 </v>
   <v>       0.83333333       0.50000000       0.13119553 </v>
   <v>       0.83333333       0.83333333       0.13119553 </v>
   <v>       0.00000000       0.16666667       0.19620680 </v>
   <v>       0.00000000       0.50000000       0.19620680 </v>
   <v>       0.00000000       0.83333333       0.19620680 </v>
   <v>       0.33333333       0.16666667       0.19620680 </v>
   <v>       0.33333333       0.50000000       0.19620680 </v>
   <v>       0.33333333       0.83333333       0.19620680 </v>
   <v>       0.66666667       0.16666667       0.19620680 </v>
   <v>       0.66666667       0.50000000       0.19620680 </v>
   <v>       0.66666667       0.83333333       0.19620680 </v>
   <v>       0.16666667       0.00000000       0.19620680 </v>
   <v>       0.16666667       0.33333333       0.19620680 </v>
   <v>       0.16666667       0.66666667       0.19620680 </v>
   <v>       0.50000000       0.00000000       0.19620680 </v>
   <v>       0.50000000       0.33333333       0.19620680 </v>
   <v>       0.50000000       0.66666667       0.19620680 </v>
   <v>       0.83333333       0.00000000       0.19620680 </v>
   <v>       0.83333333       0.33333333       0.19620680 </v>
   <v>       0.83333333       0.66666667       0.19620680 </v>
   <v>       0.00000000       0.00000000       0.25873860 </v>
   <v>       0.00000000       0.33333333       0.25873860 </v>
   <v>       0.00000000       0.66666667       0.25873860 </v>
   <v>       0.33333333       0.00000000       0.25873860 </v>
   <v>       0.33333333       0.33333333       0.25873860 </v>
   <v>       0.33333333       0.66666667       0.25873860 </v>
   <v>       0.66666667       0.00000000       0.25873860 </v>
   <v>       0.66666667       0.33333333       0.25873860 </v>
   <v>       0.66666667       0.66666667       0.25873860 </v>
   <v>       0.16666667       0.16666667       0.25873860 </v>
   <v>       0.16666667       0.50000000       0.25873860 </v>
   <v>       0.16666667       0.83333333       0.25873860 </v>
   <v>       0.50000000       0.16666667       0.25873860 </v>
   <v>       0.50000000       0.50000000       0.25873860 </v>
   <v>       0.50000000       0.83333333       0.25873860 </v>
   <v>       0.83333333       0.16666667       0.25873860 </v>
   <v>       0.83333333       0.50000000       0.25873860 </v>
   <v>       0.83333333       0.83333333       0.25873860 </v>
   <v>       0.00000000       0.16666667       0.32119954 </v>
   <v>       0.00000000       0.50000000       0.32119954 </v>
   <v>       0.00000000       0.83333333       0.32119954 </v>
   <v>       0.33333333       0.16666667       0.32119954 </v>
   <v>       0.33333333       0.50000000       0.32119954 </v>
   <v>       0.33333333       0.83333333       0.32119954 </v>
   <v>       0.66666667       0.16666667       0.32119954 </v>
   <v>       0.66666667       0.50000000       0.32119954 </v>
   <v>       0.66666667       0.83333333       0.32119954 </v>
   <v>       0.16666667       0.00000000       0.32119954 </v>
   <v>       0.16666667       0.33333333       0.32119954 </v>
   <v>       0.16666667       0.66666667       0.32119954 </v>
   <v>       0.50000000       0.00000000       0.32119954 </v>
   <v>       0.50000000       0.33333333       0.32119954 </v>
   <v>       0.50000000       0.66666667       0.32119954 </v>
   <v>       0.83333333       0.00000000       0.32119954 </v>
   <v>       0.83333333       0.33333333       0.32119954 </v>
   <v>       0.83333333       0.66666667       0.32119954 </v>
   <v>       0.00000000       0.00000000       0.38476372 </v>
   <v>       0.00000000       0.33333333       0.38476372 </v>
   <v>       0.00000000       0.66666667       0.38476372 </v>
   <v>       0.33333333       0.00000000       0.38476372 </v>
   <v>       0.33333333       0.33333333       0.38476372 </v>
   <v>       0.33333333       0.66666667       0.38476372 </v>
   <v>       0.66666667       0.00000000       0.38476372 </v>
   <v>       0.66666667       0.33333333       0.38476372 </v>
   <v>       0.66666667       0.66666667       0.38476372 </v>
   <v>       0.16666667       0.16666667       0.38476372 </v>
   <v>       0.16666667       0.50000000       0.38476372 </v>
   <v>       0.16666667       0.83333333       0.38476372 </v>
   <v>       0.50000000       0.16666667       0.38476372 </v>
   <v>       0.50000000       0.50000000       0.38476372 </v>
   <v>       0.50000000       0.83333333       0.38476372 </v>
   <v>       0.83333333       0.16666667       0.38476372 </v>
   <v>       0.83333333       0.50000000       0.38476372 </v>
   <v>       0.83333333       0.83333333       0.38476372 </v>
   <v>       0.00000000       0.16666667       0.44736473 </v>
   <v>       0.00000000       0.50000000       0.44736473 </v>
   <v>       0.00000000       0.83333333       0.44736473 </v>
   <v>       0.33333333       0.16666667       0.44736473 </v>
   <v>       0.33333333       0.50000000       0.44736473 </v>
   <v>       0.33333333       0.83333333       0.44736473 </v>
   <v>       0.66666667       0.16666667       0.44736473 </v>
   <v>       0.66666667       0.50000000       0.44736473 </v>
   <v>       0.66666667       0.83333333       0.44736473 </v>
   <v>       0.16666667       0.00000000       0.44736473 </v>
   <v>       0.16666667       0.33333333       0.44736473 </v>
   <v>       0.16666667       0.66666667       0.44736473 </v>
   <v>       0.50000000       0.00000000       0.44736473 </v>
   <v>       0.50000000       0.33333333       0.44736473 </v>
   <v>       0.50000000       0.66666667       0.44736473 </v>
   <v>       0.83333333       0.00000000       0.44736473 </v>
   <v>       0.83333333       0.33333333       0.44736473 </v>
   <v>       0.83333333       0.66666667       0.44736473 </v>
   <v>       0.33333333       0.50000000       0.50150658 </v>
   <v>       0.33333333       0.56850321       0.50150658 </v>
  </varray>
  <varray name="selective"  type="logical" >
   <v type="logical" >  F  F  F </v>
   <v type="logical" >  F  F  F </v>
   <v type="logical" >  F  F  F </v>
   <v type="logical" >  F  F  F </v>
   <v type="logical" >  F  F  F </v>
   <v type="logical" >  F  F  F </v>
   <v type="logical" >  F  F  F </v>
   <v type="logical" >  F  F  F </v>
   <v type="logical" >  F  F  F </v>
   <v type="logical" >  F  F  F </v>
   <v type="logical" >  F  F  F </v>
   <v type="logical" >  F  F  F </v>
   <v type="logical" >  F  F  F </v>
   <v type="logical" >  F  F  F </v>
   <v type="logical" >  F  F  F </v>
   <v type="logical" >  F  F  F </v>
   <v type="logical" >  F  F  F </v>
   <v type="logical" >  F  F  F </v>
   <v type="logical" >  F  F  F </v>
   <v type="logical" >  F  F  F </v>
   <v type="logical" >  F  F  F </v>
   <v type="logical" >  F  F  F </v>
   <v type="logical" >  F  F  F </v>
   <v type="logical" >  F  F  F </v>
   <v type="logical" >  F  F  F </v>
   <v type="logical" >  F  F  F </v>
   <v type="logical" >  F  F  F </v>
   <v type="logical" >  F  F  F </v>
   <v type="logical" >  F  F  F </v>
   <v type="logical" >  F  F  F </v>
   <v type="logical" >  F  F  F </v>
   <v type="logical" >  F  F  F </v>
   <v type="logical" >  F  F  F </v>
   <v type="logical" >  F  F  F </v>
   <v type="logical" >  F  F  F </v>
   <v type="logical" >  F  F  F </v>
   <v type="logical" >  F  F  F </v>
   <v type="logical" >  F  F  F </v>
   <v type="logical" >  F  F  F </v>
   <v type="logical" >  F  F  F </v>
   <v type="logical" >  F  F  F </v>
   <v type="logical" >  F  F  F </v>
   <v type="logical" >  F  F  F </v>
   <v type="logical" >  F  F  F </v>
   <v type="logical" >  F  F  F </v>
   <v type="logical" >  F  F  F </v>
   <v type="logical" >  F  F  F </v>
   <v type="logical" >  F  F  F </v>
   <v type="logical" >  F  F  F </v>
   <v type="logical" >  F  F  F </v>
   <v type="logical" >  F  F  F </v>
   <v type="logical" >  F  F  F </v>
   <v type="logical" >  F  F  F </v>
   <v type="logical" >  F  F  F </v>
   <v type="logical" >  T  T  T </v>
   <v type="logical" >  T  T  T </v>
   <v type="logical" >  T  T  T </v>
   <v type="logical" >  T  T  T </v>
   <v type="logical" >  T  T  T </v>
   <v type="logical" >  T  T  T </v>
   <v type="logical" >  T  T  T </v>
   <v type="logical" >  T  T  T </v>
   <v type="logical" >  T  T  T </v>
   <v type="logical" >  T  T  T </v>
   <v type="logical" >  T  T  T </v>
   <v type="logical" >  T  T  T </v>
   <v type="logical" >  T  T  T </v>
   <v type="logical" >  T  T  T </v>
   <v type="logical" >  T  T  T </v>
   <v type="logical" >  T  T  T </v>
   <v type="logical" >  T  T  T </v>
   <v type="logical" >  T  T  T </v>
   <v type="logical" >  T  T  T </v>
   <v type="logical" >  T  T  T </v>
   <v type="logical" >  T  T  T </v>
   <v type="logical" >  T  T  T </v>
   <v type="logical" >  T  T  T </v>
   <v type="logical" >  T  T  T </v>
   <v type="logical" >  T  T  T </v>
   <v type="logical" >  T  T  T </v>
   <v type="logical" >  T  T  T </v>
   <v type="logical" >  T  T  T </v>
   <v type="logical" >  T  T  T </v>
   <v type="logical" >  T  T  T </v>
   <v type="logical" >  T  T  T </v>
   <v type="logical" >  T  T  T </v>
   <v type="logical" >  T  T  T </v>
   <v type="logical" >  T  T  T </v>
   <v type="logical" >  T  T  T </v>
   <v type="logical" >  T  T  T </v>
   <v type="logical" >  T  T  T </v>
   <v type="logical" >  T  T  T </v>
   <v type="logical" >  T  T  T </v>
   <v type="logical" >  T  T  T </v>
   <v type="logical" >  T  T  T </v>
   <v type="logical" >  T  T  T </v>
   <v type="logical" >  T  T  T </v>
   <v type="logical" >  T  T  T </v>
   <v type="logical" >  T  T  T </v>
   <v type="logical" >  T  T  T </v>
   <v type="logical" >  T  T  T </v>
   <v type="logical" >  T  T  T </v>
   <v type="logical" >  T  T  T </v>
   <v type="logical" >  T  T  T </v>
   <v type="logical" >  T  T  T </v>
   <v type="logical" >  T  T  T </v>
   <v type="logical" >  T  T  T </v>
   <v type="logical" >  T  T  T </v>
   <v type="logical" >  T  T  T </v>
   <v type="logical" >  T  T  T </v>
   <v type="logical" >  T  T  T </v>
   <v type="logical" >  T  T  T </v>
   <v type="logical" >  T  T  T </v>
   <v type="logical" >  T  T  T </v>
   <v type="logical" >  T  T  T </v>
   <v type="logical" >  T  T  T </v>
   <v type="logical" >  T  T  T </v>
   <v type="logical" >  T  T  T </v>
   <v type="logical" >  T  T  T </v>
   <v type="logical" >  T  T  T </v>
   <v type="logical" >  T  T  T </v>
   <v type="logical" >  T  T  T </v>
   <v type="logical" >  T  T  T </v>
   <v type="logical" >  T  T  T </v>
   <v type="logical" >  T  T  T </v>
   <v type="logical" >  T  T  T </v>
   <v type="logical" >  T  T  T </v>
   <v type="logical" >  T  T  T </v>
   <v type="logical" >  T  T  T </v>
   <v type="logical" >  T  T  T </v>
   <v type="logical" >  T  T  T </v>
   <v type="logical" >  T  T  T </v>
   <v type="logical" >  T  T  T </v>
   <v type="logical" >  T  T  T </v>
   <v type="logical" >  T  T  T </v>
   <v type="logical" >  T  T  T </v>
   <v type="logical" >  T  T  T </v>
   <v type="logical" >  T  T  T </v>
   <v type="logical" >  T  T  T </v>
   <v type="logical" >  T  T  T </v>
   <v type="logical" >  T  T  T </v>
   <v type="logical" >  T  T  T </v>
   <v type="logical" >  T  T  T </v>
   <v type="logical" >  T  T  T </v>
   <v type="logical" >  T  T  T </v>
   <v type="logical" >  T  T  T </v>
  </varray>
  <nose>
   <v>      -3.00000000       0.00000000       0.00010000       0.00010000 </v>
  </nose>
 </structure>
 <calculation>
  <scstep>
   <time name="dav">  769.99  778.00</time>
   <time name="total">  770.42  778.44</time>
   <energy>
    <i name="alphaZ">   4623.72760507 </i>
    <i name="ewald"> 916230.29561003 </i>
    <i name="hartreedc">**************** </i>
    <i name="XCdc">   6597.48876674 </i>
    <i name="pawpsdc"> 176849.62809079 </i>
    <i name="pawaedc">-192088.21954245 </i>
    <i name="eentropy">      0.01614037 </i>
    <i name="bandstr">  16002.37289225 </i>
    <i name="atom"> 200322.85745410 </i>
    <i name="e_fr_energy">  15545.04304203 </i>
    <i name="e_wo_entrp">  15545.02690166 </i>
    <i name="e_0_energy">  15545.03766191 </i>
   </energy>
  </scstep>
  <scstep>
   <time name="dav">  768.52  777.41</time>
   <time name="total">  768.54  777.42</time>
   <energy>
    <i name="e_fr_energy">   2264.60105620 </i>
    <i name="e_wo_entrp">   2264.61730951 </i>
    <i name="e_0_energy">   2264.60647397 </i>
   </energy>
  </scstep>
  <scstep>
   <time name="dav">  769.89  778.36</time>
   <time name="total">  769.93  778.40</time>
   <energy>
    <i name="e_fr_energy">   -387.71099189 </i>
    <i name="e_wo_entrp">   -387.81388154 </i>
    <i name="e_0_energy">   -387.74528844 </i>
   </energy>
  </scstep>
  <scstep>
   <time name="dav">  823.89  833.79</time>
   <time name="total">  823.91  833.81</time>
   <energy>
    <i name="e_fr_energy">   -609.16357692 </i>
    <i name="e_wo_entrp">   -609.40481456 </i>
    <i name="e_0_energy">   -609.24398947 </i>
   </energy>
  </scstep>
  <scstep>
   <time name="dav">  839.05  848.87</time>
   <time name="total">  843.29  853.14</time>
   <energy>
    <i name="e_fr_energy">   -615.13358306 </i>
    <i name="e_wo_entrp">   -615.37619616 </i>
    <i name="e_0_energy">   -615.21445409 </i>
   </energy>
  </scstep>
  <scstep>
   <time name="dav">  818.56  828.29</time>
   <time name="total">  823.05  832.83</time>
   <energy>
    <i name="e_fr_energy">   -499.19707116 </i>
    <i name="e_wo_entrp">   -499.13773909 </i>
    <i name="e_0_energy">   -499.17729380 </i>
   </energy>
  </scstep>
  <scstep>
   <time name="dav">  831.76  841.72</time>
   <time name="total">  836.38  846.38</time>
   <energy>
    <i name="e_fr_energy">   -441.34300566 </i>
    <i name="e_wo_entrp">   -441.28141660 </i>
    <i name="e_0_energy">   -441.32247597 </i>
   </energy>
  </scstep>
  <scstep>
   <time name="dav">  866.12  875.98</time>
   <time name="total">  870.65  880.55</time>
   <energy>
    <i name="e_fr_energy">   -441.66724416 </i>
    <i name="e_wo_entrp">   -441.61534948 </i>
    <i name="e_0_energy">   -441.64994593 </i>
   </energy>
  </scstep>
  <scstep>
   <time name="dav">  953.07  963.09</time>
   <time name="total">  957.65  967.70</time>
   <energy>
    <i name="e_fr_energy">   -434.85590964 </i>
    <i name="e_wo_entrp">   -434.86097694 </i>
    <i name="e_0_energy">   -434.85759874 </i>
   </energy>
  </scstep>
  <scstep>
   <time name="dav"> 1045.11 1054.99</time>
   <time name="total"> 1049.69 1059.61</time>
   <energy>
    <i name="e_fr_energy">   -430.12704275 </i>
    <i name="e_wo_entrp">   -430.02768463 </i>
    <i name="e_0_energy">   -430.09392338 </i>
   </energy>
  </scstep>
  <scstep>
   <time name="dav"> 1193.16 1205.65</time>
   <time name="total"> 1197.70 1210.23</time>
   <energy>
    <i name="e_fr_energy">   -432.36769816 </i>
    <i name="e_wo_entrp">   -432.26853644 </i>
    <i name="e_0_energy">   -432.33464425 </i>
   </energy>
  </scstep>
  <scstep>
   <time name="dav">  843.20  853.09</time>
   <time name="total">  847.75  857.68</time>
   <energy>
    <i name="e_fr_energy">   -442.54751783 </i>
    <i name="e_wo_entrp">   -442.46072938 </i>
    <i name="e_0_energy">   -442.51858835 </i>
   </energy>
  </scstep>
  <scstep>
   <time name="dav">  869.01  878.50</time>
   <time name="total">  873.62  883.16</time>
   <energy>
    <i name="e_fr_energy">   -445.84660211 </i>
    <i name="e_wo_entrp">   -445.78369530 </i>
    <i name="e_0_energy">   -445.82563317 </i>
   </energy>
  </scstep>
  <scstep>
   <time name="dav">  835.60  844.92</time>
   <time name="total">  840.22  849.58</time>
   <energy>
    <i name="e_fr_energy">   -456.35723532 </i>
    <i name="e_wo_entrp">   -456.30852798 </i>
    <i name="e_0_energy">   -456.34099954 </i>
   </energy>
  </scstep>
  <scstep>
   <time name="dav">  900.93  910.81</time>
   <time name="total">  905.51  915.42</time>
   <energy>
    <i name="e_fr_energy">   -467.62573359 </i>
    <i name="e_wo_entrp">   -467.64750090 </i>
    <i name="e_0_energy">   -467.63298936 </i>
   </energy>
  </scstep>
  <scstep>
   <time name="dav">  980.57  992.09</time>
   <time name="total">  985.12  996.69</time>
   <energy>
    <i name="e_fr_energy">   -489.71489852 </i>
    <i name="e_wo_entrp">   -489.83471186 </i>
    <i name="e_0_energy">   -489.75483630 </i>
   </energy>
  </scstep>
  <scstep>
   <time name="dav">  842.40  852.63</time>
   <time name="total">  847.00  857.27</time>
   <energy>
    <i name="e_fr_energy">   -495.23950151 </i>
    <i name="e_wo_entrp">   -495.37986927 </i>
    <i name="e_0_energy">   -495.28629076 </i>
   </energy>
  </scstep>
  <scstep>
   <time name="dav">  833.38  843.31</time>
   <time name="total">  838.01  847.98</time>
   <energy>
    <i name="e_fr_energy">   -499.04302070 </i>
    <i name="e_wo_entrp">   -499.18955136 </i>
    <i name="e_0_energy">   -499.09186425 </i>
   </energy>
  </scstep>
  <scstep>
   <time name="dav">  972.33  985.03</time>
   <time name="total">  976.88  989.62</time>
   <energy>
    <i name="e_fr_energy">   -505.05034593 </i>
    <i name="e_wo_entrp">   -505.19257016 </i>
    <i name="e_0_energy">   -505.09775400 </i>
   </energy>
  </scstep>
  <scstep>
   <time name="dav">  849.79  860.24</time>
   <time name="total">  854.48  864.97</time>
   <energy>
    <i name="e_fr_energy">   -510.65683112 </i>
    <i name="e_wo_entrp">   -510.77469031 </i>
    <i name="e_0_energy">   -510.69611752 </i>
   </energy>
  </scstep>
  <scstep>
   <time name="dav"> 1009.60 1021.36</time>
   <time name="total"> 1014.16 1025.96</time>
   <energy>
    <i name="e_fr_energy">   -513.27300068 </i>
    <i name="e_wo_entrp">   -513.38285169 </i>
    <i name="e_0_energy">   -513.30961768 </i>
   </energy>
  </scstep>
  <scstep>
   <time name="dav">  887.80  898.16</time>
   <time name="total">  892.37  902.78</time>
   <energy>
    <i name="e_fr_energy">   -515.60066682 </i>
    <i name="e_wo_entrp">   -515.71190792 </i>
    <i name="e_0_energy">   -515.63774719 </i>
   </energy>
  </scstep>
  <scstep>
   <time name="dav">  874.64  885.79</time>
   <time name="total">  879.16  890.35</time>
   <energy>
    <i name="e_fr_energy">   -516.79452011 </i>
    <i name="e_wo_entrp">   -516.90222789 </i>
    <i name="e_0_energy">   -516.83042270 </i>
   </energy>
  </scstep>
  <scstep>
   <time name="dav">  912.03  923.51</time>
   <time name="total">  916.59  928.11</time>
   <energy>
    <i name="e_fr_energy">   -518.21053058 </i>
    <i name="e_wo_entrp">   -518.32850431 </i>
    <i name="e_0_energy">   -518.24985516 </i>
   </energy>
  </scstep>
  <scstep>
   <time name="dav">  851.76  862.24</time>
   <time name="total">  856.28  866.79</time>
   <energy>
    <i name="e_fr_energy">   -519.09461861 </i>
    <i name="e_wo_entrp">   -519.20675873 </i>
    <i name="e_0_energy">   -519.13199865 </i>
   </energy>
  </scstep>
  <scstep>
   <time name="dav">  858.63  868.74</time>
   <time name="total">  863.23  873.38</time>
   <energy>
    <i name="e_fr_energy">   -519.79144223 </i>
    <i name="e_wo_entrp">   -519.90097379 </i>
    <i name="e_0_energy">   -519.82795275 </i>
   </energy>
  </scstep>
  <scstep>
   <time name="dav">  857.18  867.06</time>
   <time name="total">  862.36  872.32</time>
   <energy>
    <i name="e_fr_energy">   -520.61453028 </i>
    <i name="e_wo_entrp">   -520.72392956 </i>
    <i name="e_0_energy">   -520.65099671 </i>
   </energy>
  </scstep>
  <scstep>
   <time name="dav">  837.78  847.70</time>
   <time name="total">  842.37  852.34</time>
   <energy>
    <i name="e_fr_energy">   -521.29045274 </i>
    <i name="e_wo_entrp">   -521.39938465 </i>
    <i name="e_0_energy">   -521.32676338 </i>
   </energy>
  </scstep>
  <scstep>
   <time name="dav">  843.55  854.24</time>
   <time name="total">  848.08  858.82</time>
   <energy>
    <i name="e_fr_energy">   -521.39575081 </i>
    <i name="e_wo_entrp">   -521.50583164 </i>
    <i name="e_0_energy">   -521.43244442 </i>
   </energy>
  </scstep>
  <scstep>
   <time name="dav">  872.95  884.06</time>
   <time name="total">  877.55  888.70</time>
   <energy>
    <i name="e_fr_energy">   -521.42863541 </i>
    <i name="e_wo_entrp">   -521.53991302 </i>
    <i name="e_0_energy">   -521.46572795 </i>
   </energy>
  </scstep>
  <scstep>
   <time name="dav">  832.11  842.44</time>
   <time name="total">  836.67  847.04</time>
   <energy>
    <i name="e_fr_energy">   -521.44397269 </i>
    <i name="e_wo_entrp">   -521.55403727 </i>
    <i name="e_0_energy">   -521.48066089 </i>
   </energy>
  </scstep>
  <scstep>
   <time name="dav">  630.13  637.86</time>
   <time name="total">  634.96  642.98</time>
   <energy>
    <i name="e_fr_energy">   -521.44525565 </i>
    <i name="e_wo_entrp">   -521.55500213 </i>
    <i name="e_0_energy">   -521.48183781 </i>
   </energy>
  </scstep>
  <scstep>
   <time name="dav">  575.92  583.25</time>
   <time name="total">  580.45  587.83</time>
   <energy>
    <i name="e_fr_energy">   -521.44570695 </i>
    <i name="e_wo_entrp">   -521.55561847 </i>
    <i name="e_0_energy">   -521.48234412 </i>
   </energy>
  </scstep>
  <scstep>
   <time name="dav">  570.50  577.02</time>
   <time name="total">  570.83  577.35</time>
   <energy>
    <i name="alphaZ">   4623.72760507 </i>
    <i name="ewald"> 916230.29561003 </i>
    <i name="hartreedc">**************** </i>
    <i name="XCdc">   6429.65660683 </i>
    <i name="pawpsdc"> 189051.25088912 </i>
    <i name="pawaedc">-204571.74305823 </i>
    <i name="eentropy">      0.10999305 </i>
    <i name="bandstr">  -1753.26153657 </i>
    <i name="atom"> 200322.85745410 </i>
    <i name="e_fr_energy">   -521.44578420 </i>
    <i name="e_wo_entrp">   -521.55577724 </i>
    <i name="e_0_energy">   -521.48244854 </i>
   </energy>
  </scstep>
  <structure>
   <crystal>
    <varray name="basis" >
     <v>      10.89000034       0.00000000       0.00000000 </v>
     <v>       0.00000000      10.89000034       0.00000000 </v>
     <v>       0.00000000       0.00000000      27.70499992 </v>
    </varray>
    <i name="volume">   3285.59432860 </i>
    <varray name="rec_basis" >
     <v>       0.09182736       0.00000000       0.00000000 </v>
     <v>       0.00000000       0.09182736       0.00000000 </v>
     <v>       0.00000000       0.00000000       0.03609457 </v>
    </varray>
   </crystal>
   <varray name="positions" >
    <v>       0.00000000       0.00000000       0.00000000 </v>
    <v>       0.00000000       0.33333333       0.00000000 </v>
    <v>       0.00000000       0.66666667       0.00000000 </v>
    <v>       0.33333333       0.00000000       0.00000000 </v>
    <v>       0.33333333       0.33333333       0.00000000 </v>
    <v>       0.33333333       0.66666667       0.00000000 </v>
    <v>       0.66666667       0.00000000       0.00000000 </v>
    <v>       0.66666667       0.33333333       0.00000000 </v>
    <v>       0.66666667       0.66666667       0.00000000 </v>
    <v>       0.16666667       0.16666667       0.00000000 </v>
    <v>       0.16666667       0.50000000       0.00000000 </v>
    <v>       0.16666667       0.83333333       0.00000000 </v>
    <v>       0.50000000       0.16666667       0.00000000 </v>
    <v>       0.50000000       0.50000000       0.00000000 </v>
    <v>       0.50000000       0.83333333       0.00000000 </v>
    <v>       0.83333333       0.16666667       0.00000000 </v>
    <v>       0.83333333       0.50000000       0.00000000 </v>
    <v>       0.83333333       0.83333333       0.00000000 </v>
    <v>       0.00000000       0.16666667       0.06551164 </v>
    <v>       0.00000000       0.50000000       0.06551164 </v>
    <v>       0.00000000       0.83333333       0.06551164 </v>
    <v>       0.33333333       0.16666667       0.06551164 </v>
    <v>       0.33333333       0.50000000       0.06551164 </v>
    <v>       0.33333333       0.83333333       0.06551164 </v>
    <v>       0.66666667       0.16666667       0.06551164 </v>
    <v>       0.66666667       0.50000000       0.06551164 </v>
    <v>       0.66666667       0.83333333       0.06551164 </v>
    <v>       0.16666667       0.00000000       0.06551164 </v>
    <v>       0.16666667       0.33333333       0.06551164 </v>
    <v>       0.16666667       0.66666667       0.06551164 </v>
    <v>       0.50000000       0.00000000       0.06551164 </v>
    <v>       0.50000000       0.33333333       0.06551164 </v>
    <v>       0.50000000       0.66666667       0.06551164 </v>
    <v>       0.83333333       0.00000000       0.06551164 </v>
    <v>       0.83333333       0.33333333       0.06551164 </v>
    <v>       0.83333333       0.66666667       0.06551164 </v>
    <v>       0.00000000       0.00000000       0.13119553 </v>
    <v>       0.00000000       0.33333333       0.13119553 </v>
    <v>       0.00000000       0.66666667       0.13119553 </v>
    <v>       0.33333333       0.00000000       0.13119553 </v>
    <v>       0.33333333       0.33333333       0.13119553 </v>
    <v>       0.33333333       0.66666667       0.13119553 </v>
    <v>       0.66666667       0.00000000       0.13119553 </v>
    <v>       0.66666667       0.33333333       0.13119553 </v>
    <v>       0.66666667       0.66666667       0.13119553 </v>
    <v>       0.16666667       0.16666667       0.13119553 </v>
    <v>       0.16666667       0.50000000       0.13119553 </v>
    <v>       0.16666667       0.83333333       0.13119553 </v>
    <v>       0.50000000       0.16666667       0.13119553 </v>
    <v>       0.50000000       0.50000000       0.13119553 </v>
    <v>       0.50000000       0.83333333       0.13119553 </v>
    <v>       0.83333333       0.16666667       0.13119553 </v>
    <v>       0.83333333       0.50000000       0.13119553 </v>
    <v>       0.83333333       0.83333333       0.13119553 </v>
    <v>       0.00000000       0.16666667       0.19620680 </v>
    <v>       0.00000000       0.50000000       0.19620680 </v>
    <v>       0.00000000       0.83333333       0.19620680 </v>
    <v>       0.33333333       0.16666667       0.19620680 </v>
    <v>       0.33333333       0.50000000       0.19620680 </v>
    <v>       0.33333333       0.83333333       0.19620680 </v>
    <v>       0.66666667       0.16666667       0.19620680 </v>
    <v>       0.66666667       0.50000000       0.19620680 </v>
    <v>       0.66666667       0.83333333       0.19620680 </v>
    <v>       0.16666667       0.00000000       0.19620680 </v>
    <v>       0.16666667       0.33333333       0.19620680 </v>
    <v>       0.16666667       0.66666667       0.19620680 </v>
    <v>       0.50000000       0.00000000       0.19620680 </v>
    <v>       0.50000000       0.33333333       0.19620680 </v>
    <v>       0.50000000       0.66666667       0.19620680 </v>
    <v>       0.83333333       0.00000000       0.19620680 </v>
    <v>       0.83333333       0.33333333       0.19620680 </v>
    <v>       0.83333333       0.66666667       0.19620680 </v>
    <v>       0.00000000       0.00000000       0.25873860 </v>
    <v>       0.00000000       0.33333333       0.25873860 </v>
    <v>       0.00000000       0.66666667       0.25873860 </v>
    <v>       0.33333333       0.00000000       0.25873860 </v>
    <v>       0.33333333       0.33333333       0.25873860 </v>
    <v>       0.33333333       0.66666667       0.25873860 </v>
    <v>       0.66666667       0.00000000       0.25873860 </v>
    <v>       0.66666667       0.33333333       0.25873860 </v>
    <v>       0.66666667       0.66666667       0.25873860 </v>
    <v>       0.16666667       0.16666667       0.25873860 </v>
    <v>       0.16666667       0.50000000       0.25873860 </v>
    <v>       0.16666667       0.83333333       0.25873860 </v>
    <v>       0.50000000       0.16666667       0.25873860 </v>
    <v>       0.50000000       0.50000000       0.25873860 </v>
    <v>       0.50000000       0.83333333       0.25873860 </v>
    <v>       0.83333333       0.16666667       0.25873860 </v>
    <v>       0.83333333       0.50000000       0.25873860 </v>
    <v>       0.83333333       0.83333333       0.25873860 </v>
    <v>       0.00000000       0.16666667       0.32119954 </v>
    <v>       0.00000000       0.50000000       0.32119954 </v>
    <v>       0.00000000       0.83333333       0.32119954 </v>
    <v>       0.33333333       0.16666667       0.32119954 </v>
    <v>       0.33333333       0.50000000       0.32119954 </v>
    <v>       0.33333333       0.83333333       0.32119954 </v>
    <v>       0.66666667       0.16666667       0.32119954 </v>
    <v>       0.66666667       0.50000000       0.32119954 </v>
    <v>       0.66666667       0.83333333       0.32119954 </v>
    <v>       0.16666667       0.00000000       0.32119954 </v>
    <v>       0.16666667       0.33333333       0.32119954 </v>
    <v>       0.16666667       0.66666667       0.32119954 </v>
    <v>       0.50000000       0.00000000       0.32119954 </v>
    <v>       0.50000000       0.33333333       0.32119954 </v>
    <v>       0.50000000       0.66666667       0.32119954 </v>
    <v>       0.83333333       0.00000000       0.32119954 </v>
    <v>       0.83333333       0.33333333       0.32119954 </v>
    <v>       0.83333333       0.66666667       0.32119954 </v>
    <v>       0.00000000       0.00000000       0.38476372 </v>
    <v>       0.00000000       0.33333333       0.38476372 </v>
    <v>       0.00000000       0.66666667       0.38476372 </v>
    <v>       0.33333333       0.00000000       0.38476372 </v>
    <v>       0.33333333       0.33333333       0.38476372 </v>
    <v>       0.33333333       0.66666667       0.38476372 </v>
    <v>       0.66666667       0.00000000       0.38476372 </v>
    <v>       0.66666667       0.33333333       0.38476372 </v>
    <v>       0.66666667       0.66666667       0.38476372 </v>
    <v>       0.16666667       0.16666667       0.38476372 </v>
    <v>       0.16666667       0.50000000       0.38476372 </v>
    <v>       0.16666667       0.83333333       0.38476372 </v>
    <v>       0.50000000       0.16666667       0.38476372 </v>
    <v>       0.50000000       0.50000000       0.38476372 </v>
    <v>       0.50000000       0.83333333       0.38476372 </v>
    <v>       0.83333333       0.16666667       0.38476372 </v>
    <v>       0.83333333       0.50000000       0.38476372 </v>
    <v>       0.83333333       0.83333333       0.38476372 </v>
    <v>       0.00000000       0.16666667       0.44736473 </v>
    <v>       0.00000000       0.50000000       0.44736473 </v>
    <v>       0.00000000       0.83333333       0.44736473 </v>
    <v>       0.33333333       0.16666667       0.44736473 </v>
    <v>       0.33333333       0.50000000       0.44736473 </v>
    <v>       0.33333333       0.83333333       0.44736473 </v>
    <v>       0.66666667       0.16666667       0.44736473 </v>
    <v>       0.66666667       0.50000000       0.44736473 </v>
    <v>       0.66666667       0.83333333       0.44736473 </v>
    <v>       0.16666667       0.00000000       0.44736473 </v>
    <v>       0.16666667       0.33333333       0.44736473 </v>
    <v>       0.16666667       0.66666667       0.44736473 </v>
    <v>       0.50000000       0.00000000       0.44736473 </v>
    <v>       0.50000000       0.33333333       0.44736473 </v>
    <v>       0.50000000       0.66666667       0.44736473 </v>
    <v>       0.83333333       0.00000000       0.44736473 </v>
    <v>       0.83333333       0.33333333       0.44736473 </v>
    <v>       0.83333333       0.66666667       0.44736473 </v>
    <v>       0.33333333       0.50000000       0.50150658 </v>
    <v>       0.33333333       0.56850321       0.50150658 </v>
   </varray>
  </structure>
  <varray name="forces" >
   <v>       0.00112638      -0.00062343       0.31290392 </v>
   <v>       0.00344725      -0.00049758       0.30999683 </v>
   <v>       0.00290633       0.00169519       0.30954934 </v>
   <v>       0.00000000       0.00036732       0.30977072 </v>
   <v>       0.00000000      -0.00143654       0.31043108 </v>
   <v>       0.00000000       0.00229798       0.30911562 </v>
   <v>      -0.00112638      -0.00062343       0.31290392 </v>
   <v>      -0.00344725      -0.00049758       0.30999683 </v>
   <v>      -0.00290633       0.00169519       0.30954934 </v>
   <v>      -0.00136797       0.00281601       0.30916991 </v>
   <v>      -0.00235366      -0.00053408       0.30926541 </v>
   <v>      -0.00256492      -0.00290015       0.30988830 </v>
   <v>       0.00136797       0.00281601       0.30916991 </v>
   <v>       0.00235366      -0.00053408       0.30926541 </v>
   <v>       0.00256492      -0.00290015       0.30988830 </v>
   <v>       0.00000000      -0.00063333       0.31489732 </v>
   <v>       0.00000000       0.00038352       0.31027137 </v>
   <v>       0.00000000      -0.00086177       0.31248799 </v>
   <v>       0.00115807       0.00214826      -0.07760675 </v>
   <v>      -0.00089307       0.00063961      -0.07748584 </v>
   <v>       0.00292911      -0.00133609      -0.07959175 </v>
   <v>       0.00000000      -0.00363589      -0.08030824 </v>
   <v>       0.00000000      -0.00098903      -0.07233404 </v>
   <v>       0.00000000      -0.00230553      -0.07721115 </v>
   <v>      -0.00115807       0.00214826      -0.07760675 </v>
   <v>       0.00089307       0.00063961      -0.07748584 </v>
   <v>      -0.00292911      -0.00133609      -0.07959175 </v>
   <v>       0.00453866       0.00028811      -0.08212061 </v>
   <v>       0.00181284       0.00277467      -0.07978318 </v>
   <v>       0.00281054      -0.00011465      -0.07756669 </v>
   <v>      -0.00453866       0.00028811      -0.08212061 </v>
   <v>      -0.00181284       0.00277467      -0.07978318 </v>
   <v>      -0.00281054      -0.00011465      -0.07756669 </v>
   <v>       0.00000000       0.00036701      -0.07474040 </v>
   <v>       0.00000000       0.00319209      -0.08039652 </v>
   <v>       0.00000000      -0.00540872      -0.08377997 </v>
   <v>      -0.00197543      -0.00081757      -0.00307613 </v>
   <v>       0.00779448      -0.00412459      -0.00589623 </v>
   <v>       0.00640881       0.00739154      -0.00649613 </v>
   <v>       0.00000000      -0.00081187       0.01210915 </v>
   <v>       0.00000000       0.00348030      -0.01269136 </v>
   <v>       0.00000000       0.00246214      -0.01012776 </v>
   <v>       0.00197543      -0.00081757      -0.00307613 </v>
   <v>      -0.00779448      -0.00412459      -0.00589623 </v>
   <v>      -0.00640881       0.00739154      -0.00649613 </v>
   <v>      -0.00565751       0.00746414      -0.00377441 </v>
   <v>      -0.00072320      -0.00478859      -0.01289180 </v>
   <v>      -0.00768790      -0.00766496      -0.00836146 </v>
   <v>       0.00565751       0.00746414      -0.00377441 </v>
   <v>       0.00072320      -0.00478859      -0.01289180 </v>
   <v>       0.00768790      -0.00766496      -0.00836146 </v>
   <v>       0.00000000      -0.00300614      -0.00438408 </v>
   <v>       0.00000000       0.00120934       0.01288840 </v>
   <v>       0.00000000       0.00169442      -0.00197641 </v>
   <v>       0.00145230       0.00296355      -0.26711851 </v>
   <v>       0.00572470      -0.00001908      -0.25564603 </v>
   <v>       0.00482351      -0.00287012      -0.26397884 </v>
   <v>       0.00000000       0.00379394      -0.25672734 </v>
   <v>       0.00000000       0.00220373      -0.27706742 </v>
   <v>       0.00000000      -0.00548852      -0.25009337 </v>
   <v>      -0.00145230       0.00296355      -0.26711851 </v>
   <v>      -0.00572470      -0.00001908      -0.25564603 </v>
   <v>      -0.00482351      -0.00287012      -0.26397884 </v>
   <v>       0.00177355      -0.00159742      -0.27603153 </v>
   <v>      -0.00114010       0.00009740      -0.25429063 </v>
   <v>       0.00007390       0.00093969      -0.26018886 </v>
   <v>      -0.00177355      -0.00159742      -0.27603153 </v>
   <v>       0.00114010       0.00009740      -0.25429063 </v>
   <v>      -0.00007390       0.00093969      -0.26018886 </v>
   <v>       0.00000000       0.00140967      -0.26716973 </v>
   <v>       0.00000000       0.00090028      -0.27466922 </v>
   <v>       0.00000000      -0.00186006      -0.27501329 </v>
   <v>       0.00363480      -0.00061662      -0.02748802 </v>
   <v>      -0.00422139      -0.00285816      -0.03668047 </v>
   <v>      -0.00864503       0.00406855      -0.04013557 </v>
   <v>       0.00000000       0.00922132      -0.04218414 </v>
   <v>       0.00000000       0.00534494      -0.00539918 </v>
   <v>       0.00000000      -0.00572060       0.00428511 </v>
   <v>      -0.00363480      -0.00061662      -0.02748802 </v>
   <v>       0.00422139      -0.00285816      -0.03668047 </v>
   <v>       0.00864503       0.00406855      -0.04013557 </v>
   <v>      -0.00293901      -0.00919272      -0.04161387 </v>
   <v>       0.00623741       0.00008187       0.00033307 </v>
   <v>      -0.00445627       0.00361062      -0.04019210 </v>
   <v>       0.00293901      -0.00919272      -0.04161387 </v>
   <v>      -0.00623741       0.00008187       0.00033307 </v>
   <v>       0.00445627       0.00361062      -0.04019210 </v>
   <v>       0.00000000       0.00255616      -0.02901290 </v>
   <v>       0.00000000       0.00112454      -0.04483297 </v>
   <v>       0.00000000      -0.00263442      -0.02762276 </v>
   <v>       0.00273932       0.00583373       0.05325933 </v>
   <v>       0.00548378      -0.00216450       0.04610825 </v>
   <v>       0.00300496      -0.00139609       0.05507512 </v>
[...]
    <v>       0.16666667       0.83333333       0.00000000 </v>
    <v>       0.50000000       0.16666667       0.00000000 </v>
    <v>       0.50000000       0.50000000       0.00000000 </v>
    <v>       0.50000000       0.83333333       0.00000000 </v>
    <v>       0.83333333       0.16666667       0.00000000 </v>
    <v>       0.83333333       0.50000000       0.00000000 </v>
    <v>       0.83333333       0.83333333       0.00000000 </v>
    <v>       0.00000000       0.16666667       0.06551164 </v>
    <v>       0.00000000       0.50000000       0.06551164 </v>
    <v>       0.00000000       0.83333333       0.06551164 </v>
    <v>       0.33333333       0.16666667       0.06551164 </v>
    <v>       0.33333333       0.50000000       0.06551164 </v>
    <v>       0.33333333       0.83333333       0.06551164 </v>
    <v>       0.66666667       0.16666667       0.06551164 </v>
    <v>       0.66666667       0.50000000       0.06551164 </v>
    <v>       0.66666667       0.83333333       0.06551164 </v>
    <v>       0.16666667       0.00000000       0.06551164 </v>
    <v>       0.16666667       0.33333333       0.06551164 </v>
    <v>       0.16666667       0.66666667       0.06551164 </v>
    <v>       0.50000000       0.00000000       0.06551164 </v>
    <v>       0.50000000       0.33333333       0.06551164 </v>
    <v>       0.50000000       0.66666667       0.06551164 </v>
    <v>       0.83333333       0.00000000       0.06551164 </v>
    <v>       0.83333333       0.33333333       0.06551164 </v>
    <v>       0.83333333       0.66666667       0.06551164 </v>
    <v>       0.00000000       0.00000000       0.13119553 </v>
    <v>       0.00000000       0.33333333       0.13119553 </v>
    <v>       0.00000000       0.66666667       0.13119553 </v>
    <v>       0.33333333       0.00000000       0.13119553 </v>
    <v>       0.33333333       0.33333333       0.13119553 </v>
    <v>       0.33333333       0.66666667       0.13119553 </v>
    <v>       0.66666667       0.00000000       0.13119553 </v>
    <v>       0.66666667       0.33333333       0.13119553 </v>
    <v>       0.66666667       0.66666667       0.13119553 </v>
    <v>       0.16666667       0.16666667       0.13119553 </v>
    <v>       0.16666667       0.50000000       0.13119553 </v>
    <v>       0.16666667       0.83333333       0.13119553 </v>
    <v>       0.50000000       0.16666667       0.13119553 </v>
    <v>       0.50000000       0.50000000       0.13119553 </v>
    <v>       0.50000000       0.83333333       0.13119553 </v>
    <v>       0.83333333       0.16666667       0.13119553 </v>
    <v>       0.83333333       0.50000000       0.13119553 </v>
    <v>       0.83333333       0.83333333       0.13119553 </v>
    <v>       0.00016653       0.16690006       0.19416475 </v>
    <v>      -0.00003635       0.49999760       0.19420086 </v>
    <v>       0.00010362       0.83329342       0.19416229 </v>
    <v>       0.33333333       0.16673331       0.19418845 </v>
    <v>       0.33333333       0.50002435       0.19421162 </v>
    <v>       0.33333333       0.83350821       0.19423094 </v>
    <v>       0.66650013       0.16690006       0.19416475 </v>
    <v>       0.66670301       0.49999760       0.19420086 </v>
    <v>       0.66656305       0.83329342       0.19416229 </v>
    <v>       0.16689474       0.00014443       0.19409790 </v>
    <v>       0.16666965       0.33338747       0.19422175 </v>
    <v>       0.16670225       0.66668215       0.19422386 </v>
    <v>       0.49977193       0.00014443       0.19409790 </v>
    <v>       0.49999702       0.33338747       0.19422175 </v>
    <v>       0.49996442       0.66668215       0.19422386 </v>
    <v>       0.83333333       0.00003282       0.19415558 </v>
    <v>       0.83333333       0.33356705       0.19410775 </v>
    <v>       0.83333333       0.66646695       0.19410307 </v>
    <v>       0.00026049       0.00019548       0.25706873 </v>
    <v>       0.00005927       0.33350905       0.25701973 </v>
    <v>       0.00010720       0.66663440       0.25699509 </v>
    <v>       0.33333333       0.00028571       0.25700179 </v>
    <v>       0.33333333       0.33369823       0.25722737 </v>
    <v>       0.33333333       0.66658443       0.25713440 </v>
    <v>       0.66640618       0.00019548       0.25706873 </v>
    <v>       0.66660739       0.33350905       0.25701973 </v>
    <v>       0.66655947       0.66663440       0.25699509 </v>
    <v>       0.16678427       0.16696655       0.25701663 </v>
    <v>       0.16689620       0.50012179       0.25717353 </v>
    <v>       0.16675254       0.83346218       0.25698402 </v>
    <v>       0.49988239       0.16696655       0.25701663 </v>
    <v>       0.49977046       0.50012179       0.25717353 </v>
    <v>       0.49991412       0.83346218       0.25698402 </v>
    <v>       0.83333333       0.16705908       0.25710165 </v>
    <v>       0.83333333       0.49995761       0.25698243 </v>
    <v>       0.83333333       0.83320789       0.25702698 </v>
    <v>       0.00037964       0.16727190       0.32002806 </v>
    <v>       0.00049978       0.50022160       0.32018589 </v>
    <v>       0.00030087       0.83321546       0.31993304 </v>
    <v>       0.33333333       0.16743332       0.32028047 </v>
    <v>       0.33333333       0.50043438       0.32038483 </v>
    <v>       0.33333333       0.83305063       0.32017119 </v>
    <v>       0.66628703       0.16727190       0.32002806 </v>
    <v>       0.66616688       0.50022160       0.32018589 </v>
    <v>       0.66636579       0.83321546       0.31993304 </v>
    <v>       0.16718928       0.00028200       0.31994907 </v>
    <v>       0.16693330       0.33388244       0.32023704 </v>
    <v>       0.16691473       0.66667668       0.32018089 </v>
    <v>       0.49947739       0.00028200       0.31994907 </v>
    <v>       0.49973336       0.33388244       0.32023704 </v>
    <v>       0.49975193       0.66667668       0.32018089 </v>
    <v>       0.83333333       0.00021117       0.31992895 </v>
    <v>       0.83333333       0.33398937       0.32002830 </v>
    <v>       0.83333333       0.66622332       0.31992013 </v>
    <v>       0.00005555       0.00030903       0.38334153 </v>
    <v>      -0.00005090       0.33377666       0.38372512 </v>
    <v>      -0.00027532       0.66683974       0.38365087 </v>
    <v>       0.33333333       0.00028493       0.38378086 </v>
    <v>       0.33333333       0.33547347       0.38478345 </v>
    <v>       0.33333333       0.66551906       0.38462440 </v>
    <v>       0.66661112       0.00030903       0.38334153 </v>
    <v>       0.66671757       0.33377666       0.38372512 </v>
    <v>       0.66694199       0.66683974       0.38365087 </v>
    <v>       0.16684157       0.16666113       0.38368568 </v>
    <v>       0.16813280       0.50034875       0.38463359 </v>
    <v>       0.16672584       0.83383335       0.38358407 </v>
    <v>       0.49982509       0.16666113       0.38368568 </v>
    <v>       0.49853386       0.50034875       0.38463359 </v>
    <v>       0.49994083       0.83383335       0.38358407 </v>
    <v>       0.83333333       0.16702673       0.38335880 </v>
    <v>       0.83333333       0.50015884       0.38374066 </v>
    <v>       0.83333333       0.83355909       0.38332787 </v>
    <v>      -0.00029841       0.16646213       0.44617730 </v>
    <v>      -0.00020377       0.50037601       0.44636611 </v>
    <v>      -0.00059021       0.83404892       0.44609822 </v>
    <v>       0.33333333       0.16690148       0.44647429 </v>
    <v>       0.33333333       0.50056581       0.44977140 </v>
    <v>       0.33333333       0.83384863       0.44638452 </v>
    <v>       0.66696507       0.16646213       0.44617730 </v>
    <v>       0.66687044       0.50037601       0.44636611 </v>
    <v>       0.66725688       0.83404892       0.44609822 </v>
    <v>       0.16651532       0.00015488       0.44634837 </v>
    <v>       0.16538928       0.33202158       0.44647045 </v>
    <v>       0.16488493       0.66895629       0.44628946 </v>
    <v>       0.50015135       0.00015488       0.44634837 </v>
    <v>       0.50127739       0.33202158       0.44647045 </v>
    <v>       0.50178174       0.66895629       0.44628946 </v>
    <v>       0.83333333       0.00051234       0.44595482 </v>
    <v>       0.83333333       0.33332452       0.44635988 </v>
    <v>       0.83333333       0.66694727       0.44637792 </v>
    <v>       0.33333333       0.47824208       0.51632997 </v>
    <v>       0.33333333       0.55048363       0.51274926 </v>
   </varray>
  </structure>
  <varray name="forces" >
   <v>      -0.00246552       0.00081936       0.31269350 </v>
   <v>       0.00403684      -0.00008473       0.31257520 </v>
   <v>       0.00398232       0.00218440       0.31253018 </v>
   <v>       0.00000000       0.00082435       0.31305776 </v>
   <v>       0.00000000      -0.00152382       0.31213146 </v>
   <v>       0.00000000       0.00391854       0.31163825 </v>
   <v>       0.00246552       0.00081936       0.31269350 </v>
   <v>      -0.00403684      -0.00008473       0.31257520 </v>
   <v>      -0.00398232       0.00218440       0.31253018 </v>
   <v>      -0.00178608       0.00486357       0.31230804 </v>
   <v>      -0.00300862       0.00071291       0.31147928 </v>
   <v>      -0.00186149      -0.00296564       0.31240364 </v>
   <v>       0.00178608       0.00486357       0.31230804 </v>
   <v>       0.00300862       0.00071291       0.31147928 </v>
   <v>       0.00186149      -0.00296564       0.31240364 </v>
   <v>       0.00000000      -0.00248110       0.31344206 </v>
   <v>       0.00000000       0.00098310       0.31345603 </v>
   <v>       0.00000000       0.00401026       0.31329497 </v>
   <v>       0.00099540       0.00227565      -0.08822432 </v>
   <v>      -0.00037533       0.00091879      -0.08821756 </v>
   <v>       0.00159630      -0.00016419      -0.08874251 </v>
   <v>       0.00000000       0.00017350      -0.08965645 </v>
   <v>       0.00000000       0.00058454      -0.08259310 </v>
   <v>       0.00000000       0.00011450      -0.08879402 </v>
   <v>      -0.00099540       0.00227565      -0.08822432 </v>
   <v>       0.00037533       0.00091879      -0.08821756 </v>
   <v>      -0.00159630      -0.00016419      -0.08874251 </v>
   <v>       0.00213591       0.00103823      -0.08990751 </v>
   <v>       0.00141423       0.00212364      -0.09158447 </v>
   <v>       0.00172933       0.00058946      -0.09090127 </v>
   <v>      -0.00213591       0.00103823      -0.08990751 </v>
   <v>      -0.00141423       0.00212364      -0.09158447 </v>
   <v>      -0.00172933       0.00058946      -0.09090127 </v>
   <v>       0.00000000       0.00108113      -0.08610716 </v>
   <v>       0.00000000       0.00259714      -0.08939671 </v>
   <v>       0.00000000      -0.00114788      -0.09005198 </v>
   <v>      -0.00203765       0.00310380      -0.22322610 </v>
   <v>       0.01020961       0.00082983      -0.23141726 </v>
   <v>       0.01060735       0.00403201      -0.22834893 </v>
   <v>       0.00000000       0.00189341      -0.22386354 </v>
   <v>       0.00000000       0.00241585      -0.22944188 </v>
   <v>       0.00000000       0.00600383      -0.22599958 </v>
   <v>       0.00203765       0.00310380      -0.22322610 </v>
   <v>      -0.01020961       0.00082983      -0.23141726 </v>
   <v>      -0.01060735       0.00403201      -0.22834893 </v>
   <v>      -0.00231708       0.01398824      -0.23198265 </v>
   <v>      -0.00232749       0.00062152      -0.22953628 </v>
   <v>      -0.00220040      -0.00803388      -0.22814383 </v>
   <v>       0.00231708       0.01398824      -0.23198265 </v>
   <v>       0.00232749       0.00062152      -0.22953628 </v>
   <v>       0.00220040      -0.00803388      -0.22814383 </v>
   <v>       0.00000000      -0.00105512      -0.22326248 </v>
   <v>       0.00000000       0.00173566      -0.22356911 </v>
   <v>       0.00000000       0.00368227      -0.22403945 </v>
   <v>      -0.01722853      -0.01500182      -0.00462552 </v>
   <v>       0.01827229       0.00377179      -0.00662935 </v>
   <v>      -0.00797338       0.01054779      -0.00459078 </v>
   <v>       0.00000000       0.01875244      -0.00304257 </v>
   <v>       0.00000000       0.00030778      -0.02153356 </v>
   <v>       0.00000000      -0.01925616      -0.00858566 </v>
   <v>       0.01722853      -0.01500182      -0.00462552 </v>
   <v>      -0.01827229       0.00377179      -0.00662935 </v>
   <v>       0.00797338       0.01054779      -0.00459078 </v>
   <v>      -0.02091174      -0.00317070      -0.01008851 </v>
   <v>       0.00931127       0.01042933      -0.00606607 </v>
   <v>       0.00445542      -0.00244965      -0.01012993 </v>
   <v>       0.02091174      -0.00317070      -0.01008851 </v>
   <v>      -0.00931127       0.01042933      -0.00606607 </v>
   <v>      -0.00445542      -0.00244965      -0.01012993 </v>
   <v>       0.00000000       0.00853685       0.01240559 </v>
   <v>       0.00000000      -0.01978371      -0.01158208 </v>
   <v>       0.00000000       0.02116335      -0.00937027 </v>
   <v>      -0.01387117      -0.00027691       0.00310428 </v>
   <v>       0.00190417       0.00442661       0.01691619 </v>
   <v>      -0.00445756       0.00191120       0.01224713 </v>
   <v>       0.00000000      -0.00260130       0.02524400 </v>
   <v>       0.00000000      -0.00894625       0.00141072 </v>
   <v>       0.00000000       0.01025960       0.01776259 </v>
   <v>       0.01387117      -0.00027691       0.00310428 </v>
   <v>      -0.00190417       0.00442661       0.01691619 </v>
   <v>       0.00445756       0.00191120       0.01224713 </v>
   <v>       0.00244214      -0.00423598       0.01489840 </v>
   <v>      -0.00852247      -0.00206350       0.00924954 </v>
   <v>       0.00163035      -0.00222511       0.01367084 </v>
   <v>      -0.00244214      -0.00423598       0.01489840 </v>
   <v>       0.00852247      -0.00206350       0.00924954 </v>
   <v>      -0.00163035      -0.00222511       0.01367084 </v>
   <v>       0.00000000      -0.01499109      -0.00201160 </v>
   <v>       0.00000000       0.00863595       0.02427666 </v>
   <v>       0.00000000       0.01245391       0.01088594 </v>
   <v>      -0.00904147      -0.00900419      -0.01603516 </v>
   <v>       0.01206925      -0.00594963       0.00301851 </v>
   <v>      -0.00891217       0.00690132      -0.00871727 </v>
   <v>       0.00000000       0.02021965       0.00475683 </v>
   <v>       0.00000000      -0.01505493      -0.02312826 </v>
   <v>       0.00000000      -0.00591460       0.00178713 </v>
   <v>       0.00904147      -0.00900419      -0.01603516 </v>
   <v>      -0.01206925      -0.00594963       0.00301851 </v>
   <v>       0.00891217       0.00690132      -0.00871727 </v>
   <v>      -0.01722315      -0.00403854      -0.00579976 </v>
   <v>       0.00174940      -0.00709387       0.00090095 </v>
   <v>      -0.00331829      -0.00116437      -0.00407940 </v>
   <v>       0.01722315      -0.00403854      -0.00579976 </v>
   <v>      -0.00174940      -0.00709387       0.00090095 </v>
   <v>       0.00331829      -0.00116437      -0.00407940 </v>
   <v>       0.00000000       0.00084081      -0.03037691 </v>
   <v>       0.00000000      -0.01438187      -0.00859567 </v>
   <v>       0.00000000       0.02504255      -0.00094382 </v>
   <v>       0.00806630      -0.00405044       0.02227463 </v>
   <v>       0.00957036      -0.00163648       0.00939940 </v>
   <v>       0.00653537      -0.00810231       0.00096441 </v>
   <v>       0.00000000       0.00133597       0.00228385 </v>
   <v>       0.00000000      -0.03591273      -0.01270325 </v>
   <v>       0.00000000       0.03213860      -0.01795514 </v>
   <v>      -0.00806630      -0.00405044       0.02227463 </v>
   <v>      -0.00957036      -0.00163648       0.00939940 </v>
   <v>      -0.00653537      -0.00810231       0.00096441 </v>
   <v>       0.00393749       0.01495243       0.00616292 </v>
   <v>      -0.03252816       0.00152295      -0.01274225 </v>
   <v>       0.00641453      -0.00292872       0.00675227 </v>
   <v>      -0.00393749       0.01495243       0.00616292 </v>
   <v>       0.03252816       0.00152295      -0.01274225 </v>
   <v>      -0.00641453      -0.00292872       0.00675227 </v>
   <v>       0.00000000       0.00723774       0.02406139 </v>
   <v>       0.00000000       0.00144484       0.00095753 </v>
   <v>       0.00000000      -0.01128779       0.01862901 </v>
   <v>      -0.00589218      -0.00080543       0.01071137 </v>
   <v>       0.01086202      -0.00797804      -0.00357895 </v>
   <v>      -0.00287461       0.00809065       0.01912110 </v>
   <v>       0.00000000       0.00141540      -0.00360655 </v>
   <v>       0.00000000      -0.02212594       0.03392684 </v>
   <v>       0.00000000      -0.01862739      -0.00241953 </v>
   <v>       0.00589218      -0.00080543       0.01071137 </v>
   <v>      -0.01086202      -0.00797804      -0.00357895 </v>
   <v>       0.00287461       0.00809065       0.01912110 </v>
   <v>      -0.00089283       0.00059915      -0.00141850 </v>
   <v>       0.00127044       0.00568217      -0.00793706 </v>
   <v>      -0.00311184       0.00361700      -0.01768102 </v>
   <v>       0.00089283       0.00059915      -0.00141850 </v>
   <v>      -0.00127044       0.00568217      -0.00793706 </v>
   <v>       0.00311184       0.00361700      -0.01768102 </v>
   <v>       0.00000000      -0.01275115       0.01537629 </v>
   <v>       0.00000000       0.00319011      -0.00105801 </v>
   <v>       0.00000000       0.00594008      -0.00567685 </v>
   <v>       0.00000000      -0.05206855      -0.03905213 </v>
   <v>       0.00000000       0.01671841       0.02157330 </v>
  </varray>
  <varray name="stress" >
   <v>     -35.28923062       0.00000000       0.00000000 </v>
   <v>       0.00000000     -35.32635005      -0.16140634 </v>
   <v>       0.00000000      -0.16140655     -13.67108862 </v>
  </varray>
  <energy>
   <i name="e_fr_energy">   -582.26968401 </i>
   <i name="e_wo_entrp">   -582.38287806 </i>
   <i name="e_0_energy">   -582.30741536 </i>
  </energy>
  <time name="totalsc"> 3979.36 4016.42</time>
 </calculation>
 <calculation>
  <scstep>
   <time name="dav">  780.74  788.24</time>
   <time name="total">  785.35  792.89</time>
   <energy>
    <i name="alphaZ">   4623.72760507 </i>
    <i name="ewald"> 921460.11642738 </i>
    <i name="hartreedc">**************** </i>
    <i name="XCdc">   6429.79602785 </i>
    <i name="pawpsdc"> 189084.14280944 </i>
    <i name="pawaedc">-204605.33890081 </i>
    <i name="eentropy">      0.11330203 </i>
    <i name="bandstr">  -1765.75201319 </i>
    <i name="atom"> 200322.85745410 </i>
    <i name="e_fr_energy">   -521.81986019 </i>
    <i name="e_wo_entrp">   -521.93316222 </i>
    <i name="e_0_energy">   -521.85762753 </i>
   </energy>
  </scstep>
  <scstep>
   <time name="dav"> 1056.46 1066.14</time>
   <time name="total"> 1060.88 1070.60</time>
   <energy>
    <i name="e_fr_energy">   -521.82059100 </i>
    <i name="e_wo_entrp">   -521.93393158 </i>
    <i name="e_0_energy">   -521.85837119 </i>
   </energy>
  </scstep>
  <scstep>
   <time name="dav">  582.82  588.26</time>
   <time name="total">  583.17  588.62</time>
   <energy>
    <i name="alphaZ">   4623.72760507 </i>
    <i name="ewald"> 921460.11642738 </i>
    <i name="hartreedc">**************** </i>
    <i name="XCdc">   6429.78931579 </i>
    <i name="pawpsdc"> 189085.14568977 </i>
    <i name="pawaedc">-204606.34331675 </i>
    <i name="eentropy">      0.11318916 </i>
    <i name="bandstr">  -1765.76479949 </i>
    <i name="atom"> 200322.85745410 </i>
    <i name="e_fr_energy">   -521.82056039 </i>
    <i name="e_wo_entrp">   -521.93374955 </i>
    <i name="e_0_energy">   -521.85829011 </i>
   </energy>
  </scstep>
