unknown system                          
           1
    10.890000    0.000000    0.000000
     0.000000   10.890000    0.000000
     0.000000    0.000000   27.705000
   Cu   H 
   144     2
Direct configuration=     1
   0.00000000  0.00000000  0.00000000
   0.00000000  0.33333333  0.00000000
   0.00000000  0.66666667  0.00000000
   0.33333333  0.00000000  0.00000000
   0.33333333  0.33333333  0.00000000
   0.33333333  0.66666667  0.00000000
   0.66666667  0.00000000  0.00000000
   0.66666667  0.33333333  0.00000000
   0.66666667  0.66666667  0.00000000
   0.16666667  0.16666667  0.00000000
   0.16666667  0.50000000  0.00000000
   0.16666667  0.83333333  0.00000000
   0.50000000  0.16666667  0.00000000
   0.50000000  0.50000000  0.00000000
   0.50000000  0.83333333  0.00000000
   0.83333333  0.16666667  0.00000000
   0.83333333  0.50000000  0.00000000
   0.83333333  0.83333333  0.00000000
   0.00000000  0.16666667  0.06551164
   0.00000000  0.50000000  0.06551164
   0.00000000  0.83333333  0.06551164
   0.33333333  0.16666667  0.06551164
   0.33333333  0.50000000  0.06551164
   0.33333333  0.83333333  0.06551164
   0.66666667  0.16666667  0.06551164
   0.66666667  0.50000000  0.06551164
   0.66666667  0.83333333  0.06551164
   0.16666667  0.00000000  0.06551164
   0.16666667  0.33333333  0.06551164
   0.16666667  0.66666667  0.06551164
   0.50000000  0.00000000  0.06551164
   0.50000000  0.33333333  0.06551164
   0.50000000  0.66666667  0.06551164
   0.83333333  0.00000000  0.06551164
   0.83333333  0.33333333  0.06551164
   0.83333333  0.66666667  0.06551164
   0.00000000  0.00000000  0.13119553
   0.00000000  0.33333333  0.13119553
   0.00000000  0.66666667  0.13119553
   0.33333333  0.00000000  0.13119553
   0.33333333  0.33333333  0.13119553
   0.33333333  0.66666667  0.13119553
   0.66666667  0.00000000  0.13119553
   0.66666667  0.33333333  0.13119553
   0.66666667  0.66666667  0.13119553
   0.16666667  0.16666667  0.13119553
   0.16666667  0.50000000  0.13119553
   0.16666667  0.83333333  0.13119553
   0.50000000  0.16666667  0.13119553
   0.50000000  0.50000000  0.13119553
   0.50000000  0.83333333  0.13119553
   0.83333333  0.16666667  0.13119553
   0.83333333  0.50000000  0.13119553
   0.83333333  0.83333333  0.13119553
   0.00000000  0.16666667  0.19620680
   0.00000000  0.50000000  0.19620680
   0.00000000  0.83333333  0.19620680
   0.33333333  0.16666667  0.19620680
   0.33333333  0.50000000  0.19620680
   0.33333333  0.83333333  0.19620680
   0.66666667  0.16666667  0.19620680
   0.66666667  0.50000000  0.19620680
   0.66666667  0.83333333  0.19620680
   0.16666667  0.00000000  0.19620680
   0.16666667  0.33333333  0.19620680
   0.16666667  0.66666667  0.19620680
   0.50000000  0.00000000  0.19620680
   0.50000000  0.33333333  0.19620680
   0.50000000  0.66666667  0.19620680
   0.83333333  0.00000000  0.19620680
   0.83333333  0.33333333  0.19620680
   0.83333333  0.66666667  0.19620680
   0.00000000  0.00000000  0.25873860
   0.00000000  0.33333333  0.25873860
   0.00000000  0.66666667  0.25873860
   0.33333333  0.00000000  0.25873860
   0.33333333  0.33333333  0.25873860
   0.33333333  0.66666667  0.25873860
   0.66666667  0.00000000  0.25873860
   0.66666667  0.33333333  0.25873860
   0.66666667  0.66666667  0.25873860
   0.16666667  0.16666667  0.25873860
   0.16666667  0.50000000  0.25873860
   0.16666667  0.83333333  0.25873860
   0.50000000  0.16666667  0.25873860
   0.50000000  0.50000000  0.25873860
   0.50000000  0.83333333  0.25873860
   0.83333333  0.16666667  0.25873860
   0.83333333  0.50000000  0.25873860
   0.83333333  0.83333333  0.25873860
   0.00000000  0.16666667  0.32119954
   0.00000000  0.50000000  0.32119954
   0.00000000  0.83333333  0.32119954
   0.33333333  0.16666667  0.32119954
   0.33333333  0.50000000  0.32119954
   0.33333333  0.83333333  0.32119954
   0.66666667  0.16666667  0.32119954
   0.66666667  0.50000000  0.32119954
   0.66666667  0.83333333  0.32119954
   0.16666667  0.00000000  0.32119954
   0.16666667  0.33333333  0.32119954
   0.16666667  0.66666667  0.32119954
   0.50000000  0.00000000  0.32119954
   0.50000000  0.33333333  0.32119954
   0.50000000  0.66666667  0.32119954
   0.83333333  0.00000000  0.32119954
   0.83333333  0.33333333  0.32119954
   0.83333333  0.66666667  0.32119954
   0.00000000  0.00000000  0.38476372
   0.00000000  0.33333333  0.38476372
   0.00000000  0.66666667  0.38476372
   0.33333333  0.00000000  0.38476372
   0.33333333  0.33333333  0.38476372
   0.33333333  0.66666667  0.38476372
   0.66666667  0.00000000  0.38476372
   0.66666667  0.33333333  0.38476372
   0.66666667  0.66666667  0.38476372
   0.16666667  0.16666667  0.38476372
   0.16666667  0.50000000  0.38476372
   0.16666667  0.83333333  0.38476372
   0.50000000  0.16666667  0.38476372
   0.50000000  0.50000000  0.38476372
   0.50000000  0.83333333  0.38476372
   0.83333333  0.16666667  0.38476372
   0.83333333  0.50000000  0.38476372
   0.83333333  0.83333333  0.38476372
   0.00000000  0.16666667  0.44736473
   0.00000000  0.50000000  0.44736473
   0.00000000  0.83333333  0.44736473
   0.33333333  0.16666667  0.44736473
   0.33333333  0.50000000  0.44736473
   0.33333333  0.83333333  0.44736473
   0.66666667  0.16666667  0.44736473
   0.66666667  0.50000000  0.44736473
   0.66666667  0.83333333  0.44736473
   0.16666667  0.00000000  0.44736473
   0.16666667  0.33333333  0.44736473
   0.16666667  0.66666667  0.44736473
   0.50000000  0.00000000  0.44736473
   0.50000000  0.33333333  0.44736473
   0.50000000  0.66666667  0.44736473
   0.83333333  0.00000000  0.44736473
   0.83333333  0.33333333  0.44736473
   0.83333333  0.66666667  0.44736473
   0.33333333  0.50000000  0.50150658
   0.33333333  0.56850321  0.50150658
Direct configuration=     2
   0.00000000  0.00000000  0.00000000
   0.00000000  0.33333333  0.00000000
   0.00000000  0.66666667  0.00000000
   0.33333333  0.00000000  0.00000000
   0.33333333  0.33333333  0.00000000
   0.33333333  0.66666667  0.00000000
   0.66666667  0.00000000  0.00000000
   0.66666667  0.33333333  0.00000000
   0.66666667  0.66666667  0.00000000
   0.16666667  0.16666667  0.00000000
   0.16666667  0.50000000  0.00000000
   0.16666667  0.83333333  0.00000000
   0.50000000  0.16666667  0.00000000
   0.50000000  0.50000000  0.00000000
   0.50000000  0.83333333  0.00000000
   0.83333333  0.16666667  0.00000000
   0.83333333  0.50000000  0.00000000
   0.83333333  0.83333333  0.00000000
   0.00000000  0.16666667  0.06551164
   0.00000000  0.50000000  0.06551164
   0.00000000  0.83333333  0.06551164
   0.33333333  0.16666667  0.06551164
   0.33333333  0.50000000  0.06551164
   0.33333333  0.83333333  0.06551164
   0.66666667  0.16666667  0.06551164
   0.66666667  0.50000000  0.06551164
   0.66666667  0.83333333  0.06551164
   0.16666667  0.00000000  0.06551164
   0.16666667  0.33333333  0.06551164
   0.16666667  0.66666667  0.06551164
   0.50000000  0.00000000  0.06551164
   0.50000000  0.33333333  0.06551164
   0.50000000  0.66666667  0.06551164
   0.83333333  0.00000000  0.06551164
   0.83333333  0.33333333  0.06551164
   0.83333333  0.66666667  0.06551164
   0.00000000  0.00000000  0.13119553
   0.00000000  0.33333333  0.13119553
   0.00000000  0.66666667  0.13119553
   0.33333333  0.00000000  0.13119553
   0.33333333  0.33333333  0.13119553
   0.33333333  0.66666667  0.13119553
   0.66666667  0.00000000  0.13119553
   0.66666667  0.33333333  0.13119553
   0.66666667  0.66666667  0.13119553
   0.16666667  0.16666667  0.13119553
   0.16666667  0.50000000  0.13119553
   0.16666667  0.83333333  0.13119553
   0.50000000  0.16666667  0.13119553
   0.50000000  0.50000000  0.13119553
   0.50000000  0.83333333  0.13119553
   0.83333333  0.16666667  0.13119553
   0.83333333  0.50000000  0.13119553
   0.83333333  0.83333333  0.13119553
   0.00000643  0.16667980  0.19574166
   0.00002536  0.49999992  0.19576164
   0.00002137  0.83332062  0.19574713
   0.33333333  0.16668347  0.19575976
   0.33333333  0.50000976  0.19572434
   0.33333333  0.83330902  0.19577131
   0.66666023  0.16667980  0.19574166
   0.66664131  0.49999992  0.19576164
   0.66664530  0.83332062  0.19574713
   0.16667452 -0.00000708  0.19572614
   0.16666162  0.33333376  0.19576400
   0.16666699  0.66667083  0.19575373
   0.49999214 -0.00000708  0.19572614
   0.50000505  0.33333376  0.19576400
   0.49999967  0.66667083  0.19575373
   0.83333333  0.00000624  0.19574157
   0.83333333  0.33333732  0.19572852
   0.83333333  0.66665843  0.19572792
   0.00001610 -0.00000273  0.25869073
  -0.00001870  0.33332067  0.25867473
  -0.00003830  0.66668469  0.25866871
   0.33333333  0.00004085  0.25866514
   0.33333333  0.33335701  0.25872920
   0.33333333  0.66664132  0.25874606
   0.66665056 -0.00000273  0.25869073
   0.66668537  0.33332067  0.25867473
   0.66670496  0.66668469  0.25866871
   0.16665365  0.16662594  0.25866614
   0.16669430  0.50000036  0.25873918
   0.16664693  0.83334933  0.25866861
   0.50001302  0.16662594  0.25866614
   0.49997237  0.50000036  0.25873918
   0.50001974  0.83334933  0.25866861
   0.83333333  0.16667799  0.25868808
   0.83333333  0.50000498  0.25866053
   0.83333333  0.83332166  0.25869050
   0.00001214  0.16669251  0.32129228
   0.00002429  0.49999041  0.32127983
   0.00001331  0.83332715  0.32129545
   0.33333333  0.16674525  0.32130745
   0.33333333  0.50002538  0.32131245
   0.33333333  0.83335081  0.32127622
   0.66665453  0.16669251  0.32129228
   0.66664237  0.49999041  0.32127983
   0.66665335  0.83332715  0.32129545
   0.16666735 -0.00003442  0.32129162
   0.16660882  0.33327081  0.32123734
   0.16663155  0.66669685  0.32123962
   0.49999931 -0.00003442  0.32129162
   0.50005784  0.33327081  0.32123734
   0.50003512  0.66669685  0.32123962
   0.83333333  0.00000547  0.32128847
   0.83333333  0.33333778  0.32129190
   0.83333333  0.66666211  0.32130305
   0.00000766  0.00000213  0.38480732
   0.00000325  0.33334400  0.38482343
   0.00000141  0.66663353  0.38483178
   0.33333333  0.00007441  0.38480748
   0.33333333  0.33366764  0.38487576
   0.33333333  0.66675801  0.38459464
   0.66665901  0.00000213  0.38480732
   0.66666341  0.33334400  0.38482343
   0.66666526  0.66663353  0.38483178
   0.16666412  0.16661251  0.38480248
   0.16672637  0.49999340  0.38471487
   0.16669862  0.83331481  0.38483043
   0.50000255  0.16661251  0.38480248
   0.49994029  0.49999340  0.38471487
   0.49996805  0.83331481  0.38483043
   0.83333333  0.16668088  0.38480209
   0.83333333  0.49999385  0.38479779
   0.83333333  0.83332822  0.38480439
   0.00001206  0.16668178  0.44735562
  -0.00001902  0.50000602  0.44731379
   0.00003992  0.83330780  0.44736752
   0.33333333  0.16671551  0.44734720
   0.33333333  0.49952983  0.44473990
   0.33333333  0.83341643  0.44731674
   0.66665461  0.16668178  0.44735562
   0.66668569  0.50000602  0.44731379
   0.66662675  0.83330780  0.44736752
   0.16668205 -0.00000706  0.44735641
   0.16647398  0.33300312  0.44727743
   0.16580944  0.66740501  0.44712266
   0.49998462 -0.00000706  0.44735641
   0.50019269  0.33300312  0.44727743
   0.50085723  0.66740501  0.44712266
   0.83333333 -0.00001583  0.44735031
   0.83333333  0.33334453  0.44735616
   0.83333333  0.66663991  0.44736159
   0.33333333  0.48989036  0.50474523
   0.33333333  0.57787166  0.50182235
Direct configuration=     3
   0.00000000  0.00000000  0.00000000
   0.00000000  0.33333333  0.00000000
   0.00000000  0.66666667  0.00000000
   0.33333333  0.00000000  0.00000000
   0.33333333  0.33333333  0.00000000
   0.33333333  0.66666667  0.00000000
   0.66666667  0.00000000  0.00000000
   0.66666667  0.33333333  0.00000000
   0.66666667  0.66666667  0.00000000
   0.16666667  0.16666667  0.00000000
   0.16666667  0.50000000  0.00000000
   0.16666667  0.83333333  0.00000000
   0.50000000  0.16666667  0.00000000
   0.50000000  0.50000000  0.00000000
   0.50000000  0.83333333  0.00000000
   0.83333333  0.16666667  0.00000000
   0.83333333  0.50000000  0.00000000
   0.83333333  0.83333333  0.00000000
   0.00000000  0.16666667  0.06551164
   0.00000000  0.50000000  0.06551164
   0.00000000  0.83333333  0.06551164
   0.33333333  0.16666667  0.06551164
   0.33333333  0.50000000  0.06551164
   0.33333333  0.83333333  0.06551164
   0.66666667  0.16666667  0.06551164
   0.66666667  0.50000000  0.06551164
   0.66666667  0.83333333  0.06551164
   0.16666667  0.00000000  0.06551164
   0.16666667  0.33333333  0.06551164
   0.16666667  0.66666667  0.06551164
   0.50000000  0.00000000  0.06551164
   0.50000000  0.33333333  0.06551164
   0.50000000  0.66666667  0.06551164
   0.83333333  0.00000000  0.06551164
   0.83333333  0.33333333  0.06551164
   0.83333333  0.66666667  0.06551164
   0.00000000  0.00000000  0.13119553
   0.00000000  0.33333333  0.13119553
   0.00000000  0.66666667  0.13119553
   0.33333333  0.00000000  0.13119553
   0.33333333  0.33333333  0.13119553
   0.33333333  0.66666667  0.13119553
   0.66666667  0.00000000  0.13119553
   0.66666667  0.33333333  0.13119553
   0.66666667  0.66666667  0.13119553
   0.16666667  0.16666667  0.13119553
   0.16666667  0.50000000  0.13119553
   0.16666667  0.83333333  0.13119553
   0.50000000  0.16666667  0.13119553
   0.50000000  0.50000000  0.13119553
   0.50000000  0.83333333  0.13119553
   0.83333333  0.16666667  0.13119553
   0.83333333  0.50000000  0.13119553
   0.83333333  0.83333333  0.13119553
   0.00000372  0.16667427  0.19593750
   0.00001468  0.49999995  0.19594906
   0.00001237  0.83332597  0.19594066
   0.33333333  0.16667640  0.19594797
   0.33333333  0.50000565  0.19592747
   0.33333333  0.83331926  0.19595466
   0.66666294  0.16667427  0.19593750
   0.66665198  0.49999995  0.19594906
   0.66665430  0.83332597  0.19594066
   0.16667122 -0.00000410  0.19592851
   0.16666374  0.33333358  0.19595043
   0.16666686  0.66666908  0.19594448
   0.49999545 -0.00000410  0.19592851
   0.50000292  0.33333358  0.19595043
   0.49999981  0.66666908  0.19594448
   0.83333333  0.00000362  0.19593744
   0.83333333  0.33333564  0.19592988
   0.83333333  0.66666190  0.19592954
   0.00000932 -0.00000158  0.25871088
  -0.00001083  0.33332600  0.25870162
  -0.00002217  0.66667710  0.25869813
   0.33333333  0.00002365  0.25869607
   0.33333333  0.33334704  0.25873315
   0.33333333  0.66665199  0.25874292
   0.66665734 -0.00000158  0.25871088
   0.66667749  0.33332600  0.25870162
   0.66668884  0.66667710  0.25869813
   0.16665913  0.16664309  0.25869664
   0.16668266  0.50000021  0.25873893
   0.16665524  0.83334259  0.25869808
   0.50000754  0.16664309  0.25869664
   0.49998400  0.50000021  0.25873893
   0.50001143  0.83334259  0.25869808
   0.83333333  0.16667322  0.25870935
   0.83333333  0.50000288  0.25869340
   0.83333333  0.83332658  0.25871075
   0.00000703  0.16668163  0.32125324
   0.00001407  0.49999445  0.32124603
   0.00000771  0.83332975  0.32125507
   0.33333333  0.16671217  0.32126202
   0.33333333  0.50001469  0.32126491
   0.33333333  0.83334345  0.32124394
   0.66665964  0.16668163  0.32125324
   0.66665260  0.49999445  0.32124603
   0.66665896  0.83332975  0.32125507
   0.16666706 -0.00001993  0.32125285
   0.16663318  0.33329714  0.32122143
   0.16664633  0.66668414  0.32122274
   0.49999960 -0.00001993  0.32125285
   0.50003349  0.33329714  0.32122143
   0.50002033  0.66668414  0.32122274
   0.83333333  0.00000317  0.32125103
   0.83333333  0.33333591  0.32125302
   0.83333333  0.66666403  0.32125947
   0.00000443  0.00000124  0.38478896
   0.00000188  0.33333951  0.38479829
   0.00000081  0.66664748  0.38480312
   0.33333333  0.00004308  0.38478906
   0.33333333  0.33352689  0.38482859
   0.33333333  0.66671955  0.38466582
   0.66666223  0.00000124  0.38478896
   0.66666478  0.33333951  0.38479829
   0.66666585  0.66664748  0.38480312
   0.16666519  0.16663531  0.38478616
   0.16670123  0.49999618  0.38473544
   0.16668517  0.83332261  0.38480234
   0.50000148  0.16663531  0.38478616
   0.49996543  0.49999618  0.38473544
   0.49998150  0.83332261  0.38480234
   0.83333333  0.16667489  0.38478593
   0.83333333  0.49999644  0.38478344
   0.83333333  0.83333038  0.38478726
   0.00000698  0.16667542  0.44735945
  -0.00001101  0.50000349  0.44733523
   0.00002311  0.83331855  0.44736635
   0.33333333  0.16669495  0.44735458
   0.33333333  0.49972778  0.44584501
   0.33333333  0.83338145  0.44733695
   0.66665969  0.16667542  0.44735945
   0.66667768  0.50000349  0.44733523
   0.66664355  0.83331855  0.44736635
   0.16667557 -0.00000409  0.44735991
   0.16655511  0.33314215  0.44731419
   0.16617035  0.66709415  0.44722457
   0.49999110 -0.00000409  0.44735991
   0.50011156  0.33314215  0.44731419
   0.50049631  0.66709415  0.44722457
   0.83333333 -0.00000917  0.44735638
   0.83333333  0.33333981  0.44735977
   0.83333333  0.66665118  0.44736291
   0.33333333  0.49414675  0.50338168
   0.33333333  0.57392733  0.50168940
Direct configuration=     4
   0.00000000  0.00000000  0.00000000
   0.00000000  0.33333333  0.00000000
   0.00000000  0.66666667  0.00000000
   0.33333333  0.00000000  0.00000000
   0.33333333  0.33333333  0.00000000
   0.33333333  0.66666667  0.00000000
   0.66666667  0.00000000  0.00000000
   0.66666667  0.33333333  0.00000000
   0.66666667  0.66666667  0.00000000
   0.16666667  0.16666667  0.00000000
   0.16666667  0.50000000  0.00000000
   0.16666667  0.83333333  0.00000000
   0.50000000  0.16666667  0.00000000
   0.50000000  0.50000000  0.00000000
   0.50000000  0.83333333  0.00000000
   0.83333333  0.16666667  0.00000000
   0.83333333  0.50000000  0.00000000
   0.83333333  0.83333333  0.00000000
   0.00000000  0.16666667  0.06551164
   0.00000000  0.50000000  0.06551164
   0.00000000  0.83333333  0.06551164
   0.33333333  0.16666667  0.06551164
   0.33333333  0.50000000  0.06551164
   0.33333333  0.83333333  0.06551164
   0.66666667  0.16666667  0.06551164
   0.66666667  0.50000000  0.06551164
   0.66666667  0.83333333  0.06551164
   0.16666667  0.00000000  0.06551164
   0.16666667  0.33333333  0.06551164
   0.16666667  0.66666667  0.06551164
   0.50000000  0.00000000  0.06551164
   0.50000000  0.33333333  0.06551164
   0.50000000  0.66666667  0.06551164
   0.83333333  0.00000000  0.06551164
   0.83333333  0.33333333  0.06551164
   0.83333333  0.66666667  0.06551164
   0.00000000  0.00000000  0.13119553
   0.00000000  0.33333333  0.13119553
   0.00000000  0.66666667  0.13119553
   0.33333333  0.00000000  0.13119553
   0.33333333  0.33333333  0.13119553
   0.33333333  0.66666667  0.13119553
   0.66666667  0.00000000  0.13119553
   0.66666667  0.33333333  0.13119553
   0.66666667  0.66666667  0.13119553
   0.16666667  0.16666667  0.13119553
   0.16666667  0.50000000  0.13119553
   0.16666667  0.83333333  0.13119553
   0.50000000  0.16666667  0.13119553
   0.50000000  0.50000000  0.13119553
   0.50000000  0.83333333  0.13119553
   0.83333333  0.16666667  0.13119553
   0.83333333  0.50000000  0.13119553
   0.83333333  0.83333333  0.13119553
   0.00000841  0.16668458  0.19552851
   0.00004835  0.49999913  0.19555911
   0.00002973  0.83331576  0.19553630
   0.33333333  0.16669947  0.19555713
   0.33333333  0.50001456  0.19550891
   0.33333333  0.83328761  0.19557630
   0.66665826  0.16668458  0.19552851
   0.66661832  0.49999913  0.19555911
   0.66663694  0.83331576  0.19553630
   0.16667802 -0.00001181  0.19550444
   0.16666459  0.33334126  0.19556500
   0.16667405  0.66666647  0.19555003
   0.49998865 -0.00001181  0.19550444
   0.50000208  0.33334126  0.19556500
   0.49999262  0.66666647  0.19555003
   0.83333333  0.00000754  0.19553003
   0.83333333  0.33333861  0.19550971
   0.83333333  0.66665608  0.19550816
   0.00002337 -0.00000437  0.25863230
  -0.00003441  0.33331437  0.25860833
  -0.00006188  0.66669216  0.25860109
   0.33333333  0.00006191  0.25859558
   0.33333333  0.33337202  0.25869070
   0.33333333  0.66662383  0.25871500
   0.66664330 -0.00000437  0.25863230
   0.66670108  0.33331437  0.25860833
   0.66672855  0.66669216  0.25860109
   0.16664794  0.16660004  0.25859450
   0.16671393  0.50000190  0.25870456
   0.16663758  0.83336140  0.25859770
   0.50001872  0.16660004  0.25859450
   0.49995274  0.50000190  0.25870456
   0.50002909  0.83336140  0.25859770
   0.83333333  0.16668187  0.25862787
   0.83333333  0.50000636  0.25858498
   0.83333333  0.83331817  0.25863120
   0.00001644  0.16670236  0.32133173
   0.00002403  0.49998624  0.32130821
   0.00001992  0.83332157  0.32133731
   0.33333333  0.16678901  0.32135857
   0.33333333  0.50002215  0.32135576
   0.33333333  0.83338196  0.32130553
   0.66665023  0.16670236  0.32133173
   0.66664264  0.49998624  0.32130821
   0.66664675  0.83332157  0.32133731
   0.16666887 -0.00005190  0.32132934
   0.16658034  0.33322873  0.32125276
   0.16659037  0.66672610  0.32124907
   0.49999780 -0.00005190  0.32132934
   0.50008633  0.33322873  0.32125276
   0.50007630  0.66672610  0.32124907
   0.83333333  0.00000863  0.32132637
   0.83333333  0.33334279  0.32133288
   0.83333333  0.66665626  0.32134963
   0.00000937  0.00000036  0.38483994
   0.00000630  0.33335348  0.38486174
  -0.00002423  0.66661272  0.38486300
   0.33333333  0.00010826  0.38483978
   0.33333333  0.33358187  0.38484952
   0.33333333  0.66697395  0.38445859
   0.66665729  0.00000036  0.38483994
   0.66666037  0.33335348  0.38486174
   0.66669089  0.66661272  0.38486300
   0.16666932  0.16658319  0.38482510
   0.16652211  0.49999736  0.38461334
   0.16671186  0.83334615  0.38485516
   0.49999735  0.16658319  0.38482510
   0.50014456  0.49999736  0.38461334
   0.49995481  0.83334615  0.38485516
   0.83333333  0.16668514  0.38483030
   0.83333333  0.49998824  0.38481897
   0.83333333  0.83332719  0.38483464
   0.00001333  0.16668174  0.44735809
  -0.00005565  0.49999812  0.44728283
   0.00003051  0.83332503  0.44737706
   0.33333333  0.16672270  0.44734255
   0.33333333  0.49993074  0.44538154
   0.33333333  0.83344911  0.44729915
   0.66665334  0.16668174  0.44735809
   0.66672232  0.49999812  0.44728283
   0.66663616  0.83332503  0.44737706
   0.16668807 -0.00000648  0.44735931
   0.16636701  0.33281638  0.44724140
   0.16548240  0.66773969  0.44702866
   0.49997860 -0.00000648  0.44735931
   0.50029966  0.33281638  0.44724140
   0.50118426  0.66773969  0.44702866
   0.83333333 -0.00002525  0.44734852
   0.83333333  0.33335152  0.44736009
   0.83333333  0.66662621  0.44736932
   0.33333333  0.49481849  0.50503465
   0.33333333  0.57207054  0.50162449
Direct configuration=     5
   0.00000000  0.00000000  0.00000000
   0.00000000  0.33333333  0.00000000
   0.00000000  0.66666667  0.00000000
   0.33333333  0.00000000  0.00000000
   0.33333333  0.33333333  0.00000000
   0.33333333  0.66666667  0.00000000
   0.66666667  0.00000000  0.00000000
   0.66666667  0.33333333  0.00000000
   0.66666667  0.66666667  0.00000000
   0.16666667  0.16666667  0.00000000
   0.16666667  0.50000000  0.00000000
   0.16666667  0.83333333  0.00000000
   0.50000000  0.16666667  0.00000000
   0.50000000  0.50000000  0.00000000
   0.50000000  0.83333333  0.00000000
   0.83333333  0.16666667  0.00000000
   0.83333333  0.50000000  0.00000000
   0.83333333  0.83333333  0.00000000
   0.00000000  0.16666667  0.06551164
   0.00000000  0.50000000  0.06551164
   0.00000000  0.83333333  0.06551164
   0.33333333  0.16666667  0.06551164
   0.33333333  0.50000000  0.06551164
   0.33333333  0.83333333  0.06551164
   0.66666667  0.16666667  0.06551164
   0.66666667  0.50000000  0.06551164
   0.66666667  0.83333333  0.06551164
   0.16666667  0.00000000  0.06551164
   0.16666667  0.33333333  0.06551164
   0.16666667  0.66666667  0.06551164
   0.50000000  0.00000000  0.06551164
   0.50000000  0.33333333  0.06551164
   0.50000000  0.66666667  0.06551164
   0.83333333  0.00000000  0.06551164
   0.83333333  0.33333333  0.06551164
   0.83333333  0.66666667  0.06551164
   0.00000000  0.00000000  0.13119553
   0.00000000  0.33333333  0.13119553
   0.00000000  0.66666667  0.13119553
   0.33333333  0.00000000  0.13119553
   0.33333333  0.33333333  0.13119553
   0.33333333  0.66666667  0.13119553
   0.66666667  0.00000000  0.13119553
   0.66666667  0.33333333  0.13119553
   0.66666667  0.66666667  0.13119553
   0.16666667  0.16666667  0.13119553
   0.16666667  0.50000000  0.13119553
   0.16666667  0.83333333  0.13119553
   0.50000000  0.16666667  0.13119553
   0.50000000  0.50000000  0.13119553
   0.50000000  0.83333333  0.13119553
   0.83333333  0.16666667  0.13119553
   0.83333333  0.50000000  0.13119553
   0.83333333  0.83333333  0.13119553
   0.00001431  0.16669756  0.19501364
   0.00009073  0.49999809  0.19506822
   0.00005157  0.83330291  0.19502727
   0.33333333  0.16672851  0.19506510
   0.33333333  0.50002577  0.19498199
   0.33333333  0.83324776  0.19509998
   0.66665236  0.16669756  0.19501364
   0.66657593  0.49999809  0.19506822
   0.66661509  0.83330291  0.19502727
   0.16668658 -0.00002153  0.19497059
   0.16666566  0.33335092  0.19507980
   0.16668310  0.66666320  0.19505346
   0.49998009 -0.00002153  0.19497059
   0.50000101  0.33335092  0.19507980
   0.49998356  0.66666320  0.19505346
   0.83333333  0.00001248  0.19501716
   0.83333333  0.33334234  0.19498077
   0.83333333  0.66664876  0.19497769
   0.00004105 -0.00000788  0.25853338
  -0.00006410  0.33329973  0.25849089
  -0.00011187  0.66671112  0.25847893
   0.33333333  0.00011007  0.25846909
   0.33333333  0.33340346  0.25863725
   0.33333333  0.66658837  0.25867987
   0.66662562 -0.00000788  0.25853338
   0.66673077  0.33329973  0.25849089
   0.66677853  0.66671112  0.25847893
   0.16663386  0.16654584  0.25846591
   0.16675329  0.50000402  0.25866129
   0.16661534  0.83338506  0.25847135
   0.50003281  0.16654584  0.25846591
   0.49991338  0.50000402  0.25866129
   0.50005132  0.83338506  0.25847135
   0.83333333  0.16669275  0.25852530
   0.83333333  0.50001074  0.25844849
   0.83333333  0.83330758  0.25853106
   0.00002828  0.16672846  0.32143054
   0.00003658  0.49997590  0.32138650
   0.00003528  0.83331126  0.32144083
   0.33333333  0.16688576  0.32148012
   0.33333333  0.50003155  0.32147012
   0.33333333  0.83343043  0.32138308
   0.66663839  0.16672846  0.32143054
   0.66663009  0.49997590  0.32138650
   0.66663138  0.83331126  0.32144083
   0.16667114 -0.00009215  0.32142564
   0.16651382  0.33314262  0.32129220
   0.16651992  0.66677893  0.32128220
   0.49999553 -0.00009215  0.32142564
   0.50015285  0.33314262  0.32129220
   0.50014675  0.66677893  0.32128220
   0.83333333  0.00001551  0.32142122
   0.83333333  0.33335146  0.32143343
   0.83333333  0.66664649  0.32146313
   0.00001559 -0.00000074  0.38490412
   0.00001186  0.33337106  0.38494163
  -0.00005575  0.66656896  0.38493838
   0.33333333  0.00019032  0.38490364
   0.33333333  0.33365109  0.38487588
   0.33333333  0.66729420  0.38419772
   0.66665107 -0.00000074  0.38490412
   0.66665481  0.33337106  0.38494163
   0.66672241  0.66656896  0.38493838
   0.16667452  0.16651757  0.38487412
   0.16629661  0.49999884  0.38445964
   0.16674546  0.83337579  0.38492166
   0.49999215  0.16651757  0.38487412
   0.50037006  0.49999884  0.38445964
   0.49992120  0.83337579  0.38492166
   0.83333333  0.16669803  0.38488615
   0.83333333  0.49997791  0.38486369
   0.83333333  0.83332319  0.38489429
   0.00002132  0.16668970  0.44735638
  -0.00011185  0.49999137  0.44721687
   0.00003982  0.83333317  0.44739054
   0.33333333  0.16675763  0.44732739
   0.33333333  0.50018623  0.44479810
   0.33333333  0.83353429  0.44725157
   0.66664534  0.16668970  0.44735638
   0.66677852  0.49999137  0.44721687
   0.66662684  0.83333317  0.44739054
   0.16670381 -0.00000948  0.44735856
   0.16613021  0.33240627  0.44714976
   0.16461636  0.66855234  0.44678202
   0.49996286 -0.00000948  0.44735856
   0.50053646  0.33240627  0.44714976
   0.50205031  0.66855234  0.44678202
   0.83333333 -0.00004550  0.44733862
   0.83333333  0.33336626  0.44736049
   0.83333333  0.66659478  0.44737738
   0.33333333  0.49566414  0.50711553
   0.33333333  0.56973307  0.50154276
Direct configuration=     6
   0.00000000  0.00000000  0.00000000
   0.00000000  0.33333333  0.00000000
   0.00000000  0.66666667  0.00000000
   0.33333333  0.00000000  0.00000000
   0.33333333  0.33333333  0.00000000
   0.33333333  0.66666667  0.00000000
   0.66666667  0.00000000  0.00000000
   0.66666667  0.33333333  0.00000000
   0.66666667  0.66666667  0.00000000
   0.16666667  0.16666667  0.00000000
   0.16666667  0.50000000  0.00000000
   0.16666667  0.83333333  0.00000000
   0.50000000  0.16666667  0.00000000
   0.50000000  0.50000000  0.00000000
   0.50000000  0.83333333  0.00000000
   0.83333333  0.16666667  0.00000000
   0.83333333  0.50000000  0.00000000
   0.83333333  0.83333333  0.00000000
   0.00000000  0.16666667  0.06551164
   0.00000000  0.50000000  0.06551164
   0.00000000  0.83333333  0.06551164
   0.33333333  0.16666667  0.06551164
   0.33333333  0.50000000  0.06551164
   0.33333333  0.83333333  0.06551164
   0.66666667  0.16666667  0.06551164
   0.66666667  0.50000000  0.06551164
   0.66666667  0.83333333  0.06551164
   0.16666667  0.00000000  0.06551164
   0.16666667  0.33333333  0.06551164
   0.16666667  0.66666667  0.06551164
   0.50000000  0.00000000  0.06551164
   0.50000000  0.33333333  0.06551164
   0.50000000  0.66666667  0.06551164
   0.83333333  0.00000000  0.06551164
   0.83333333  0.33333333  0.06551164
   0.83333333  0.66666667  0.06551164
   0.00000000  0.00000000  0.13119553
   0.00000000  0.33333333  0.13119553
   0.00000000  0.66666667  0.13119553
   0.33333333  0.00000000  0.13119553
   0.33333333  0.33333333  0.13119553
   0.33333333  0.66666667  0.13119553
   0.66666667  0.00000000  0.13119553
   0.66666667  0.33333333  0.13119553
   0.66666667  0.66666667  0.13119553
   0.16666667  0.16666667  0.13119553
   0.16666667  0.50000000  0.13119553
   0.16666667  0.83333333  0.13119553
   0.50000000  0.16666667  0.13119553
   0.50000000  0.50000000  0.13119553