   7   7   0   0
  0.3021577E+02  0.3630000E-09  0.2566798E-09  0.2270039E-08  0.5000000E-15
  1.000000000000000E-004
  CAR 
 unknown system                          
     11.60041318    -10.63615692  301      0.45997046      1.00000000
    -10.636  0.0000E+00  0.0000E+00  0.0000E+00  0.0000E+00
    -10.562  0.0000E+00  0.0000E+00  0.0000E+00  0.0000E+00
    -10.488  0.0000E+00  0.0000E+00  0.0000E+00  0.0000E+00
    -10.414  0.0000E+00  0.0000E+00  0.0000E+00  0.0000E+00
    -10.340  0.0000E+00  0.0000E+00  0.0000E+00  0.0000E+00
    -10.266 -0.6437E-31 -0.6438E-31 -0.4771E-32 -0.4772E-32
    -10.191 -0.2239E-28 -0.2240E-28 -0.1665E-29 -0.1665E-29
    -10.117 -0.5917E-26 -0.5918E-26 -0.4403E-27 -0.4404E-27
    -10.043 -0.1185E-23 -0.1185E-23 -0.8826E-25 -0.8827E-25
     -9.969 -0.1797E-21 -0.1797E-21 -0.1340E-22 -0.1341E-22
     -9.895 -0.2062E-19 -0.2063E-19 -0.1542E-20 -0.1542E-20
     -9.821 -0.1791E-17 -0.1792E-17 -0.1343E-18 -0.1343E-18
     -9.747 -0.1138E-15 -0.1138E-15 -0.8570E-17 -0.8571E-17
     -9.673 -0.5624E-14 -0.5625E-14 -0.4254E-15 -0.4255E-15
     -9.598 -0.2093E-12 -0.2093E-12 -0.1594E-13 -0.1594E-13
     -9.524 -0.5862E-11 -0.5862E-11 -0.4504E-12 -0.4505E-12
     -9.450 -0.1232E-09 -0.1232E-09 -0.9582E-11 -0.9583E-11
     -9.376 -0.1937E-08 -0.1937E-08 -0.1531E-09 -0.1531E-09
     -9.302 -0.2265E-07 -0.2265E-07 -0.1832E-08 -0.1832E-08
     -9.228 -0.1957E-06 -0.1957E-06 -0.1633E-07 -0.1634E-07
     -9.154 -0.1232E-05 -0.1232E-05 -0.1077E-06 -0.1077E-06
     -9.080 -0.5529E-05 -0.5529E-05 -0.5175E-06 -0.5175E-06
     -9.005 -0.1683E-04 -0.1683E-04 -0.1765E-05 -0.1765E-05
     -8.931 -0.2999E-04 -0.2999E-04 -0.3987E-05 -0.3987E-05
     -8.857 -0.7837E-05 -0.7835E-05 -0.4568E-05 -0.4568E-05
     -8.783  0.1152E-03  0.1152E-03  0.3968E-05  0.3969E-05
     -8.709  0.3462E-03  0.3462E-03  0.2963E-04  0.2963E-04
     -8.635  0.5474E-03  0.5474E-03  0.7020E-04  0.7020E-04
     -8.561  0.5432E-03  0.5432E-03  0.1105E-03  0.1105E-03
     -8.487  0.3374E-03  0.3374E-03  0.1355E-03  0.1355E-03
     -8.412  0.1087E-03  0.1087E-03  0.1435E-03  0.1435E-03
     -8.338 -0.9937E-05 -0.9939E-05  0.1428E-03  0.1428E-03
     -8.264 -0.2978E-04 -0.2978E-04  0.1406E-03  0.1406E-03
     -8.190 -0.1631E-04 -0.1631E-04  0.1394E-03  0.1394E-03
     -8.116 -0.5283E-05 -0.5283E-05  0.1390E-03  0.1390E-03
     -8.042 -0.1202E-05 -0.1202E-05  0.1389E-03  0.1389E-03
     -7.968 -0.5496E-06 -0.5496E-06  0.1389E-03  0.1389E-03
     -7.894 -0.2508E-05 -0.2508E-05  0.1387E-03  0.1387E-03
     -7.820 -0.1209E-04 -0.1209E-04  0.1378E-03  0.1378E-03
     -7.745 -0.4048E-04 -0.4049E-04  0.1348E-03  0.1348E-03
     -7.671 -0.8378E-04 -0.8378E-04  0.1286E-03  0.1286E-03
     -7.597 -0.5846E-04 -0.5846E-04  0.1242E-03  0.1242E-03
     -7.523  0.2250E-03  0.2250E-03  0.1409E-03  0.1409E-03
     -7.449  0.8617E-03  0.8617E-03  0.2048E-03  0.2048E-03
     -7.375  0.1540E-02  0.1540E-02  0.3189E-03  0.3189E-03
     -7.301  0.1698E-02  0.1698E-02  0.4447E-03  0.4447E-03
     -7.227  0.1186E-02  0.1186E-02  0.5326E-03  0.5326E-03
     -7.152  0.4659E-03  0.4658E-03  0.5672E-03  0.5672E-03
     -7.078  0.2138E-04  0.2137E-04  0.5687E-03  0.5687E-03
     -7.004 -0.9067E-04 -0.9067E-04  0.5620E-03  0.5620E-03
     -6.930 -0.5968E-04 -0.5968E-04  0.5576E-03  0.5576E-03
     -6.856 -0.2168E-04 -0.2168E-04  0.5560E-03  0.5560E-03
     -6.782 -0.6585E-05 -0.6585E-05  0.5555E-03  0.5555E-03
     -6.708 -0.8966E-05 -0.8966E-05  0.5548E-03  0.5548E-03
     -6.634 -0.3258E-04 -0.3258E-04  0.5524E-03  0.5524E-03
     -6.559 -0.8604E-04 -0.8604E-04  0.5461E-03  0.5461E-03
     -6.485 -0.1193E-03 -0.1193E-03  0.5372E-03  0.5372E-03
     -6.411  0.6533E-04  0.6533E-04  0.5420E-03  0.5420E-03
     -6.337  0.7102E-03  0.7102E-03  0.5947E-03  0.5947E-03
     -6.263  0.1680E-02  0.1680E-02  0.7192E-03  0.7192E-03
     -6.189  0.2290E-02  0.2290E-02  0.8890E-03  0.8890E-03
     -6.115  0.1979E-02  0.1979E-02  0.1036E-02  0.1036E-02
     -6.041  0.1038E-02  0.1038E-02  0.1113E-02  0.1113E-02
     -5.966  0.2150E-03  0.2150E-03  0.1129E-02  0.1129E-02
     -5.892 -0.1284E-03 -0.1284E-03  0.1119E-02  0.1119E-02
     -5.818 -0.1192E-03 -0.1192E-03  0.1110E-02  0.1110E-02
     -5.744  0.4365E-04  0.4366E-04  0.1113E-02  0.1113E-02
     -5.670  0.2532E-03  0.2532E-03  0.1132E-02  0.1132E-02
     -5.596  0.4830E-03  0.4830E-03  0.1168E-02  0.1168E-02
     -5.522  0.8849E-03  0.8849E-03  0.1234E-02  0.1234E-02
     -5.448  0.1663E-02  0.1663E-02  0.1357E-02  0.1357E-02
     -5.374  0.2585E-02  0.2585E-02  0.1548E-02  0.1548E-02
     -5.299  0.2964E-02  0.2964E-02  0.1768E-02  0.1768E-02
     -5.225  0.2460E-02  0.2460E-02  0.1950E-02  0.1950E-02
     -5.151  0.1569E-02  0.1569E-02  0.2067E-02  0.2067E-02
     -5.077  0.1021E-02  0.1021E-02  0.2142E-02  0.2142E-02
     -5.003  0.9585E-03  0.9585E-03  0.2214E-02  0.2214E-02
     -4.929  0.9888E-03  0.9888E-03  0.2287E-02  0.2287E-02
     -4.855  0.8932E-03  0.8932E-03  0.2353E-02  0.2353E-02
     -4.781  0.8318E-03  0.8318E-03  0.2415E-02  0.2415E-02
     -4.706  0.9811E-03  0.9811E-03  0.2487E-02  0.2487E-02
     -4.632  0.1523E-02  0.1523E-02  0.2600E-02  0.2600E-02
     -4.558  0.2681E-02  0.2681E-02  0.2799E-02  0.2799E-02
     -4.484  0.4060E-02  0.4060E-02  0.3100E-02  0.3100E-02
     -4.410  0.4523E-02  0.4523E-02  0.3435E-02  0.3435E-02
     -4.336  0.3596E-02  0.3596E-02  0.3702E-02  0.3702E-02
     -4.262  0.2424E-02  0.2424E-02  0.3881E-02  0.3881E-02
     -4.188  0.2502E-02  0.2502E-02  0.4067E-02  0.4067E-02
     -4.113  0.3925E-02  0.3925E-02  0.4358E-02  0.4358E-02
     -4.039  0.5616E-02  0.5616E-02  0.4774E-02  0.4774E-02
     -3.965  0.6831E-02  0.6831E-02  0.5280E-02  0.5280E-02
     -3.891  0.7633E-02  0.7633E-02  0.5846E-02  0.5846E-02
     -3.817  0.8191E-02  0.8191E-02  0.6453E-02  0.6453E-02
     -3.743  0.8445E-02  0.8445E-02  0.7079E-02  0.7079E-02
     -3.669  0.8438E-02  0.8438E-02  0.7705E-02  0.7705E-02
     -3.595  0.8423E-02  0.8423E-02  0.8329E-02  0.8329E-02
     -3.520  0.8578E-02  0.8578E-02  0.8965E-02  0.8965E-02
     -3.446  0.8778E-02  0.8778E-02  0.9615E-02  0.9615E-02
     -3.372  0.8631E-02  0.8631E-02  0.1026E-01  0.1026E-01
     -3.298  0.8024E-02  0.8024E-02  0.1085E-01  0.1085E-01
     -3.224  0.7668E-02  0.7668E-02  0.1142E-01  0.1142E-01
     -3.150  0.8393E-02  0.8393E-02  0.1204E-01  0.1204E-01
     -3.076  0.9973E-02  0.9973E-02  0.1278E-01  0.1278E-01
     -3.002  0.1143E-01  0.1143E-01  0.1363E-01  0.1363E-01
     -2.927  0.1205E-01  0.1205E-01  0.1452E-01  0.1452E-01
     -2.853  0.1180E-01  0.1180E-01  0.1539E-01  0.1539E-01
     -2.779  0.1157E-01  0.1157E-01  0.1625E-01  0.1625E-01
     -2.705  0.1285E-01  0.1285E-01  0.1720E-01  0.1720E-01
     -2.631  0.1575E-01  0.1575E-01  0.1837E-01  0.1837E-01
     -2.557  0.1803E-01  0.1803E-01  0.1971E-01  0.1971E-01
     -2.483  0.1774E-01  0.1774E-01  0.2102E-01  0.2102E-01
     -2.409  0.1583E-01  0.1583E-01  0.2220E-01  0.2220E-01
     -2.335  0.1449E-01  0.1449E-01  0.2327E-01  0.2327E-01
     -2.260  0.1409E-01  0.1409E-01  0.2431E-01  0.2431E-01
     -2.186  0.1349E-01  0.1349E-01  0.2531E-01  0.2531E-01
     -2.112  0.1224E-01  0.1224E-01  0.2622E-01  0.2622E-01
     -2.038  0.1101E-01  0.1101E-01  0.2704E-01  0.2704E-01
     -1.964  0.1057E-01  0.1057E-01  0.2782E-01  0.2782E-01
     -1.890  0.1171E-01  0.1171E-01  0.2869E-01  0.2869E-01
     -1.816  0.1470E-01  0.1470E-01  0.2978E-01  0.2978E-01
     -1.742  0.1834E-01  0.1834E-01  0.3114E-01  0.3114E-01
     -1.667  0.2048E-01  0.2048E-01  0.3266E-01  0.3266E-01
     -1.593  0.2005E-01  0.2005E-01  0.3414E-01  0.3414E-01
     -1.519  0.1841E-01  0.1841E-01  0.3551E-01  0.3551E-01
     -1.445  0.1787E-01  0.1787E-01  0.3683E-01  0.3683E-01
     -1.371  0.1904E-01  0.1904E-01  0.3824E-01  0.3824E-01
     -1.297  0.2055E-01  0.2055E-01  0.3977E-01  0.3977E-01
     -1.223  0.2133E-01  0.2133E-01  0.4135E-01  0.4135E-01
     -1.149  0.2110E-01  0.2110E-01  0.4291E-01  0.4291E-01
     -1.074  0.1922E-01  0.1922E-01  0.4434E-01  0.4434E-01
     -1.000  0.1515E-01  0.1515E-01  0.4546E-01  0.4546E-01
     -0.926  0.9761E-02  0.9761E-02  0.4618E-01  0.4618E-01
     -0.852  0.4999E-02  0.4999E-02  0.4655E-01  0.4655E-01
     -0.778  0.2316E-02  0.2316E-02  0.4673E-01  0.4673E-01
     -0.704  0.1813E-02  0.1813E-02  0.4686E-01  0.4686E-01
     -0.630  0.2338E-02  0.2338E-02  0.4703E-01  0.4703E-01
     -0.556  0.2537E-02  0.2537E-02  0.4722E-01  0.4722E-01
     -0.481  0.2076E-02  0.2076E-02  0.4738E-01  0.4738E-01
     -0.407  0.1501E-02  0.1501E-02  0.4749E-01  0.4749E-01
     -0.333  0.1110E-02  0.1110E-02  0.4757E-01  0.4757E-01
     -0.259  0.7178E-03  0.7178E-03  0.4762E-01  0.4762E-01
     -0.185  0.2680E-03  0.2680E-03  0.4764E-01  0.4764E-01
     -0.111 -0.3450E-04 -0.3450E-04  0.4764E-01  0.4764E-01
     -0.037 -0.1796E-04 -0.1796E-04  0.4764E-01  0.4764E-01
      0.037  0.3279E-03  0.3279E-03  0.4766E-01  0.4766E-01
      0.112  0.8002E-03  0.8002E-03  0.4772E-01  0.4772E-01
      0.186  0.1028E-02  0.1028E-02  0.4780E-01  0.4780E-01
      0.260  0.8949E-03  0.8949E-03  0.4786E-01  0.4786E-01
      0.334  0.8422E-03  0.8422E-03  0.4793E-01  0.4793E-01
      0.408  0.1318E-02  0.1318E-02  0.4802E-01  0.4802E-01
      0.482  0.2014E-02  0.2014E-02  0.4817E-01  0.4817E-01
      0.556  0.2227E-02  0.2227E-02  0.4834E-01  0.4834E-01
      0.630  0.1887E-02  0.1887E-02  0.4848E-01  0.4848E-01
      0.704  0.1543E-02  0.1543E-02  0.4859E-01  0.4859E-01
      0.779  0.1420E-02  0.1420E-02  0.4870E-01  0.4870E-01
      0.853  0.1279E-02  0.1279E-02  0.4879E-01  0.4879E-01
      0.927  0.1073E-02  0.1073E-02  0.4887E-01  0.4887E-01
      1.001  0.1096E-02  0.1096E-02  0.4895E-01  0.4895E-01
      1.075  0.1529E-02  0.1529E-02  0.4907E-01  0.4907E-01
      1.149  0.2192E-02  0.2192E-02  0.4923E-01  0.4923E-01
      1.223  0.2619E-02  0.2619E-02  0.4942E-01  0.4942E-01
      1.297  0.2355E-02  0.2355E-02  0.4960E-01  0.4960E-01
      1.372  0.1447E-02  0.1447E-02  0.4971E-01  0.4971E-01
      1.446  0.4896E-03  0.4896E-03  0.4974E-01  0.4974E-01
      1.520 -0.3510E-04 -0.3510E-04  0.4974E-01  0.4974E-01
      1.594 -0.1610E-03 -0.1610E-03  0.4973E-01  0.4973E-01
      1.668 -0.1617E-03 -0.1617E-03  0.4972E-01  0.4972E-01
      1.742 -0.1618E-03 -0.1618E-03  0.4970E-01  0.4970E-01
      1.816 -0.1471E-04 -0.1471E-04  0.4970E-01  0.4970E-01
      1.890  0.5821E-03  0.5821E-03  0.4975E-01  0.4975E-01
      1.965  0.1711E-02  0.1711E-02  0.4987E-01  0.4987E-01
      2.039  0.2847E-02  0.2847E-02  0.5008E-01  0.5008E-01
      2.113  0.3135E-02  0.3135E-02  0.5032E-01  0.5032E-01
      2.187  0.2297E-02  0.2297E-02  0.5049E-01  0.5049E-01
      2.261  0.1002E-02  0.1002E-02  0.5056E-01  0.5056E-01
      2.335  0.1203E-03  0.1203E-03  0.5057E-01  0.5057E-01
      2.409 -0.6255E-04 -0.6254E-04  0.5056E-01  0.5056E-01
      2.483  0.2942E-03  0.2942E-03  0.5059E-01  0.5059E-01
      2.558  0.1099E-02  0.1099E-02  0.5067E-01  0.5067E-01
      2.632  0.2319E-02  0.2319E-02  0.5084E-01  0.5084E-01
      2.706  0.3537E-02  0.3537E-02  0.5110E-01  0.5110E-01
      2.780  0.4036E-02  0.4036E-02  0.5140E-01  0.5140E-01
      2.854  0.3521E-02  0.3521E-02  0.5166E-01  0.5166E-01
      2.928  0.2386E-02  0.2386E-02  0.5184E-01  0.5184E-01
      3.002  0.1228E-02  0.1228E-02  0.5193E-01  0.5193E-01
      3.076  0.4078E-03  0.4078E-03  0.5196E-01  0.5196E-01
      3.151  0.2729E-05  0.2732E-05  0.5196E-01  0.5196E-01
      3.225 -0.9947E-04 -0.9946E-04  0.5195E-01  0.5195E-01
      3.299 -0.7397E-04 -0.7396E-04  0.5195E-01  0.5195E-01
      3.373 -0.4195E-04 -0.4195E-04  0.5194E-01  0.5194E-01
      3.447 -0.4677E-04 -0.4677E-04  0.5194E-01  0.5194E-01
      3.521 -0.8029E-04 -0.8029E-04  0.5193E-01  0.5193E-01
      3.595 -0.7284E-04 -0.7284E-04  0.5193E-01  0.5193E-01
      3.669  0.1212E-03  0.1212E-03  0.5194E-01  0.5194E-01
      3.743  0.6383E-03  0.6383E-03  0.5199E-01  0.5199E-01
      3.818  0.1455E-02  0.1455E-02  0.5209E-01  0.5209E-01
      3.892  0.2306E-02  0.2306E-02  0.5226E-01  0.5226E-01
      3.966  0.2718E-02  0.2718E-02  0.5247E-01  0.5247E-01
      4.040  0.2320E-02  0.2320E-02  0.5264E-01  0.5264E-01
      4.114  0.1364E-02  0.1363E-02  0.5274E-01  0.5274E-01
      4.188  0.7339E-03  0.7331E-03  0.5279E-01  0.5279E-01
      4.262  0.1112E-02  0.1112E-02  0.5288E-01  0.5288E-01
      4.336  0.2287E-02  0.2287E-02  0.5305E-01  0.5305E-01
      4.411  0.3389E-02  0.3390E-02  0.5330E-01  0.5330E-01
      4.485  0.3624E-02  0.3625E-02  0.5357E-01  0.5357E-01
      4.559  0.2818E-02  0.2819E-02  0.5377E-01  0.5377E-01
      4.633  0.1490E-02  0.1490E-02  0.5388E-01  0.5388E-01
      4.707  0.3891E-03  0.3891E-03  0.5391E-01  0.5391E-01
      4.781 -0.1339E-03 -0.1339E-03  0.5390E-01  0.5390E-01
      4.855 -0.2274E-03 -0.2274E-03  0.5389E-01  0.5389E-01
      4.929 -0.1010E-03 -0.1013E-03  0.5388E-01  0.5388E-01
      5.004  0.2528E-03  0.2521E-03  0.5390E-01  0.5390E-01
      5.078  0.8484E-03  0.8477E-03  0.5396E-01  0.5396E-01
      5.152  0.1398E-02  0.1398E-02  0.5406E-01  0.5406E-01
      5.226  0.1492E-02  0.1492E-02  0.5417E-01  0.5417E-01
      5.300  0.1221E-02  0.1220E-02  0.5427E-01  0.5427E-01
      5.374  0.1409E-02  0.1408E-02  0.5437E-01  0.5437E-01
      5.448  0.2833E-02  0.2833E-02  0.5458E-01  0.5458E-01
      5.522  0.5005E-02  0.5005E-02  0.5495E-01  0.5495E-01
      5.597  0.6209E-02  0.6210E-02  0.5541E-01  0.5541E-01
      5.671  0.5344E-02  0.5345E-02  0.5581E-01  0.5581E-01
      5.745  0.3164E-02  0.3165E-02  0.5604E-01  0.5604E-01
      5.819  0.1176E-02  0.1177E-02  0.5613E-01  0.5613E-01
      5.893  0.9530E-04  0.9549E-04  0.5614E-01  0.5614E-01
      5.967 -0.2145E-03 -0.2146E-03  0.5612E-01  0.5612E-01
      6.041 -0.4961E-04 -0.4977E-04  0.5612E-01  0.5612E-01
      6.115  0.4009E-03  0.4008E-03  0.5615E-01  0.5615E-01
      6.190  0.8556E-03  0.8556E-03  0.5621E-01  0.5621E-01
      6.264  0.9264E-03  0.9266E-03  0.5628E-01  0.5628E-01
      6.338  0.6103E-03  0.6103E-03  0.5632E-01  0.5632E-01
      6.412  0.6260E-03  0.6249E-03  0.5637E-01  0.5637E-01
      6.486  0.1830E-02  0.1827E-02  0.5651E-01  0.5651E-01
      6.560  0.4114E-02  0.4110E-02  0.5681E-01  0.5681E-01
      6.634  0.6089E-02  0.6087E-02  0.5726E-01  0.5726E-01
      6.708  0.6218E-02  0.6219E-02  0.5772E-01  0.5772E-01
      6.782  0.4341E-02  0.4345E-02  0.5804E-01  0.5804E-01
      6.857  0.1854E-02  0.1858E-02  0.5818E-01  0.5818E-01
      6.931  0.4266E-03  0.4278E-03  0.5821E-01  0.5821E-01
      7.005  0.7850E-03  0.7833E-03  0.5827E-01  0.5827E-01
      7.079  0.2360E-02  0.2356E-02  0.5845E-01  0.5845E-01
      7.153  0.3660E-02  0.3658E-02  0.5872E-01  0.5872E-01
      7.227  0.3480E-02  0.3481E-02  0.5898E-01  0.5898E-01
      7.301  0.2094E-02  0.2096E-02  0.5913E-01  0.5913E-01
      7.375  0.8628E-03  0.8642E-03  0.5919E-01  0.5919E-01
      7.450  0.7999E-03  0.7997E-03  0.5925E-01  0.5925E-01
      7.524  0.1905E-02  0.1904E-02  0.5940E-01  0.5940E-01
      7.598  0.3396E-02  0.3395E-02  0.5965E-01  0.5965E-01
      7.672  0.4203E-02  0.4204E-02  0.5996E-01  0.5996E-01
      7.746  0.3780E-02  0.3781E-02  0.6024E-01  0.6024E-01
      7.820  0.2537E-02  0.2539E-02  0.6043E-01  0.6043E-01
      7.894  0.1230E-02  0.1231E-02  0.6052E-01  0.6052E-01
      7.968  0.3032E-03  0.3032E-03  0.6054E-01  0.6054E-01
      8.043  0.2315E-04  0.2129E-04  0.6054E-01  0.6054E-01
      8.117  0.7047E-03  0.7005E-03  0.6059E-01  0.6059E-01
      8.191  0.2361E-02  0.2356E-02  0.6077E-01  0.6077E-01
      8.265  0.4157E-02  0.4154E-02  0.6108E-01  0.6108E-01
      8.339  0.4711E-02  0.4713E-02  0.6143E-01  0.6143E-01
      8.413  0.3464E-02  0.3469E-02  0.6168E-01  0.6168E-01
      8.487  0.1444E-02  0.1449E-02  0.6179E-01  0.6179E-01
      8.561  0.2658E-03  0.2671E-03  0.6181E-01  0.6181E-01
      8.636  0.7408E-03  0.7384E-03  0.6187E-01  0.6186E-01
      8.710  0.2528E-02  0.2524E-02  0.6205E-01  0.6205E-01
      8.784  0.4574E-02  0.4571E-02  0.6239E-01  0.6239E-01
      8.858  0.5816E-02  0.5815E-02  0.6282E-01  0.6282E-01
      8.932  0.5781E-02  0.5784E-02  0.6325E-01  0.6325E-01
      9.006  0.4783E-02  0.4790E-02  0.6361E-01  0.6361E-01
      9.080  0.3588E-02  0.3599E-02  0.6387E-01  0.6387E-01
      9.154  0.2689E-02  0.2698E-02  0.6407E-01  0.6407E-01
      9.229  0.2024E-02  0.2005E-02  0.6422E-01  0.6422E-01
      9.303  0.1570E-02  0.1482E-02  0.6434E-01  0.6433E-01
      9.377  0.1536E-02  0.1387E-02  0.6445E-01  0.6443E-01
      9.451  0.1817E-02  0.1706E-02  0.6459E-01  0.6456E-01
      9.525  0.1977E-02  0.2004E-02  0.6473E-01  0.6471E-01
      9.599  0.1765E-02  0.1904E-02  0.6486E-01  0.6485E-01
      9.673  0.1242E-02  0.1375E-02  0.6496E-01  0.6495E-01
      9.747  0.6225E-03  0.6824E-03  0.6500E-01  0.6500E-01
      9.821  0.1541E-03  0.1592E-03  0.6501E-01  0.6501E-01
      9.896 -0.5057E-04 -0.5979E-04  0.6501E-01  0.6501E-01
      9.970 -0.7015E-04 -0.7610E-04  0.6500E-01  0.6500E-01
     10.044 -0.3572E-04 -0.3771E-04  0.6500E-01  0.6500E-01
     10.118 -0.1136E-04 -0.1179E-04  0.6500E-01  0.6500E-01
     10.192 -0.2498E-05 -0.2563E-05  0.6500E-01  0.6500E-01
     10.266 -0.3940E-06 -0.4011E-06  0.6500E-01  0.6500E-01
     10.340 -0.4547E-07 -0.4603E-07  0.6500E-01  0.6500E-01
     10.414 -0.3881E-08 -0.3914E-08  0.6500E-01  0.6500E-01
     10.489 -0.2467E-09 -0.2481E-09  0.6500E-01  0.6500E-01
     10.563 -0.1173E-10 -0.1178E-10  0.6500E-01  0.6500E-01
     10.637 -0.4188E-12 -0.4200E-12  0.6500E-01  0.6500E-01
     10.711 -0.1125E-13 -0.1127E-13  0.6500E-01  0.6500E-01
     10.785 -0.2280E-15 -0.2284E-15  0.6500E-01  0.6500E-01
     10.859 -0.3329E-17 -0.3329E-17  0.6500E-01  0.6500E-01
     10.933  0.0000E+00  0.0000E+00  0.6500E-01  0.6500E-01
     11.007  0.0000E+00  0.0000E+00  0.6500E-01  0.6500E-01
     11.082  0.0000E+00  0.0000E+00  0.6500E-01  0.6500E-01
     11.156  0.0000E+00  0.0000E+00  0.6500E-01  0.6500E-01
     11.230  0.0000E+00  0.0000E+00  0.6500E-01  0.6500E-01
     11.304  0.0000E+00  0.0000E+00  0.6500E-01  0.6500E-01
     11.378  0.0000E+00  0.0000E+00  0.6500E-01  0.6500E-01
     11.452  0.0000E+00  0.0000E+00  0.6500E-01  0.6500E-01
     11.526  0.0000E+00  0.0000E+00  0.6500E-01  0.6500E-01
     11.600  0.0000E+00  0.0000E+00  0.6500E-01  0.6500E-01
