  18  18   0   0
  0.2028145E+02  0.3630000E-09  0.3630000E-09  0.2770500E-08  0.5000000E-15
  1.000000000000000E-004
  CAR 
 unknown system                          
     13.21668818     -9.45568361  301      1.94570887      1.00000000
     -9.456  0.0000E+00  0.0000E+00  0.0000E+00  0.0000E+00
     -9.380  0.0000E+00  0.0000E+00  0.0000E+00  0.0000E+00
     -9.305  0.0000E+00  0.0000E+00  0.0000E+00  0.0000E+00
     -9.229  0.0000E+00  0.0000E+00  0.0000E+00  0.0000E+00
     -9.153  0.0000E+00  0.0000E+00  0.0000E+00  0.0000E+00
     -9.078 -0.1134E-30 -0.1134E-30 -0.8574E-32 -0.8574E-32
     -9.002 -0.4295E-28 -0.4295E-28 -0.3255E-29 -0.3255E-29
     -8.927 -0.1221E-25 -0.1221E-25 -0.9263E-27 -0.9263E-27
     -8.851 -0.2603E-23 -0.2603E-23 -0.1976E-24 -0.1976E-24
     -8.776 -0.4154E-21 -0.4154E-21 -0.3159E-22 -0.3159E-22
     -8.700 -0.4965E-19 -0.4965E-19 -0.3784E-20 -0.3784E-20
     -8.624 -0.4338E-17 -0.4338E-17 -0.3316E-18 -0.3316E-18
     -8.549 -0.2871E-15 -0.2871E-15 -0.2203E-16 -0.2203E-16
     -8.473 -0.1426E-13 -0.1426E-13 -0.1100E-14 -0.1100E-14
     -8.398 -0.5281E-12 -0.5281E-12 -0.4101E-13 -0.4101E-13
     -8.322 -0.1454E-10 -0.1454E-10 -0.1140E-11 -0.1140E-11
     -8.246 -0.2968E-09 -0.2968E-09 -0.2357E-10 -0.2357E-10
     -8.171 -0.4473E-08 -0.4473E-08 -0.3616E-09 -0.3616E-09
     -8.095 -0.4948E-07 -0.4948E-07 -0.4101E-08 -0.4101E-08
     -8.020 -0.3979E-06 -0.3979E-06 -0.3417E-07 -0.3417E-07
     -7.944 -0.2288E-05 -0.2288E-05 -0.2071E-06 -0.2071E-06
     -7.869 -0.9115E-05 -0.9115E-05 -0.8960E-06 -0.8960E-06
     -7.793 -0.2329E-04 -0.2329E-04 -0.2656E-05 -0.2656E-05
     -7.717 -0.2823E-04 -0.2823E-04 -0.4790E-05 -0.4790E-05
     -7.642  0.3321E-04  0.3321E-04 -0.2280E-05 -0.2280E-05
     -7.566  0.2177E-03  0.2177E-03  0.1418E-04  0.1418E-04
     -7.491  0.4627E-03  0.4627E-03  0.4914E-04  0.4914E-04
     -7.415  0.5733E-03  0.5733E-03  0.9247E-04  0.9247E-04
     -7.340  0.4369E-03  0.4369E-03  0.1255E-03  0.1255E-03
     -7.264  0.1756E-03  0.1756E-03  0.1388E-03  0.1388E-03
     -7.188 -0.9073E-06 -0.9073E-06  0.1387E-03  0.1387E-03
     -7.113  0.1936E-04  0.1936E-04  0.1402E-03  0.1402E-03
     -7.037  0.2250E-03  0.2250E-03  0.1572E-03  0.1572E-03
     -6.962  0.4795E-03  0.4795E-03  0.1934E-03  0.1934E-03
     -6.886  0.5709E-03  0.5709E-03  0.2365E-03  0.2365E-03
     -6.811  0.4192E-03  0.4192E-03  0.2682E-03  0.2682E-03
     -6.735  0.1717E-03  0.1717E-03  0.2812E-03  0.2812E-03
     -6.659  0.4005E-05  0.4005E-05  0.2815E-03  0.2815E-03
     -6.584 -0.6655E-04 -0.6655E-04  0.2765E-03  0.2765E-03
     -6.508 -0.1204E-03 -0.1204E-03  0.2674E-03  0.2674E-03
     -6.433 -0.1511E-03 -0.1511E-03  0.2560E-03  0.2560E-03
     -6.357  0.7216E-04  0.7216E-04  0.2614E-03  0.2614E-03
     -6.282  0.8603E-03  0.8603E-03  0.3264E-03  0.3264E-03
     -6.206  0.2056E-02  0.2056E-02  0.4818E-03  0.4818E-03
     -6.130  0.2795E-02  0.2795E-02  0.6930E-03  0.6930E-03
     -6.055  0.2363E-02  0.2363E-02  0.8716E-03  0.8716E-03
     -5.979  0.1151E-02  0.1151E-02  0.9586E-03  0.9586E-03
     -5.904  0.2434E-03  0.2434E-03  0.9770E-03  0.9770E-03
     -5.828  0.3364E-03  0.3364E-03  0.1002E-02  0.1002E-02
     -5.753  0.1260E-02  0.1260E-02  0.1098E-02  0.1098E-02
     -5.677  0.2142E-02  0.2142E-02  0.1259E-02  0.1259E-02
     -5.601  0.2134E-02  0.2134E-02  0.1421E-02  0.1421E-02
     -5.526  0.1280E-02  0.1280E-02  0.1518E-02  0.1518E-02
     -5.450  0.3428E-03  0.3428E-03  0.1543E-02  0.1543E-02
     -5.375 -0.1739E-03 -0.1739E-03  0.1530E-02  0.1530E-02
     -5.299 -0.3260E-03 -0.3260E-03  0.1506E-02  0.1506E-02
     -5.224 -0.1454E-03 -0.1454E-03  0.1495E-02  0.1495E-02
     -5.148  0.7134E-03  0.7134E-03  0.1549E-02  0.1549E-02
     -5.072  0.2428E-02  0.2428E-02  0.1732E-02  0.1732E-02
     -4.997  0.4195E-02  0.4195E-02  0.2049E-02  0.2049E-02
     -4.921  0.4636E-02  0.4636E-02  0.2399E-02  0.2399E-02
     -4.846  0.3444E-02  0.3444E-02  0.2660E-02  0.2660E-02
     -4.770  0.1962E-02  0.1962E-02  0.2808E-02  0.2808E-02
     -4.694  0.1538E-02  0.1538E-02  0.2924E-02  0.2924E-02
     -4.619  0.1935E-02  0.1935E-02  0.3071E-02  0.3071E-02
     -4.543  0.2033E-02  0.2033E-02  0.3224E-02  0.3224E-02
     -4.468  0.1522E-02  0.1522E-02  0.3339E-02  0.3339E-02
     -4.392  0.1140E-02  0.1140E-02  0.3425E-02  0.3425E-02
     -4.317  0.1542E-02  0.1542E-02  0.3542E-02  0.3542E-02
     -4.241  0.2580E-02  0.2580E-02  0.3737E-02  0.3737E-02
     -4.165  0.3631E-02  0.3631E-02  0.4011E-02  0.4011E-02
     -4.090  0.4388E-02  0.4388E-02  0.4343E-02  0.4343E-02
     -4.014  0.5007E-02  0.5007E-02  0.4721E-02  0.4721E-02
     -3.939  0.5371E-02  0.5371E-02  0.5127E-02  0.5127E-02
     -3.863  0.4815E-02  0.4815E-02  0.5491E-02  0.5491E-02
     -3.788  0.3105E-02  0.3105E-02  0.5726E-02  0.5726E-02
     -3.712  0.1202E-02  0.1202E-02  0.5817E-02  0.5817E-02
     -3.636  0.5440E-03  0.5440E-03  0.5858E-02  0.5858E-02
     -3.561  0.1683E-02  0.1683E-02  0.5985E-02  0.5985E-02
     -3.485  0.3552E-02  0.3552E-02  0.6253E-02  0.6253E-02
     -3.410  0.4230E-02  0.4230E-02  0.6573E-02  0.6573E-02
     -3.334  0.3065E-02  0.3065E-02  0.6805E-02  0.6805E-02
     -3.259  0.1627E-02  0.1627E-02  0.6928E-02  0.6928E-02
     -3.183  0.1954E-02  0.1954E-02  0.7075E-02  0.7075E-02
     -3.107  0.4564E-02  0.4564E-02  0.7420E-02  0.7420E-02
     -3.032  0.8565E-02  0.8565E-02  0.8068E-02  0.8068E-02
     -2.956  0.1274E-01  0.1274E-01  0.9030E-02  0.9030E-02
     -2.881  0.1575E-01  0.1575E-01  0.1022E-01  0.1022E-01
     -2.805  0.1616E-01  0.1616E-01  0.1144E-01  0.1144E-01
     -2.730  0.1401E-01  0.1401E-01  0.1250E-01  0.1250E-01
     -2.654  0.1163E-01  0.1163E-01  0.1338E-01  0.1338E-01
     -2.578  0.1144E-01  0.1144E-01  0.1424E-01  0.1424E-01
     -2.503  0.1364E-01  0.1364E-01  0.1527E-01  0.1527E-01
     -2.427  0.1741E-01  0.1741E-01  0.1659E-01  0.1659E-01
     -2.352  0.2201E-01  0.2201E-01  0.1825E-01  0.1825E-01
     -2.276  0.2595E-01  0.2595E-01  0.2022E-01  0.2022E-01
     -2.201  0.2712E-01  0.2712E-01  0.2226E-01  0.2226E-01
     -2.125  0.2455E-01  0.2455E-01  0.2412E-01  0.2412E-01
     -2.049  0.1982E-01  0.1982E-01  0.2562E-01  0.2562E-01
     -1.974  0.1587E-01  0.1587E-01  0.2682E-01  0.2682E-01
     -1.898  0.1474E-01  0.1474E-01  0.2793E-01  0.2793E-01
     -1.823  0.1655E-01  0.1655E-01  0.2918E-01  0.2918E-01
     -1.747  0.2002E-01  0.2002E-01  0.3070E-01  0.3070E-01
     -1.672  0.2329E-01  0.2329E-01  0.3246E-01  0.3246E-01
     -1.596  0.2480E-01  0.2480E-01  0.3433E-01  0.3433E-01
     -1.520  0.2434E-01  0.2434E-01  0.3617E-01  0.3617E-01
     -1.445  0.2354E-01  0.2354E-01  0.3795E-01  0.3795E-01
     -1.369  0.2441E-01  0.2441E-01  0.3979E-01  0.3979E-01
     -1.294  0.2758E-01  0.2758E-01  0.4188E-01  0.4188E-01
     -1.218  0.3239E-01  0.3239E-01  0.4432E-01  0.4432E-01
     -1.142  0.3766E-01  0.3766E-01  0.4717E-01  0.4717E-01
     -1.067  0.4148E-01  0.4148E-01  0.5031E-01  0.5031E-01
     -0.991  0.4188E-01  0.4188E-01  0.5347E-01  0.5347E-01
     -0.916  0.3900E-01  0.3900E-01  0.5642E-01  0.5642E-01
     -0.840  0.3526E-01  0.3526E-01  0.5908E-01  0.5908E-01
     -0.765  0.3235E-01  0.3235E-01  0.6153E-01  0.6153E-01
     -0.689  0.3029E-01  0.3029E-01  0.6382E-01  0.6382E-01
     -0.613  0.2961E-01  0.2961E-01  0.6606E-01  0.6606E-01
     -0.538  0.3063E-01  0.3063E-01  0.6837E-01  0.6837E-01
     -0.462  0.3155E-01  0.3155E-01  0.7075E-01  0.7075E-01
     -0.387  0.3128E-01  0.3128E-01  0.7312E-01  0.7312E-01
     -0.311  0.3191E-01  0.3191E-01  0.7553E-01  0.7553E-01
     -0.236  0.3573E-01  0.3573E-01  0.7823E-01  0.7823E-01
     -0.160  0.4153E-01  0.4153E-01  0.8137E-01  0.8137E-01
     -0.084  0.4561E-01  0.4561E-01  0.8482E-01  0.8482E-01
     -0.009  0.4606E-01  0.4606E-01  0.8830E-01  0.8830E-01
      0.067  0.4475E-01  0.4475E-01  0.9168E-01  0.9168E-01
      0.142  0.4479E-01  0.4479E-01  0.9506E-01  0.9506E-01
      0.218  0.4590E-01  0.4590E-01  0.9853E-01  0.9853E-01
      0.293  0.4381E-01  0.4381E-01  0.1018E+00  0.1018E+00
      0.369  0.3527E-01  0.3527E-01  0.1045E+00  0.1045E+00
      0.445  0.2232E-01  0.2232E-01  0.1062E+00  0.1062E+00
      0.520  0.1025E-01  0.1025E-01  0.1070E+00  0.1070E+00
      0.596  0.2669E-02  0.2669E-02  0.1072E+00  0.1072E+00
      0.671 -0.2833E-03 -0.2833E-03  0.1072E+00  0.1072E+00
      0.747 -0.2721E-04 -0.2721E-04  0.1072E+00  0.1072E+00
      0.822  0.2094E-02  0.2094E-02  0.1073E+00  0.1073E+00
      0.898  0.4600E-02  0.4600E-02  0.1077E+00  0.1077E+00
      0.974  0.5802E-02  0.5802E-02  0.1081E+00  0.1081E+00
      1.049  0.4979E-02  0.4979E-02  0.1085E+00  0.1085E+00
      1.125  0.2939E-02  0.2939E-02  0.1087E+00  0.1087E+00
      1.200  0.1054E-02  0.1054E-02  0.1088E+00  0.1088E+00
      1.276  0.9623E-04  0.9623E-04  0.1088E+00  0.1088E+00
      1.351 -0.3853E-04 -0.3853E-04  0.1088E+00  0.1088E+00
      1.427  0.1422E-03  0.1422E-03  0.1088E+00  0.1088E+00
      1.503  0.4296E-03  0.4296E-03  0.1088E+00  0.1088E+00
      1.578  0.1231E-02  0.1231E-02  0.1089E+00  0.1089E+00
      1.654  0.3088E-02  0.3088E-02  0.1091E+00  0.1091E+00
      1.729  0.5725E-02  0.5725E-02  0.1096E+00  0.1096E+00
      1.805  0.7790E-02  0.7790E-02  0.1102E+00  0.1102E+00
      1.881  0.8126E-02  0.8126E-02  0.1108E+00  0.1108E+00
      1.956  0.7081E-02  0.7081E-02  0.1113E+00  0.1113E+00
      2.032  0.5574E-02  0.5574E-02  0.1117E+00  0.1117E+00
      2.107  0.3743E-02  0.3743E-02  0.1120E+00  0.1120E+00
      2.183  0.1972E-02  0.1972E-02  0.1122E+00  0.1122E+00
      2.258  0.1768E-02  0.1768E-02  0.1123E+00  0.1123E+00
      2.334  0.3840E-02  0.3840E-02  0.1126E+00  0.1126E+00
      2.410  0.6399E-02  0.6399E-02  0.1131E+00  0.1131E+00
      2.485  0.6993E-02  0.6993E-02  0.1136E+00  0.1136E+00
      2.561  0.5460E-02  0.5460E-02  0.1140E+00  0.1140E+00
      2.636  0.3731E-02  0.3731E-02  0.1143E+00  0.1143E+00
      2.712  0.3368E-02  0.3368E-02  0.1146E+00  0.1146E+00
      2.787  0.4215E-02  0.4215E-02  0.1149E+00  0.1149E+00
      2.863  0.4782E-02  0.4782E-02  0.1152E+00  0.1152E+00
      2.939  0.3916E-02  0.3916E-02  0.1155E+00  0.1155E+00
      3.014  0.2312E-02  0.2312E-02  0.1157E+00  0.1157E+00
      3.090  0.1532E-02  0.1532E-02  0.1158E+00  0.1158E+00
      3.165  0.1796E-02  0.1796E-02  0.1160E+00  0.1160E+00
      3.241  0.1971E-02  0.1971E-02  0.1161E+00  0.1161E+00
      3.316  0.1461E-02  0.1461E-02  0.1162E+00  0.1162E+00
      3.392  0.8553E-03  0.8553E-03  0.1163E+00  0.1163E+00
      3.468  0.7717E-03  0.7717E-03  0.1163E+00  0.1163E+00
      3.543  0.1127E-02  0.1127E-02  0.1164E+00  0.1164E+00
      3.619  0.1699E-02  0.1699E-02  0.1166E+00  0.1166E+00
      3.694  0.2467E-02  0.2467E-02  0.1167E+00  0.1167E+00
      3.770  0.3227E-02  0.3227E-02  0.1170E+00  0.1170E+00
      3.845  0.3578E-02  0.3578E-02  0.1173E+00  0.1173E+00
      3.921  0.3293E-02  0.3293E-02  0.1175E+00  0.1175E+00
      3.997  0.2400E-02  0.2400E-02  0.1177E+00  0.1177E+00
      4.072  0.1205E-02  0.1205E-02  0.1178E+00  0.1178E+00
      4.148  0.2285E-03  0.2285E-03  0.1178E+00  0.1178E+00
      4.223 -0.2069E-03 -0.2069E-03  0.1178E+00  0.1178E+00
      4.299 -0.9477E-04 -0.9477E-04  0.1178E+00  0.1178E+00
      4.374  0.5252E-03  0.5252E-03  0.1178E+00  0.1178E+00
      4.450  0.1562E-02  0.1562E-02  0.1179E+00  0.1179E+00
      4.526  0.2573E-02  0.2573E-02  0.1181E+00  0.1181E+00
      4.601  0.2871E-02  0.2871E-02  0.1183E+00  0.1183E+00
      4.677  0.2264E-02  0.2264E-02  0.1185E+00  0.1185E+00
      4.752  0.1503E-02  0.1503E-02  0.1186E+00  0.1186E+00
      4.828  0.1445E-02  0.1445E-02  0.1187E+00  0.1187E+00
      4.903  0.1937E-02  0.1937E-02  0.1189E+00  0.1189E+00
      4.979  0.2231E-02  0.2231E-02  0.1190E+00  0.1190E+00
      5.055  0.2208E-02  0.2208E-02  0.1192E+00  0.1192E+00
      5.130  0.2220E-02  0.2220E-02  0.1194E+00  0.1194E+00
      5.206  0.2282E-02  0.2282E-02  0.1196E+00  0.1196E+00
      5.281  0.2376E-02  0.2376E-02  0.1197E+00  0.1197E+00
      5.357  0.2792E-02  0.2792E-02  0.1199E+00  0.1199E+00
      5.433  0.3399E-02  0.3399E-02  0.1202E+00  0.1202E+00
      5.508  0.3485E-02  0.3485E-02  0.1205E+00  0.1205E+00
      5.584  0.2876E-02  0.2876E-02  0.1207E+00  0.1207E+00
      5.659  0.2578E-02  0.2578E-02  0.1209E+00  0.1209E+00
      5.735  0.3805E-02  0.3805E-02  0.1212E+00  0.1212E+00
      5.810  0.6429E-02  0.6429E-02  0.1217E+00  0.1217E+00
      5.886  0.8613E-02  0.8613E-02  0.1223E+00  0.1223E+00
      5.962  0.8330E-02  0.8330E-02  0.1229E+00  0.1229E+00
      6.037  0.5479E-02  0.5479E-02  0.1233E+00  0.1233E+00
      6.113  0.2064E-02  0.2064E-02  0.1235E+00  0.1235E+00
      6.188  0.1166E-03  0.1166E-03  0.1235E+00  0.1235E+00
      6.264  0.1205E-03  0.1205E-03  0.1235E+00  0.1235E+00
      6.339  0.1305E-02  0.1304E-02  0.1236E+00  0.1236E+00
      6.415  0.2522E-02  0.2522E-02  0.1238E+00  0.1238E+00
      6.491  0.3010E-02  0.3010E-02  0.1240E+00  0.1240E+00
      6.566  0.2842E-02  0.2842E-02  0.1243E+00  0.1243E+00
      6.642  0.2569E-02  0.2569E-02  0.1244E+00  0.1244E+00
      6.717  0.2743E-02  0.2743E-02  0.1247E+00  0.1247E+00
      6.793  0.3805E-02  0.3805E-02  0.1249E+00  0.1249E+00
      6.868  0.5558E-02  0.5558E-02  0.1254E+00  0.1254E+00
      6.944  0.6869E-02  0.6869E-02  0.1259E+00  0.1259E+00
      7.020  0.6660E-02  0.6660E-02  0.1264E+00  0.1264E+00
      7.095  0.5033E-02  0.5033E-02  0.1268E+00  0.1268E+00
      7.171  0.3206E-02  0.3206E-02  0.1270E+00  0.1270E+00
      7.246  0.2370E-02  0.2370E-02  0.1272E+00  0.1272E+00
      7.322  0.2688E-02  0.2688E-02  0.1274E+00  0.1274E+00
      7.397  0.3671E-02  0.3671E-02  0.1277E+00  0.1277E+00
      7.473  0.4964E-02  0.4963E-02  0.1280E+00  0.1280E+00
      7.549  0.6103E-02  0.6103E-02  0.1285E+00  0.1285E+00
      7.624  0.6198E-02  0.6198E-02  0.1290E+00  0.1290E+00
      7.700  0.4812E-02  0.4812E-02  0.1293E+00  0.1293E+00
      7.775  0.2815E-02  0.2815E-02  0.1295E+00  0.1295E+00
      7.851  0.1616E-02  0.1616E-02  0.1297E+00  0.1297E+00
      7.926  0.1586E-02  0.1586E-02  0.1298E+00  0.1298E+00
      8.002  0.1838E-02  0.1838E-02  0.1299E+00  0.1299E+00
      8.078  0.1799E-02  0.1799E-02  0.1301E+00  0.1301E+00
      8.153  0.2127E-02  0.2127E-02  0.1302E+00  0.1302E+00
      8.229  0.3309E-02  0.3309E-02  0.1305E+00  0.1305E+00
      8.304  0.4407E-02  0.4407E-02  0.1308E+00  0.1308E+00
      8.380  0.4345E-02  0.4345E-02  0.1311E+00  0.1311E+00
      8.455  0.3394E-02  0.3394E-02  0.1314E+00  0.1314E+00
      8.531  0.2393E-02  0.2393E-02  0.1316E+00  0.1316E+00
      8.607  0.1818E-02  0.1818E-02  0.1317E+00  0.1317E+00
      8.682  0.2214E-02  0.2214E-02  0.1319E+00  0.1319E+00
      8.758  0.3965E-02  0.3965E-02  0.1322E+00  0.1322E+00
      8.833  0.6402E-02  0.6402E-02  0.1327E+00  0.1327E+00
      8.909  0.8306E-02  0.8306E-02  0.1333E+00  0.1333E+00
      8.985  0.9036E-02  0.9036E-02  0.1340E+00  0.1340E+00
      9.060  0.8481E-02  0.8481E-02  0.1346E+00  0.1346E+00
      9.136  0.6643E-02  0.6643E-02  0.1351E+00  0.1351E+00
      9.211  0.3986E-02  0.3986E-02  0.1354E+00  0.1354E+00
      9.287  0.1775E-02  0.1775E-02  0.1355E+00  0.1355E+00
      9.362  0.1346E-02  0.1346E-02  0.1357E+00  0.1357E+00
      9.438  0.2819E-02  0.2819E-02  0.1359E+00  0.1359E+00
      9.514  0.4887E-02  0.4887E-02  0.1362E+00  0.1362E+00
      9.589  0.6181E-02  0.6181E-02  0.1367E+00  0.1367E+00
      9.665  0.6418E-02  0.6418E-02  0.1372E+00  0.1372E+00
      9.740  0.5839E-02  0.5839E-02  0.1376E+00  0.1376E+00
      9.816  0.4603E-02  0.4603E-02  0.1380E+00  0.1380E+00
      9.891  0.3425E-02  0.3425E-02  0.1382E+00  0.1382E+00
      9.967  0.3280E-02  0.3280E-02  0.1385E+00  0.1385E+00
     10.043  0.3916E-02  0.3916E-02  0.1388E+00  0.1388E+00
     10.118  0.4246E-02  0.4246E-02  0.1391E+00  0.1391E+00
     10.194  0.4233E-02  0.4233E-02  0.1394E+00  0.1394E+00
     10.269  0.4826E-02  0.4826E-02  0.1398E+00  0.1398E+00
     10.345  0.6360E-02  0.6360E-02  0.1403E+00  0.1403E+00
     10.420  0.8276E-02  0.8276E-02  0.1409E+00  0.1409E+00
     10.496  0.9728E-02  0.9728E-02  0.1416E+00  0.1416E+00
     10.572  0.9680E-02  0.9680E-02  0.1424E+00  0.1424E+00
     10.647  0.7535E-02  0.7535E-02  0.1429E+00  0.1429E+00
     10.723  0.4170E-02  0.4170E-02  0.1432E+00  0.1432E+00
     10.798  0.1275E-02  0.1275E-02  0.1433E+00  0.1433E+00
     10.874 -0.1502E-03 -0.1502E-03  0.1433E+00  0.1433E+00
     10.949  0.1098E-03  0.1098E-03  0.1433E+00  0.1433E+00
     11.025  0.1999E-02  0.1999E-02  0.1435E+00  0.1435E+00
     11.101  0.4689E-02  0.4689E-02  0.1438E+00  0.1438E+00
     11.176  0.6315E-02  0.6315E-02  0.1443E+00  0.1443E+00
     11.252  0.5555E-02  0.5555E-02  0.1447E+00  0.1447E+00
     11.327  0.3146E-02  0.3146E-02  0.1450E+00  0.1450E+00
     11.403  0.9302E-03  0.9302E-03  0.1450E+00  0.1450E+00
     11.478 -0.1151E-03 -0.1151E-03  0.1450E+00  0.1450E+00
     11.554 -0.2708E-03 -0.2708E-03  0.1450E+00  0.1450E+00
     11.630 -0.1470E-03 -0.1470E-03  0.1450E+00  0.1450E+00
     11.705 -0.4832E-04 -0.4832E-04  0.1450E+00  0.1450E+00
     11.781 -0.1091E-04 -0.1091E-04  0.1450E+00  0.1450E+00
     11.856 -0.1767E-05 -0.1767E-05  0.1450E+00  0.1450E+00
     11.932 -0.2087E-06 -0.2087E-06  0.1450E+00  0.1450E+00
     12.007 -0.1817E-07 -0.1817E-07  0.1450E+00  0.1450E+00
     12.083 -0.1171E-08 -0.1171E-08  0.1450E+00  0.1450E+00
     12.159 -0.5611E-10 -0.5611E-10  0.1450E+00  0.1450E+00
     12.234 -0.2002E-11 -0.2002E-11  0.1450E+00  0.1450E+00
     12.310 -0.5328E-13 -0.5328E-13  0.1450E+00  0.1450E+00
     12.385 -0.1059E-14 -0.1060E-14  0.1450E+00  0.1450E+00
     12.461 -0.1632E-16 -0.1632E-16  0.1450E+00  0.1450E+00
     12.537  0.0000E+00  0.0000E+00  0.1450E+00  0.1450E+00
     12.612  0.0000E+00  0.0000E+00  0.1450E+00  0.1450E+00
     12.688  0.0000E+00  0.0000E+00  0.1450E+00  0.1450E+00
     12.763  0.0000E+00  0.0000E+00  0.1450E+00  0.1450E+00
     12.839  0.0000E+00  0.0000E+00  0.1450E+00  0.1450E+00
     12.914  0.0000E+00  0.0000E+00  0.1450E+00  0.1450E+00
     12.990  0.0000E+00  0.0000E+00  0.1450E+00  0.1450E+00
     13.066  0.0000E+00  0.0000E+00  0.1450E+00  0.1450E+00
     13.141  0.0000E+00  0.0000E+00  0.1450E+00  0.1450E+00
     13.217  0.0000E+00  0.0000E+00  0.1450E+00  0.1450E+00
