   18   18  800    2
  0.2028145E+02  0.3630000E-09  0.3630000E-09  0.2770500E-08  0.5000000E-15
  1.000000000000000E-004
  CAR 
 unknown system                          
    178      4    116
 
  0.0000000E+00  0.0000000E+00  0.0000000E+00  0.1111111E+00
      1         -7.455684       -7.455684   1.000000   1.000000
      2         -6.935755       -6.935755   1.000000   1.000000
      3         -6.113624       -6.113624   1.000000   1.000000
      4         -5.053211       -5.053211   1.000000   1.000000
      5         -4.420825       -4.420825   1.000000   1.000000
      6         -3.833001       -3.833001   1.000000   1.000000
      7         -3.163563       -3.163563   1.000000   1.000000
      8         -3.037756       -3.037756   1.000000   1.000000
      9         -3.037610       -3.037610   1.000000   1.000000
     10         -3.002749       -3.002749   1.000000   1.000000
     11         -2.970018       -2.970018   1.000000   1.000000
     12         -2.815572       -2.815572   1.000000   1.000000
     13         -2.813124       -2.813124   1.000000   1.000000
     14         -2.594460       -2.594460   1.000000   1.000000
     15         -2.563209       -2.563209   1.000000   1.000000
     16         -2.563205       -2.563205   1.000000   1.000000
     17         -2.490847       -2.490847   1.000000   1.000000
     18         -2.489037       -2.489037   1.000000   1.000000
     19         -2.467806       -2.467806   1.000000   1.000000
     20         -2.425037       -2.425037   1.000000   1.000000
     21         -2.425017       -2.425017   1.000000   1.000000
     22         -2.234856       -2.234856   1.000000   1.000000
     23         -2.169629       -2.169629   1.000000   1.000000
     24         -2.169587       -2.169587   1.000000   1.000000
     25         -2.086181       -2.086181   1.000000   1.000000
     26         -2.068788       -2.068788   1.000000   1.000000
     27         -1.922501       -1.922501   1.000000   1.000000
     28         -1.767424       -1.767424   1.000000   1.000000
     29         -1.767351       -1.767351   1.000000   1.000000
     30         -1.620197       -1.620197   1.000000   1.000000
     31         -1.366254       -1.366254   1.000000   1.000000
     32         -1.274511       -1.274511   1.000000   1.000000
     33         -1.274396       -1.274396   1.000000   1.000000
     34         -1.220381       -1.220381   1.000000   1.000000
     35         -1.189808       -1.189808   1.000000   1.000000
     36         -1.189794       -1.189794   1.000000   1.000000
     37         -1.075999       -1.075999   1.000000   1.000000
     38         -1.075977       -1.075977   1.000000   1.000000
     39         -1.064597       -1.064597   1.000000   1.000000
     40         -0.866316       -0.866316   1.000000   1.000000
     41         -0.866267       -0.866267   1.000000   1.000000
     42         -0.708120       -0.708120   1.000000   1.000000
     43         -0.708015       -0.708015   1.000000   1.000000
     44         -0.584610       -0.584610   1.000000   1.000000
     45         -0.555105       -0.555105   1.000000   1.000000
     46         -0.555082       -0.555082   1.000000   1.000000
     47         -0.550103       -0.550103   1.000000   1.000000
     48         -0.437812       -0.437812   1.000000   1.000000
     49         -0.394103       -0.394103   1.000000   1.000000
     50         -0.367173       -0.367173   1.000000   1.000000
     51         -0.351290       -0.351290   1.000000   1.000000
     52         -0.242078       -0.242078   1.000000   1.000000
     53         -0.240604       -0.240604   1.000000   1.000000
     54         -0.235568       -0.235568   1.000000   1.000000
     55         -0.232395       -0.232395   1.000000   1.000000
     56         -0.225064       -0.225064   1.000000   1.000000
     57         -0.225027       -0.225027   1.000000   1.000000
     58         -0.161629       -0.161629   1.000000   1.000000
     59         -0.161470       -0.161470   1.000000   1.000000
     60         -0.084887       -0.084887   1.000000   1.000000
     61         -0.073108       -0.073108   1.000000   1.000000
     62         -0.067417       -0.067417   1.000000   1.000000
     63          0.063709        0.063709   1.000000   1.000000
     64          0.067222        0.067222   1.000000   1.000000
     65          0.067264        0.067264   1.000000   1.000000
     66          0.110871        0.110871   1.000000   1.000000
     67          0.111685        0.111685   1.000000   1.000000
     68          0.122654        0.122654   1.000000   1.000000
     69          0.203709        0.203709   1.000000   1.000000
     70          0.238936        0.238936   1.000000   1.000000
     71          0.240979        0.240979   1.000000   1.000000
     72          0.244095        0.244095   1.000000   1.000000
     73          0.250957        0.250957   1.000000   1.000000
     74          0.254451        0.254451   1.000000   1.000000
     75          0.254471        0.254471   1.000000   1.000000
     76          0.258358        0.258358   1.000000   1.000000
     77          0.272043        0.272043   1.000000   1.000000
     78          0.317558        0.317558   1.000000   1.000000
     79          0.317662        0.317662   1.000000   1.000000
     80          0.354723        0.354723   1.000000   1.000000
     81          0.366192        0.366192   1.000000   1.000000
     82          0.400311        0.400311   1.000000   1.000000
     83          0.400320        0.400320   1.000000   1.000000
     84          0.404033        0.404033   1.000000   1.000000
     85          0.407378        0.407378   1.000000   1.000000
     86          0.551967        0.551967   1.000000   1.000000
     87          0.571387        0.571387   1.000000   1.000000
     88          1.428867        1.428867   1.000788   1.000788
     89          2.737767        2.737767  -0.000000  -0.000000
     90          3.505105        3.505105  -0.000000  -0.000000
     91          3.505107        3.505107  -0.000000  -0.000000
     92          3.677915        3.677915  -0.000000  -0.000000
     93          4.460466        4.460466  -0.000000  -0.000000
     94          4.460802        4.460802  -0.000000  -0.000000
     95          5.706806        5.706806  -0.000000  -0.000000
     96          5.720778        5.720778  -0.000000  -0.000000
     97          5.813238        5.813241  -0.000000  -0.000000
     98          6.366799        6.366802  -0.000000  -0.000000
     99          7.226082        7.226082  -0.000000  -0.000000
    100          7.226866        7.226866  -0.000000  -0.000000
    101          7.541890        7.541897   0.000000   0.000000
    102          8.858949        8.858949   0.000000   0.000000
    103          8.865131        8.865131   0.000000   0.000000
    104          8.966419        8.966419   0.000000   0.000000
    105          8.966841        8.966841   0.000000   0.000000
    106          9.103266        9.103270   0.000000   0.000000
    107          9.148859        9.148859   0.000000   0.000000
    108          9.163292        9.163293   0.000000   0.000000
    109          9.550999        9.550999   0.000000   0.000000
    110          9.561578        9.561578   0.000000   0.000000
    111          9.630823        9.630823   0.000000   0.000000
    112         10.193974       10.193974   0.000000   0.000000
    113         10.204944       10.204944   0.000000   0.000000
    114         10.611100       10.611100   0.000000   0.000000
    115         10.623621       10.623621   0.000000   0.000000
    116         10.737815       10.737817   0.000000   0.000000
 
  0.3333333E+00  0.0000000E+00  0.0000000E+00  0.2222222E+00
      1         -6.164853       -6.164853   1.000000   1.000000
      2         -5.680410       -5.680410   1.000000   1.000000
      3         -4.931208       -4.931208   1.000000   1.000000
      4         -4.236730       -4.236730   1.000000   1.000000
      5         -3.895447       -3.895447   1.000000   1.000000
      6         -3.445559       -3.445559   1.000000   1.000000
      7         -3.109657       -3.109657   1.000000   1.000000
      8         -3.004441       -3.004441   1.000000   1.000000
      9         -2.652752       -2.652752   1.000000   1.000000
     10         -2.551168       -2.551168   1.000000   1.000000
     11         -2.526223       -2.526223   1.000000   1.000000
     12         -2.376799       -2.376799   1.000000   1.000000
     13         -2.367707       -2.367707   1.000000   1.000000
     14         -2.340253       -2.340253   1.000000   1.000000
     15         -2.268920       -2.268920   1.000000   1.000000
     16         -2.247145       -2.247145   1.000000   1.000000
     17         -2.219095       -2.219095   1.000000   1.000000
     18         -2.211998       -2.211998   1.000000   1.000000
     19         -2.202508       -2.202508   1.000000   1.000000
     20         -2.150101       -2.150101   1.000000   1.000000
     21         -2.149885       -2.149885   1.000000   1.000000
     22         -2.138450       -2.138450   1.000000   1.000000
     23         -2.019422       -2.019422   1.000000   1.000000
     24         -1.983931       -1.983931   1.000000   1.000000
     25         -1.974606       -1.974606   1.000000   1.000000
     26         -1.792923       -1.792923   1.000000   1.000000
     27         -1.754603       -1.754603   1.000000   1.000000
     28         -1.712630       -1.712630   1.000000   1.000000
     29         -1.659024       -1.659024   1.000000   1.000000
     30         -1.619376       -1.619376   1.000000   1.000000
     31         -1.593462       -1.593462   1.000000   1.000000
     32         -1.587253       -1.587253   1.000000   1.000000
     33         -1.473971       -1.473971   1.000000   1.000000
     34         -1.452818       -1.452818   1.000000   1.000000
     35         -1.345337       -1.345337   1.000000   1.000000
     36         -1.282521       -1.282521   1.000000   1.000000
     37         -1.231032       -1.231032   1.000000   1.000000
     38         -1.214477       -1.214477   1.000000   1.000000
     39         -1.127400       -1.127400   1.000000   1.000000
     40         -1.094943       -1.094943   1.000000   1.000000
     41         -1.075564       -1.075564   1.000000   1.000000
     42         -1.038914       -1.038914   1.000000   1.000000
     43         -0.977917       -0.977917   1.000000   1.000000
     44         -0.952530       -0.952530   1.000000   1.000000
     45         -0.939603       -0.939603   1.000000   1.000000
     46         -0.820150       -0.820150   1.000000   1.000000
     47         -0.766768       -0.766768   1.000000   1.000000
     48         -0.731883       -0.731883   1.000000   1.000000
     49         -0.720898       -0.720898   1.000000   1.000000
     50         -0.716725       -0.716725   1.000000   1.000000
     51         -0.546690       -0.546690   1.000000   1.000000
     52         -0.542285       -0.542285   1.000000   1.000000
     53         -0.510781       -0.510781   1.000000   1.000000
     54         -0.507568       -0.507568   1.000000   1.000000
     55         -0.457432       -0.457432   1.000000   1.000000
     56         -0.407027       -0.407027   1.000000   1.000000
     57         -0.404375       -0.404375   1.000000   1.000000
     58         -0.348983       -0.348983   1.000000   1.000000
     59         -0.332415       -0.332415   1.000000   1.000000
     60         -0.326517       -0.326517   1.000000   1.000000
     61         -0.279967       -0.279967   1.000000   1.000000
     62         -0.275450       -0.275450   1.000000   1.000000
     63         -0.233877       -0.233877   1.000000   1.000000
     64         -0.210537       -0.210537   1.000000   1.000000
     65         -0.173178       -0.173178   1.000000   1.000000
     66         -0.155071       -0.155071   1.000000   1.000000
     67         -0.126876       -0.126876   1.000000   1.000000
     68         -0.118859       -0.118859   1.000000   1.000000
     69         -0.110837       -0.110837   1.000000   1.000000
     70         -0.096608       -0.096608   1.000000   1.000000
     71         -0.094763       -0.094763   1.000000   1.000000
     72         -0.090521       -0.090521   1.000000   1.000000
     73         -0.078175       -0.078175   1.000000   1.000000
     74         -0.017624       -0.017624   1.000000   1.000000
     75         -0.011536       -0.011536   1.000000   1.000000
     76          0.009977        0.009977   1.000000   1.000000
     77          0.043929        0.043929   1.000000   1.000000
     78          0.053626        0.053626   1.000000   1.000000
     79          0.100324        0.100324   1.000000   1.000000
     80          0.130831        0.130831   1.000000   1.000000
     81          0.240609        0.240609   1.000000   1.000000
     82          0.254769        0.254769   1.000000   1.000000
     83          0.266711        0.266711   1.000000   1.000000
     84          0.387561        0.387561   1.000000   1.000000
     85          0.405433        0.405433   1.000000   1.000000
     86          0.421748        0.421748   1.000000   1.000000
     87          0.890566        0.890566   1.000000   1.000000
     88          0.912583        0.912583   1.000000   1.000000
     89          1.667601        1.667601   1.032112   1.032112
     90          1.821376        1.821376   0.929498   0.929498
     91          2.597517        2.597517  -0.000020  -0.000020
     92          3.181103        3.181103  -0.000000  -0.000000
     93          3.753455        3.753455  -0.000000  -0.000000
     94          4.590133        4.590133  -0.000000  -0.000000
     95          5.156013        5.156013  -0.000000  -0.000000
     96          5.808197        5.808197  -0.000000  -0.000000
     97          5.944831        5.944831  -0.000000  -0.000000
     98          6.435429        6.435430  -0.000000  -0.000000
     99          6.629692        6.629692  -0.000000  -0.000000
    100          7.037718        7.037720  -0.000000  -0.000000
    101          7.581501        7.581506   0.000000   0.000000
    102          7.671085        7.671085   0.000000   0.000000
    103          8.281513        8.281515   0.000000   0.000000
    104          8.795177        8.795181   0.000000   0.000000
    105          8.934970        8.934970   0.000000   0.000000
    106          9.011657        9.011657   0.000000   0.000000
    107          9.547215        9.547215   0.000000   0.000000
    108          9.748231        9.748231   0.000000   0.000000
    109         10.052074       10.052076   0.000000   0.000000
    110         10.336914       10.336915   0.000000   0.000000
    111         10.437537       10.437538   0.000000   0.000000
    112         10.523918       10.523918   0.000000   0.000000
    113         10.531542       10.531542   0.000000   0.000000
    114         11.109873       11.109874   0.000000   0.000000
    115         11.129391       11.129393   0.000000   0.000000
    116         11.216687       11.216688   0.000000   0.000000
 
  0.0000000E+00  0.3333333E+00  0.0000000E+00  0.2222222E+00
      1         -6.164848       -6.164848   1.000000   1.000000
      2         -5.680380       -5.680380   1.000000   1.000000
      3         -4.931026       -4.931026   1.000000   1.000000
      4         -4.230997       -4.230997   1.000000   1.000000
      5         -3.894497       -3.894497   1.000000   1.000000
      6         -3.445600       -3.445600   1.000000   1.000000
      7         -3.109782       -3.109782   1.000000   1.000000
      8         -3.004359       -3.004359   1.000000   1.000000
      9         -2.652891       -2.652891   1.000000   1.000000
     10         -2.551163       -2.551163   1.000000   1.000000
     11         -2.526216       -2.526216   1.000000   1.000000
     12         -2.376770       -2.376770   1.000000   1.000000
     13         -2.367633       -2.367633   1.000000   1.000000
     14         -2.340186       -2.340186   1.000000   1.000000
     15         -2.268985       -2.268985   1.000000   1.000000
     16         -2.247150       -2.247150   1.000000   1.000000
     17         -2.219040       -2.219040   1.000000   1.000000
     18         -2.212100       -2.212100   1.000000   1.000000
     19         -2.202453       -2.202453   1.000000   1.000000
     20         -2.150117       -2.150117   1.000000   1.000000
     21         -2.149884       -2.149884   1.000000   1.000000
     22         -2.138442       -2.138442   1.000000   1.000000
     23         -2.019408       -2.019408   1.000000   1.000000
     24         -1.983960       -1.983960   1.000000   1.000000
     25         -1.974591       -1.974591   1.000000   1.000000
     26         -1.792927       -1.792927   1.000000   1.000000
     27         -1.754582       -1.754582   1.000000   1.000000
     28         -1.712648       -1.712648   1.000000   1.000000
     29         -1.659016       -1.659016   1.000000   1.000000
     30         -1.619332       -1.619332   1.000000   1.000000
     31         -1.593459       -1.593459   1.000000   1.000000
     32         -1.587238       -1.587238   1.000000   1.000000
     33         -1.473890       -1.473890   1.000000   1.000000
     34         -1.452839       -1.452839   1.000000   1.000000
     35         -1.345324       -1.345324   1.000000   1.000000
     36         -1.282524       -1.282524   1.000000   1.000000
     37         -1.231038       -1.231038   1.000000   1.000000
     38         -1.214350       -1.214350   1.000000   1.000000
     39         -1.127429       -1.127429   1.000000   1.000000
     40         -1.094885       -1.094885   1.000000   1.000000
     41         -1.075588       -1.075588   1.000000   1.000000
     42         -1.038923       -1.038923   1.000000   1.000000
     43         -0.977889       -0.977889   1.000000   1.000000
     44         -0.952606       -0.952606   1.000000   1.000000
     45         -0.939603       -0.939603   1.000000   1.000000
     46         -0.819911       -0.819911   1.000000   1.000000
     47         -0.766804       -0.766804   1.000000   1.000000
     48         -0.731876       -0.731876   1.000000   1.000000
     49         -0.720886       -0.720886   1.000000   1.000000
     50         -0.716760       -0.716760   1.000000   1.000000
     51         -0.546732       -0.546732   1.000000   1.000000
     52         -0.542306       -0.542306   1.000000   1.000000
     53         -0.510738       -0.510738   1.000000   1.000000
     54         -0.507469       -0.507469   1.000000   1.000000
     55         -0.457373       -0.457373   1.000000   1.000000
     56         -0.407412       -0.407412   1.000000   1.000000
     57         -0.404069       -0.404069   1.000000   1.000000
     58         -0.349330       -0.349330   1.000000   1.000000
     59         -0.332545       -0.332545   1.000000   1.000000
     60         -0.326528       -0.326528   1.000000   1.000000
     61         -0.280172       -0.280172   1.000000   1.000000
     62         -0.275450       -0.275450   1.000000   1.000000
     63         -0.233918       -0.233918   1.000000   1.000000
     64         -0.210416       -0.210416   1.000000   1.000000
     65         -0.173282       -0.173282   1.000000   1.000000
     66         -0.155138       -0.155138   1.000000   1.000000
     67         -0.126970       -0.126970   1.000000   1.000000
     68         -0.119173       -0.119173   1.000000   1.000000
     69         -0.110714       -0.110714   1.000000   1.000000
     70         -0.096584       -0.096584   1.000000   1.000000
     71         -0.094797       -0.094797   1.000000   1.000000
     72         -0.090548       -0.090548   1.000000   1.000000
     73         -0.078023       -0.078023   1.000000   1.000000
     74         -0.017630       -0.017630   1.000000   1.000000
     75         -0.011468       -0.011468   1.000000   1.000000
     76          0.009959        0.009959   1.000000   1.000000
     77          0.043975        0.043975   1.000000   1.000000
     78          0.053709        0.053709   1.000000   1.000000
     79          0.100398        0.100398   1.000000   1.000000
     80          0.130817        0.130817   1.000000   1.000000
     81          0.240632        0.240632   1.000000   1.000000
     82          0.254926        0.254926   1.000000   1.000000
     83          0.266704        0.266704   1.000000   1.000000
     84          0.387554        0.387554   1.000000   1.000000
     85          0.405428        0.405428   1.000000   1.000000
     86          0.421753        0.421753   1.000000   1.000000
     87          0.890483        0.890483   1.000000   1.000000
     88          0.912620        0.912620   1.000000   1.000000
     89          1.667531        1.667531   1.032100   1.032100
     90          1.820968        1.820968   0.930367   0.930367
     91          2.597146        2.597146  -0.000021  -0.000021
     92          3.179550        3.179550  -0.000000  -0.000000
     93          3.752357        3.752357  -0.000000  -0.000000
     94          4.585303        4.585303  -0.000000  -0.000000
     95          5.152268        5.152268  -0.000000  -0.000000
     96          5.799114        5.799114  -0.000000  -0.000000
     97          5.944972        5.944972  -0.000000  -0.000000
     98          6.410713        6.410713  -0.000000  -0.000000
     99          6.628947        6.628947  -0.000000  -0.000000
    100          7.031237        7.031239  -0.000000  -0.000000
    101          7.572108        7.572112   0.000000   0.000000
    102          7.669962        7.669962   0.000000   0.000000
    103          8.243804        8.243806   0.000000   0.000000
    104          8.756508        8.756510   0.000000   0.000000
    105          8.974287        8.974290   0.000000   0.000000
    106          8.997195        8.997195   0.000000   0.000000
    107          9.546850        9.546850   0.000000   0.000000
    108          9.746432        9.746432   0.000000   0.000000
    109         10.087919       10.087921   0.000000   0.000000
    110         10.344738       10.344739   0.000000   0.000000
    111         10.456411       10.456412   0.000000   0.000000
    112         10.505489       10.505489   0.000000   0.000000
    113         10.530985       10.530985   0.000000   0.000000
    114         11.111334       11.111334   0.000000   0.000000
    115         11.141693       11.141695   0.000000   0.000000
    116         11.212915       11.212916   0.000000   0.000000
 
  0.3333333E+00  0.3333333E+00  0.0000000E+00  0.4444444E+00
      1         -5.003806       -5.003806   1.000000   1.000000
      2         -4.620761       -4.620761   1.000000   1.000000
      3         -4.103434       -4.103434   1.000000   1.000000
      4         -3.964838       -3.964838   1.000000   1.000000
      5         -3.468725       -3.468725   1.000000   1.000000
      6         -2.974142       -2.974142   1.000000   1.000000
      7         -2.885302       -2.885302   1.000000   1.000000
      8         -2.882776       -2.882776   1.000000   1.000000
      9         -2.834981       -2.834981   1.000000   1.000000
     10         -2.832684       -2.832684   1.000000   1.000000
     11         -2.781102       -2.781102   1.000000   1.000000
     12         -2.780700       -2.780700   1.000000   1.000000
     13         -2.585529       -2.585529   1.000000   1.000000
     14         -2.387637       -2.387637   1.000000   1.000000
     15         -2.381479       -2.381479   1.000000   1.000000
     16         -2.323963       -2.323963   1.000000   1.000000
     17         -2.232236       -2.232236   1.000000   1.000000
     18         -2.036828       -2.036828   1.000000   1.000000
     19         -1.862153       -1.862153   1.000000   1.000000
     20         -1.860985       -1.860985   1.000000   1.000000
     21         -1.831978       -1.831978   1.000000   1.000000
     22         -1.715324       -1.715324   1.000000   1.000000
     23         -1.711847       -1.711847   1.000000   1.000000
     24         -1.588657       -1.588657   1.000000   1.000000
     25         -1.587381       -1.587381   1.000000   1.000000
     26         -1.531389       -1.531389   1.000000   1.000000
     27         -1.527882       -1.527882   1.000000   1.000000
     28         -1.403255       -1.403255   1.000000   1.000000
     29         -1.402983       -1.402983   1.000000   1.000000
     30         -1.358386       -1.358386   1.000000   1.000000
     31         -1.355509       -1.355509   1.000000   1.000000
     32         -1.352391       -1.352391   1.000000   1.000000
     33         -1.247598       -1.247598   1.000000   1.000000
     34         -1.247080       -1.247080   1.000000   1.000000
     35         -1.205958       -1.205958   1.000000   1.000000
     36         -1.156355       -1.156355   1.000000   1.000000
     37         -1.155725       -1.155725   1.000000   1.000000
     38         -1.150231       -1.150231   1.000000   1.000000
     39         -1.134177       -1.134177   1.000000   1.000000
     40         -1.087722       -1.087722   1.000000   1.000000
     41         -1.032734       -1.032734   1.000000   1.000000
     42         -1.026326       -1.026326   1.000000   1.000000
     43         -1.024787       -1.024787   1.000000   1.000000
     44         -1.014413       -1.014413   1.000000   1.000000
     45         -1.013015       -1.013015   1.000000   1.000000
     46         -0.994802       -0.994802   1.000000   1.000000
     47         -0.941957       -0.941957   1.000000   1.000000
     48         -0.919286       -0.919286   1.000000   1.000000
     49         -0.914776       -0.914776   1.000000   1.000000
     50         -0.834781       -0.834781   1.000000   1.000000
     51         -0.818595       -0.818595   1.000000   1.000000
     52         -0.816660       -0.816660   1.000000   1.000000
     53         -0.802996       -0.802996   1.000000   1.000000
     54         -0.777213       -0.777213   1.000000   1.000000
     55         -0.767773       -0.767773   1.000000   1.000000
     56         -0.660467       -0.660467   1.000000   1.000000
     57         -0.660011       -0.660011   1.000000   1.000000
     58         -0.602062       -0.602062   1.000000   1.000000
     59         -0.572453       -0.572453   1.000000   1.000000
     60         -0.540158       -0.540158   1.000000   1.000000
     61         -0.513833       -0.513833   1.000000   1.000000
     62         -0.463510       -0.463510   1.000000   1.000000
     63         -0.462587       -0.462587   1.000000   1.000000
     64         -0.310367       -0.310367   1.000000   1.000000
     65         -0.196458       -0.196458   1.000000   1.000000
     66         -0.194475       -0.194475   1.000000   1.000000
     67         -0.159584       -0.159584   1.000000   1.000000
     68         -0.045846       -0.045846   1.000000   1.000000
     69         -0.032279       -0.032279   1.000000   1.000000
     70         -0.020391       -0.020391   1.000000   1.000000
     71          0.026901        0.026901   1.000000   1.000000
     72          0.048236        0.048236   1.000000   1.000000
     73          0.137521        0.137521   1.000000   1.000000
     74          0.142171        0.142171   1.000000   1.000000
     75          0.144263        0.144263   1.000000   1.000000
     76          0.156338        0.156338   1.000000   1.000000
     77          0.172567        0.172567   1.000000   1.000000
     78          0.183086        0.183086   1.000000   1.000000
     79          0.237527        0.237527   1.000000   1.000000
     80          0.258692        0.258692   1.000000   1.000000
     81          0.261211        0.261211   1.000000   1.000000
     82          0.278571        0.278571   1.000000   1.000000
     83          0.279218        0.279218   1.000000   1.000000
     84          0.310183        0.310183   1.000000   1.000000
     85          0.322856        0.322856   1.000000   1.000000
     86          1.035669        1.035669   1.000000   1.000000
     87          1.807420        1.807420   0.956852   0.956852
     88          1.807593        1.807593   0.956542   0.956542
     89          2.024933        2.024933   0.192156   0.192156
     90          2.025473        2.025473   0.190410   0.190410
     91          2.398915        2.398915  -0.003088  -0.003088
     92          2.405630        2.405630  -0.002704  -0.002704
     93          2.411902        2.411902  -0.002383  -0.002383
     94          2.831411        2.831411  -0.000000  -0.000000
     95          2.853513        2.853513  -0.000000  -0.000000
     96          3.922482        3.922482  -0.000000  -0.000000
     97          4.904969        4.904969  -0.000000  -0.000000
     98          5.387548        5.387548  -0.000000  -0.000000
     99          5.514539        5.514539  -0.000000  -0.000000
    100          5.882813        5.882813  -0.000000  -0.000000
    101          5.924404        5.924404  -0.000000  -0.000000
    102          6.853114        6.853114  -0.000000  -0.000000
    103          6.872745        6.872745  -0.000000  -0.000000
    104          6.993187        6.993187  -0.000000  -0.000000
    105          7.349131        7.349131  -0.000000  -0.000000
    106          7.504470        7.504470   0.000000   0.000000
    107          7.964573        7.964573   0.000000   0.000000
    108          8.293812        8.293812   0.000000   0.000000
    109          8.508121        8.508122   0.000000   0.000000
    110          8.822859        8.822864   0.000000   0.000000
    111          9.108190        9.108191   0.000000   0.000000
    112          9.457099        9.457100   0.000000   0.000000
    113          9.732432        9.732435   0.000000   0.000000