       N       E                     dE             d eps       ncg     rms          rms(c)
DAV:   1     0.167124569867E+04    0.16712E+04   -0.64621E+04  1856   0.188E+03
DAV:   2     0.199964433666E+03   -0.14713E+04   -0.14102E+04  1856   0.429E+02
DAV:   3    -0.533697439370E+02   -0.25333E+03   -0.23101E+03  1880   0.218E+02
DAV:   4    -0.689681020355E+02   -0.15598E+02   -0.15252E+02  2112   0.759E+01
DAV:   5    -0.693156871998E+02   -0.34759E+00   -0.34694E+00  2128   0.105E+01    0.366E+01
DAV:   6    -0.576801472338E+02    0.11636E+02   -0.16044E+02  2108   0.124E+02    0.187E+01
DAV:   7    -0.517425554656E+02    0.59376E+01   -0.39119E+01  2144   0.839E+01    0.101E+01
DAV:   8    -0.522819238256E+02   -0.53937E+00   -0.18248E+01  2368   0.793E+01    0.120E+01
DAV:   9    -0.513377380777E+02    0.94419E+00   -0.14391E+01  2536   0.664E+01    0.108E+01
DAV:  10    -0.502998213291E+02    0.10379E+01   -0.78969E+00  3264   0.474E+01    0.802E+00
DAV:  11    -0.517498342705E+02   -0.14500E+01   -0.56794E+00  2728   0.444E+01    0.781E+00
DAV:  12    -0.537936870848E+02   -0.20439E+01   -0.30444E+00  2324   0.381E+01    0.672E+00
DAV:  13    -0.546939442490E+02   -0.90026E+00   -0.22969E+00  2444   0.318E+01    0.613E+00
DAV:  14    -0.549869512232E+02   -0.29301E+00   -0.80551E-01  2560   0.149E+01    0.499E+00
DAV:  15    -0.570578221023E+02   -0.20709E+01   -0.17241E+00  2244   0.180E+01    0.327E+00
DAV:  16    -0.597668389017E+02   -0.27090E+01   -0.33114E+00  2276   0.232E+01    0.320E+00
DAV:  17    -0.602224026880E+02   -0.45556E+00   -0.84064E-01  2376   0.184E+01    0.186E+00
DAV:  18    -0.605268616010E+02   -0.30446E+00   -0.57969E-01  2592   0.115E+01    0.115E+00
DAV:  19    -0.607659202176E+02   -0.23906E+00   -0.30255E-01  2044   0.588E+00    0.940E-01
DAV:  20    -0.611106490215E+02   -0.34473E+00   -0.18750E-01  2192   0.452E+00    0.956E-01
DAV:  21    -0.613926879233E+02   -0.28204E+00   -0.12643E-01  2448   0.460E+00    0.613E-01
DAV:  22    -0.615990622924E+02   -0.20637E+00   -0.49891E-02  2360   0.221E+00    0.577E-01
DAV:  23    -0.618463883691E+02   -0.24733E+00   -0.58042E-02  2312   0.327E+00    0.492E-01
DAV:  24    -0.620388336724E+02   -0.19245E+00   -0.35100E-02  2352   0.238E+00    0.424E-01
DAV:  25    -0.622051586103E+02   -0.16632E+00   -0.20861E-02  2152   0.210E+00    0.258E-01
DAV:  26    -0.623798539508E+02   -0.17470E+00   -0.14208E-02  2408   0.154E+00    0.217E-01
DAV:  27    -0.624691271562E+02   -0.89273E-01   -0.60467E-03  2328   0.131E+00    0.122E-01
DAV:  28    -0.625235354872E+02   -0.54408E-01   -0.16141E-03  1940   0.474E-01    0.857E-02
DAV:  29    -0.625412447256E+02   -0.17709E-01   -0.85582E-04  1672   0.530E-01    0.592E-02
DAV:  30    -0.625452122664E+02   -0.39675E-02   -0.34011E-04  1320   0.364E-01    0.401E-02
DAV:  31    -0.625465481884E+02   -0.13359E-02   -0.17987E-04  1288   0.199E-01    0.290E-02
DAV:  32    -0.625467422039E+02   -0.19402E-03   -0.98582E-05  1260   0.199E-01
   1 F= -.69495201E+02 E0= -.69482059E+02  d E =-.694952E+02  mag=    -0.0035
       N       E                     dE             d eps       ncg     rms          rms(c)
DAV:   1    -0.625342068579E+02    0.12341E-01   -0.13286E+01  1996   0.101E+01    0.988E-01
DAV:   2    -0.625533460800E+02   -0.19139E-01   -0.30882E-01  2816   0.511E+00    0.894E-01
DAV:   3    -0.626268131221E+02   -0.73467E-01   -0.33496E-01  2304   0.136E+01    0.192E+00
DAV:   4    -0.625477436138E+02    0.79070E-01   -0.28469E-01  2512   0.113E+01    0.620E-01
DAV:   5    -0.625434977720E+02    0.42458E-02   -0.27462E-02  2776   0.459E+00    0.307E-01
DAV:   6    -0.625462008093E+02   -0.27030E-02   -0.21412E-02  2752   0.439E+00    0.419E-01
DAV:   7    -0.625423146815E+02    0.38861E-02   -0.10282E-02  3040   0.298E+00    0.730E-02
DAV:   8    -0.625424757528E+02   -0.16107E-03   -0.24073E-03  2232   0.771E-01    0.651E-02
DAV:   9    -0.625425525386E+02   -0.76786E-04   -0.10211E-03  1896   0.495E-01
   2 F= -.69531193E+02 E0= -.69517856E+02  d E =-.359923E-01  mag=    -0.0023
       N       E                     dE             d eps       ncg     rms          rms(c)
DAV:   1    -0.625852541371E+02   -0.42778E-01   -0.24720E+00  1972   0.444E+00    0.370E-01
DAV:   2    -0.625923665291E+02   -0.71124E-02   -0.67602E-02  3152   0.279E+00    0.485E-01
DAV:   3    -0.625932917184E+02   -0.92519E-03   -0.35442E-02  2936   0.418E+00    0.496E-01
DAV:   4    -0.625924964119E+02    0.79531E-03   -0.22095E-02  2336   0.414E+00    0.422E-01
DAV:   5    -0.625889609334E+02    0.35355E-02   -0.91657E-03  2316   0.315E+00    0.155E-01
DAV:   6    -0.625887962044E+02    0.16473E-03   -0.26754E-03  2208   0.167E+00    0.919E-02
DAV:   7    -0.625887581184E+02    0.38086E-04   -0.13618E-03  1976   0.782E-01
   3 F= -.69548599E+02 E0= -.69535295E+02  d E =-.533978E-01  mag=    -0.0017
       N       E                     dE             d eps       ncg     rms          rms(c)
DAV:   1    -0.626000764270E+02   -0.11280E-01   -0.61538E+00  1976   0.733E+00    0.226E-01
DAV:   2    -0.626112243560E+02   -0.11148E-01   -0.11692E-01  2636   0.252E+00    0.278E-01
DAV:   3    -0.626129397159E+02   -0.17154E-02   -0.12199E-02  2264   0.265E+00    0.379E-01
DAV:   4    -0.626109902663E+02    0.19494E-02   -0.10915E-02  2076   0.227E+00    0.178E-01
DAV:   5    -0.626107848654E+02    0.20540E-03   -0.21002E-03  1492   0.112E+00    0.153E-01
DAV:   6    -0.626107975184E+02   -0.12653E-04   -0.16057E-03  1884   0.135E+00
   4 F= -.69577706E+02 E0= -.69565081E+02  d E =-.291078E-01  mag=    -0.0013
       N       E                     dE             d eps       ncg     rms          rms(c)
DAV:   1    -0.625405364098E+02    0.70248E-01   -0.50485E+01  1984   0.216E+01    0.717E-01
DAV:   2    -0.626492536024E+02   -0.10872E+00   -0.11196E+00  2712   0.914E+00    0.103E+00
DAV:   3    -0.626759983407E+02   -0.26745E-01   -0.16490E-01  2392   0.105E+01    0.139E+00
DAV:   4    -0.626410293139E+02    0.34969E-01   -0.13750E-01  2336   0.801E+00    0.528E-01
DAV:   5    -0.626394689833E+02    0.15603E-02   -0.20240E-02  2864   0.352E+00    0.479E-01
DAV:   6    -0.626382388598E+02    0.12301E-02   -0.14733E-02  2416   0.352E+00    0.389E-01
DAV:   7    -0.626363555588E+02    0.18833E-02   -0.13271E-02  2484   0.243E+00    0.149E-01
DAV:   8    -0.626365180556E+02   -0.16250E-03   -0.57116E-03  2176   0.187E+00    0.133E-01
DAV:   9    -0.626363560392E+02    0.16202E-03   -0.18551E-03  2032   0.967E-01
   5 F= -.69623965E+02 E0= -.69610300E+02  d E =-.753665E-01  mag=    -0.0008
       N       E                     dE             d eps       ncg     rms          rms(c)
DAV:   1    -0.626186260756E+02    0.17892E-01   -0.72793E+00  1976   0.803E+00    0.256E-01
DAV:   2    -0.626342713992E+02   -0.15645E-01   -0.14243E-01  2756   0.330E+00    0.480E-01
DAV:   3    -0.626351857123E+02   -0.91431E-03   -0.38745E-02  2224   0.438E+00    0.475E-01
DAV:   4    -0.626316943638E+02    0.34913E-02   -0.13665E-02  2124   0.258E+00    0.165E-01
DAV:   5    -0.626317780055E+02   -0.83642E-04   -0.28409E-03  2292   0.115E+00    0.163E-01
DAV:   6    -0.626318872005E+02   -0.10920E-03   -0.25866E-03  2100   0.154E+00    0.167E-01
DAV:   7    -0.626315157163E+02    0.37148E-03   -0.14871E-03  2064   0.971E-01    0.446E-02
DAV:   8    -0.626315386353E+02   -0.22919E-04   -0.46340E-04  1296   0.528E-01
   6 F= -.69627164E+02 E0= -.69613325E+02  d E =-.785660E-01  mag=    -0.0005
       N       E                     dE             d eps       ncg     rms          rms(c)
DAV:   1    -0.626402040344E+02   -0.86883E-02   -0.54073E+00  1916   0.692E+00    0.278E-01
DAV:   2    -0.626511473592E+02   -0.10943E-01   -0.11807E-01  2620   0.257E+00    0.292E-01
DAV:   3    -0.626515124208E+02   -0.36506E-03   -0.99374E-03  2188   0.256E+00    0.278E-01
DAV:   4    -0.626528692205E+02   -0.13568E-02   -0.12928E-02  2232   0.267E+00    0.390E-01
DAV:   5    -0.626508414726E+02    0.20277E-02   -0.10492E-02  2056   0.239E+00    0.201E-01
DAV:   6    -0.626504809138E+02    0.36056E-03   -0.39818E-03  1976   0.180E+00    0.138E-01
DAV:   7    -0.626501998645E+02    0.28105E-03   -0.22021E-03  1916   0.115E+00    0.471E-02
DAV:   8    -0.626501941650E+02    0.56995E-05   -0.53045E-04  1396   0.489E-01
   7 F= -.69653024E+02 E0= -.69638950E+02  d E =-.258597E-01  mag=    -0.0003
       N       E                     dE             d eps       ncg     rms          rms(c)
DAV:   1    -0.625818962405E+02    0.68304E-01   -0.39035E+01  1912   0.188E+01    0.787E-01
DAV:   2    -0.626667406840E+02   -0.84844E-01   -0.91142E-01  2640   0.727E+00    0.865E-01
DAV:   3    -0.626806478909E+02   -0.13907E-01   -0.91075E-02  2336   0.795E+00    0.114E+00
DAV:   4    -0.626667974797E+02    0.13850E-01   -0.10818E-01  2248   0.730E+00    0.705E-01
DAV:   5    -0.626621463775E+02    0.46511E-02   -0.42261E-02  2752   0.540E+00    0.561E-01
DAV:   6    -0.626598581723E+02    0.22882E-02   -0.21409E-02  2764   0.491E+00    0.415E-01
DAV:   7    -0.626571163127E+02    0.27419E-02   -0.19794E-02  2900   0.344E+00    0.170E-01
DAV:   8    -0.626569743300E+02    0.14198E-03   -0.53376E-03  2488   0.144E+00    0.976E-02
DAV:   9    -0.626569180471E+02    0.56283E-04   -0.13128E-03  1876   0.667E-01
   8 F= -.69680808E+02 E0= -.69666275E+02  d E =-.536434E-01  mag=    -0.0002
       N       E                     dE             d eps       ncg     rms          rms(c)
DAV:   1    -0.626621291714E+02   -0.51548E-02   -0.68171E-01  1912   0.247E+00    0.105E-01
DAV:   2    -0.626640221306E+02   -0.18930E-02   -0.14721E-02  2976   0.131E+00    0.208E-01
DAV:   3    -0.626636803613E+02    0.34177E-03   -0.45796E-03  1976   0.151E+00    0.141E-01
DAV:   4    -0.626634729999E+02    0.20736E-03   -0.15565E-03  1580   0.992E-01    0.897E-02
DAV:   5    -0.626634265278E+02    0.46472E-04   -0.50119E-04  1224   0.733E-01
   9 F= -.69690248E+02 E0= -.69675442E+02  d E =-.944018E-02  mag=    -0.0002
       N       E                     dE             d eps       ncg     rms          rms(c)
DAV:   1    -0.626684355845E+02   -0.49626E-02   -0.61388E+00  1904   0.733E+00    0.307E-01
DAV:   2    -0.626803779086E+02   -0.11942E-01   -0.12398E-01  2640   0.244E+00    0.328E-01
DAV:   3    -0.626843134970E+02   -0.39356E-02   -0.23194E-02  2320   0.366E+00    0.544E-01
DAV:   4    -0.626806484878E+02    0.36650E-02   -0.19857E-02  2176   0.326E+00    0.294E-01
DAV:   5    -0.626794311841E+02    0.12173E-02   -0.44176E-03  2128   0.213E+00    0.174E-01
DAV:   6    -0.626794647510E+02   -0.33567E-04   -0.30803E-03  2700   0.166E+00    0.147E-01
DAV:   7    -0.626791499546E+02    0.31480E-03   -0.23404E-03  2064   0.126E+00    0.521E-02
DAV:   8    -0.626791480044E+02    0.19503E-05   -0.51104E-04  1376   0.387E-01
  10 F= -.69714671E+02 E0= -.69700006E+02  d E =-.338627E-01  mag=    -0.0001
       N       E                     dE             d eps       ncg     rms          rms(c)
DAV:   1    -0.626488649456E+02    0.30285E-01   -0.24571E+01  1936   0.148E+01    0.594E-01
DAV:   2    -0.626981072552E+02   -0.49242E-01   -0.52462E-01  2656   0.558E+00    0.606E-01
DAV:   3    -0.626973963669E+02    0.71089E-03   -0.33546E-02  2200   0.520E+00    0.489E-01
DAV:   4    -0.626961008195E+02    0.12955E-02   -0.17168E-02  2352   0.398E+00    0.410E-01
DAV:   5    -0.627097588106E+02   -0.13658E-01   -0.58082E-02  2600   0.537E+00    0.884E-01
DAV:   6    -0.626948800257E+02    0.14879E-01   -0.35665E-02  2896   0.478E+00    0.318E-01
DAV:   7    -0.626936746607E+02    0.12054E-02   -0.56999E-03  3288   0.192E+00    0.854E-02
DAV:   8    -0.626936671983E+02    0.74624E-05   -0.18508E-03  2016   0.908E-01
  11 F= -.69746250E+02 E0= -.69731523E+02  d E =-.654417E-01  mag=    -0.0001
       N       E                     dE             d eps       ncg     rms          rms(c)
DAV:   1    -0.624621935403E+02    0.23148E+00   -0.99410E+01  1936   0.307E+01    0.119E+00
DAV:   2    -0.626784408976E+02   -0.21625E+00   -0.22601E+00  2728   0.134E+01    0.138E+00
DAV:   3    -0.626722379410E+02    0.62030E-02   -0.18025E-01  2448   0.118E+01    0.106E+00
DAV:   4    -0.626914355543E+02   -0.19198E-01   -0.18257E-01  2512   0.102E+01    0.146E+00
DAV:   5    -0.626634906857E+02    0.27945E-01   -0.15432E-01  2512   0.895E+00    0.855E-01
DAV:   6    -0.626565101676E+02    0.69805E-02   -0.67721E-02  3104   0.672E+00    0.540E-01
DAV:   7    -0.626516030018E+02    0.49072E-02   -0.35705E-02  2864   0.428E+00    0.207E-01
DAV:   8    -0.626516629871E+02   -0.59985E-04   -0.88941E-03  2404   0.194E+00    0.102E-01
DAV:   9    -0.626517530357E+02   -0.90049E-04   -0.29539E-03  1992   0.759E-01    0.549E-02
DAV:  10    -0.626517729885E+02   -0.19953E-04   -0.65563E-04  1664   0.370E-01
  12 F= -.69738305E+02 E0= -.69723425E+02  d E =-.574975E-01  mag=    -0.0000
       N       E                     dE             d eps       ncg     rms          rms(c)
DAV:   1    -0.626156587307E+02    0.36094E-01   -0.39343E+01  1928   0.190E+01    0.696E-01
DAV:   2    -0.626991367573E+02   -0.83478E-01   -0.86219E-01  2632   0.620E+00    0.865E-01
DAV:   3    -0.627226494786E+02   -0.23513E-01   -0.13253E-01  2320   0.839E+00    0.128E+00
DAV:   4    -0.626930117108E+02    0.29638E-01   -0.92019E-02  2656   0.656E+00    0.505E-01
DAV:   5    -0.626918767981E+02    0.11349E-02   -0.14054E-02  3008   0.308E+00    0.423E-01
DAV:   6    -0.626953883735E+02   -0.35116E-02   -0.21751E-02  2376   0.504E+00    0.516E-01
DAV:   7    -0.626895100465E+02    0.58783E-02   -0.14420E-02  2432   0.378E+00    0.110E-01
DAV:   8    -0.626896391588E+02   -0.12911E-03   -0.45236E-03  3104   0.101E+00    0.798E-02
DAV:   9    -0.626896853277E+02   -0.46169E-04   -0.12172E-03  1856   0.541E-01
  13 F= -.69754610E+02 E0= -.69739851E+02  d E =-.738026E-01  mag=    -0.0000
       N       E                     dE             d eps       ncg     rms          rms(c)
DAV:   1    -0.626995939420E+02   -0.99548E-02   -0.68255E-01  1960   0.250E+00    0.872E-02
DAV:   2    -0.627013027189E+02   -0.17088E-02   -0.13512E-02  2992   0.128E+00    0.191E-01
DAV:   3    -0.627009860634E+02    0.31666E-03   -0.36494E-03  2096   0.135E+00    0.138E-01
DAV:   4    -0.627007932658E+02    0.19280E-03   -0.12648E-03  1632   0.836E-01
  14 F= -.69766805E+02 E0= -.69752400E+02  d E =-.121949E-01  mag=    -0.0000
       N       E                     dE             d eps       ncg     rms          rms(c)
DAV:   1    -0.627169850317E+02   -0.15999E-01   -0.61542E+00  1936   0.747E+00    0.280E-01
DAV:   2    -0.627350348157E+02   -0.18050E-01   -0.13030E-01  3112   0.413E+00    0.688E-01
DAV:   3    -0.627289614736E+02    0.60733E-02   -0.36480E-02  2800   0.409E+00    0.341E-01
DAV:   4    -0.627283047486E+02    0.65672E-03   -0.86163E-03  2160   0.223E+00    0.251E-01
DAV:   5    -0.627277451919E+02    0.55956E-03   -0.41935E-03  2112   0.174E+00    0.175E-01
DAV:   6    -0.627276494183E+02    0.95774E-04   -0.29956E-03  2432   0.134E+00    0.137E-01
DAV:   7    -0.627274566935E+02    0.19272E-03   -0.18417E-03  2048   0.113E+00
  15 F= -.69796887E+02 E0= -.69782492E+02  d E =-.422761E-01  mag=    -0.0000
       N       E                     dE             d eps       ncg     rms          rms(c)
DAV:   1    -0.627060034839E+02    0.21646E-01   -0.24610E+01  1936   0.151E+01    0.515E-01
DAV:   2    -0.627840793543E+02   -0.78076E-01   -0.55204E-01  3216   0.888E+00    0.140E+00
DAV:   3    -0.627603395181E+02    0.23740E-01   -0.14819E-01  2896   0.856E+00    0.731E-01
DAV:   4    -0.627549199620E+02    0.54196E-02   -0.40280E-02  2320   0.492E+00    0.485E-01
DAV:   5    -0.627526684825E+02    0.22515E-02   -0.14368E-02  2248   0.298E+00    0.314E-01
DAV:   6    -0.627523388893E+02    0.32959E-03   -0.87891E-03  2176   0.208E+00    0.254E-01
DAV:   7    -0.627519522942E+02    0.38660E-03   -0.71535E-03  2224   0.204E+00    0.116E-01
DAV:   8    -0.627518566533E+02    0.95641E-04   -0.24868E-03  2632   0.893E-01    0.507E-02
DAV:   9    -0.627518705105E+02   -0.13857E-04   -0.50531E-04  1472   0.336E-01
  16 F= -.69829029E+02 E0= -.69815829E+02  d E =-.744185E-01  mag=    -0.0000
       N       E                     dE             d eps       ncg     rms          rms(c)
DAV:   1    -0.627688443000E+02   -0.16988E-01   -0.32784E+00  1904   0.545E+00    0.240E-01
DAV:   2    -0.627790244380E+02   -0.10180E-01   -0.74885E-02  3064   0.330E+00    0.527E-01
DAV:   3    -0.627760791817E+02    0.29453E-02   -0.22420E-02  2816   0.333E+00    0.312E-01
DAV:   4    -0.627751330562E+02    0.94613E-03   -0.74156E-03  2176   0.213E+00    0.205E-01
DAV:   5    -0.627746962975E+02    0.43676E-03   -0.26213E-03  2128   0.146E+00    0.137E-01
DAV:   6    -0.627745903920E+02    0.10591E-03   -0.18165E-03  2104   0.125E+00
  17 F= -.69849854E+02 E0= -.69837109E+02  d E =-.208251E-01  mag=    -0.0000
       N       E                     dE             d eps       ncg     rms          rms(c)
DAV:   1    -0.627745471402E+02    0.14916E-03   -0.26967E+00  1936   0.506E+00    0.224E-01
DAV:   2    -0.627834251076E+02   -0.88780E-02   -0.62505E-02  3112   0.301E+00    0.505E-01
DAV:   3    -0.627802587197E+02    0.31664E-02   -0.20114E-02  2976   0.311E+00    0.255E-01
DAV:   4    -0.627798374698E+02    0.42125E-03   -0.56465E-03  2184   0.187E+00    0.192E-01
DAV:   5    -0.627794300814E+02    0.40739E-03   -0.25382E-03  2104   0.151E+00    0.128E-01
DAV:   6    -0.627793882161E+02    0.41865E-04   -0.17462E-03  2088   0.123E+00
  18 F= -.69854209E+02 E0= -.69842029E+02  d E =-.251799E-01  mag=    -0.0000
       N       E                     dE             d eps       ncg     rms          rms(c)
DAV:   1    -0.627795367752E+02   -0.10669E-03   -0.12043E-01  2528   0.132E+00    0.572E-02
DAV:   2    -0.627797925234E+02   -0.25575E-03   -0.18465E-03  2136   0.816E-01    0.106E-01
DAV:   3    -0.627797468385E+02    0.45685E-04   -0.10252E-03  1376   0.816E-01
  19 F= -.69854598E+02 E0= -.69842369E+02  d E =-.255695E-01  mag=    -0.0000
       N       E                     dE             d eps       ncg     rms          rms(c)
DAV:   1    -0.627861874887E+02   -0.63950E-02   -0.42276E+00  1920   0.623E+00    0.214E-01
DAV:   2    -0.628171224845E+02   -0.30935E-01   -0.12420E-01  3440   0.628E+00    0.108E+00
DAV:   3    -0.627935035756E+02    0.23619E-01   -0.64212E-02  3520   0.551E+00    0.206E-01
DAV:   4    -0.627936909162E+02   -0.18734E-03   -0.64487E-03  2688   0.145E+00    0.169E-01
DAV:   5    -0.627936793226E+02    0.11594E-04   -0.30844E-03  2136   0.141E+00    0.146E-01
DAV:   6    -0.627935471567E+02    0.13217E-03   -0.16086E-03  2096   0.112E+00
  20 F= -.69868283E+02 E0= -.69856704E+02  d E =-.136847E-01  mag=    -0.0000
       N       E                     dE             d eps       ncg     rms          rms(c)
DAV:   1    -0.627440640930E+02    0.49615E-01   -0.38246E+01  1952   0.190E+01    0.677E-01
DAV:   2    -0.629077368690E+02   -0.16367E+00   -0.91951E-01  3232   0.140E+01    0.221E+00
DAV:   3    -0.628206177495E+02    0.87119E-01   -0.31524E-01  3456   0.124E+01    0.726E-01
DAV:   4    -0.628176195030E+02    0.29982E-02   -0.59850E-02  2720   0.544E+00    0.599E-01
DAV:   5    -0.628148506183E+02    0.27689E-02   -0.24862E-02  2352   0.430E+00    0.442E-01
DAV:   6    -0.628134673760E+02    0.13832E-02   -0.16077E-02  2320   0.316E+00    0.335E-01
DAV:   7    -0.628126226240E+02    0.84475E-03   -0.11242E-02  2656   0.252E+00    0.171E-01
DAV:   8    -0.628125519922E+02    0.70632E-04   -0.36828E-03  2688   0.128E+00    0.918E-02
DAV:   9    -0.628124492050E+02    0.10279E-03   -0.10336E-03  1776   0.643E-01
  21 F= -.69887287E+02 E0= -.69877816E+02  d E =-.326887E-01  mag=    -0.0000
       N       E                     dE             d eps       ncg     rms          rms(c)
DAV:   1    -0.628167159529E+02   -0.41640E-02   -0.13312E+00  1888   0.342E+00    0.215E-01
DAV:   2    -0.628194347364E+02   -0.27188E-02   -0.27525E-02  3032   0.148E+00    0.258E-01
DAV:   3    -0.628197745793E+02   -0.33984E-03   -0.11927E-02  2208   0.242E+00    0.283E-01
DAV:   4    -0.628187982272E+02    0.97635E-03   -0.41093E-03  2120   0.172E+00    0.151E-01
DAV:   5    -0.628186873229E+02    0.11090E-03   -0.22308E-03  2096   0.168E+00    0.110E-01
DAV:   6    -0.628184727801E+02    0.21454E-03   -0.10398E-03  1544   0.105E+00    0.581E-02
DAV:   7    -0.628184536742E+02    0.19106E-04   -0.44701E-04  1344   0.434E-01
  22 F= -.69894159E+02 E0= -.69884496E+02  d E =-.687149E-02  mag=    -0.0000
       N       E                     dE             d eps       ncg     rms          rms(c)
DAV:   1    -0.628186890325E+02   -0.21625E-03   -0.13081E-02  1936   0.365E-01    0.226E-02
DAV:   2    -0.628187139453E+02   -0.24913E-04   -0.18514E-04  1360   0.228E-01
  23 F= -.69894265E+02 E0= -.69884580E+02  d E =-.697788E-02  mag=    -0.0000
       N       E                     dE             d eps       ncg     rms          rms(c)
DAV:   1    -0.628249570403E+02   -0.62680E-02   -0.12479E+00  1944   0.338E+00    0.106E-01
DAV:   2    -0.628301015027E+02   -0.51445E-02   -0.28792E-02  3344   0.240E+00    0.380E-01
DAV:   3    -0.628272722271E+02    0.28293E-02   -0.11728E-02  2688   0.236E+00    0.138E-01
DAV:   4    -0.628271854472E+02    0.86780E-04   -0.15645E-03  2016   0.922E-01
  24 F= -.69901569E+02 E0= -.69891495E+02  d E =-.730439E-02  mag=    -0.0000
       N       E                     dE             d eps       ncg     rms          rms(c)
DAV:   1    -0.628209081911E+02    0.63640E-02   -0.11287E+01  1944   0.102E+01    0.357E-01
DAV:   2    -0.628468912228E+02   -0.25983E-01   -0.23487E-01  2912   0.443E+00    0.640E-01
DAV:   3    -0.628443460584E+02    0.25452E-02   -0.47384E-02  2288   0.464E+00    0.479E-01
DAV:   4    -0.628420091958E+02    0.23369E-02   -0.13918E-02  2272   0.283E+00    0.290E-01
DAV:   5    -0.628417205704E+02    0.28863E-03   -0.50173E-03  2220   0.210E+00    0.258E-01
DAV:   6    -0.628413163127E+02    0.40426E-03   -0.60072E-03  2416   0.228E+00    0.217E-01
DAV:   7    -0.628407913144E+02    0.52500E-03   -0.38821E-03  2808   0.136E+00    0.426E-02
DAV:   8    -0.628408113288E+02   -0.20014E-04   -0.62536E-04  1624   0.373E-01
  25 F= -.69911874E+02 E0= -.69901359E+02  d E =-.176089E-01  mag=    -0.0000
       N       E                     dE             d eps       ncg     rms          rms(c)
DAV:   1    -0.628473602036E+02   -0.65689E-02   -0.78086E-01  1888   0.266E+00    0.116E-01
DAV:   2    -0.628492794475E+02   -0.19192E-02   -0.17067E-02  3040   0.115E+00    0.185E-01
DAV:   3    -0.628490926393E+02    0.18681E-03   -0.40600E-03  2096   0.142E+00    0.145E-01
DAV:   4    -0.628489174268E+02    0.17521E-03   -0.15052E-03  1832   0.974E-01
  26 F= -.69917484E+02 E0= -.69906492E+02  d E =-.561031E-02  mag=    -0.0000
       N       E                     dE             d eps       ncg     rms          rms(c)
DAV:   1    -0.628516037794E+02   -0.25111E-02   -0.63016E-01  1888   0.248E+00    0.152E-01
DAV:   2    -0.628533706119E+02   -0.17668E-02   -0.14095E-02  3120   0.149E+00    0.230E-01
DAV:   3    -0.628532388837E+02    0.13173E-03   -0.63516E-03  2352   0.190E+00    0.210E-01
DAV:   4    -0.628528735259E+02    0.36536E-03   -0.37333E-03  2048   0.160E+00    0.146E-01
DAV:   5    -0.628525158863E+02    0.35764E-03   -0.11478E-03  1520   0.107E+00    0.601E-02
DAV:   6    -0.628525197895E+02   -0.39032E-05   -0.54162E-04  1480   0.671E-01
  27 F= -.69919005E+02 E0= -.69908304E+02  d E =-.713141E-02  mag=    -0.0000
       N       E                     dE             d eps       ncg     rms          rms(c)
DAV:   1    -0.628557287249E+02   -0.32128E-02   -0.16777E-01  1888   0.132E+00    0.510E-02
DAV:   2    -0.628563208484E+02   -0.59212E-03   -0.42366E-03  2976   0.826E-01    0.123E-01
DAV:   3    -0.628560966310E+02    0.22422E-03   -0.14660E-03  1384   0.886E-01    0.641E-02
DAV:   4    -0.628560742318E+02    0.22399E-04   -0.23297E-04  1160   0.392E-01
  28 F= -.69921662E+02 E0= -.69910728E+02  d E =-.265657E-02  mag=    -0.0000
       N       E                     dE             d eps       ncg     rms          rms(c)
DAV:   1    -0.628623083286E+02   -0.62117E-02   -0.15068E+00  1888   0.366E+00    0.155E-01
DAV:   2    -0.628658330202E+02   -0.35247E-02   -0.30623E-02  3008   0.152E+00    0.260E-01
DAV:   3    -0.628652637040E+02    0.56932E-03   -0.70652E-03  2352   0.183E+00    0.169E-01
DAV:   4    -0.628649367299E+02    0.32697E-03   -0.15771E-03  1896   0.849E-01    0.909E-02
DAV:   5    -0.628650102321E+02   -0.73502E-04   -0.98600E-04  1820   0.929E-01
  29 F= -.69927935E+02 E0= -.69917297E+02  d E =-.892974E-02  mag=    -0.0000
       N       E                     dE             d eps       ncg     rms          rms(c)
DAV:   1    -0.628629052336E+02    0.20315E-02   -0.60144E+00  1888   0.747E+00    0.289E-01
DAV:   2    -0.628781871527E+02   -0.15282E-01   -0.12798E-01  3136   0.427E+00    0.502E-01
DAV:   3    -0.628769139038E+02    0.12732E-02   -0.35394E-02  2528   0.437E+00    0.453E-01
DAV:   4    -0.628749911706E+02    0.19227E-02   -0.17472E-02  2304   0.307E+00    0.289E-01
DAV:   5    -0.628739715858E+02    0.10196E-02   -0.48171E-03  2192   0.152E+00    0.150E-01
DAV:   6    -0.628740535354E+02   -0.81950E-04   -0.33453E-03  2224   0.978E-01    0.116E-01
DAV:   7    -0.628739604619E+02    0.93074E-04   -0.16068E-03  1976   0.904E-01
  30 F= -.69931739E+02 E0= -.69920496E+02  d E =-.127332E-01  mag=    -0.0000
       N       E                     dE             d eps       ncg     rms          rms(c)
DAV:   1    -0.628728564491E+02    0.11971E-02   -0.21193E-01  1896   0.138E+00    0.621E-02
DAV:   2    -0.628749003305E+02   -0.20439E-02   -0.73814E-03  3200   0.170E+00    0.299E-01
DAV:   3    -0.628731352360E+02    0.17651E-02   -0.49137E-03  1808   0.164E+00    0.583E-02
DAV:   4    -0.628731594394E+02   -0.24203E-04   -0.51891E-04  1384   0.373E-01
  31 F= -.69931881E+02 E0= -.69920547E+02  d E =-.128757E-01  mag=    -0.0000
       N       E                     dE             d eps       ncg     rms          rms(c)
DAV:   1    -0.628771814444E+02   -0.40462E-02   -0.19095E-01  1880   0.134E+00    0.574E-02
DAV:   2    -0.628784188619E+02   -0.12374E-02   -0.51594E-03  2688   0.135E+00    0.221E-01
DAV:   3    -0.628775584030E+02    0.86046E-03   -0.35322E-03  1744   0.134E+00    0.766E-02
DAV:   4    -0.628775192454E+02    0.39158E-04   -0.57565E-04  1224   0.591E-01
  32 F= -.69934639E+02 E0= -.69923652E+02  d E =-.275780E-02  mag=    -0.0000
       N       E                     dE             d eps       ncg     rms          rms(c)
DAV:   1    -0.628867915592E+02   -0.92332E-02   -0.17122E+00  1856   0.389E+00    0.198E-01
DAV:   2    -0.628919255434E+02   -0.51340E-02   -0.37594E-02  3136   0.217E+00    0.370E-01
DAV:   3    -0.628899570835E+02    0.19685E-02   -0.12356E-02  2800   0.241E+00    0.202E-01
DAV:   4    -0.628898035317E+02    0.15355E-03   -0.23523E-03  2024   0.130E+00    0.153E-01
DAV:   5    -0.628896947624E+02    0.10877E-03   -0.22569E-03  2136   0.155E+00    0.125E-01
DAV:   6    -0.628895393904E+02    0.15537E-03   -0.99660E-04  1880   0.100E+00
  33 F= -.69941884E+02 E0= -.69930546E+02  d E =-.100029E-01  mag=     0.0000
       N       E                     dE             d eps       ncg     rms          rms(c)
DAV:   1    -0.628960037710E+02   -0.63090E-02   -0.67879E+00  1880   0.774E+00    0.360E-01
DAV:   2    -0.629126850893E+02   -0.16681E-01   -0.14249E-01  2992   0.346E+00    0.566E-01
DAV:   3    -0.629103226766E+02    0.23624E-02   -0.38572E-02  2464   0.429E+00    0.440E-01
DAV:   4    -0.629085276473E+02    0.17950E-02   -0.10538E-02  2224   0.262E+00    0.271E-01
DAV:   5    -0.629082576956E+02    0.26995E-03   -0.62769E-03  2192   0.263E+00    0.226E-01
DAV:   6    -0.629077644614E+02    0.49323E-03   -0.38423E-03  2496   0.180E+00    0.138E-01
DAV:   7    -0.629075861706E+02    0.17829E-03   -0.18674E-03  2152   0.106E+00
  34 F= -.69950631E+02 E0= -.69939460E+02  d E =-.187498E-01  mag=     0.0000
       N       E                     dE             d eps       ncg     rms          rms(c)
DAV:   1    -0.629137784332E+02   -0.60140E-02   -0.23032E-01  1856   0.145E+00    0.774E-02
DAV:   2    -0.629150994062E+02   -0.13210E-02   -0.72171E-03  3040   0.135E+00    0.213E-01
DAV:   3    -0.629142599071E+02    0.83950E-03   -0.32666E-03  1488   0.133E+00    0.842E-02
DAV:   4    -0.629142493873E+02    0.10520E-04   -0.46887E-04  1320   0.627E-01
  35 F= -.69954766E+02 E0= -.69943342E+02  d E =-.413527E-02  mag=     0.0000
       N       E                     dE             d eps       ncg     rms          rms(c)
DAV:   1    -0.629263359881E+02   -0.12076E-01   -0.20588E+00  1864   0.423E+00    0.240E-01
DAV:   2    -0.629319603548E+02   -0.56244E-02   -0.45294E-02  3040   0.225E+00    0.389E-01
DAV:   3    -0.629304365889E+02    0.15238E-02   -0.15004E-02  2592   0.272E+00    0.271E-01
DAV:   4    -0.629297369538E+02    0.69964E-03   -0.33331E-03  2120   0.159E+00    0.168E-01
DAV:   5    -0.629299373407E+02   -0.20039E-03   -0.25952E-03  2184   0.176E+00    0.163E-01
DAV:   6    -0.629295966606E+02    0.34068E-03   -0.25542E-03  2024   0.171E+00    0.946E-02
DAV:   7    -0.629294232033E+02    0.17346E-03   -0.71939E-04  1608   0.769E-01
  36 F= -.69962761E+02 E0= -.69951750E+02  d E =-.121297E-01  mag=     0.0000
       N       E                     dE             d eps       ncg     rms          rms(c)
DAV:   1    -0.629272297986E+02    0.23669E-02   -0.81733E+00  1856   0.838E+00    0.440E-01
DAV:   2    -0.629487740668E+02   -0.21544E-01   -0.18266E-01  2976   0.407E+00    0.682E-01
DAV:   3    -0.629448827258E+02    0.38913E-02   -0.51277E-02  2560   0.499E+00    0.528E-01
DAV:   4    -0.629423607492E+02    0.25220E-02   -0.15322E-02  2288   0.311E+00    0.332E-01
DAV:   5    -0.629421002897E+02    0.26046E-03   -0.96628E-03  2288   0.331E+00    0.288E-01
DAV:   6    -0.629411507178E+02    0.94957E-03   -0.57046E-03  2480   0.238E+00    0.171E-01
DAV:   7    -0.629408629345E+02    0.28778E-03   -0.25642E-03  2272   0.133E+00    0.472E-02
DAV:   8    -0.629409101786E+02   -0.47244E-04   -0.10418E-03  1792   0.437E-01
  37 F= -.69960927E+02 E0= -.69950311E+02  d E =-.102964E-01  mag=     0.0000
       N       E                     dE             d eps       ncg     rms          rms(c)
DAV:   1    -0.629333441581E+02    0.75188E-02   -0.27216E+00  1856   0.482E+00    0.264E-01
DAV:   2    -0.629386732466E+02   -0.53291E-02   -0.54854E-02  2800   0.191E+00    0.326E-01
DAV:   3    -0.629397448673E+02   -0.10716E-02   -0.16151E-02  2320   0.301E+00    0.379E-01
DAV:   4    -0.629380336631E+02    0.17112E-02   -0.83568E-03  2240   0.236E+00    0.216E-01
DAV:   5    -0.629375567465E+02    0.47692E-03   -0.32493E-03  2256   0.198E+00    0.148E-01
DAV:   6    -0.629373921918E+02    0.16455E-03   -0.20553E-03  2312   0.149E+00    0.109E-01
DAV:   7    -0.629372430787E+02    0.14911E-03   -0.77490E-04  1776   0.796E-01
  38 F= -.69964821E+02 E0= -.69953953E+02  d E =-.141903E-01  mag=     0.0000
       N       E                     dE             d eps       ncg     rms          rms(c)
DAV:   1    -0.629429472680E+02   -0.55551E-02   -0.52971E-01  1888   0.213E+00    0.106E-01
DAV:   2    -0.629444604836E+02   -0.15132E-02   -0.11032E-02  3168   0.124E+00    0.209E-01
DAV:   3    -0.629438202822E+02    0.64020E-03   -0.34125E-03  1872   0.134E+00    0.112E-01
DAV:   4    -0.629437805851E+02    0.39697E-04   -0.72231E-04  1540   0.728E-01
  39 F= -.69968011E+02 E0= -.69956876E+02  d E =-.318956E-02  mag=     0.0000
       N       E                     dE             d eps       ncg     rms          rms(c)
DAV:   1    -0.629545869490E+02   -0.10767E-01   -0.47372E+00  1856   0.644E+00    0.338E-01
DAV:   2    -0.629667158476E+02   -0.12129E-01   -0.99006E-02  2944   0.315E+00    0.545E-01
DAV:   3    -0.629640275236E+02    0.26883E-02   -0.28997E-02  2496   0.379E+00    0.401E-01
DAV:   4    -0.629629174141E+02    0.11101E-02   -0.77254E-03  2208   0.253E+00    0.280E-01
DAV:   5    -0.629624007975E+02    0.51662E-03   -0.56431E-03  2160   0.249E+00    0.192E-01
DAV:   6    -0.629620929513E+02    0.30785E-03   -0.40651E-03  2336   0.197E+00    0.133E-01
DAV:   7    -0.629618450912E+02    0.24786E-03   -0.15735E-03  2104   0.106E+00    0.397E-02
DAV:   8    -0.629618726188E+02   -0.27528E-04   -0.61937E-04  1552   0.326E-01
  40 F= -.69976142E+02 E0= -.69965778E+02  d E =-.113210E-01  mag=    -0.0000
       N       E                     dE             d eps       ncg     rms          rms(c)
DAV:   1    -0.629601811618E+02    0.16639E-02   -0.18715E+01  1872   0.128E+01    0.625E-01
DAV:   2    -0.630122118012E+02   -0.52031E-01   -0.41838E-01  2976   0.616E+00    0.106E+00
DAV:   3    -0.629985083462E+02    0.13703E-01   -0.10945E-01  2736   0.725E+00    0.703E-01
DAV:   4    -0.629931884598E+02    0.53199E-02   -0.22309E-02  2336   0.336E+00    0.396E-01
DAV:   5    -0.629964088629E+02   -0.32204E-02   -0.20648E-02  2224   0.483E+00    0.497E-01
DAV:   6    -0.629923823387E+02    0.40265E-02   -0.13584E-02  2624   0.400E+00    0.240E-01
DAV:   7    -0.629916750226E+02    0.70732E-03   -0.47602E-03  2704   0.190E+00    0.688E-02
DAV:   8    -0.629917746793E+02   -0.99657E-04   -0.23289E-03  2136   0.627E-01    0.514E-02
DAV:   9    -0.629918103729E+02   -0.35694E-04   -0.57647E-04  1616   0.338E-01
  41 F= -.69986709E+02 E0= -.69977196E+02  d E =-.218883E-01  mag=    -0.0000
       N       E                     dE             d eps       ncg     rms          rms(c)
DAV:   1    -0.629948556218E+02   -0.30809E-02   -0.30179E+00  1896   0.512E+00    0.246E-01
DAV:   2    -0.630013684541E+02   -0.65128E-02   -0.62805E-02  2800   0.189E+00    0.324E-01
DAV:   3    -0.630014779845E+02   -0.10953E-03   -0.13747E-02  2272   0.269E+00    0.330E-01
DAV:   4    -0.630002796046E+02    0.11984E-02   -0.51333E-03  2128   0.181E+00    0.182E-01
DAV:   5    -0.630003264293E+02   -0.46825E-04   -0.28450E-03  2144   0.184E+00    0.169E-01
DAV:   6    -0.630000032635E+02    0.32317E-03   -0.18075E-03  2320   0.143E+00    0.107E-01
DAV:   7    -0.629998566434E+02    0.14662E-03   -0.68910E-04  1744   0.792E-01
  42 F= -.69987260E+02 E0= -.69978144E+02  d E =-.224391E-01  mag=    -0.0000
       N       E                     dE             d eps       ncg     rms          rms(c)
DAV:   1    -0.629955702599E+02    0.44330E-02   -0.65245E-01  1864   0.237E+00    0.114E-01
DAV:   2    -0.629970597040E+02   -0.14894E-02   -0.13350E-02  2912   0.115E+00    0.190E-01
DAV:   3    -0.629968112919E+02    0.24841E-03   -0.31312E-03  1984   0.134E+00    0.137E-01
DAV:   4    -0.629966250654E+02    0.18623E-03   -0.10004E-03  1568   0.815E-01
  43 F= -.69987487E+02 E0= -.69978518E+02  d E =-.226657E-01  mag=    -0.0000
       N       E                     dE             d eps       ncg     rms          rms(c)
DAV:   1    -0.630069252944E+02   -0.10114E-01   -0.41308E+00  1864   0.605E+00    0.253E-01
DAV:   2    -0.630197183593E+02   -0.12793E-01   -0.93806E-02  3152   0.364E+00    0.520E-01
DAV:   3    -0.630164373025E+02    0.32811E-02   -0.28750E-02  3008   0.383E+00    0.373E-01
DAV:   4    -0.630147900895E+02    0.16472E-02   -0.85807E-03  2192   0.239E+00    0.231E-01
DAV:   5    -0.630143027790E+02    0.48731E-03   -0.27118E-03  2080   0.120E+00    0.138E-01
DAV:   6    -0.630143179208E+02   -0.15142E-04   -0.17109E-03  2200   0.911E-01
  44 F= -.69995266E+02 E0= -.69986484E+02  d E =-.777904E-02  mag=    -0.0000
       N       E                     dE             d eps       ncg     rms          rms(c)
DAV:   1    -0.629828719453E+02    0.31431E-01   -0.36600E+01  1872   0.183E+01    0.826E-01
DAV:   2    -0.630630026019E+02   -0.80131E-01   -0.85718E-01  2632   0.549E+00    0.931E-01
DAV:   3    -0.630836921458E+02   -0.20690E-01   -0.15348E-01  2192   0.894E+00    0.138E+00
DAV:   4    -0.630541550762E+02    0.29537E-01   -0.74123E-02  2224   0.656E+00    0.571E-01
DAV:   5    -0.630525895267E+02    0.15655E-02   -0.19238E-02  2832   0.367E+00    0.490E-01
DAV:   6    -0.630503682557E+02    0.22213E-02   -0.16085E-02  2408   0.278E+00    0.183E-01
DAV:   7    -0.630508458550E+02   -0.47760E-03   -0.43511E-03  2416   0.191E+00    0.198E-01
DAV:   8    -0.630503424610E+02    0.50339E-03   -0.27692E-03  2160   0.151E+00    0.870E-02
DAV:   9    -0.630502528843E+02    0.89577E-04   -0.12540E-03  1968   0.741E-01
  45 F= -.70003036E+02 E0= -.69995863E+02  d E =-.155493E-01  mag=     0.0000
       N       E                     dE             d eps       ncg     rms          rms(c)
DAV:   1    -0.630397378798E+02    0.10605E-01   -0.25123E+00  1864   0.471E+00    0.201E-01
DAV:   2    -0.630445436741E+02   -0.48058E-02   -0.54249E-02  2576   0.147E+00    0.219E-01
DAV:   3    -0.630445660626E+02   -0.22389E-04   -0.33618E-03  2160   0.135E+00    0.210E-01
DAV:   4    -0.630448545502E+02   -0.28849E-03   -0.39946E-03  1904   0.160E+00    0.232E-01
DAV:   5    -0.630444100848E+02    0.44447E-03   -0.35927E-03  1504   0.162E+00    0.168E-01
DAV:   6    -0.630441395324E+02    0.27055E-03   -0.15119E-03  1608   0.151E+00    0.126E-01
DAV:   7    -0.630438429847E+02    0.29655E-03   -0.59035E-04  1424   0.904E-01    0.300E-02
DAV:   8    -0.630438567226E+02   -0.13738E-04   -0.26393E-04  1200   0.234E-01
  46 F= -.70003741E+02 E0= -.69995981E+02  d E =-.162539E-01  mag=     0.0000
       N       E                     dE             d eps       ncg     rms          rms(c)
DAV:   1    -0.630546989352E+02   -0.10856E-01   -0.66897E+00  1888   0.768E+00    0.340E-01
DAV:   2    -0.630687439325E+02   -0.14045E-01   -0.15522E-01  2600   0.245E+00    0.383E-01
DAV:   3    -0.630700769789E+02   -0.13330E-02   -0.16366E-02  2240   0.286E+00    0.462E-01
DAV:   4    -0.630684836255E+02    0.15934E-02   -0.12986E-02  2224   0.274E+00    0.326E-01
DAV:   5    -0.630678615320E+02    0.62209E-03   -0.54780E-03  2256   0.223E+00    0.260E-01
DAV:   6    -0.630675012858E+02    0.36025E-03   -0.50817E-03  2872   0.246E+00    0.229E-01
DAV:   7    -0.630666303858E+02    0.87090E-03   -0.20732E-03  2368   0.156E+00    0.648E-02
DAV:   8    -0.630666459149E+02   -0.15529E-04   -0.71555E-04  1680   0.401E-01
  47 F= -.70012933E+02 E0= -.70006001E+02  d E =-.919205E-02  mag=     0.0000
       N       E                     dE             d eps       ncg     rms          rms(c)
DAV:   1    -0.630656298819E+02    0.10005E-02   -0.39473E-02  2016   0.670E-01    0.310E-02
DAV:   2    -0.630656910467E+02   -0.61165E-04   -0.53882E-04  1600   0.382E-01
  48 F= -.70012974E+02 E0= -.70005607E+02  d E =-.923329E-02  mag=     0.0000
       N       E                     dE             d eps       ncg     rms          rms(c)
DAV:   1    -0.630661132215E+02   -0.48334E-03   -0.74184E-03  2648   0.457E-01    0.231E-02
DAV:   2    -0.630668785526E+02   -0.76533E-03   -0.18527E-03  1520   0.105E+00    0.192E-01
DAV:   3    -0.630661079994E+02    0.77055E-03   -0.16494E-03  1296   0.994E-01    0.186E-02
DAV:   4    -0.630661232616E+02   -0.15262E-04   -0.31977E-05  1120   0.183E-01
  49 F= -.70012978E+02 E0= -.70006010E+02  d E =-.923682E-02  mag=     0.0000
       N       E                     dE             d eps       ncg     rms          rms(c)
DAV:   1    -0.630659373091E+02    0.17069E-03   -0.13149E-03  2384   0.193E-01    0.797E-03
DAV:   2    -0.630659625543E+02   -0.25245E-04   -0.81153E-05  1216   0.214E-01
  50 F= -.70013004E+02 E0= -.70005966E+02  d E =-.926276E-02  mag=     0.0000
       N       E                     dE             d eps       ncg     rms          rms(c)
DAV:   1    -0.630660271239E+02   -0.89815E-04   -0.19089E-04  1264   0.223E-01    0.178E-02
DAV:   2    -0.630664762563E+02   -0.44913E-03   -0.10248E-03  1312   0.850E-01    0.150E-01
DAV:   3    -0.630660333787E+02    0.44288E-03   -0.96379E-04  1248   0.793E-01    0.196E-02
DAV:   4    -0.630660382671E+02   -0.48885E-05   -0.67039E-05  1128   0.179E-01
  51 F= -.70012975E+02 E0= -.70005946E+02  d E =-.923373E-02  mag=     0.0000
       N       E                     dE             d eps       ncg     rms          rms(c)
DAV:   1    -0.630659673984E+02    0.65980E-04   -0.79733E-05  1184   0.839E-02    0.732E-03
DAV:   2    -0.630660133406E+02   -0.45942E-04   -0.10413E-04  1200   0.267E-01
  52 F= -.70013035E+02 E0= -.70005983E+02  d E =-.929460E-02  mag=     0.0000
       N       E                     dE             d eps       ncg     rms          rms(c)
DAV:   1    -0.630660107806E+02   -0.43382E-04   -0.10819E-04  1184   0.257E-01    0.562E-03
DAV:   2    -0.630660934445E+02   -0.82664E-04   -0.18345E-04  1216   0.336E-01
  53 F= -.70013073E+02 E0= -.70005961E+02  d E =-.933180E-02  mag=     0.0000
       N       E                     dE             d eps       ncg     rms          rms(c)
DAV:   1    -0.630659856689E+02    0.25112E-04   -0.15160E-04  1184   0.312E-01    0.590E-03
DAV:   2    -0.630659952123E+02   -0.95435E-05   -0.14429E-05  1128   0.148E-01
  54 F= -.70013003E+02 E0= -.70006032E+02  d E =-.926209E-02  mag=     0.0000
       N       E                     dE             d eps       ncg     rms          rms(c)
DAV:   1    -0.630714885024E+02   -0.55028E-02   -0.19272E+00  1904   0.416E+00    0.151E-01
DAV:   2    -0.630754776357E+02   -0.39891E-02   -0.39985E-02  2648   0.147E+00    0.224E-01
DAV:   3    -0.630756455249E+02   -0.16789E-03   -0.55222E-03  2208   0.173E+00    0.214E-01
DAV:   4    -0.630750547369E+02    0.59079E-03   -0.23223E-03  1840   0.112E+00    0.126E-01
DAV:   5    -0.630750880501E+02   -0.33313E-04   -0.79217E-04  1448   0.934E-01
  55 F= -.70016660E+02 E0= -.70010396E+02  d E =-.365685E-02  mag=     0.0000
       N       E                     dE             d eps       ncg     rms          rms(c)
DAV:   1    -0.630780580270E+02   -0.30033E-02   -0.12475E+00  1904   0.355E+00    0.166E-01
DAV:   2    -0.630845498238E+02   -0.64918E-02   -0.34277E-02  3296   0.333E+00    0.457E-01
DAV:   3    -0.630816925238E+02    0.28573E-02   -0.19939E-02  3168   0.326E+00    0.296E-01
DAV:   4    -0.630803112523E+02    0.13813E-02   -0.46017E-03  2128   0.183E+00    0.136E-01
DAV:   5    -0.630802460307E+02    0.65222E-04   -0.16449E-03  2000   0.837E-01
  56 F= -.70017521E+02 E0= -.70010889E+02  d E =-.451803E-02  mag=     0.0000
       N       E                     dE             d eps       ncg     rms          rms(c)
DAV:   1    -0.630764073315E+02    0.39039E-02   -0.49592E+00  1888   0.676E+00    0.265E-01
DAV:   2    -0.630871156858E+02   -0.10708E-01   -0.11046E-01  2672   0.286E+00    0.369E-01
DAV:   3    -0.630883160301E+02   -0.12003E-02   -0.14218E-02  2256   0.299E+00    0.405E-01
DAV:   4    -0.630862610295E+02    0.20550E-02   -0.10963E-02  2176   0.234E+00    0.243E-01
DAV:   5    -0.630860161934E+02    0.24484E-03   -0.24469E-03  2104   0.151E+00    0.190E-01
DAV:   6    -0.630858214360E+02    0.19476E-03   -0.25186E-03  2400   0.162E+00    0.157E-01
DAV:   7    -0.630854558055E+02    0.36563E-03   -0.14764E-03  2120   0.114E+00    0.523E-02
DAV:   8    -0.630854681592E+02   -0.12354E-04   -0.53675E-04  1568   0.494E-01
  57 F= -.70014384E+02 E0= -.70007892E+02  d E =-.138064E-02  mag=     0.0000
       N       E                     dE             d eps       ncg     rms          rms(c)
DAV:   1    -0.630758848820E+02    0.95709E-02   -0.33644E+00  1904   0.550E+00    0.197E-01
DAV:   2    -0.630826234836E+02   -0.67386E-02   -0.70379E-02  2592   0.182E+00    0.264E-01
DAV:   3    -0.630830708531E+02   -0.44737E-03   -0.72241E-03  2224   0.199E+00    0.288E-01
DAV:   4    -0.630822290153E+02    0.84184E-03   -0.45819E-03  2096   0.161E+00    0.180E-01
DAV:   5    -0.630820490867E+02    0.17993E-03   -0.12393E-03  1400   0.110E+00
  58 F= -.70017821E+02 E0= -.70010360E+02  d E =-.481802E-02  mag=     0.0000
       N       E                     dE             d eps       ncg     rms          rms(c)
DAV:   1    -0.630857846548E+02   -0.35556E-02   -0.13139E+00  1920   0.365E+00    0.136E-01
DAV:   2    -0.630890798272E+02   -0.32952E-02   -0.30092E-02  3096   0.260E+00    0.228E-01
DAV:   3    -0.630902937606E+02   -0.12139E-02   -0.14062E-02  2976   0.269E+00    0.361E-01
DAV:   4    -0.630881567674E+02    0.21370E-02   -0.45307E-03  2096   0.180E+00    0.107E-01
DAV:   5    -0.630881268721E+02    0.29895E-04   -0.80724E-04  1712   0.554E-01
  59 F= -.70018766E+02 E0= -.70011860E+02  d E =-.945251E-03  mag=    -0.0000
       N       E                     dE             d eps       ncg     rms          rms(c)
DAV:   1    -0.630910323592E+02   -0.28756E-02   -0.10339E+00  1912   0.309E+00    0.137E-01
DAV:   2    -0.630934730966E+02   -0.24407E-02   -0.20884E-02  3144   0.147E+00    0.244E-01
DAV:   3    -0.630928230498E+02    0.65005E-03   -0.49660E-03  2528   0.155E+00    0.149E-01
DAV:   4    -0.630926408193E+02    0.18223E-03   -0.91239E-04  1784   0.771E-01
  60 F= -.70018796E+02 E0= -.70012440E+02  d E =-.974884E-03  mag=    -0.0000
       N       E                     dE             d eps       ncg     rms          rms(c)
DAV:   1    -0.630958877695E+02   -0.30647E-02   -0.57539E-01  2024   0.256E+00    0.134E-01
DAV:   2    -0.631005929230E+02   -0.47052E-02   -0.18154E-02  3264   0.354E+00    0.403E-01
DAV:   3    -0.630975171532E+02    0.30758E-02   -0.99170E-03  2720   0.301E+00    0.233E-01
DAV:   4    -0.630966376855E+02    0.87947E-03   -0.34591E-03  1856   0.136E+00    0.100E-01
DAV:   5    -0.630966084834E+02    0.29202E-04   -0.10967E-03  1856   0.430E-01
  61 F= -.70019547E+02 E0= -.70012740E+02  d E =-.751271E-03  mag=    -0.0000
       N       E                     dE             d eps       ncg     rms          rms(c)
DAV:   1    -0.630993290360E+02   -0.26914E-02   -0.56687E-01  1936   0.233E+00    0.908E-02
DAV:   2    -0.631057285802E+02   -0.63995E-02   -0.22690E-02  3520   0.305E+00    0.518E-01
DAV:   3    -0.631002864143E+02    0.54422E-02   -0.12767E-02  2912   0.263E+00    0.106E-01
DAV:   4    -0.631002785174E+02    0.78969E-05   -0.90082E-04  1832   0.716E-01
  62 F= -.70020050E+02 E0= -.70012929E+02  d E =-.125460E-02  mag=    -0.0000
       N       E                     dE             d eps       ncg     rms          rms(c)
DAV:   1    -0.631026725296E+02   -0.23861E-02   -0.22609E+00  1904   0.454E+00    0.183E-01
DAV:   2    -0.631067627375E+02   -0.40902E-02   -0.44083E-02  2592   0.133E+00    0.226E-01
DAV:   3    -0.631070473423E+02   -0.28460E-03   -0.45350E-03  2176   0.159E+00    0.230E-01
DAV:   4    -0.631064088153E+02    0.63853E-03   -0.32723E-03  1776   0.131E+00    0.152E-01
DAV:   5    -0.631065803364E+02   -0.17152E-03   -0.18086E-03  1448   0.143E+00
  63 F= -.70020103E+02 E0= -.70014285E+02  d E =-.130712E-02  mag=    -0.0000
       N       E                     dE             d eps       ncg     rms          rms(c)
DAV:   1    -0.631022724184E+02    0.41364E-02   -0.64080E-01  2032   0.275E+00    0.120E-01
DAV:   2    -0.631103461350E+02   -0.80737E-02   -0.33502E-02  3248   0.398E+00    0.549E-01
DAV:   3    -0.631039091280E+02    0.64370E-02   -0.22652E-02  3232   0.343E+00    0.220E-01
DAV:   4    -0.631032623633E+02    0.64676E-03   -0.14535E-03  2064   0.135E+00    0.896E-02
DAV:   5    -0.631032337623E+02    0.28601E-04   -0.89352E-04  1696   0.542E-01
  64 F= -.70020072E+02 E0= -.70013271E+02  d E =-.127590E-02  mag=    -0.0000
       N       E                     dE             d eps       ncg     rms          rms(c)
DAV:   1    -0.631020903003E+02    0.11721E-02   -0.71043E-02  1992   0.865E-01    0.575E-02
DAV:   2    -0.631022322565E+02   -0.14196E-03   -0.10473E-03  1648   0.705E-01
  65 F= -.70020180E+02 E0= -.70013758E+02  d E =-.138432E-02  mag=     0.0000
       N       E                     dE             d eps       ncg     rms          rms(c)
DAV:   1    -0.631027622145E+02   -0.67191E-03   -0.15319E-02  2784   0.965E-01    0.959E-02
DAV:   2    -0.631333025071E+02   -0.30540E-01   -0.66514E-02  2352   0.658E+00    0.119E+00
DAV:   3    -0.631024635427E+02    0.30839E-01   -0.53860E-02  2112   0.547E+00    0.630E-02
DAV:   4    -0.631026161490E+02   -0.15261E-03   -0.42141E-04  1440   0.595E-01
  66 F= -.70020064E+02 E0= -.70012880E+02  d E =-.126845E-02  mag=     0.0000
       N       E                     dE             d eps       ncg     rms          rms(c)
DAV:   1    -0.631023159815E+02    0.14756E-03   -0.59036E-03  2656   0.439E-01    0.174E-02
DAV:   2    -0.631024138884E+02   -0.97907E-04   -0.42074E-04  1264   0.483E-01
  67 F= -.70020186E+02 E0= -.70013298E+02  d E =-.139064E-02  mag=     0.0000
       N       E                     dE             d eps       ncg     rms          rms(c)
DAV:   1    -0.631041765563E+02   -0.18606E-02   -0.17995E-01  2032   0.137E+00    0.429E-02
DAV:   2    -0.631058648157E+02   -0.16883E-02   -0.45253E-03  2560   0.150E+00    0.276E-01
DAV:   3    -0.631044779820E+02    0.13868E-02   -0.46693E-03  2272   0.150E+00    0.599E-02
DAV:   4    -0.631044933414E+02   -0.15359E-04   -0.54040E-04  1304   0.470E-01
  68 F= -.70021144E+02 E0= -.70014084E+02  d E =-.957557E-03  mag=     0.0000
       N       E                     dE             d eps       ncg     rms          rms(c)
DAV:   1    -0.631064359115E+02   -0.19579E-02   -0.16232E+00  2016   0.387E+00    0.106E-01
DAV:   2    -0.631100192266E+02   -0.35833E-02   -0.30651E-02  3040   0.162E+00    0.253E-01
DAV:   3    -0.631095006169E+02    0.51861E-03   -0.57165E-03  2320   0.161E+00    0.146E-01
DAV:   4    -0.631093394471E+02    0.16117E-03   -0.13101E-03  1832   0.798E-01
  69 F= -.70022668E+02 E0= -.70015439E+02  d E =-.248176E-02  mag=     0.0000
       N       E                     dE             d eps       ncg     rms          rms(c)
DAV:   1    -0.631099622731E+02   -0.46166E-03   -0.11785E-01  2024   0.116E+00    0.984E-02
DAV:   2    -0.631104711901E+02   -0.50892E-03   -0.29557E-03  2896   0.123E+00    0.152E-01
DAV:   3    -0.631103300702E+02    0.14112E-03   -0.21792E-03  1472   0.140E+00    0.143E-01
DAV:   4    -0.631101631028E+02    0.16697E-03   -0.16568E-03  1344   0.102E+00
  70 F= -.70022991E+02 E0= -.70016428E+02  d E =-.323269E-03  mag=     0.0000
       N       E                     dE             d eps       ncg     rms          rms(c)
DAV:   1    -0.631098844291E+02    0.44564E-03   -0.10303E-03  1608   0.575E-01    0.310E-02
DAV:   2    -0.631099711481E+02   -0.86719E-04   -0.74447E-04  1600   0.527E-01
  71 F= -.70022845E+02 E0= -.70015940E+02  d E =-.177133E-03  mag=     0.0000
       N       E                     dE             d eps       ncg     rms          rms(c)
DAV:   1    -0.631100186869E+02   -0.13426E-03   -0.49510E-04  1344   0.517E-01    0.619E-02
DAV:   2    -0.631230382617E+02   -0.13020E-01   -0.28284E-02  2192   0.436E+00    0.792E-01
DAV:   3    -0.631098562626E+02    0.13182E-01   -0.23624E-02  1712   0.371E+00    0.452E-02
DAV:   4    -0.631099500996E+02   -0.93837E-04   -0.15887E-04  1232   0.352E-01
  72 F= -.70022782E+02 E0= -.70015678E+02  d E =-.114240E-03  mag=     0.0000
       N       E                     dE             d eps       ncg     rms          rms(c)
DAV:   1    -0.631099712925E+02   -0.11503E-03   -0.19150E-04  1264   0.193E-01    0.161E-02
DAV:   2    -0.631106851116E+02   -0.71382E-03   -0.17410E-03  1296   0.102E+00    0.187E-01
DAV:   3    -0.631099517400E+02    0.73337E-03   -0.14024E-03  1232   0.921E-01    0.130E-02
DAV:   4    -0.631099739028E+02   -0.22163E-04   -0.25795E-05  1104   0.105E-01
  73 F= -.70022832E+02 E0= -.70015908E+02  d E =-.163292E-03  mag=     0.0000
       N       E                     dE             d eps       ncg     rms          rms(c)
DAV:   1    -0.631099869369E+02   -0.35197E-04   -0.73675E-05  1168   0.116E-01    0.113E-02
DAV:   2    -0.631100206035E+02   -0.33667E-04   -0.10449E-04  1240   0.290E-01
  74 F= -.70022866E+02 E0= -.70016059E+02  d E =-.197357E-03  mag=     0.0000
       N       E                     dE             d eps       ncg     rms          rms(c)
DAV:   1    -0.631099951462E+02   -0.82093E-05   -0.15032E-04  1216   0.315E-01    0.275E-02
DAV:   2    -0.631123430455E+02   -0.23479E-02   -0.50160E-03  1392   0.183E+00    0.337E-01
DAV:   3    -0.631099453278E+02    0.23977E-02   -0.44093E-03  1320   0.164E+00    0.249E-02
DAV:   4    -0.631099800649E+02   -0.34737E-04   -0.29116E-05  1152   0.205E-01
  75 F= -.70022836E+02 E0= -.70015922E+02  d E =-.167376E-03  mag=     0.0000
       N       E                     dE             d eps       ncg     rms          rms(c)
DAV:   1    -0.631099875504E+02   -0.42223E-04   -0.12428E-05  1184   0.762E-02    0.416E-03
DAV:   2    -0.631099992812E+02   -0.11731E-04   -0.27746E-05  1136   0.140E-01
  76 F= -.70022850E+02 E0= -.70015888E+02  d E =-.181312E-03  mag=     0.0000
       N       E                     dE             d eps       ncg     rms          rms(c)
DAV:   1    -0.631099858254E+02    0.17250E-05   -0.31959E-05  1120   0.143E-01    0.618E-03
DAV:   2    -0.631100477764E+02   -0.61951E-04   -0.15246E-04  1200   0.308E-01
  77 F= -.70022901E+02 E0= -.70015872E+02  d E =-.232892E-03  mag=     0.0000
       N       E                     dE             d eps       ncg     rms          rms(c)
DAV:   1    -0.631106470074E+02   -0.66118E-03   -0.84238E-02  2032   0.924E-01    0.231E-02
DAV:   2    -0.631108375333E+02   -0.19053E-03   -0.13351E-03  2264   0.418E-01
  78 F= -.70023139E+02 E0= -.70016358E+02  d E =-.237931E-03  mag=     0.0000
