<?xml version="1.0" encoding="ISO-8859-1"?>
<modeling>
 <generator>
  <i name="program" type="string">vasp </i>
  <i name="version" type="string">6.3.2  </i>
  <i name="subversion" type="string">27Jun22 (build Aug 17 2022 15:43:34) complex                          parallel </i>
  <i name="platform" type="string">tv2STDVTST </i>
  <i name="date" type="string">2025 02 04 </i>
  <i name="time" type="string">12:37:01 </i>
 </generator>
 <incar>
  <i type="int" name="ISTART">     0</i>
  <i type="string" name="PREC">Normal</i>
  <i type="int" name="ISPIN">     2</i>
  <i type="int" name="ICHARG">     2</i>
  <i type="int" name="IBRION">     2</i>
  <i name="EDIFF">      0.00020000</i>
  <i name="EDIFFG">     -0.03000000</i>
  <i type="int" name="NSW">   800</i>
  <i type="int" name="ISIF">     2</i>
  <i type="int" name="ISYM">     1</i>
  <i name="ENCUT">    400.00000000</i>
  <i name="POTIM">      0.50000000</i>
  <i type="logical" name="LREAL"> F  </i>
  <i type="int" name="ISMEAR">     1</i>
  <i name="SIGMA">      0.20000000</i>
  <i type="logical" name="LWAVE"> F  </i>
  <i type="logical" name="LCHARG"> F  </i>
  <i type="string" name="GGA">PE</i>
  <i type="int" name="IVDW">    11</i>
 </incar>
 <primitive_cell>
  <structure name="primitive_cell" >
   <crystal>
    <varray name="basis" >
     <v>       3.63000011       0.00000000       0.00000000 </v>
     <v>       0.00000000       3.63000011       0.00000000 </v>
     <v>       0.00000000       0.00000000      27.70499992 </v>
    </varray>
    <i name="volume">    365.06603650 </i>
    <varray name="rec_basis" >
     <v>       0.27548208       0.00000000       0.00000000 </v>
     <v>       0.00000000       0.27548208       0.00000000 </v>
     <v>       0.00000000       0.00000000       0.03609457 </v>
    </varray>
   </crystal>
   <varray name="positions" >
    <v>       0.00000000       0.00000000       0.00000000 </v>
    <v>       0.50000000       0.50000000       0.00000000 </v>
    <v>       0.00000000       0.50000000       0.06551164 </v>
    <v>       0.50000000       0.00000000       0.06551164 </v>
    <v>       0.00000000       0.00000000       0.12876120 </v>
    <v>       0.50000000       0.50000000       0.12876120 </v>
    <v>       0.00000000       0.50000000       0.19193187 </v>
    <v>       0.50000000       0.00000000       0.19193187 </v>
    <v>       0.00000000       0.00000000       0.25406550 </v>
    <v>       0.50000000       0.50000000       0.25406550 </v>
    <v>       0.00000000       0.50000000       0.31747855 </v>
    <v>       0.50000000       0.00000000       0.31747855 </v>
    <v>       0.00000000       0.00000000       0.38132233 </v>
    <v>       0.50000000       0.50000000       0.38132233 </v>
    <v>       0.00000000       0.50000000       0.44440075 </v>
    <v>       0.50000000       0.00000000       0.44440075 </v>
    <v>       1.00000000       1.00000000       0.50150658 </v>
    <v>       1.00000000       0.20550964       0.50150658 </v>
   </varray>
  </structure>
  <varray name="primitive_index" >
   <v type="int" >        1 </v>
   <v type="int" >        2 </v>
   <v type="int" >        3 </v>
   <v type="int" >        4 </v>
   <v type="int" >        5 </v>
   <v type="int" >        6 </v>
   <v type="int" >        7 </v>
   <v type="int" >        8 </v>
   <v type="int" >        9 </v>
   <v type="int" >       10 </v>
   <v type="int" >       11 </v>
   <v type="int" >       12 </v>
   <v type="int" >       13 </v>
   <v type="int" >       14 </v>
   <v type="int" >       15 </v>
   <v type="int" >       16 </v>
   <v type="int" >       17 </v>
   <v type="int" >       18 </v>
  </varray>
 </primitive_cell>
 <kpoints>
  <generation param="Monkhorst-Pack">
   <v type="int" name="divisions">       3        3        1 </v>
   <v name="usershift">      0.00000000       0.00000000       0.00000000 </v>
   <v name="genvec1">      0.33333333       0.00000000       0.00000000 </v>
   <v name="genvec2">      0.00000000       0.33333333       0.00000000 </v>
   <v name="genvec3">      0.00000000       0.00000000       1.00000000 </v>
   <v name="shift">      0.00000000       0.00000000       0.00000000 </v>
  </generation>
  <varray name="kpointlist" >
   <v>       0.00000000       0.00000000       0.00000000 </v>
   <v>       0.33333333       0.00000000       0.00000000 </v>
   <v>       0.00000000       0.33333333       0.00000000 </v>
   <v>       0.33333333       0.33333333       0.00000000 </v>
  </varray>
  <varray name="weights" >
   <v>       0.11111111 </v>
   <v>       0.22222222 </v>
   <v>       0.22222222 </v>
   <v>       0.44444444 </v>
  </varray>
 </kpoints>
 <parameters>
  <separator name="general" >
   <i type="string" name="SYSTEM">unknown system</i>
   <i type="logical" name="LCOMPAT"> F  </i>
  </separator>
  <separator name="electronic" >
   <i type="string" name="PREC">normal</i>
   <i name="ENMAX">    400.00000000</i>
   <i name="ENAUG">    586.98000000</i>
   <i name="EDIFF">      0.00020000</i>
   <i type="int" name="IALGO">    38</i>
   <i type="int" name="IWAVPR">    11</i>
   <i type="int" name="NBANDS">   116</i>
   <i type="int" name="NBANDSLOW">    -1</i>
   <i type="int" name="NBANDSHIGH">    -1</i>
   <i name="NELECT">    178.00000000</i>
   <i type="int" name="TURBO">     0</i>
   <i type="int" name="IRESTART">     0</i>
   <i type="int" name="NREBOOT">     0</i>
   <i type="int" name="NMIN">     0</i>
   <i name="EREF">      0.00000000</i>
   <separator name="electronic smearing" >
    <i type="int" name="ISMEAR">     1</i>
    <i name="SIGMA">      0.20000000</i>
    <i name="KSPACING">      0.50000000</i>
    <i type="logical" name="KGAMMA"> T  </i>
    <i type="logical" name="KBLOWUP"> T  </i>
   </separator>
   <separator name="electronic projectors" >
    <i type="logical" name="LREAL"> F  </i>
    <v name="ROPT">      0.00000000      0.00000000</v>
    <i type="int" name="LMAXPAW">  -100</i>
    <i type="int" name="LMAXMIX">     2</i>
    <i type="logical" name="NLSPLINE"> F  </i>
   </separator>
   <separator name="electronic startup" >
    <i type="int" name="ISTART">     0</i>
    <i type="int" name="ICHARG">     2</i>
    <i type="int" name="INIWAV">     1</i>
   </separator>
   <separator name="electronic spin" >
    <i type="int" name="ISPIN">     2</i>
    <i type="logical" name="LNONCOLLINEAR"> F  </i>
    <v name="MAGMOM">      1.00000000      1.00000000      1.00000000      1.00000000      1.00000000      1.00000000      1.00000000      1.00000000      1.00000000      1.00000000      1.00000000      1.00000000      1.00000000      1.00000000      1.00000000      1.00000000      1.00000000      1.00000000</v>
    <i name="NUPDOWN">     -1.00000000</i>
    <i type="logical" name="LSORBIT"> F  </i>
    <v name="SAXIS">      0.00000000      0.00000000      1.00000000</v>
    <i type="logical" name="LSPIRAL"> F  </i>
    <v name="QSPIRAL">      0.00000000      0.00000000      0.00000000</v>
    <i type="logical" name="LZEROZ"> F  </i>
   </separator>
   <separator name="electronic exchange-correlation" >
    <i type="logical" name="LASPH"> F  </i>
    <i type="logical" name="LMETAGGA"> F  </i>
   </separator>
   <separator name="electronic convergence" >
    <i type="int" name="NELM">    60</i>
    <i type="int" name="NELMDL">    -5</i>
    <i type="int" name="NELMIN">     2</i>
    <i name="ENINI">    400.00000000</i>
    <separator name="electronic convergence detail" >
     <i type="logical" name="LDIAG"> T  </i>
     <i type="logical" name="LSUBROT"> F  </i>
     <i name="WEIMIN">      0.00100000</i>
     <i name="EBREAK">      0.00000043</i>
     <i name="DEPER">      0.30000000</i>
     <i type="int" name="NRMM">     4</i>
     <i name="TIME">      0.40000000</i>
    </separator>
   </separator>
   <separator name="electronic mixer" >
    <i name="AMIX">      0.40000000</i>
    <i name="BMIX">      1.00000000</i>
    <i name="AMIN">      0.10000000</i>
    <i name="AMIX_MAG">      1.60000000</i>
    <i name="BMIX_MAG">      1.00000000</i>
    <separator name="electronic mixer details" >
     <i type="int" name="IMIX">     4</i>
     <i type="logical" name="MIXFIRST"> F  </i>
     <i type="int" name="MAXMIX">   -45</i>
     <i name="WC">    100.00000000</i>
     <i type="int" name="INIMIX">     1</i>
     <i type="int" name="MIXPRE">     1</i>
     <i type="int" name="MREMOVE">     5</i>
    </separator>
   </separator>
   <separator name="electronic dipolcorrection" >
    <i type="logical" name="LDIPOL"> F  </i>
    <i type="logical" name="LMONO"> F  </i>
    <i type="int" name="IDIPOL">     0</i>
    <i name="EPSILON">      1.00000000</i>
    <v name="DIPOL">   -100.00000000   -100.00000000   -100.00000000</v>
    <i name="EFIELD">      0.00000000</i>
   </separator>
  </separator>
  <separator name="grids" >
   <i type="int" name="NGX">    18</i>
   <i type="int" name="NGY">    18</i>
   <i type="int" name="NGZ">   140</i>
   <i type="int" name="NGXF">    36</i>
   <i type="int" name="NGYF">    36</i>
   <i type="int" name="NGZF">   280</i>
   <i type="logical" name="ADDGRID"> F  </i>
  </separator>
  <separator name="ionic" >
   <i type="int" name="NSW">   800</i>
   <i type="int" name="IBRION">     2</i>
   <i type="int" name="MDALGO">     0</i>
   <i type="int" name="ISIF">     2</i>
   <i name="PSTRESS">      0.00000000</i>
   <i name="EDIFFG">     -0.03000000</i>
   <i type="int" name="NFREE">     1</i>
   <i name="POTIM">      0.50000000</i>
   <i name="SMASS">     -3.00000000</i>
   <i name="SCALEE">      1.00000000</i>
  </separator>
  <separator name="ionic md" >
   <i name="TEBEG">      0.00010000</i>
   <i name="TEEND">      0.00010000</i>
   <i type="int" name="NBLOCK">     1</i>
   <i type="int" name="KBLOCK">   800</i>
   <i type="int" name="NPACO">   256</i>
   <i name="APACO">     10.00000000</i>
  </separator>
  <separator name="symmetry" >
   <i type="int" name="ISYM">     1</i>
   <i name="SYMPREC">      0.00001000</i>
  </separator>
  <separator name="dos" >
   <i type="int" name="LORBIT">     0</i>
   <v name="RWIGS">     -1.00000000     -1.00000000</v>
   <i type="int" name="NEDOS">   301</i>
   <i name="EMIN">     10.00000000</i>
   <i name="EMAX">    -10.00000000</i>
   <i name="EFERMI">      0.00000000</i>
  </separator>
  <separator name="writing" >
   <i type="int" name="NWRITE">     2</i>
   <i type="logical" name="LWAVE"> F  </i>
   <i type="logical" name="LDOWNSAMPLE"> F  </i>
   <i type="logical" name="LCHARG"> F  </i>
   <i type="logical" name="LPARD"> F  </i>
   <i type="logical" name="LVTOT"> F  </i>
   <i type="logical" name="LVHAR"> F  </i>
   <i type="logical" name="LELF"> F  </i>
   <i type="logical" name="LOPTICS"> F  </i>
   <v name="STM">      0.00000000      0.00000000      0.00000000      0.00000000      0.00000000      0.00000000      0.00000000</v>
  </separator>
  <separator name="performance" >
   <i type="int" name="NPAR">     4</i>
   <i type="int" name="NSIM">     4</i>
   <i type="int" name="NBLK">    -1</i>
   <i type="logical" name="LPLANE"> T  </i>
   <i type="logical" name="LSCALAPACK"> T  </i>
   <i type="logical" name="LSCAAWARE"> F  </i>
   <i type="logical" name="LSCALU"> F  </i>
   <i type="logical" name="LASYNC"> F  </i>
   <i type="logical" name="LORBITALREAL"> F  </i>
  </separator>
  <separator name="miscellaneous" >
   <i type="int" name="IDIOT">     3</i>
   <i type="int" name="PHON_NSTRUCT">    -1</i>
   <i type="logical" name="LMUSIC"> F  </i>
   <v name="POMASS">     63.54600000      1.00000000</v>
   <v name="DARWINR">      0.00000000      0.00000000</v>
   <v name="DARWINV">      1.00000000      1.00000000</v>
   <i type="logical" name="LCORR"> T  </i>
  </separator>
  <i type="logical" name="GGA_COMPAT"> T  </i>
  <i type="logical" name="LBERRY"> F  </i>
  <i type="int" name="ICORELEVEL">     0</i>
  <i type="logical" name="LDAU"> F  </i>
  <i type="int" name="I_CONSTRAINED_M">     0</i>
  <separator name="electronic exchange-correlation" >
   <i type="string" name="GGA">PE</i>
   <i type="int" name="VOSKOWN">     0</i>
   <i type="logical" name="LHFCALC"> F  </i>
   <i type="string" name="PRECFOCK"></i>
   <i type="logical" name="LSYMGRAD"> F  </i>
   <i type="logical" name="LHFONE"> F  </i>
   <i type="logical" name="LRHFCALC"> F  </i>
   <i type="logical" name="LTHOMAS"> F  </i>
   <i type="logical" name="LMODELHF"> F  </i>
   <i type="logical" name="LFOCKACE"> F  </i>
   <i name="ENCUT4O">     -1.00000000</i>
   <i type="int" name="EXXOEP">     0</i>
   <i type="int" name="FOURORBIT">     0</i>
   <i name="AEXX">      0.00000000</i>
   <i name="HFALPHA">      0.00000000</i>
   <i name="MCALPHA">      0.00000000</i>
   <i name="ALDAX">      1.00000000</i>
   <i name="AGGAX">      1.00000000</i>
   <i name="ALDAC">      1.00000000</i>
   <i name="AGGAC">      1.00000000</i>
   <i type="int" name="NKREDX">     1</i>
   <i type="int" name="NKREDY">     1</i>
   <i type="int" name="NKREDZ">     1</i>
   <i type="logical" name="SHIFTRED"> F  </i>
   <i type="logical" name="ODDONLY"> F  </i>
   <i type="logical" name="EVENONLY"> F  </i>
   <i type="int" name="LMAXFOCK">     0</i>
   <i type="int" name="NMAXFOCKAE">     0</i>
   <i type="logical" name="LFOCKAEDFT"> F  </i>
   <i name="HFSCREEN">      0.00000000</i>
   <i name="HFSCREENC">      0.00000000</i>
   <i type="int" name="NBANDSGWLOW">     0</i>
  </separator>
  <separator name="vdW DFT" >
   <i type="logical" name="LUSE_VDW"> F  </i>
   <i name="Zab_VDW">     -0.84910000</i>
   <i name="PARAM1">      0.12340000</i>
   <i name="PARAM2">      1.00000000</i>
   <i name="PARAM3">      0.00000000</i>
  </separator>
  <separator name="model GW" >
   <i type="int" name="MODEL_GW">     0</i>
   <i name="MODEL_EPS0">     12.16886788</i>
   <i name="MODEL_ALPHA">      1.00000000</i>
  </separator>
  <separator name="linear response parameters" >
   <i type="logical" name="LEPSILON"> F  </i>
   <i type="logical" name="LRPA"> F  </i>
   <i type="logical" name="LNABLA"> F  </i>
   <i type="logical" name="LVEL"> F  </i>
   <i name="CSHIFT">      0.10000000</i>
   <i name="OMEGAMAX">     -1.00000000</i>
   <i name="DEG_THRESHOLD">      0.00200000</i>
   <i name="RTIME">     -0.10000000</i>
   <i name="WPLASMAI">      0.00000000</i>
   <v name="DFIELD">      0.00000000      0.00000000      0.00000000</v>
   <v name="WPLASMA">      0.00000000      0.00000000      0.00000000      0.00000000      0.00000000      0.00000000      0.00000000      0.00000000      0.00000000</v>
  </separator>
  <separator name="orbital magnetization" >
   <i type="logical" name="NUCIND"> F  </i>
   <v name="MAGPOS">      0.00000000      0.00000000      0.00000000</v>
   <i type="logical" name="LNICSALL"> T  </i>
   <i type="logical" name="ORBITALMAG"> F  </i>
   <i type="logical" name="LMAGBLOCH"> F  </i>
   <i type="logical" name="LCHIMAG"> F  </i>
   <i type="logical" name="LGAUGE"> T  </i>
   <i type="int" name="MAGATOM">     0</i>
   <v name="MAGDIPOL">      0.00000000      0.00000000      0.00000000</v>
   <v name="AVECCONST">      0.00000000      0.00000000      0.00000000</v>
  </separator>
  <separator name="response functions" >
   <i type="logical" name="LFINITE_TEMPERATURE"> F  </i>
   <i type="logical" name="LADDER"> F  </i>
   <i type="logical" name="LRPAFORCE"> F  </i>
   <i type="logical" name="LFXC"> F  </i>
   <i type="logical" name="LHARTREE"> T  </i>
   <i type="int" name="IBSE">     0</i>
   <v type="int" name="KPOINT">    -1     0     0     0</v>
   <i type="logical" name="LTCTC"> F  </i>
   <i type="logical" name="LTCTE"> F  </i>
   <i type="logical" name="LTETE"> F  </i>
   <i type="logical" name="LTRIPLET"> F  </i>
   <i type="logical" name="LFXCEPS"> F  </i>
   <i type="logical" name="LFXHEG"> F  </i>
   <i type="int" name="NATURALO">     2</i>
   <i type="logical" name="LHOLEGF"> F  </i>
   <i type="logical" name="L2ORDER"> F  </i>
   <i type="logical" name="LDMP1"> F  </i>
   <i type="logical" name="LMP2LT"> F  </i>
   <i type="logical" name="LSMP2LT"> F  </i>
   <i type="logical" name="LGWLF"> F  </i>
   <i name="ENCUTGW">     -2.00000000</i>
   <i name="ENCUTGWSOFT">     -2.00000000</i>
   <i name="ENCUTLF">     -1.00000000</i>
   <i type="logical" name="LESF_SPLINES"> F  </i>
   <i type="int" name="LMAXMP2">    -1</i>
   <i name="SCISSOR">      0.00000000</i>
   <i type="int" name="NOMEGA">     0</i>
   <i type="int" name="NOMEGAR">     0</i>
   <i type="int" name="NBANDSGW">    -1</i>
   <i type="int" name="NBANDSO">    -1</i>
   <i type="int" name="NBANDSV">    -1</i>
   <i type="int" name="NELMGW">     1</i>
   <i type="int" name="NELMHF">     1</i>
   <i type="int" name="DIM">     3</i>
   <i type="int" name="IESPILON">     4</i>
   <i type="int" name="ANTIRES">     0</i>
   <i name="OMEGAMAX">    -30.00000000</i>
   <i name="OMEGAMIN">    -30.00000000</i>
   <i name="OMEGATL">   -200.00000000</i>
   <i type="int" name="OMEGAGRID">     0</i>
   <i name="CSHIFT">     -0.10000000</i>
   <i type="logical" name="LSELFENERGY"> F  </i>
   <i type="logical" name="LSPECTRAL"> F  </i>
   <i type="logical" name="LSPECTRALGW"> F  </i>
   <i type="logical" name="LSINGLES"> F  </i>
   <i type="logical" name="LFERMIGW"> F  </i>
   <i type="logical" name="ODDONLYGW"> F  </i>
   <i type="logical" name="EVENONLYGW"> F  </i>
   <i type="int" name="NKREDLFX">     1</i>
   <i type="int" name="NKREDLFY">     1</i>
   <i type="int" name="NKREDLFZ">     1</i>
   <i type="int" name="MAXMEM">  2800</i>
   <i type="int" name="TELESCOPE">     0</i>
   <i type="int" name="NTAUPAR">    -1</i>
   <i type="int" name="NOMEGAPAR">    -1</i>
   <i name="DAMP_NEWTON">      0.80000001</i>
   <i name="LAMBDA">      1.00000000</i>
  </separator>
  <separator name="External order field" >
   <i name="OFIELD_KAPPA">      0.00000000</i>
   <v name="OFIELD_K">      0.00000000      0.00000000      0.00000000</v>
   <i name="OFIELD_Q6_NEAR">      0.00000000</i>
   <i name="OFIELD_Q6_FAR">      0.00000000</i>
   <i name="OFIELD_A">      0.00000000</i>
  </separator>
  <separator name="optional k-points parameters" >
   <i type="int" name="KPOINTS_OPT_MODE">     1</i>
   <i type="logical" name="LKPOINTS_OPT"> F  </i>
  </separator>
 </parameters>
 <atominfo>
  <atoms>      18 </atoms>
  <types>       2 </types>
  <array name="atoms" >
   <dimension dim="1">ion</dimension>
   <field type="string">element</field>
   <field type="int">atomtype</field>
   <set>
    <rc><c>Cu</c><c>   1</c></rc>
    <rc><c>Cu</c><c>   1</c></rc>
    <rc><c>Cu</c><c>   1</c></rc>
    <rc><c>Cu</c><c>   1</c></rc>
    <rc><c>Cu</c><c>   1</c></rc>
    <rc><c>Cu</c><c>   1</c></rc>
    <rc><c>Cu</c><c>   1</c></rc>
    <rc><c>Cu</c><c>   1</c></rc>
    <rc><c>Cu</c><c>   1</c></rc>
    <rc><c>Cu</c><c>   1</c></rc>
    <rc><c>Cu</c><c>   1</c></rc>
    <rc><c>Cu</c><c>   1</c></rc>
    <rc><c>Cu</c><c>   1</c></rc>
    <rc><c>Cu</c><c>   1</c></rc>
    <rc><c>Cu</c><c>   1</c></rc>
    <rc><c>Cu</c><c>   1</c></rc>
    <rc><c>H </c><c>   2</c></rc>
    <rc><c>H </c><c>   2</c></rc>
   </set>
  </array>
  <array name="atomtypes" >
   <dimension dim="1">type</dimension>
   <field type="int">atomspertype</field>
   <field type="string">element</field>
   <field>mass</field>
   <field>valence</field>
   <field type="string">pseudopotential</field>
   <set>
    <rc><c>  16</c><c>Cu</c><c>     63.54600000</c><c>     11.00000000</c><c>  PAW_PBE Cu 22Jun2005                  </c></rc>
    <rc><c>   2</c><c>H </c><c>      1.00000000</c><c>      1.00000000</c><c>  PAW_PBE H 15Jun2001                   </c></rc>
   </set>
  </array>
 </atominfo>
 <structure name="initialpos" >
  <crystal>
   <varray name="basis" >
    <v>       3.63000011       0.00000000       0.00000000 </v>
    <v>       0.00000000       3.63000011       0.00000000 </v>
    <v>       0.00000000       0.00000000      27.70499992 </v>
   </varray>
   <i name="volume">    365.06603650 </i>
   <varray name="rec_basis" >
    <v>       0.27548208       0.00000000       0.00000000 </v>
    <v>       0.00000000       0.27548208       0.00000000 </v>
    <v>       0.00000000       0.00000000       0.03609457 </v>
   </varray>
  </crystal>
  <varray name="positions" >
   <v>       0.00000000       0.00000000       0.00000000 </v>
   <v>       0.50000000       0.50000000       0.00000000 </v>
   <v>       0.00000000       0.50000000       0.06551164 </v>
   <v>       0.50000000       0.00000000       0.06551164 </v>
   <v>       0.00000000       0.00000000       0.12876120 </v>
   <v>       0.50000000       0.50000000       0.12876120 </v>
   <v>       0.00000000       0.50000000       0.19193187 </v>
   <v>       0.50000000       0.00000000       0.19193187 </v>
   <v>       0.00000000       0.00000000       0.25406550 </v>
   <v>       0.50000000       0.50000000       0.25406550 </v>
   <v>       0.00000000       0.50000000       0.31747855 </v>
   <v>       0.50000000       0.00000000       0.31747855 </v>
   <v>       0.00000000       0.00000000       0.38132233 </v>
   <v>       0.50000000       0.50000000       0.38132233 </v>
   <v>       0.00000000       0.50000000       0.44440075 </v>
   <v>       0.50000000       0.00000000       0.44440075 </v>
   <v>       1.00000000       1.00000000       0.50150658 </v>
   <v>       1.00000000       0.20550964       0.50150658 </v>
  </varray>
 </structure>
 <calculation>
  <scstep>
   <time name="dav">    1.15    1.16</time>
   <time name="total">    1.19    1.20</time>
   <energy>
    <i name="alphaZ">    521.04204123 </i>
    <i name="ewald"> 102935.87109954 </i>
    <i name="hartreedc">-124844.05363236 </i>
    <i name="XCdc">    738.62709807 </i>
    <i name="pawpsdc">  19653.14859652 </i>
    <i name="pawaedc"> -21346.34030725 </i>
    <i name="eentropy">      0.01679942 </i>
    <i name="bandstr">   1732.65449498 </i>
    <i name="atom">  22280.27950853 </i>
    <i name="e_fr_energy">   1671.24569867 </i>
    <i name="e_wo_entrp">   1671.22889926 </i>
    <i name="e_0_energy">   1671.24009887 </i>
   </energy>
  </scstep>
  <scstep>
   <time name="dav">    1.12    1.14</time>
   <time name="total">    1.13    1.14</time>
   <energy>
    <i name="e_fr_energy">    199.96443367 </i>
    <i name="e_wo_entrp">    199.97222436 </i>
    <i name="e_0_energy">    199.96703056 </i>
   </energy>
  </scstep>
  <scstep>
   <time name="dav">    1.14    1.15</time>
   <time name="total">    1.14    1.15</time>
   <energy>
    <i name="e_fr_energy">    -53.36974394 </i>
    <i name="e_wo_entrp">    -53.38316160 </i>
    <i name="e_0_energy">    -53.37421649 </i>
   </energy>
  </scstep>
  <scstep>
   <time name="dav">    1.24    1.25</time>
   <time name="total">    1.24    1.25</time>
   <energy>
    <i name="e_fr_energy">    -68.96810204 </i>
    <i name="e_wo_entrp">    -68.96781096 </i>
    <i name="e_0_energy">    -68.96800501 </i>
   </energy>
  </scstep>
  <scstep>
   <time name="dav">    1.24    1.25</time>
   <time name="total">    1.35    1.36</time>
   <energy>
    <i name="e_fr_energy">    -69.31568720 </i>
    <i name="e_wo_entrp">    -69.31469025 </i>
    <i name="e_0_energy">    -69.31535488 </i>
   </energy>
  </scstep>
  <scstep>
   <time name="dav">    1.25    1.26</time>
   <time name="total">    1.38    1.39</time>
   <energy>
    <i name="e_fr_energy">    -57.68014723 </i>
    <i name="e_wo_entrp">    -57.66328008 </i>
    <i name="e_0_energy">    -57.67452485 </i>
   </energy>
  </scstep>
  <scstep>
   <time name="dav">    1.25    1.26</time>
   <time name="total">    1.38    1.39</time>
   <energy>
    <i name="e_fr_energy">    -51.74255547 </i>
    <i name="e_wo_entrp">    -51.72224776 </i>
    <i name="e_0_energy">    -51.73578623 </i>
   </energy>
  </scstep>
  <scstep>
   <time name="dav">    1.36    1.37</time>
   <time name="total">    1.49    1.50</time>
   <energy>
    <i name="e_fr_energy">    -52.28192383 </i>
    <i name="e_wo_entrp">    -52.27926577 </i>
    <i name="e_0_energy">    -52.28103781 </i>
   </energy>
  </scstep>
  <scstep>
   <time name="dav">    1.42    1.44</time>
   <time name="total">    1.56    1.57</time>
   <energy>
    <i name="e_fr_energy">    -51.33773808 </i>
    <i name="e_wo_entrp">    -51.36130518 </i>
    <i name="e_0_energy">    -51.34559378 </i>
   </energy>
  </scstep>
  <scstep>
   <time name="dav">    1.76    1.78</time>
   <time name="total">    1.89    1.90</time>
   <energy>
    <i name="e_fr_energy">    -50.29982133 </i>
    <i name="e_wo_entrp">    -50.29177683 </i>
    <i name="e_0_energy">    -50.29713983 </i>
   </energy>
  </scstep>
  <scstep>
   <time name="dav">    1.53    1.54</time>
   <time name="total">    1.67    1.68</time>
   <energy>
    <i name="e_fr_energy">    -51.74983427 </i>
    <i name="e_wo_entrp">    -51.74282965 </i>
    <i name="e_0_energy">    -51.74749940 </i>
   </energy>
  </scstep>
  <scstep>
   <time name="dav">    1.33    1.34</time>
   <time name="total">    1.47    1.48</time>
   <energy>
    <i name="e_fr_energy">    -53.79368708 </i>
    <i name="e_wo_entrp">    -53.77162388 </i>
    <i name="e_0_energy">    -53.78633268 </i>
   </energy>
  </scstep>
  <scstep>
   <time name="dav">    1.38    1.39</time>
   <time name="total">    1.51    1.53</time>
   <energy>
    <i name="e_fr_energy">    -54.69394425 </i>
    <i name="e_wo_entrp">    -54.68669979 </i>
    <i name="e_0_energy">    -54.69152943 </i>
   </energy>
  </scstep>
  <scstep>
   <time name="dav">    1.43    1.44</time>
   <time name="total">    1.56    1.57</time>
   <energy>
    <i name="e_fr_energy">    -54.98695122 </i>
    <i name="e_wo_entrp">    -54.97803590 </i>
    <i name="e_0_energy">    -54.98397945 </i>
   </energy>
  </scstep>
  <scstep>
   <time name="dav">    1.29    1.30</time>
   <time name="total">    1.42    1.43</time>
   <energy>
    <i name="e_fr_energy">    -57.05782210 </i>
    <i name="e_wo_entrp">    -57.06523397 </i>
    <i name="e_0_energy">    -57.06029272 </i>
   </energy>
  </scstep>
  <scstep>
   <time name="dav">    1.32    1.33</time>
   <time name="total">    1.46    1.47</time>
   <energy>
    <i name="e_fr_energy">    -59.76683890 </i>
    <i name="e_wo_entrp">    -59.75132331 </i>
    <i name="e_0_energy">    -59.76166704 </i>
   </energy>
  </scstep>
  <scstep>
   <time name="dav">    1.35    1.36</time>
   <time name="total">    1.48    1.49</time>
   <energy>
    <i name="e_fr_energy">    -60.22240269 </i>
    <i name="e_wo_entrp">    -60.21371946 </i>
    <i name="e_0_energy">    -60.21950828 </i>
   </energy>
  </scstep>
  <scstep>
   <time name="dav">    1.45    1.46</time>
   <time name="total">    1.58    1.59</time>
   <energy>
    <i name="e_fr_energy">    -60.52686160 </i>
    <i name="e_wo_entrp">    -60.49670345 </i>
    <i name="e_0_energy">    -60.51680888 </i>
   </energy>
  </scstep>
  <scstep>
   <time name="dav">    1.20    1.21</time>
   <time name="total">    1.33    1.34</time>
   <energy>
    <i name="e_fr_energy">    -60.76592022 </i>
    <i name="e_wo_entrp">    -60.73810879 </i>
    <i name="e_0_energy">    -60.75664974 </i>
   </energy>
  </scstep>
  <scstep>
   <time name="dav">    1.27    1.28</time>
   <time name="total">    1.40    1.41</time>
   <energy>
    <i name="e_fr_energy">    -61.11064902 </i>
    <i name="e_wo_entrp">    -61.08040504 </i>
    <i name="e_0_energy">    -61.10056769 </i>
   </energy>
  </scstep>
  <scstep>
   <time name="dav">    1.38    1.39</time>
   <time name="total">    1.51    1.52</time>
   <energy>
    <i name="e_fr_energy">    -61.39268792 </i>
    <i name="e_wo_entrp">    -61.35474324 </i>
    <i name="e_0_energy">    -61.38003970 </i>
   </energy>
  </scstep>
  <scstep>
   <time name="dav">    1.36    1.37</time>
   <time name="total">    1.50    1.51</time>
   <energy>
    <i name="e_fr_energy">    -61.59906229 </i>
    <i name="e_wo_entrp">    -61.55940693 </i>
    <i name="e_0_energy">    -61.58584384 </i>
   </energy>
  </scstep>
  <scstep>
   <time name="dav">    1.32    1.33</time>
   <time name="total">    1.45    1.46</time>
   <energy>
    <i name="e_fr_energy">    -61.84638837 </i>
    <i name="e_wo_entrp">    -61.80746607 </i>
    <i name="e_0_energy">    -61.83341427 </i>
   </energy>
  </scstep>
  <scstep>
   <time name="dav">    1.34    1.35</time>
   <time name="total">    1.47    1.48</time>
   <energy>
    <i name="e_fr_energy">    -62.03883367 </i>
    <i name="e_wo_entrp">    -62.00171396 </i>
    <i name="e_0_energy">    -62.02646043 </i>
   </energy>
  </scstep>
  <scstep>
   <time name="dav">    1.25    1.26</time>
   <time name="total">    1.38    1.40</time>
   <energy>
    <i name="e_fr_energy">    -62.20515861 </i>
    <i name="e_wo_entrp">    -62.16608293 </i>
    <i name="e_0_energy">    -62.19213338 </i>
   </energy>
  </scstep>
  <scstep>
   <time name="dav">    1.36    1.37</time>
   <time name="total">    1.49    1.51</time>
   <energy>
    <i name="e_fr_energy">    -62.37985395 </i>
    <i name="e_wo_entrp">    -62.34081899 </i>
    <i name="e_0_energy">    -62.36684230 </i>
   </energy>
  </scstep>
  <scstep>
   <time name="dav">    1.33    1.34</time>
   <time name="total">    1.46    1.47</time>
   <energy>
    <i name="e_fr_energy">    -62.46912716 </i>
    <i name="e_wo_entrp">    -62.42971542 </i>
    <i name="e_0_energy">    -62.45598991 </i>
   </energy>
  </scstep>
  <scstep>
   <time name="dav">    1.15    1.16</time>
   <time name="total">    1.29    1.30</time>
   <energy>
    <i name="e_fr_energy">    -62.52353549 </i>
    <i name="e_wo_entrp">    -62.48383090 </i>
    <i name="e_0_energy">    -62.51030062 </i>
   </energy>
  </scstep>
  <scstep>
   <time name="dav">    1.04    1.05</time>
   <time name="total">    1.18    1.19</time>
   <energy>
    <i name="e_fr_energy">    -62.54124473 </i>
    <i name="e_wo_entrp">    -62.50194461 </i>
    <i name="e_0_energy">    -62.52814469 </i>
   </energy>
  </scstep>
  <scstep>
   <time name="dav">    0.92    0.93</time>
   <time name="total">    1.06    1.07</time>
   <energy>
    <i name="e_fr_energy">    -62.54521227 </i>
    <i name="e_wo_entrp">    -62.50599567 </i>
    <i name="e_0_energy">    -62.53214007 </i>
   </energy>
  </scstep>
  <scstep>
   <time name="dav">    0.88    0.89</time>
   <time name="total">    1.02    1.03</time>
   <energy>
    <i name="e_fr_energy">    -62.54654819 </i>
    <i name="e_wo_entrp">    -62.50728570 </i>
    <i name="e_0_energy">    -62.53346069 </i>
   </energy>
  </scstep>
  <scstep>
   <time name="dav">    0.87    0.88</time>
   <time name="total">    0.90    0.91</time>
   <energy>
    <i name="alphaZ">    521.04204123 </i>
    <i name="ewald"> 102935.87109954 </i>
    <i name="hartreedc">-124622.88352360 </i>
    <i name="XCdc">    719.63790102 </i>
    <i name="pawpsdc">  21077.03413918 </i>
    <i name="pawaedc"> -22803.33901786 </i>
    <i name="eentropy">     -0.03942425 </i>
    <i name="bandstr">   -170.14946601 </i>
    <i name="atom">  22280.27950853 </i>
    <i name="e_fr_energy">    -62.54674220 </i>
    <i name="e_wo_entrp">    -62.50731796 </i>
    <i name="e_0_energy">    -62.53360079 </i>
   </energy>
  </scstep>
  <structure>
   <crystal>
    <varray name="basis" >
     <v>       3.63000011       0.00000000       0.00000000 </v>
     <v>       0.00000000       3.63000011       0.00000000 </v>
     <v>       0.00000000       0.00000000      27.70499992 </v>
    </varray>
    <i name="volume">    365.06603650 </i>
    <varray name="rec_basis" >
     <v>       0.27548208       0.00000000       0.00000000 </v>
     <v>       0.00000000       0.27548208       0.00000000 </v>
     <v>       0.00000000       0.00000000       0.03609457 </v>
    </varray>
   </crystal>
   <varray name="positions" >
    <v>       0.00000000       0.00000000       0.00000000 </v>
    <v>       0.50000000       0.50000000       0.00000000 </v>
    <v>       0.00000000       0.50000000       0.06551164 </v>
    <v>       0.50000000       0.00000000       0.06551164 </v>
    <v>       0.00000000       0.00000000       0.12876120 </v>
    <v>       0.50000000       0.50000000       0.12876120 </v>
    <v>       0.00000000       0.50000000       0.19193187 </v>
    <v>       0.50000000       0.00000000       0.19193187 </v>
    <v>       0.00000000       0.00000000       0.25406550 </v>
    <v>       0.50000000       0.50000000       0.25406550 </v>
    <v>       0.00000000       0.50000000       0.31747855 </v>
    <v>       0.50000000       0.00000000       0.31747855 </v>
    <v>       0.00000000       0.00000000       0.38132233 </v>
    <v>       0.50000000       0.50000000       0.38132233 </v>
    <v>       0.00000000       0.50000000       0.44440075 </v>
    <v>       0.50000000       0.00000000       0.44440075 </v>
    <v>       1.00000000       1.00000000       0.50150658 </v>
    <v>       1.00000000       0.20550964       0.50150658 </v>
   </varray>
  </structure>
  <varray name="forces" >
   <v>       0.00000000      -0.00339776       0.26221395 </v>
   <v>       0.00000000       0.00388319       0.24829813 </v>
   <v>       0.00000000      -0.00168416      -0.21750820 </v>
   <v>       0.00000000      -0.00063497      -0.20929440 </v>
   <v>       0.00000000       0.00972898       0.00747302 </v>
   <v>       0.00000000      -0.00817865       0.02029770 </v>
   <v>       0.00000000      -0.01073274      -0.03547509 </v>
   <v>       0.00000000       0.01550738      -0.03507732 </v>
   <v>       0.00000000      -0.02790989      -0.04023889 </v>
   <v>       0.00000000       0.02101268       0.12863426 </v>
   <v>       0.00000000      -0.00612464      -0.01488740 </v>
   <v>       0.00000000      -0.00262271       0.01296548 </v>
   <v>       0.00000000      -0.02294972      -0.18693667 </v>
   <v>       0.00000000       0.02935403       0.11272966 </v>
   <v>       0.00000000       0.12884059      -0.41141708 </v>
   <v>       0.00000000      -0.16105175      -0.41863580 </v>
   <v>       0.00000000      -1.31310101       0.26759982 </v>
   <v>       0.00000000       1.35006113       0.50925882 </v>
  </varray>
  <varray name="stress" >
   <v>     -18.93272670       0.00000000       0.00000000 </v>
   <v>       0.00000000     -14.48355157       0.37155703 </v>
   <v>       0.00000000       0.37155706      -8.09601955 </v>
  </varray>
  <energy>
   <i name="e_fr_energy">    -69.49520072 </i>
   <i name="e_wo_entrp">    -69.45577647 </i>
   <i name="e_0_energy">    -69.48205930 </i>
  </energy>
  <time name="totalsc">   46.22   46.62</time>
 </calculation>
 <calculation>
  <scstep>
   <time name="dav">    1.18    1.19</time>
   <time name="total">    1.31    1.33</time>
   <energy>
    <i name="alphaZ">    521.04204123 </i>
    <i name="ewald"> 103201.49475738 </i>
    <i name="hartreedc">-124889.72900304 </i>
    <i name="XCdc">    719.60517846 </i>
    <i name="pawpsdc">  21077.37425710 </i>
    <i name="pawaedc"> -22803.72807994 </i>
    <i name="eentropy">     -0.04143195 </i>
    <i name="bandstr">   -168.83143464 </i>
    <i name="atom">  22280.27950853 </i>
    <i name="e_fr_energy">    -62.53420686 </i>
    <i name="e_wo_entrp">    -62.49277491 </i>
    <i name="e_0_energy">    -62.52039621 </i>
   </energy>
  </scstep>
  <scstep>
   <time name="dav">    1.55    1.56</time>
   <time name="total">    1.68    1.69</time>
   <energy>
    <i name="e_fr_energy">    -62.55334608 </i>
    <i name="e_wo_entrp">    -62.51767238 </i>
    <i name="e_0_energy">    -62.54145485 </i>
   </energy>
  </scstep>
  <scstep>
   <time name="dav">    1.32    1.33</time>
   <time name="total">    1.45    1.46</time>
   <energy>
    <i name="e_fr_energy">    -62.62681312 </i>
    <i name="e_wo_entrp">    -62.60044980 </i>
    <i name="e_0_energy">    -62.61802535 </i>
   </energy>
  </scstep>
  <scstep>
   <time name="dav">    1.42    1.43</time>
   <time name="total">    1.55    1.56</time>
   <energy>
    <i name="e_fr_energy">    -62.54774361 </i>
    <i name="e_wo_entrp">    -62.50723619 </i>
    <i name="e_0_energy">    -62.53424114 </i>
   </energy>
  </scstep>
  <scstep>
   <time name="dav">    1.53    1.55</time>
   <time name="total">    1.66    1.68</time>
   <energy>
    <i name="e_fr_energy">    -62.54349777 </i>
    <i name="e_wo_entrp">    -62.50705777 </i>
    <i name="e_0_energy">    -62.53135110 </i>
   </energy>
  </scstep>
  <scstep>
   <time name="dav">    1.52    1.53</time>
   <time name="total">    1.65    1.67</time>
   <energy>
    <i name="e_fr_energy">    -62.54620081 </i>
    <i name="e_wo_entrp">    -62.49867666 </i>
    <i name="e_0_energy">    -62.53035942 </i>
   </energy>
  </scstep>
  <scstep>
   <time name="dav">    1.68    1.69</time>
   <time name="total">    1.81    1.82</time>
   <energy>
    <i name="e_fr_energy">    -62.54231468 </i>
    <i name="e_wo_entrp">    -62.50291384 </i>
    <i name="e_0_energy">    -62.52918107 </i>
   </energy>
  </scstep>
  <scstep>
   <time name="dav">    1.29    1.30</time>
   <time name="total">    1.42    1.43</time>
   <energy>
    <i name="e_fr_energy">    -62.54247575 </i>
    <i name="e_wo_entrp">    -62.50232363 </i>
    <i name="e_0_energy">    -62.52909171 </i>
   </energy>
  </scstep>
  <scstep>
   <time name="dav">    1.14    1.15</time>
   <time name="total">    1.17    1.18</time>
   <energy>
    <i name="alphaZ">    521.04204123 </i>
    <i name="ewald"> 103201.49475738 </i>
    <i name="hartreedc">-124882.02750553 </i>
    <i name="XCdc">    719.41727387 </i>
    <i name="pawpsdc">  21079.01328577 </i>
    <i name="pawaedc"> -22805.49080365 </i>
    <i name="eentropy">     -0.04001005 </i>
    <i name="bandstr">   -176.23110009 </i>
    <i name="atom">  22280.27950853 </i>
    <i name="e_fr_energy">    -62.54255254 </i>
    <i name="e_wo_entrp">    -62.50254249 </i>
    <i name="e_0_energy">    -62.52921586 </i>
   </energy>
  </scstep>
  <structure>
   <crystal>
    <varray name="basis" >
     <v>       3.63000011       0.00000000       0.00000000 </v>
     <v>       0.00000000       3.63000011       0.00000000 </v>
     <v>       0.00000000       0.00000000      27.70499992 </v>
    </varray>
    <i name="volume">    365.06603650 </i>
    <varray name="rec_basis" >
     <v>       0.27548208       0.00000000       0.00000000 </v>
     <v>       0.00000000       0.27548208       0.00000000 </v>
     <v>       0.00000000       0.00000000       0.03609457 </v>
    </varray>
   </crystal>
   <varray name="positions" >
    <v>       0.00000000      -0.00004516       0.00045659 </v>
    <v>       0.50000000       0.50005161       0.00043236 </v>
    <v>       0.00000000       0.49997762       0.06513290 </v>
    <v>       0.50000000      -0.00000844       0.06514720 </v>
    <v>       0.00000000       0.00012930       0.12877421 </v>
    <v>       0.50000000       0.49989131       0.12879654 </v>
    <v>       0.00000000       0.49985736       0.19187009 </v>
    <v>       0.50000000       0.00020609       0.19187079 </v>
    <v>       0.00000000      -0.00037092       0.25399543 </v>
    <v>       0.50000000       0.50027926       0.25428949 </v>
    <v>       0.00000000       0.49991860       0.31745263 </v>
    <v>       0.50000000      -0.00003486       0.31750113 </v>
    <v>       0.00000000      -0.00030500       0.38099681 </v>
    <v>       0.50000000       0.50039011       0.38151862 </v>
    <v>       0.00000000       0.50171229       0.44368435 </v>
    <v>       0.50000000      -0.00214038       0.44367178 </v>
    <v>       1.00000000       0.98254890       0.50197255 </v>
    <v>       1.00000000       0.22345193       0.50239335 </v>
   </varray>
  </structure>
  <varray name="forces" >
   <v>       0.00000000      -0.00272015       0.17865079 </v>
   <v>       0.00000000       0.00318591       0.16259015 </v>
   <v>       0.00000000      -0.00103803      -0.09685509 </v>
   <v>       0.00000000      -0.00105735      -0.08415914 </v>
   <v>       0.00000000       0.00469783      -0.03724689 </v>
   <v>       0.00000000      -0.00225621      -0.02843956 </v>
   <v>       0.00000000      -0.00708973      -0.02118487 </v>
   <v>       0.00000000       0.01025540      -0.01759354 </v>
   <v>       0.00000000      -0.02011758      -0.03025951 </v>
   <v>       0.00000000       0.01241376       0.07369338 </v>
   <v>       0.00000000      -0.00935175      -0.01715489 </v>
   <v>       0.00000000       0.00281242       0.02369974 </v>
   <v>       0.00000000       0.01796375      -0.19796943 </v>
   <v>       0.00000000      -0.00543882      -0.02045240 </v>
   <v>       0.00000000       0.06055618      -0.15986215 </v>
   <v>       0.00000000      -0.08252944      -0.21906618 </v>
   <v>       0.00000000       0.80231328       0.14012702 </v>
   <v>       0.00000000      -0.78259945       0.35148256 </v>
  </varray>
  <varray name="stress" >
   <v>     -17.28117078       0.00000000       0.00000000 </v>
   <v>       0.00000000     -19.96792384       0.18827725 </v>
   <v>       0.00000000       0.18827720      -7.74738232 </v>
  </varray>
  <energy>
   <i name="e_fr_energy">    -69.53119306 </i>
   <i name="e_wo_entrp">    -69.49118301 </i>
   <i name="e_0_energy">    -69.51785638 </i>
  </energy>
  <time name="totalsc">   15.60   15.78</time>
 </calculation>
 <calculation>
  <scstep>
   <time name="dav">    1.17    1.18</time>
   <time name="total">    1.30    1.31</time>
   <energy>
    <i name="alphaZ">    521.04204123 </i>
    <i name="ewald"> 103085.12518589 </i>
    <i name="hartreedc">-124764.66655722 </i>
    <i name="XCdc">    719.43149806 </i>
    <i name="pawpsdc">  21079.34043473 </i>
    <i name="pawaedc"> -22805.85693797 </i>
    <i name="eentropy">     -0.03877723 </i>
    <i name="bandstr">   -177.24165016 </i>
    <i name="atom">  22280.27950853 </i>
    <i name="e_fr_energy">    -62.58525414 </i>
    <i name="e_wo_entrp">    -62.54647691 </i>
    <i name="e_0_energy">    -62.57232839 </i>
   </energy>
  </scstep>
  <scstep>
   <time name="dav">    1.71    1.72</time>
   <time name="total">    1.84    1.86</time>
   <energy>
    <i name="e_fr_energy">    -62.59236653 </i>
    <i name="e_wo_entrp">    -62.54975336 </i>
    <i name="e_0_energy">    -62.57816214 </i>
   </energy>
  </scstep>
  <scstep>
   <time name="dav">    1.61    1.62</time>
   <time name="total">    1.74    1.76</time>
   <energy>
    <i name="e_fr_energy">    -62.59329172 </i>
    <i name="e_wo_entrp">    -62.55427230 </i>
    <i name="e_0_energy">    -62.58028524 </i>
   </energy>
  </scstep>
  <scstep>
   <time name="dav">    1.33    1.34</time>
   <time name="total">    1.47    1.48</time>
   <energy>
    <i name="e_fr_energy">    -62.59249641 </i>
    <i name="e_wo_entrp">    -62.55950874 </i>
    <i name="e_0_energy">    -62.58150052 </i>
   </energy>
  </scstep>
  <scstep>
   <time name="dav">    1.32    1.33</time>
   <time name="total">    1.46    1.47</time>
   <energy>
    <i name="e_fr_energy">    -62.58896093 </i>
    <i name="e_wo_entrp">    -62.54772574 </i>
    <i name="e_0_energy">    -62.57521587 </i>
   </energy>
  </scstep>
  <scstep>
   <time name="dav">    1.27    1.28</time>
   <time name="total">    1.41    1.42</time>
   <energy>
    <i name="e_fr_energy">    -62.58879620 </i>
    <i name="e_wo_entrp">    -62.54955295 </i>
    <i name="e_0_energy">    -62.57571512 </i>
   </energy>
  </scstep>
  <scstep>
   <time name="dav">    1.17    1.18</time>
   <time name="total">    1.20    1.21</time>
   <energy>
    <i name="alphaZ">    521.04204123 </i>
    <i name="ewald"> 103085.12518589 </i>
    <i name="hartreedc">-124767.17416306 </i>
    <i name="XCdc">    719.50650072 </i>
    <i name="pawpsdc">  21078.50513955 </i>
    <i name="pawaedc"> -22804.98195759 </i>
    <i name="eentropy">     -0.03991003 </i>
    <i name="bandstr">   -174.85110336 </i>
    <i name="atom">  22280.27950853 </i>
    <i name="e_fr_energy">    -62.58875812 </i>
    <i name="e_wo_entrp">    -62.54884809 </i>
    <i name="e_0_energy">    -62.57545478 </i>
   </energy>
  </scstep>
  <structure>
   <crystal>
    <varray name="basis" >
     <v>       3.63000011       0.00000000       0.00000000 </v>
     <v>       0.00000000       3.63000011       0.00000000 </v>
     <v>       0.00000000       0.00000000      27.70499992 </v>
    </varray>
    <i name="volume">    365.06603650 </i>
    <varray name="rec_basis" >
     <v>       0.27548208       0.00000000       0.00000000 </v>
     <v>       0.00000000       0.27548208       0.00000000 </v>
     <v>       0.00000000       0.00000000       0.03609457 </v>
    </varray>
   </crystal>
   <varray name="positions" >
    <v>       0.00000000      -0.00002541       0.00025695 </v>
    <v>       0.50000000       0.50002904       0.00024332 </v>
    <v>       0.00000000       0.49998740       0.06529850 </v>
    <v>       0.50000000      -0.00000475       0.06530654 </v>
    <v>       0.00000000       0.00007276       0.12876852 </v>
    <v>       0.50000000       0.49993883       0.12878109 </v>
    <v>       0.00000000       0.49991973       0.19189710 </v>
    <v>       0.50000000       0.00011598       0.19189749 </v>
    <v>       0.00000000      -0.00020874       0.25402607 </v>
    <v>       0.50000000       0.50015716       0.25419156 </v>
    <v>       0.00000000       0.49995419       0.31746396 </v>
    <v>       0.50000000      -0.00001962       0.31749126 </v>
    <v>       0.00000000      -0.00017164       0.38113914 </v>
    <v>       0.50000000       0.50021954       0.38143279 </v>
    <v>       0.00000000       0.50096362       0.44399758 </v>
    <v>       0.50000000      -0.00120453       0.44399051 </v>
    <v>       1.00000000       0.99017911       0.50176881 </v>
    <v>       1.00000000       0.21560696       0.50200562 </v>
   </varray>
  </structure>
  <varray name="forces" >
   <v>       0.00000000      -0.00299965       0.21169188 </v>
   <v>       0.00000000       0.00322090       0.19648144 </v>
   <v>       0.00000000      -0.00119974      -0.15156407 </v>
   <v>       0.00000000      -0.00110960      -0.14137131 </v>
   <v>       0.00000000       0.00706595      -0.01902886 </v>
   <v>       0.00000000      -0.00511899      -0.00807155 </v>
   <v>       0.00000000      -0.00901222      -0.02750014 </v>
   <v>       0.00000000       0.01323156      -0.02494149 </v>
   <v>       0.00000000      -0.02455442      -0.03399235 </v>
   <v>       0.00000000       0.01681637       0.10343661 </v>
   <v>       0.00000000      -0.00866298      -0.00822891 </v>
   <v>       0.00000000       0.00073219       0.02647106 </v>
   <v>       0.00000000      -0.00127948      -0.19238375 </v>
   <v>       0.00000000       0.01108835       0.04386305 </v>
   <v>       0.00000000       0.07244292      -0.25783909 </v>
   <v>       0.00000000      -0.11701611      -0.30451319 </v>
   <v>       0.00000000       0.30966856       0.18641218 </v>
   <v>       0.00000000      -0.26331361       0.40107849 </v>
  </varray>
  <varray name="stress" >
   <v>     -19.54128286       0.00000000       0.00000000 </v>
   <v>       0.00000000     -20.39267301       0.37994149 </v>
   <v>       0.00000000       0.37994151      -9.48817611 </v>
  </varray>
  <energy>
   <i name="e_fr_energy">    -69.54859854 </i>
   <i name="e_wo_entrp">    -69.50868851 </i>
   <i name="e_0_energy">    -69.53529520 </i>
  </energy>
  <time name="totalsc">   12.32   12.45</time>
 </calculation>
 <calculation>
  <scstep>
   <time name="dav">    1.20    1.21</time>
   <time name="total">    1.34    1.35</time>
   <energy>
    <i name="alphaZ">    521.04204123 </i>
    <i name="ewald"> 103313.81884989 </i>
    <i name="hartreedc">-124995.50361829 </i>
    <i name="XCdc">    719.56417531 </i>
    <i name="pawpsdc">  21078.48213981 </i>
    <i name="pawaedc"> -22804.94560913 </i>
    <i name="eentropy">     -0.03994933 </i>
    <i name="bandstr">   -175.29761444 </i>
    <i name="atom">  22280.27950853 </i>
    <i name="e_fr_energy">    -62.60007643 </i>
    <i name="e_wo_entrp">    -62.56012710 </i>
    <i name="e_0_energy">    -62.58675998 </i>
   </energy>
  </scstep>
  <scstep>
   <time name="dav">    1.46    1.48</time>
   <time name="total">    1.60    1.61</time>
   <energy>
    <i name="e_fr_energy">    -62.61122436 </i>
    <i name="e_wo_entrp">    -62.57100643 </i>
    <i name="e_0_energy">    -62.59781838 </i>
   </energy>
  </scstep>
  <scstep>
   <time name="dav">    1.30    1.31</time>
   <time name="total">    1.44    1.45</time>
   <energy>
    <i name="e_fr_energy">    -62.61293972 </i>
    <i name="e_wo_entrp">    -62.57469002 </i>
    <i name="e_0_energy">    -62.60018982 </i>
   </energy>
  </scstep>
  <scstep>
   <time name="dav">    1.22    1.23</time>
   <time name="total">    1.35    1.36</time>
   <energy>
    <i name="e_fr_energy">    -62.61099027 </i>
    <i name="e_wo_entrp">    -62.57191702 </i>
    <i name="e_0_energy">    -62.59796585 </i>
   </energy>
  </scstep>
  <scstep>
   <time name="dav">    0.97    0.97</time>
   <time name="total">    1.10    1.11</time>
   <energy>
    <i name="e_fr_energy">    -62.61078487 </i>
    <i name="e_wo_entrp">    -62.56924171 </i>
    <i name="e_0_energy">    -62.59693715 </i>
   </energy>
  </scstep>
  <scstep>
   <time name="dav">    1.13    1.14</time>
   <time name="total">    1.17    1.18</time>
   <energy>
    <i name="alphaZ">    521.04204123 </i>
    <i name="ewald"> 103313.81884989 </i>
    <i name="hartreedc">-124994.88982320 </i>
    <i name="XCdc">    719.55883429 </i>
    <i name="pawpsdc">  21085.55354646 </i>
    <i name="pawaedc"> -22812.08563802 </i>
    <i name="eentropy">     -0.03787541 </i>
    <i name="bandstr">   -175.85024129 </i>
    <i name="atom">  22280.27950853 </i>
    <i name="e_fr_energy">    -62.61079752 </i>
    <i name="e_wo_entrp">    -62.57292211 </i>
    <i name="e_0_energy">    -62.59817238 </i>
   </energy>
  </scstep>
  <structure>
   <crystal>
    <varray name="basis" >
     <v>       3.63000011       0.00000000       0.00000000 </v>
     <v>       0.00000000       3.63000011       0.00000000 </v>
     <v>       0.00000000       0.00000000      27.70499992 </v>
    </varray>
    <i name="volume">    365.06603650 </i>
    <varray name="rec_basis" >
     <v>       0.27548208       0.00000000       0.00000000 </v>
     <v>       0.00000000       0.27548208       0.00000000 </v>
     <v>       0.00000000       0.00000000       0.03609457 </v>
    </varray>
   </crystal>
   <varray name="positions" >
    <v>       0.00000000      -0.00006848       0.00066098 </v>
    <v>       0.50000000       0.50007575       0.00061959 </v>
    <v>       0.00000000       0.49996954       0.06500155 </v>
    <v>       0.50000000      -0.00001946       0.06502791 </v>
    <v>       0.00000000       0.00017761       0.12874021 </v>
    <v>       0.50000000       0.49986065       0.12877350 </v>
    <v>       0.00000000       0.49978930       0.19184425 </v>
    <v>       0.50000000       0.00030698       0.19184881 </v>
    <v>       0.00000000      -0.00056149       0.25396168 </v>
    <v>       0.50000000       0.50040247       0.25438910 </v>
    <v>       0.00000000       0.49983707       0.31744705 </v>
    <v>       0.50000000      -0.00001590       0.31753667 </v>
    <v>       0.00000000      -0.00023235       0.38078521 </v>
    <v>       0.50000000       0.50041182       0.38153157 </v>
    <v>       0.00000000       0.50209586       0.44348174 </v>
    <v>       0.50000000      -0.00294077       0.44339864 </v>
    <v>       1.00000000       0.99134939       0.50213406 </v>
    <v>       1.00000000       0.21507163       0.50277432 </v>
   </varray>
  </structure>
  <varray name="forces" >
   <v>       0.00000000      -0.00140996       0.11329759 </v>
   <v>       0.00000000       0.00073859       0.10670952 </v>
   <v>       0.00000000      -0.00015459      -0.04580908 </v>
   <v>       0.00000000      -0.00228845      -0.04047134 </v>
   <v>       0.00000000      -0.00026482      -0.04822132 </v>
   <v>       0.00000000       0.00099202      -0.04783788 </v>
   <v>       0.00000000      -0.00439633      -0.00886707 </v>
   <v>       0.00000000       0.00516168      -0.00820664 </v>
   <v>       0.00000000      -0.00790398      -0.02172921 </v>
   <v>       0.00000000       0.00245726       0.03084847 </v>
   <v>       0.00000000      -0.00899965      -0.01666117 </v>
   <v>       0.00000000       0.00329261      -0.00298291 </v>
   <v>       0.00000000       0.01557813      -0.15612569 </v>
   <v>       0.00000000      -0.01522548      -0.05525406 </v>
   <v>       0.00000000       0.00249891      -0.17772637 </v>
   <v>       0.00000000      -0.04650358      -0.21699433 </v>
   <v>       0.00000000       0.32177136       0.21120613 </v>
   <v>       0.00000000      -0.26534373       0.38482538 </v>
  </varray>
  <varray name="stress" >
   <v>     -14.09675532       0.00000000       0.00000000 </v>
   <v>       0.00000000     -15.01113006       0.49471235 </v>
   <v>       0.00000000       0.49471245      -2.87542568 </v>
  </varray>
  <energy>
   <i name="e_fr_energy">    -69.57770630 </i>
   <i name="e_wo_entrp">    -69.53983089 </i>
   <i name="e_0_energy">    -69.56508116 </i>
  </energy>
  <time name="totalsc">    9.89    9.99</time>
 </calculation>
 <calculation>
  <scstep>
   <time name="dav">    1.18    1.19</time>
   <time name="total">    1.32    1.33</time>
   <energy>
    <i name="alphaZ">    521.04204123 </i>
    <i name="ewald"> 103968.27742051 </i>
    <i name="hartreedc">-125648.38077834 </i>
    <i name="XCdc">    719.75666949 </i>
    <i name="pawpsdc">  21087.54263178 </i>
    <i name="pawaedc"> -22814.17738480 </i>
    <i name="eentropy">     -0.04092256 </i>
    <i name="bandstr">   -176.83972225 </i>
    <i name="atom">  22280.27950853 </i>
    <i name="e_fr_energy">    -62.54053641 </i>
    <i name="e_wo_entrp">    -62.49961385 </i>
    <i name="e_0_energy">    -62.52689556 </i>
   </energy>
  </scstep>
  <scstep>
   <time name="dav">    1.49    1.51</time>
   <time name="total">    1.63    1.64</time>
   <energy>
    <i name="e_fr_energy">    -62.64925360 </i>
    <i name="e_wo_entrp">    -62.60670587 </i>
    <i name="e_0_energy">    -62.63507103 </i>
   </energy>
  </scstep>
  <scstep>
   <time name="dav">    1.37    1.38</time>
   <time name="total">    1.50    1.51</time>
   <energy>
    <i name="e_fr_energy">    -62.67599834 </i>
    <i name="e_wo_entrp">    -62.64845385 </i>
    <i name="e_0_energy">    -62.66681685 </i>
   </energy>
  </scstep>
  <scstep>
   <time name="dav">    1.33    1.34</time>
   <time name="total">    1.46    1.48</time>
   <energy>
    <i name="e_fr_energy">    -62.64102931 </i>
    <i name="e_wo_entrp">    -62.60457728 </i>
    <i name="e_0_energy">    -62.62887864 </i>
   </energy>
  </scstep>
  <scstep>
   <time name="dav">    1.58    1.59</time>
   <time name="total">    1.71    1.73</time>
   <energy>
    <i name="e_fr_energy">    -62.63946898 </i>
    <i name="e_wo_entrp">    -62.59336808 </i>
    <i name="e_0_energy">    -62.62410201 </i>
   </energy>
  </scstep>
  <scstep>
   <time name="dav">    1.37    1.38</time>
   <time name="total">    1.50    1.52</time>
   <energy>
    <i name="e_fr_energy">    -62.63823886 </i>
    <i name="e_wo_entrp">    -62.60080777 </i>
    <i name="e_0_energy">    -62.62576183 </i>
   </energy>
  </scstep>
  <scstep>
   <time name="dav">    1.40    1.41</time>
   <time name="total">    1.53    1.55</time>
   <energy>
    <i name="e_fr_energy">    -62.63635556 </i>
    <i name="e_wo_entrp">    -62.59585480 </i>
    <i name="e_0_energy">    -62.62285531 </i>
   </energy>
  </scstep>
  <scstep>
   <time name="dav">    1.26    1.27</time>
   <time name="total">    1.39    1.40</time>
   <energy>
    <i name="e_fr_energy">    -62.63651806 </i>
    <i name="e_wo_entrp">    -62.59561991 </i>
    <i name="e_0_energy">    -62.62288534 </i>
   </energy>
  </scstep>
  <scstep>
   <time name="dav">    1.20    1.21</time>
   <time name="total">    1.23    1.24</time>
   <energy>
    <i name="alphaZ">    521.04204123 </i>
    <i name="ewald"> 103968.27742051 </i>
    <i name="hartreedc">-125648.07219726 </i>
    <i name="XCdc">    719.72213451 </i>
    <i name="pawpsdc">  21119.48624331 </i>
    <i name="pawaedc"> -22846.73897697 </i>
    <i name="eentropy">     -0.04099640 </i>
    <i name="bandstr">   -176.59153349 </i>
    <i name="atom">  22280.27950853 </i>
    <i name="e_fr_energy">    -62.63635604 </i>
    <i name="e_wo_entrp">    -62.59535964 </i>
    <i name="e_0_energy">    -62.62269057 </i>
   </energy>
  </scstep>
  <structure>
   <crystal>
    <varray name="basis" >
     <v>       3.63000011       0.00000000       0.00000000 </v>
     <v>       0.00000000       3.63000011       0.00000000 </v>
     <v>       0.00000000       0.00000000      27.70499992 </v>
    </varray>
    <i name="volume">    365.06603650 </i>
    <varray name="rec_basis" >
     <v>       0.27548208       0.00000000       0.00000000 </v>
     <v>       0.00000000       0.27548208       0.00000000 </v>
     <v>       0.00000000       0.00000000       0.03609457 </v>
    </varray>
   </crystal>
   <varray name="positions" >
    <v>       0.00000000      -0.00019110       0.00181122 </v>
    <v>       0.50000000       0.50020873       0.00169079 </v>
    <v>       0.00000000       0.49991867       0.06415615 </v>
    <v>       0.50000000      -0.00006133       0.06423466 </v>
    <v>       0.00000000       0.00047611       0.12865962 </v>
    <v>       0.50000000       0.49963806       0.12875189 </v>
    <v>       0.00000000       0.49941797       0.19169379 </v>
    <v>       0.50000000       0.00085075       0.19171022 </v>
    <v>       0.00000000      -0.00156572       0.25377835 </v>
    <v>       0.50000000       0.50110087       0.25495151 </v>
    <v>       0.00000000       0.49950363       0.31739889 </v>
    <v>       0.50000000      -0.00000532       0.31766594 </v>
    <v>       0.00000000      -0.00040516       0.37977761 </v>
    <v>       0.50000000       0.50095920       0.38181279 </v>
    <v>       0.00000000       0.50531928       0.44201316 </v>
    <v>       0.50000000      -0.00788372       0.44171361 </v>
    <v>       1.00000000       0.99468111       0.50317389 </v>
    <v>       1.00000000       0.21354758       0.50496275 </v>
   </varray>
  </structure>
  <varray name="forces" >
   <v>       0.00000000       0.00378315      -0.06251539 </v>
   <v>       0.00000000      -0.00406550      -0.05223827 </v>
   <v>       0.00000000       0.00333486       0.23471398 </v>
   <v>       0.00000000      -0.00367903       0.22610062 </v>
   <v>       0.00000000      -0.01560513      -0.11915282 </v>
   <v>       0.00000000       0.01622272      -0.14204176 </v>
   <v>       0.00000000       0.00425018       0.03681419 </v>
   <v>       0.00000000      -0.00669818       0.03537252 </v>
   <v>       0.00000000       0.02269841       0.00403135 </v>
   <v>       0.00000000      -0.02161121      -0.09899506 </v>
   <v>       0.00000000      -0.01357692      -0.02624557 </v>
   <v>       0.00000000       0.01186345      -0.05531649 </v>
   <v>       0.00000000       0.06309548      -0.11134041 </v>
   <v>       0.00000000      -0.09547648      -0.31358801 </v>
   <v>       0.00000000      -0.14089862      -0.05606876 </v>
   <v>       0.00000000       0.10062557      -0.07734019 </v>
   <v>       0.00000000       0.25048102       0.24098687 </v>
   <v>       0.00000000      -0.17474377       0.33682321 </v>
  </varray>
  <varray name="stress" >
   <v>     -17.05798040       0.00000000       0.00000000 </v>
   <v>       0.00000000     -17.66108007       0.80731220 </v>
   <v>       0.00000000       0.80731214      -4.33470887 </v>
  </varray>
  <energy>
   <i name="e_fr_energy">    -69.62396501 </i>
   <i name="e_wo_entrp">    -69.58296861 </i>
   <i name="e_0_energy">    -69.61029955 </i>
  </energy>
  <time name="totalsc">   15.18   15.37</time>
 </calculation>
 <calculation>
  <scstep>
   <time name="dav">    1.17    1.18</time>
   <time name="total">    1.31    1.32</time>
   <energy>
    <i name="alphaZ">    521.04204123 </i>
    <i name="ewald"> 104219.69748192 </i>
    <i name="hartreedc">-125898.87338907 </i>
    <i name="XCdc">    719.79858164 </i>
    <i name="pawpsdc">  21119.45931172 </i>
    <i name="pawaedc"> -22846.67884302 </i>
    <i name="eentropy">     -0.04170313 </i>
    <i name="bandstr">   -177.30161591 </i>
    <i name="atom">  22280.27950853 </i>
    <i name="e_fr_energy">    -62.61862608 </i>
    <i name="e_wo_entrp">    -62.57692294 </i>
    <i name="e_0_energy">    -62.60472503 </i>
   </energy>
  </scstep>
  <scstep>
   <time name="dav">    1.52    1.53</time>
   <time name="total">    1.65    1.66</time>
   <energy>
    <i name="e_fr_energy">    -62.63427140 </i>
    <i name="e_wo_entrp">    -62.59286512 </i>
    <i name="e_0_energy">    -62.62046931 </i>
   </energy>
  </scstep>
  <scstep>
   <time name="dav">    1.29    1.30</time>
   <time name="total">    1.42    1.43</time>
   <energy>
    <i name="e_fr_energy">    -62.63518571 </i>
    <i name="e_wo_entrp">    -62.59565392 </i>
    <i name="e_0_energy">    -62.62200845 </i>
   </energy>
  </scstep>
  <scstep>
   <time name="dav">    1.24    1.25</time>
   <time name="total">    1.37    1.38</time>
   <energy>
    <i name="e_fr_energy">    -62.63169436 </i>
    <i name="e_wo_entrp">    -62.59091853 </i>
    <i name="e_0_energy">    -62.61810242 </i>
   </energy>
  </scstep>
  <scstep>
   <time name="dav">    1.31    1.32</time>
   <time name="total">    1.44    1.45</time>
   <energy>
    <i name="e_fr_energy">    -62.63177801 </i>
    <i name="e_wo_entrp">    -62.58846542 </i>
    <i name="e_0_energy">    -62.61734048 </i>
   </energy>
  </scstep>
  <scstep>
   <time name="dav">    1.22    1.23</time>
   <time name="total">    1.36    1.37</time>
   <energy>
    <i name="e_fr_energy">    -62.63188720 </i>
    <i name="e_wo_entrp">    -62.59247694 </i>
    <i name="e_0_energy">    -62.61875045 </i>
   </energy>
  </scstep>
  <scstep>
   <time name="dav">    1.21    1.22</time>
   <time name="total">    1.34    1.35</time>
   <energy>
    <i name="e_fr_energy">    -62.63151572 </i>
    <i name="e_wo_entrp">    -62.58989806 </i>
    <i name="e_0_energy">    -62.61764316 </i>
   </energy>
  </scstep>
  <scstep>
   <time name="dav">    0.88    0.89</time>
   <time name="total">    0.92    0.92</time>
   <energy>
    <i name="alphaZ">    521.04204123 </i>
    <i name="ewald"> 104219.69748192 </i>
    <i name="hartreedc">-125898.49751957 </i>
    <i name="XCdc">    719.78426941 </i>
    <i name="pawpsdc">  21132.94566053 </i>
    <i name="pawaedc"> -22860.37896669 </i>
    <i name="eentropy">     -0.04151941 </i>
    <i name="bandstr">   -177.46249460 </i>
    <i name="atom">  22280.27950853 </i>
    <i name="e_fr_energy">    -62.63153864 </i>
    <i name="e_wo_entrp">    -62.59001923 </i>
    <i name="e_0_energy">    -62.61769883 </i>
   </energy>
  </scstep>
  <structure>
   <crystal>
    <varray name="basis" >
     <v>       3.63000011       0.00000000       0.00000000 </v>
     <v>       0.00000000       3.63000011       0.00000000 </v>
     <v>       0.00000000       0.00000000      27.70499992 </v>
    </varray>
    <i name="volume">    365.06603650 </i>
    <varray name="rec_basis" >
     <v>       0.27548208       0.00000000       0.00000000 </v>
     <v>       0.00000000       0.27548208       0.00000000 </v>
     <v>       0.00000000       0.00000000       0.03609457 </v>
    </varray>
   </crystal>
   <varray name="positions" >
    <v>       0.00000000      -0.00023796       0.00225081 </v>
    <v>       0.50000000       0.50025954       0.00210018 </v>
    <v>       0.00000000       0.49989924       0.06383306 </v>
    <v>       0.50000000      -0.00007733       0.06393150 </v>
    <v>       0.00000000       0.00059019       0.12862881 </v>
    <v>       0.50000000       0.49955299       0.12874363 </v>
    <v>       0.00000000       0.49927606       0.19163629 </v>
    <v>       0.50000000       0.00105857       0.19165725 </v>
    <v>       0.00000000      -0.00194951       0.25370828 </v>
    <v>       0.50000000       0.50136779       0.25516644 </v>
    <v>       0.00000000       0.49937620       0.31738048 </v>
    <v>       0.50000000      -0.00000128       0.31771535 </v>
    <v>       0.00000000      -0.00047121       0.37939253 </v>
    <v>       0.50000000       0.50116840       0.38192027 </v>
    <v>       0.00000000       0.50655120       0.44145191 </v>
    <v>       0.50000000      -0.00977280       0.44106964 </v>
    <v>       1.00000000       0.99595441       0.50357129 </v>
    <v>       1.00000000       0.21296513       0.50579911 </v>
   </varray>
  </structure>
  <varray name="forces" >
   <v>       0.00000000       0.00537941      -0.15453135 </v>
   <v>       0.00000000      -0.00625517      -0.13473661 </v>
   <v>       0.00000000       0.00399870       0.34958578 </v>
   <v>       0.00000000      -0.00368403       0.33716854 </v>
   <v>       0.00000000      -0.02230710      -0.14793240 </v>
   <v>       0.00000000       0.02245624      -0.17867900 </v>
   <v>       0.00000000       0.00804102       0.05515840 </v>
   <v>       0.00000000      -0.01228070       0.05292702 </v>
   <v>       0.00000000       0.03594916       0.01530750 </v>
   <v>       0.00000000      -0.03273179      -0.15338199 </v>
   <v>       0.00000000      -0.01503900      -0.03102566 </v>
   <v>       0.00000000       0.01540188      -0.07831398 </v>
   <v>       0.00000000       0.08390470      -0.08502258 </v>
   <v>       0.00000000      -0.13674673      -0.42729300 </v>
   <v>       0.00000000      -0.19319108       0.00493535 </v>
   <v>       0.00000000       0.16914176       0.00157787 </v>
   <v>       0.00000000       0.21490005       0.24757245 </v>
   <v>       0.00000000      -0.13693733       0.32668367 </v>
  </varray>
  <varray name="stress" >
   <v>     -12.59292776       0.00000000       0.00000000 </v>
   <v>       0.00000000     -13.04738823       0.94877948 </v>
   <v>       0.00000000       0.94877940       0.79209522 </v>
  </varray>
  <energy>
   <i name="e_fr_energy">    -69.62716449 </i>
   <i name="e_wo_entrp">    -69.58564508 </i>
   <i name="e_0_energy">    -69.61332469 </i>
  </energy>
  <time name="totalsc">   12.70   12.85</time>
 </calculation>
 <calculation>
  <scstep>
   <time name="dav">    1.15    1.15</time>
   <time name="total">    1.28    1.29</time>
   <energy>
    <i name="alphaZ">    521.04204123 </i>
    <i name="ewald"> 104514.65161265 </i>
    <i name="hartreedc">-126193.26212481 </i>
    <i name="XCdc">    719.82862099 </i>
    <i name="pawpsdc">  21133.08902674 </i>
    <i name="pawaedc"> -22860.52380601 </i>
    <i name="eentropy">     -0.04182040 </i>
    <i name="bandstr">   -177.70326296 </i>
    <i name="atom">  22280.27950853 </i>
    <i name="e_fr_energy">    -62.64020403 </i>
    <i name="e_wo_entrp">    -62.59838364 </i>
    <i name="e_0_energy">    -62.62626390 </i>
   </energy>
  </scstep>
  <scstep>
   <time name="dav">    1.46    1.47</time>
   <time name="total">    1.59    1.60</time>
   <energy>
    <i name="e_fr_energy">    -62.65114736 </i>
    <i name="e_wo_entrp">    -62.60724642 </i>
    <i name="e_0_energy">    -62.63651371 </i>
   </energy>
  </scstep>
  <scstep>
   <time name="dav">    1.27    1.28</time>
   <time name="total">    1.40    1.41</time>
   <energy>
    <i name="e_fr_energy">    -62.65151242 </i>
    <i name="e_wo_entrp">    -62.61210547 </i>
    <i name="e_0_energy">    -62.63837677 </i>
   </energy>
  </scstep>
  <scstep>
   <time name="dav">    1.29    1.30</time>
   <time name="total">    1.43    1.44</time>
   <energy>
    <i name="e_fr_energy">    -62.65286922 </i>
    <i name="e_wo_entrp">    -62.61293425 </i>
    <i name="e_0_energy">    -62.63955757 </i>
   </energy>
  </scstep>
  <scstep>
   <time name="dav">    1.21    1.22</time>
   <time name="total">    1.35    1.36</time>
   <energy>
    <i name="e_fr_energy">    -62.65084147 </i>
    <i name="e_wo_entrp">    -62.60590853 </i>
    <i name="e_0_energy">    -62.63586383 </i>
   </energy>
  </scstep>
  <scstep>
   <time name="dav">    1.17    1.18</time>
   <time name="total">    1.31    1.32</time>
   <energy>
    <i name="e_fr_energy">    -62.65048091 </i>
    <i name="e_wo_entrp">    -62.60967764 </i>
    <i name="e_0_energy">    -62.63687982 </i>
   </energy>
  </scstep>
  <scstep>
   <time name="dav">    1.15    1.15</time>
   <time name="total">    1.28    1.29</time>
   <energy>
    <i name="e_fr_energy">    -62.65019986 </i>
    <i name="e_wo_entrp">    -62.60815959 </i>
    <i name="e_0_energy">    -62.63618644 </i>
   </energy>
  </scstep>
  <scstep>
   <time name="dav">    0.92    0.93</time>
   <time name="total">    0.96    0.97</time>
   <energy>
    <i name="alphaZ">    521.04204123 </i>
    <i name="ewald"> 104514.65161265 </i>
    <i name="hartreedc">-126193.36723548 </i>
    <i name="XCdc">    719.84776447 </i>
    <i name="pawpsdc">  21141.10953854 </i>
    <i name="pawaedc"> -22868.65049772 </i>
    <i name="eentropy">     -0.04222126 </i>
    <i name="bandstr">   -177.52070513 </i>
    <i name="atom">  22280.27950853 </i>
    <i name="e_fr_energy">    -62.65019416 </i>
    <i name="e_wo_entrp">    -62.60797291 </i>
    <i name="e_0_energy">    -62.63612041 </i>
   </energy>
  </scstep>
  <structure>
   <crystal>
    <varray name="basis" >
     <v>       3.63000011       0.00000000       0.00000000 </v>
     <v>       0.00000000       3.63000011       0.00000000 </v>
     <v>       0.00000000       0.00000000      27.70499992 </v>
    </varray>
    <i name="volume">    365.06603650 </i>
    <varray name="rec_basis" >
     <v>       0.27548208       0.00000000       0.00000000 </v>
     <v>       0.00000000       0.27548208       0.00000000 </v>
     <v>       0.00000000       0.00000000       0.03609457 </v>
    </varray>
   </crystal>
   <varray name="positions" >
    <v>       0.00000000      -0.00022555       0.00242063 </v>
    <v>       0.50000000       0.50024210       0.00226972 </v>
    <v>       0.00000000       0.49992112       0.06400116 </v>
    <v>       0.50000000      -0.00012539       0.06410058 </v>
    <v>       0.00000000       0.00047273       0.12841988 </v>
    <v>       0.50000000       0.49969573       0.12851508 </v>
    <v>       0.00000000       0.49923549       0.19165745 </v>
    <v>       0.50000000       0.00111319       0.19167937 </v>
    <v>       0.00000000      -0.00192470       0.25366965 </v>
    <v>       0.50000000       0.50127730       0.25515289 </v>
    <v>       0.00000000       0.49912892       0.31732684 </v>
    <v>       0.50000000       0.00014794       0.31765879 </v>
    <v>       0.00000000       0.00026924       0.37897024 </v>
    <v>       0.50000000       0.50004517       0.38147837 </v>
    <v>       0.00000000       0.50573460       0.44099635 </v>
    <v>       0.50000000      -0.00972458       0.44054186 </v>
    <v>       1.00000000       0.99903743       0.50420545 </v>
    <v>       1.00000000       0.21118889       0.50689255 </v>
   </varray>
  </structure>
  <varray name="forces" >
   <v>       0.00000000       0.00528873      -0.16192310 </v>
   <v>       0.00000000      -0.00713821      -0.14026811 </v>
   <v>       0.00000000       0.00156928       0.29336554 </v>
   <v>       0.00000000      -0.00096643       0.27764570 </v>
   <v>       0.00000000      -0.01782073      -0.06645911 </v>
   <v>       0.00000000       0.01635490      -0.09350491 </v>
   <v>       0.00000000       0.00838566       0.02306782 </v>
   <v>       0.00000000      -0.01385260       0.01977165 </v>
   <v>       0.00000000       0.03078571       0.02174288 </v>
   <v>       0.00000000      -0.02702645      -0.15652843 </v>
   <v>       0.00000000       0.00252920      -0.06973826 </v>
   <v>       0.00000000      -0.00202849      -0.11879056 </v>
   <v>       0.00000000       0.03530411      -0.03007467 </v>
   <v>       0.00000000      -0.08877844      -0.37574261 </v>
   <v>       0.00000000      -0.16619167      -0.00911545 </v>
   <v>       0.00000000       0.14908914       0.00849963 </v>
   <v>       0.00000000      -0.07633610       0.23021920 </v>
   <v>       0.00000000       0.15083239       0.34783280 </v>
  </varray>
  <varray name="stress" >
   <v>     -12.18089847       0.00000000       0.00000000 </v>
   <v>       0.00000000     -11.68636128       1.05317071 </v>
   <v>       0.00000000       1.05317080       1.83934935 </v>
  </varray>
  <energy>
   <i name="e_fr_energy">    -69.65302422 </i>
   <i name="e_wo_entrp">    -69.61080296 </i>
   <i name="e_0_energy">    -69.63895047 </i>
  </energy>
  <time name="totalsc">   12.49   12.64</time>
 </calculation>
 <calculation>
  <scstep>
   <time name="dav">    1.14    1.15</time>
   <time name="total">    1.28    1.29</time>
   <energy>
    <i name="alphaZ">    521.04204123 </i>
    <i name="ewald"> 105306.67873557 </i>
    <i name="hartreedc">-126984.37905986 </i>
    <i name="XCdc">    719.98245603 </i>
    <i name="pawpsdc">  21141.13967802 </i>
    <i name="pawaedc"> -22868.67101747 </i>
    <i name="eentropy">     -0.04302951 </i>
    <i name="bandstr">   -178.61120878 </i>
    <i name="atom">  22280.27950853 </i>
    <i name="e_fr_energy">    -62.58189624 </i>
    <i name="e_wo_entrp">    -62.53886673 </i>
    <i name="e_0_energy">    -62.56755307 </i>
   </energy>
  </scstep>
  <scstep>
   <time name="dav">    1.46    1.48</time>
   <time name="total">    1.60    1.62</time>
   <energy>
    <i name="e_fr_energy">    -62.66674068 </i>
    <i name="e_wo_entrp">    -62.61937768 </i>
    <i name="e_0_energy">    -62.65095301 </i>
   </energy>
  </scstep>
  <scstep>
   <time name="dav">    1.33    1.34</time>
   <time name="total">    1.47    1.48</time>
   <energy>
    <i name="e_fr_energy">    -62.68064789 </i>
    <i name="e_wo_entrp">    -62.65022648 </i>
    <i name="e_0_energy">    -62.67050742 </i>
   </energy>
  </scstep>
  <scstep>
   <time name="dav">    1.29    1.30</time>
   <time name="total">    1.43    1.44</time>
   <energy>
    <i name="e_fr_energy">    -62.66679748 </i>
    <i name="e_wo_entrp">    -62.62803355 </i>
    <i name="e_0_energy">    -62.65387617 </i>
   </energy>
  </scstep>
  <scstep>
   <time name="dav">    1.55    1.57</time>
   <time name="total">    1.70    1.71</time>
   <energy>
    <i name="e_fr_energy">    -62.66214638 </i>
    <i name="e_wo_entrp">    -62.61181145 </i>
    <i name="e_0_energy">    -62.64536807 </i>
   </energy>
  </scstep>
  <scstep>
   <time name="dav">    1.53    1.54</time>
   <time name="total">    1.67    1.69</time>
   <energy>
    <i name="e_fr_energy">    -62.65985817 </i>
    <i name="e_wo_entrp">    -62.62167785 </i>
    <i name="e_0_energy">    -62.64713140 </i>
   </energy>
  </scstep>
  <scstep>
   <time name="dav">    1.59    1.61</time>
   <time name="total">    1.73    1.75</time>
   <energy>
    <i name="e_fr_energy">    -62.65711631 </i>
    <i name="e_wo_entrp">    -62.61328212 </i>
    <i name="e_0_energy">    -62.64250491 </i>
   </energy>
  </scstep>
  <scstep>
   <time name="dav">    1.40    1.41</time>
   <time name="total">    1.53    1.55</time>
   <energy>
    <i name="e_fr_energy">    -62.65697433 </i>
    <i name="e_wo_entrp">    -62.61314567 </i>
    <i name="e_0_energy">    -62.64236478 </i>
   </energy>
  </scstep>
  <scstep>
   <time name="dav">    1.13    1.14</time>
   <time name="total">    1.16    1.17</time>
   <energy>
    <i name="alphaZ">    521.04204123 </i>
    <i name="ewald"> 105306.67873557 </i>
    <i name="hartreedc">-126983.66718067 </i>
    <i name="XCdc">    720.02587089 </i>
    <i name="pawpsdc">  21164.07428954 </i>
    <i name="pawaedc"> -22891.98983021 </i>
    <i name="eentropy">     -0.04359749 </i>
    <i name="bandstr">   -179.05675544 </i>
    <i name="atom">  22280.27950853 </i>
    <i name="e_fr_energy">    -62.65691805 </i>
    <i name="e_wo_entrp">    -62.61332056 </i>
    <i name="e_0_energy">    -62.64238555 </i>
   </energy>
  </scstep>
  <structure>
   <crystal>
    <varray name="basis" >
     <v>       3.63000011       0.00000000       0.00000000 </v>
     <v>       0.00000000       3.63000011       0.00000000 </v>
     <v>       0.00000000       0.00000000      27.70499992 </v>
    </varray>
    <i name="volume">    365.06603650 </i>
    <varray name="rec_basis" >
     <v>       0.27548208       0.00000000       0.00000000 </v>
     <v>       0.00000000       0.27548208       0.00000000 </v>
     <v>       0.00000000       0.00000000       0.03609457 </v>
    </varray>
   </crystal>
   <varray name="positions" >
    <v>       0.00000000      -0.00019238       0.00287458 </v>
    <v>       0.50000000       0.50019546       0.00272293 </v>
    <v>       0.00000000       0.49997963       0.06445051 </v>
    <v>       0.50000000      -0.00025386       0.06455255 </v>
    <v>       0.00000000       0.00015875       0.12786136 </v>
    <v>       0.50000000       0.50007729       0.12790413 </v>
    <v>       0.00000000       0.49912705       0.19171400 </v>
    <v>       0.50000000       0.00125920       0.19173849 </v>
    <v>       0.00000000      -0.00185836       0.25356637 </v>
    <v>       0.50000000       0.50103542       0.25511665 </v>
    <v>       0.00000000       0.49846791       0.31718343 </v>
    <v>       0.50000000       0.00054682       0.31750761 </v>
    <v>       0.00000000       0.00224856       0.37784139 </v>
    <v>       0.50000000       0.49704261       0.38029709 </v>
    <v>       0.00000000       0.50355169       0.43977856 </v>
    <v>       0.50000000      -0.00959569       0.43913104 </v>
    <v>       1.00000000       0.00727881       0.50590065 </v>
    <v>       1.00000000       0.20644072       0.50981547 </v>
   </varray>
  </structure>
  <varray name="forces" >
   <v>       0.00000000       0.00576831      -0.15848466 </v>
   <v>       0.00000000      -0.00806926      -0.13431467 </v>
   <v>       0.00000000      -0.00360498       0.17500715 </v>
   <v>       0.00000000       0.00651536       0.15487653 </v>
   <v>       0.00000000      -0.00874311       0.10904567 </v>
   <v>       0.00000000       0.00547906       0.09315061 </v>
   <v>       0.00000000       0.01130412      -0.04903295 </v>
   <v>       0.00000000      -0.01860402      -0.05375051 </v>
   <v>       0.00000000       0.02282652       0.04494681 </v>
   <v>       0.00000000      -0.01571655      -0.17849336 </v>
   <v>       0.00000000       0.05049758      -0.17450810 </v>
   <v>       0.00000000      -0.04781311      -0.23196290 </v>
   <v>       0.00000000      -0.08409359       0.12241208 </v>
   <v>       0.00000000       0.02441449      -0.29360829 </v>
   <v>       0.00000000      -0.10763548      -0.04395554 </v>
   <v>       0.00000000       0.11251470       0.03921889 </v>
   <v>       0.00000000      -1.20664705       0.06353461 </v>
   <v>       0.00000000       1.26160702       0.51591863 </v>
  </varray>
  <varray name="stress" >
   <v>     -11.58078625       0.00000000       0.00000000 </v>
   <v>       0.00000000      -7.54502350       1.56086448 </v>
   <v>       0.00000000       1.56086439       3.88457406 </v>
  </varray>
  <energy>
   <i name="e_fr_energy">    -69.68080792 </i>
   <i name="e_wo_entrp">    -69.63721043 </i>
   <i name="e_0_energy">    -69.66627542 </i>
  </energy>
  <time name="totalsc">   15.47   15.66</time>
 </calculation>
 <calculation>
  <scstep>
   <time name="dav">    1.14    1.15</time>
   <time name="total">    1.28    1.29</time>
   <energy>
    <i name="alphaZ">    521.04204123 </i>
    <i name="ewald"> 105413.13980361 </i>
    <i name="hartreedc">-127090.05033922 </i>
    <i name="XCdc">    720.03128030 </i>
    <i name="pawpsdc">  21164.07633692 </i>
    <i name="pawaedc"> -22891.96694986 </i>
    <i name="eentropy">     -0.04339038 </i>
[...]
       <r>     8.1532     1.7018   104.1792 </r>
       <r>     8.2288     2.6469   104.3792 </r>
       <r>     8.3043     3.5254   104.6456 </r>
       <r>     8.3799     3.4759   104.9083 </r>
       <r>     8.4555     2.7151   105.1135 </r>
       <r>     8.5311     1.9141   105.2582 </r>
       <r>     8.6066     1.4547   105.3681 </r>
       <r>     8.6822     1.7714   105.5020 </r>
       <r>     8.7578     3.1723   105.7417 </r>
       <r>     8.8334     5.1216   106.1288 </r>
       <r>     8.9089     6.6447   106.6310 </r>
       <r>     8.9845     7.2289   107.1773 </r>
       <r>     9.0601     6.7846   107.6900 </r>
       <r>     9.1357     5.3141   108.0916 </r>
       <r>     9.2112     3.1891   108.3327 </r>
       <r>     9.2868     1.4202   108.4400 </r>
       <r>     9.3624     1.0767   108.5214 </r>
       <r>     9.4380     2.2553   108.6918 </r>
       <r>     9.5135     3.9092   108.9872 </r>
       <r>     9.5891     4.9445   109.3609 </r>
       <r>     9.6647     5.1346   109.7490 </r>
       <r>     9.7403     4.6714   110.1020 </r>
       <r>     9.8158     3.6825   110.3803 </r>
       <r>     9.8914     2.7396   110.5873 </r>
       <r>     9.9670     2.6241   110.7857 </r>
       <r>    10.0426     3.1331   111.0224 </r>
       <r>    10.1181     3.3968   111.2792 </r>
       <r>    10.1937     3.3866   111.5351 </r>
       <r>    10.2693     3.8611   111.8269 </r>
       <r>    10.3449     5.0882   112.2114 </r>
       <r>    10.4204     6.6204   112.7118 </r>
       <r>    10.4960     7.7826   113.2999 </r>
       <r>    10.5716     7.7438   113.8852 </r>
       <r>    10.6472     6.0281   114.3407 </r>
       <r>    10.7227     3.3356   114.5928 </r>
       <r>    10.7983     1.0196   114.6699 </r>
       <r>    10.8739    -0.1201   114.6608 </r>
       <r>    10.9495     0.0878   114.6674 </r>
       <r>    11.0250     1.5994   114.7883 </r>
       <r>    11.1006     3.7513   115.0718 </r>
       <r>    11.1762     5.0521   115.4536 </r>
       <r>    11.2517     4.4440   115.7895 </r>
       <r>    11.3273     2.5167   115.9797 </r>
       <r>    11.4029     0.7441   116.0359 </r>
       <r>    11.4785    -0.0921   116.0290 </r>
       <r>    11.5540    -0.2166   116.0126 </r>
       <r>    11.6296    -0.1176   116.0037 </r>
       <r>    11.7052    -0.0387   116.0008 </r>
       <r>    11.7808    -0.0087   116.0001 </r>
       <r>    11.8563    -0.0014   116.0000 </r>
       <r>    11.9319    -0.0002   116.0000 </r>
       <r>    12.0075    -0.0000   116.0000 </r>
       <r>    12.0831    -0.0000   116.0000 </r>
       <r>    12.1586    -0.0000   116.0000 </r>
       <r>    12.2342    -0.0000   116.0000 </r>
       <r>    12.3098    -0.0000   116.0000 </r>
       <r>    12.3854    -0.0000   116.0000 </r>
       <r>    12.4609    -0.0000   116.0000 </r>
       <r>    12.5365     0.0000   116.0000 </r>
       <r>    12.6121     0.0000   116.0000 </r>
       <r>    12.6877     0.0000   116.0000 </r>
       <r>    12.7632     0.0000   116.0000 </r>
       <r>    12.8388     0.0000   116.0000 </r>
       <r>    12.9144     0.0000   116.0000 </r>
       <r>    12.9900     0.0000   116.0000 </r>
       <r>    13.0655     0.0000   116.0000 </r>
       <r>    13.1411     0.0000   116.0000 </r>
       <r>    13.2167     0.0000   116.0000 </r>
      </set>
      <set comment="spin 2">
       <r>    -9.4557     0.0000     0.0000 </r>
       <r>    -9.3801     0.0000     0.0000 </r>
       <r>    -9.3045     0.0000     0.0000 </r>
       <r>    -9.2290     0.0000     0.0000 </r>
       <r>    -9.1534     0.0000     0.0000 </r>
       <r>    -9.0778    -0.0000    -0.0000 </r>
       <r>    -9.0022    -0.0000    -0.0000 </r>
       <r>    -8.9267    -0.0000    -0.0000 </r>
       <r>    -8.8511    -0.0000    -0.0000 </r>
       <r>    -8.7755    -0.0000    -0.0000 </r>
       <r>    -8.6999    -0.0000    -0.0000 </r>
       <r>    -8.6244    -0.0000    -0.0000 </r>
       <r>    -8.5488    -0.0000    -0.0000 </r>
       <r>    -8.4732    -0.0000    -0.0000 </r>
       <r>    -8.3976    -0.0000    -0.0000 </r>
       <r>    -8.3221    -0.0000    -0.0000 </r>
       <r>    -8.2465    -0.0000    -0.0000 </r>
       <r>    -8.1709    -0.0000    -0.0000 </r>
       <r>    -8.0953    -0.0000    -0.0000 </r>
       <r>    -8.0198    -0.0003    -0.0000 </r>
       <r>    -7.9442    -0.0018    -0.0002 </r>
       <r>    -7.8686    -0.0073    -0.0007 </r>
       <r>    -7.7930    -0.0186    -0.0021 </r>
       <r>    -7.7175    -0.0226    -0.0038 </r>
       <r>    -7.6419     0.0266    -0.0018 </r>
       <r>    -7.5663     0.1742     0.0113 </r>
       <r>    -7.4907     0.3702     0.0393 </r>
       <r>    -7.4152     0.4586     0.0740 </r>
       <r>    -7.3396     0.3496     0.1004 </r>
       <r>    -7.2640     0.1405     0.1110 </r>
       <r>    -7.1884    -0.0007     0.1110 </r>
       <r>    -7.1129     0.0155     0.1121 </r>
       <r>    -7.0373     0.1800     0.1257 </r>
       <r>    -6.9617     0.3836     0.1547 </r>
       <r>    -6.8861     0.4567     0.1892 </r>
       <r>    -6.8106     0.3354     0.2146 </r>
       <r>    -6.7350     0.1373     0.2250 </r>
       <r>    -6.6594     0.0032     0.2252 </r>
       <r>    -6.5838    -0.0532     0.2212 </r>
       <r>    -6.5083    -0.0963     0.2139 </r>
       <r>    -6.4327    -0.1209     0.2048 </r>
       <r>    -6.3571     0.0577     0.2091 </r>
       <r>    -6.2816     0.6883     0.2611 </r>
       <r>    -6.2060     1.6448     0.3854 </r>
       <r>    -6.1304     2.2357     0.5544 </r>
       <r>    -6.0548     1.8904     0.6973 </r>
       <r>    -5.9793     0.9209     0.7669 </r>
       <r>    -5.9037     0.1947     0.7816 </r>
       <r>    -5.8281     0.2691     0.8019 </r>
       <r>    -5.7525     1.0081     0.8781 </r>
       <r>    -5.6770     1.7134     1.0076 </r>
       <r>    -5.6014     1.7074     1.1366 </r>
       <r>    -5.5258     1.0239     1.2140 </r>
       <r>    -5.4502     0.2743     1.2347 </r>
       <r>    -5.3747    -0.1391     1.2242 </r>
       <r>    -5.2991    -0.2608     1.2045 </r>
       <r>    -5.2235    -0.1163     1.1957 </r>
       <r>    -5.1479     0.5707     1.2389 </r>
       <r>    -5.0724     1.9420     1.3856 </r>
       <r>    -4.9968     3.3558     1.6392 </r>
       <r>    -4.9212     3.7088     1.9195 </r>
       <r>    -4.8456     2.7551     2.1277 </r>
       <r>    -4.7701     1.5700     2.2464 </r>
       <r>    -4.6945     1.2307     2.3394 </r>
       <r>    -4.6189     1.5483     2.4564 </r>
       <r>    -4.5433     1.6264     2.5793 </r>
       <r>    -4.4678     1.2180     2.6714 </r>
       <r>    -4.3922     0.9116     2.7403 </r>
       <r>    -4.3166     1.2337     2.8335 </r>
       <r>    -4.2410     2.0639     2.9895 </r>
       <r>    -4.1655     2.9048     3.2090 </r>
       <r>    -4.0899     3.5107     3.4743 </r>
       <r>    -4.0143     4.0058     3.7771 </r>
       <r>    -3.9387     4.2968     4.1018 </r>
       <r>    -3.8632     3.8520     4.3929 </r>
       <r>    -3.7876     2.4838     4.5806 </r>
       <r>    -3.7120     0.9617     4.6533 </r>
       <r>    -3.6364     0.4352     4.6862 </r>
       <r>    -3.5609     1.3465     4.7880 </r>
       <r>    -3.4853     2.8415     5.0027 </r>
       <r>    -3.4097     3.3840     5.2585 </r>
       <r>    -3.3341     2.4518     5.4438 </r>
       <r>    -3.2586     1.3013     5.5421 </r>
       <r>    -3.1830     1.5635     5.6603 </r>
       <r>    -3.1074     3.6514     5.9362 </r>
       <r>    -3.0318     6.8523     6.4541 </r>
       <r>    -2.9563    10.1921     7.2243 </r>
       <r>    -2.8807    12.5968     8.1763 </r>
       <r>    -2.8051    12.9306     9.1536 </r>
       <r>    -2.7295    11.2041    10.0003 </r>
       <r>    -2.6540     9.3075    10.7037 </r>
       <r>    -2.5784     9.1507    11.3953 </r>
       <r>    -2.5028    10.9107    12.2198 </r>
       <r>    -2.4272    13.9313    13.2727 </r>
       <r>    -2.3517    17.6067    14.6033 </r>
       <r>    -2.2761    20.7600    16.1722 </r>
       <r>    -2.2005    21.6931    17.8117 </r>
       <r>    -2.1250    19.6408    19.2960 </r>
       <r>    -2.0494    15.8523    20.4941 </r>
       <r>    -1.9738    12.6977    21.4537 </r>
       <r>    -1.8982    11.7934    22.3450 </r>
       <r>    -1.8227    13.2427    23.3458 </r>
       <r>    -1.7471    16.0200    24.5565 </r>
       <r>    -1.6715    18.6315    25.9646 </r>
       <r>    -1.5959    19.8363    27.4637 </r>
       <r>    -1.5204    19.4735    28.9354 </r>
       <r>    -1.4448    18.8301    30.3585 </r>
       <r>    -1.3692    19.5277    31.8343 </r>
       <r>    -1.2936    22.0630    33.5017 </r>
       <r>    -1.2181    25.9127    35.4600 </r>
       <r>    -1.1425    30.1299    37.7370 </r>
       <r>    -1.0669    33.1877    40.2452 </r>
       <r>    -0.9913    33.5066    42.7774 </r>
       <r>    -0.9158    31.2001    45.1354 </r>
       <r>    -0.8402    28.2086    47.2672 </r>
       <r>    -0.7646    25.8767    49.2228 </r>
       <r>    -0.6890    24.2303    51.0540 </r>
       <r>    -0.6135    23.6913    52.8445 </r>
       <r>    -0.5379    24.5007    54.6961 </r>
       <r>    -0.4623    25.2423    56.6038 </r>
       <r>    -0.3867    25.0217    58.4948 </r>
       <r>    -0.3112    25.5246    60.4238 </r>
       <r>    -0.2356    28.5876    62.5843 </r>
       <r>    -0.1600    33.2203    65.0949 </r>
       <r>    -0.0844    36.4915    67.8528 </r>
       <r>    -0.0089    36.8481    70.6375 </r>
       <r>     0.0667    35.8020    73.3433 </r>
       <r>     0.1423    35.8349    76.0515 </r>
       <r>     0.2179    36.7219    78.8267 </r>
       <r>     0.2934    35.0502    81.4756 </r>
       <r>     0.3690    28.2171    83.6081 </r>
       <r>     0.4446    17.8547    84.9575 </r>
       <r>     0.5202     8.2031    85.5774 </r>
       <r>     0.5957     2.1354    85.7388 </r>
       <r>     0.6713    -0.2266    85.7217 </r>
       <r>     0.7469    -0.0218    85.7200 </r>
       <r>     0.8225     1.6752    85.8466 </r>
       <r>     0.8980     3.6798    86.1247 </r>
       <r>     0.9736     4.6419    86.4755 </r>
       <r>     1.0492     3.9829    86.7765 </r>
       <r>     1.1248     2.3512    86.9542 </r>
       <r>     1.2003     0.8431    87.0179 </r>
       <r>     1.2759     0.0770    87.0238 </r>
       <r>     1.3515    -0.0308    87.0214 </r>
       <r>     1.4271     0.1138    87.0300 </r>
       <r>     1.5026     0.3437    87.0560 </r>
       <r>     1.5782     0.9850    87.1304 </r>
       <r>     1.6538     2.4703    87.3171 </r>
       <r>     1.7294     4.5798    87.6633 </r>
       <r>     1.8049     6.2323    88.1343 </r>
       <r>     1.8805     6.5009    88.6256 </r>
       <r>     1.9561     5.6645    89.0537 </r>
       <r>     2.0317     4.4593    89.3907 </r>
       <r>     2.1072     2.9944    89.6170 </r>
       <r>     2.1828     1.5777    89.7362 </r>
       <r>     2.2584     1.4146    89.8431 </r>
       <r>     2.3339     3.0720    90.0753 </r>
       <r>     2.4095     5.1194    90.4622 </r>
       <r>     2.4851     5.5942    90.8849 </r>
       <r>     2.5607     4.3682    91.2151 </r>
       <r>     2.6362     2.9849    91.4407 </r>
       <r>     2.7118     2.6940    91.6443 </r>
       <r>     2.7874     3.3720    91.8991 </r>
       <r>     2.8630     3.8254    92.1882 </r>
       <r>     2.9385     3.1325    92.4249 </r>
       <r>     3.0141     1.8495    92.5647 </r>
       <r>     3.0897     1.2253    92.6573 </r>
       <r>     3.1653     1.4364    92.7659 </r>
       <r>     3.2408     1.5772    92.8851 </r>
       <r>     3.3164     1.1685    92.9734 </r>
       <r>     3.3920     0.6842    93.0251 </r>
       <r>     3.4676     0.6174    93.0717 </r>
       <r>     3.5431     0.9015    93.1399 </r>
       <r>     3.6187     1.3595    93.2426 </r>
       <r>     3.6943     1.9740    93.3918 </r>
       <r>     3.7699     2.5814    93.5869 </r>
       <r>     3.8454     2.8622    93.8032 </r>
       <r>     3.9210     2.6347    94.0023 </r>
       <r>     3.9966     1.9197    94.1474 </r>
       <r>     4.0722     0.9643    94.2203 </r>
       <r>     4.1477     0.1828    94.2341 </r>
       <r>     4.2233    -0.1655    94.2216 </r>
       <r>     4.2989    -0.0758    94.2158 </r>
       <r>     4.3745     0.4201    94.2476 </r>
       <r>     4.4500     1.2496    94.3420 </r>
       <r>     4.5256     2.0585    94.4976 </r>
       <r>     4.6012     2.2967    94.6712 </r>
       <r>     4.6768     1.8113    94.8081 </r>
       <r>     4.7523     1.2023    94.8989 </r>
       <r>     4.8279     1.1563    94.9863 </r>
       <r>     4.9035     1.5492    95.1034 </r>
       <r>     4.9791     1.7851    95.2383 </r>
       <r>     5.0546     1.7663    95.3718 </r>
       <r>     5.1302     1.7761    95.5060 </r>
       <r>     5.2058     1.8257    95.6440 </r>
       <r>     5.2814     1.9011    95.7877 </r>
       <r>     5.3569     2.2339    95.9565 </r>
       <r>     5.4325     2.7193    96.1620 </r>
       <r>     5.5081     2.7880    96.3727 </r>
       <r>     5.5837     2.3011    96.5466 </r>
       <r>     5.6592     2.0626    96.7025 </r>
       <r>     5.7348     3.0441    96.9325 </r>
       <r>     5.8104     5.1434    97.3213 </r>
       <r>     5.8860     6.8902    97.8420 </r>
       <r>     5.9615     6.6640    98.3456 </r>
       <r>     6.0371     4.3831    98.6769 </r>
       <r>     6.1127     1.6509    98.8016 </r>
       <r>     6.1883     0.0932    98.8087 </r>
       <r>     6.2638     0.0964    98.8160 </r>
       <r>     6.3394     1.0436    98.8948 </r>
       <r>     6.4150     2.0174    99.0473 </r>
       <r>     6.4906     2.4079    99.2293 </r>
       <r>     6.5661     2.2736    99.4011 </r>
       <r>     6.6417     2.0552    99.5564 </r>
       <r>     6.7173     2.1940    99.7222 </r>
       <r>     6.7928     3.0440    99.9523 </r>
       <r>     6.8684     4.4463   100.2883 </r>
       <r>     6.9440     5.4952   100.7036 </r>
       <r>     7.0196     5.3282   101.1063 </r>
       <r>     7.0951     4.0262   101.4105 </r>
       <r>     7.1707     2.5652   101.6044 </r>
       <r>     7.2463     1.8957   101.7477 </r>
       <r>     7.3219     2.1505   101.9102 </r>
       <r>     7.3974     2.9368   102.1321 </r>
       <r>     7.4730     3.9708   102.4322 </r>
       <r>     7.5486     4.8825   102.8012 </r>
       <r>     7.6242     4.9584   103.1760 </r>
       <r>     7.6997     3.8498   103.4669 </r>
       <r>     7.7753     2.2519   103.6371 </r>
       <r>     7.8509     1.2925   103.7348 </r>
       <r>     7.9265     1.2688   103.8307 </r>
       <r>     8.0020     1.4702   103.9418 </r>
       <r>     8.0776     1.4394   104.0505 </r>
       <r>     8.1532     1.7018   104.1792 </r>
       <r>     8.2288     2.6469   104.3792 </r>
       <r>     8.3043     3.5254   104.6456 </r>
       <r>     8.3799     3.4759   104.9083 </r>
       <r>     8.4555     2.7151   105.1135 </r>
       <r>     8.5311     1.9141   105.2582 </r>
       <r>     8.6066     1.4547   105.3681 </r>
       <r>     8.6822     1.7713   105.5020 </r>
       <r>     8.7578     3.1722   105.7417 </r>
       <r>     8.8334     5.1216   106.1288 </r>
       <r>     8.9089     6.6447   106.6310 </r>
       <r>     8.9845     7.2290   107.1773 </r>
       <r>     9.0601     6.7846   107.6900 </r>
       <r>     9.1357     5.3141   108.0916 </r>
       <r>     9.2112     3.1891   108.3327 </r>
       <r>     9.2868     1.4202   108.4400 </r>
       <r>     9.3624     1.0767   108.5213 </r>
       <r>     9.4380     2.2553   108.6918 </r>
       <r>     9.5135     3.9092   108.9872 </r>
       <r>     9.5891     4.9445   109.3609 </r>
       <r>     9.6647     5.1346   109.7490 </r>
       <r>     9.7403     4.6714   110.1020 </r>
       <r>     9.8158     3.6826   110.3803 </r>
       <r>     9.8914     2.7396   110.5873 </r>
       <r>     9.9670     2.6241   110.7857 </r>
       <r>    10.0426     3.1331   111.0224 </r>
       <r>    10.1181     3.3968   111.2791 </r>
       <r>    10.1937     3.3866   111.5351 </r>
       <r>    10.2693     3.8610   111.8269 </r>
       <r>    10.3449     5.0882   112.2114 </r>
       <r>    10.4204     6.6205   112.7118 </r>
       <r>    10.4960     7.7826   113.2999 </r>
       <r>    10.5716     7.7438   113.8852 </r>
       <r>    10.6472     6.0281   114.3407 </r>
       <r>    10.7227     3.3356   114.5928 </r>
       <r>    10.7983     1.0196   114.6699 </r>
       <r>    10.8739    -0.1201   114.6608 </r>
       <r>    10.9495     0.0878   114.6674 </r>
       <r>    11.0250     1.5994   114.7883 </r>
       <r>    11.1006     3.7513   115.0718 </r>
       <r>    11.1762     5.0521   115.4536 </r>
       <r>    11.2517     4.4441   115.7895 </r>
       <r>    11.3273     2.5167   115.9797 </r>
       <r>    11.4029     0.7442   116.0359 </r>
       <r>    11.4785    -0.0921   116.0290 </r>
       <r>    11.5540    -0.2166   116.0126 </r>
       <r>    11.6296    -0.1176   116.0037 </r>
       <r>    11.7052    -0.0387   116.0008 </r>
       <r>    11.7808    -0.0087   116.0001 </r>
       <r>    11.8563    -0.0014   116.0000 </r>
       <r>    11.9319    -0.0002   116.0000 </r>
       <r>    12.0075    -0.0000   116.0000 </r>
       <r>    12.0831    -0.0000   116.0000 </r>
       <r>    12.1586    -0.0000   116.0000 </r>
       <r>    12.2342    -0.0000   116.0000 </r>
       <r>    12.3098    -0.0000   116.0000 </r>
       <r>    12.3854    -0.0000   116.0000 </r>
       <r>    12.4609    -0.0000   116.0000 </r>
       <r>    12.5365     0.0000   116.0000 </r>
       <r>    12.6121     0.0000   116.0000 </r>
       <r>    12.6877     0.0000   116.0000 </r>
       <r>    12.7632     0.0000   116.0000 </r>
       <r>    12.8388     0.0000   116.0000 </r>
       <r>    12.9144     0.0000   116.0000 </r>
       <r>    12.9900     0.0000   116.0000 </r>
       <r>    13.0655     0.0000   116.0000 </r>
       <r>    13.1411     0.0000   116.0000 </r>
       <r>    13.2167     0.0000   116.0000 </r>
      </set>
     </set>
    </array>
   </total>
  </dos>
 </calculation>
 <structure name="finalpos" >
  <crystal>
   <varray name="basis" >
    <v>       3.63000011       0.00000000       0.00000000 </v>
    <v>       0.00000000       3.63000011       0.00000000 </v>
    <v>       0.00000000       0.00000000      27.70499992 </v>
   </varray>
   <i name="volume">    365.06603650 </i>
   <varray name="rec_basis" >
    <v>       0.27548208       0.00000000       0.00000000 </v>
    <v>       0.00000000       0.27548208       0.00000000 </v>
    <v>       0.00000000       0.00000000       0.03609457 </v>
   </varray>
  </crystal>
  <varray name="positions" >
   <v>       0.00000000      -0.00294578      -0.00223727 </v>
   <v>       0.50000000       0.49690069      -0.00222465 </v>
   <v>       0.00000000       0.49720966       0.06083364 </v>
   <v>       0.50000000      -0.00259109       0.06083755 </v>
   <v>       0.00000000      -0.00249760       0.12418286 </v>
   <v>       0.50000000       0.49745206       0.12417810 </v>
   <v>       0.00000000       0.49731154       0.18713849 </v>
   <v>       0.50000000      -0.00230509       0.18714351 </v>
   <v>       0.00000000      -0.00249852       0.24916487 </v>
   <v>       0.50000000       0.49769701       0.24923561 </v>
   <v>       0.00000000       0.49810606       0.31211591 </v>
   <v>       0.50000000      -0.00206412       0.31210849 </v>
   <v>       0.00000000      -0.00104464       0.37545822 </v>
   <v>       0.50000000       0.49808044       0.37560836 </v>
   <v>       0.00000000       0.49899649       0.43832712 </v>
   <v>       0.50000000      -0.00191621       0.43845101 </v>
   <v>       1.00000000       0.08913539       0.52678259 </v>
   <v>       1.00000000       0.15248333       0.55285243 </v>
  </varray>
 </structure>
</modeling>
