unknown system                          
           1
     3.630000    0.000000    0.000000
     0.000000    3.630000    0.000000
     0.000000    0.000000   27.705000
   Cu   H 
    16     2
Direct configuration=     1
   0.00000000  0.00000000  0.00000000
   0.50000000  0.50000000  0.00000000
   0.00000000  0.50000000  0.06551164
   0.50000000  0.00000000  0.06551164
   0.00000000  0.00000000  0.12876120
   0.50000000  0.50000000  0.12876120
   0.00000000  0.50000000  0.19193187
   0.50000000  0.00000000  0.19193187
   0.00000000  0.00000000  0.25406550
   0.50000000  0.50000000  0.25406550
   0.00000000  0.50000000  0.31747855
   0.50000000  0.00000000  0.31747855
   0.00000000  0.00000000  0.38132233
   0.50000000  0.50000000  0.38132233
   0.00000000  0.50000000  0.44440075
   0.50000000  0.00000000  0.44440075
   1.00000000  1.00000000  0.50150658
   1.00000000  0.20550964  0.50150658
Direct configuration=     2
   0.00000000 -0.00004516  0.00045659
   0.50000000  0.50005161  0.00043236
   0.00000000  0.49997762  0.06513290
   0.50000000 -0.00000844  0.06514720
   0.00000000  0.00012930  0.12877421
   0.50000000  0.49989131  0.12879654
   0.00000000  0.49985736  0.19187009
   0.50000000  0.00020609  0.19187079
   0.00000000 -0.00037092  0.25399543
   0.50000000  0.50027926  0.25428949
   0.00000000  0.49991860  0.31745263
   0.50000000 -0.00003486  0.31750113
   0.00000000 -0.00030500  0.38099681
   0.50000000  0.50039011  0.38151862
   0.00000000  0.50171229  0.44368435
   0.50000000 -0.00214038  0.44367178
   1.00000000  0.98254890  0.50197255
   1.00000000  0.22345193  0.50239335
Direct configuration=     3
   0.00000000 -0.00002541  0.00025695
   0.50000000  0.50002904  0.00024332
   0.00000000  0.49998740  0.06529850
   0.50000000 -0.00000475  0.06530654
   0.00000000  0.00007276  0.12876852
   0.50000000  0.49993883  0.12878109
   0.00000000  0.49991973  0.19189710
   0.50000000  0.00011598  0.19189749
   0.00000000 -0.00020874  0.25402607
   0.50000000  0.50015716  0.25419156
   0.00000000  0.49995419  0.31746396
   0.50000000 -0.00001962  0.31749126
   0.00000000 -0.00017164  0.38113914
   0.50000000  0.50021954  0.38143279
   0.00000000  0.50096362  0.44399758
   0.50000000 -0.00120453  0.44399051
   1.00000000  0.99017911  0.50176881
   1.00000000  0.21560696  0.50200562
Direct configuration=     4
   0.00000000 -0.00006848  0.00066098
   0.50000000  0.50007575  0.00061959
   0.00000000  0.49996954  0.06500155
   0.50000000 -0.00001946  0.06502791
   0.00000000  0.00017761  0.12874021
   0.50000000  0.49986065  0.12877350
   0.00000000  0.49978930  0.19184425
   0.50000000  0.00030698  0.19184881
   0.00000000 -0.00056149  0.25396168
   0.50000000  0.50040247  0.25438910
   0.00000000  0.49983707  0.31744705
   0.50000000 -0.00001590  0.31753667
   0.00000000 -0.00023235  0.38078521
   0.50000000  0.50041182  0.38153157
   0.00000000  0.50209586  0.44348174
   0.50000000 -0.00294077  0.44339864
   1.00000000  0.99134939  0.50213406
   1.00000000  0.21507163  0.50277432
Direct configuration=     5
   0.00000000 -0.00019110  0.00181122
   0.50000000  0.50020873  0.00169079
   0.00000000  0.49991867  0.06415615
   0.50000000 -0.00006133  0.06423466
   0.00000000  0.00047611  0.12865962
   0.50000000  0.49963806  0.12875189
   0.00000000  0.49941797  0.19169379
   0.50000000  0.00085075  0.19171022
   0.00000000 -0.00156572  0.25377835
   0.50000000  0.50110087  0.25495151
   0.00000000  0.49950363  0.31739889
   0.50000000 -0.00000532  0.31766594
   0.00000000 -0.00040516  0.37977761
   0.50000000  0.50095920  0.38181279
   0.00000000  0.50531928  0.44201316
   0.50000000 -0.00788372  0.44171361
   1.00000000  0.99468111  0.50317389
   1.00000000  0.21354758  0.50496275
Direct configuration=     6
   0.00000000 -0.00023796  0.00225081
   0.50000000  0.50025954  0.00210018
   0.00000000  0.49989924  0.06383306
   0.50000000 -0.00007733  0.06393150
   0.00000000  0.00059019  0.12862881
   0.50000000  0.49955299  0.12874363
   0.00000000  0.49927606  0.19163629
   0.50000000  0.00105857  0.19165725
   0.00000000 -0.00194951  0.25370828
   0.50000000  0.50136779  0.25516644
   0.00000000  0.49937620  0.31738048
   0.50000000 -0.00000128  0.31771535
   0.00000000 -0.00047121  0.37939253
   0.50000000  0.50116840  0.38192027
   0.00000000  0.50655120  0.44145191
   0.50000000 -0.00977280  0.44106964
   1.00000000  0.99595441  0.50357129
   1.00000000  0.21296513  0.50579911
Direct configuration=     7
   0.00000000 -0.00022555  0.00242063
   0.50000000  0.50024210  0.00226972
   0.00000000  0.49992112  0.06400116
   0.50000000 -0.00012539  0.06410058
   0.00000000  0.00047273  0.12841988
   0.50000000  0.49969573  0.12851508
   0.00000000  0.49923549  0.19165745
   0.50000000  0.00111319  0.19167937
   0.00000000 -0.00192470  0.25366965
   0.50000000  0.50127730  0.25515289
   0.00000000  0.49912892  0.31732684
   0.50000000  0.00014794  0.31765879
   0.00000000  0.00026924  0.37897024
   0.50000000  0.50004517  0.38147837
   0.00000000  0.50573460  0.44099635
   0.50000000 -0.00972458  0.44054186
   1.00000000  0.99903743  0.50420545
   1.00000000  0.21118889  0.50689255
Direct configuration=     8
   0.00000000 -0.00019238  0.00287458
   0.50000000  0.50019546  0.00272293
   0.00000000  0.49997963  0.06445051
   0.50000000 -0.00025386  0.06455255
   0.00000000  0.00015875  0.12786136
   0.50000000  0.50007729  0.12790413
   0.00000000  0.49912705  0.19171400
   0.50000000  0.00125920  0.19173849
   0.00000000 -0.00185836  0.25356637
   0.50000000  0.50103542  0.25511665
   0.00000000  0.49846791  0.31718343
   0.50000000  0.00054682  0.31750761
   0.00000000  0.00224856  0.37784139
   0.50000000  0.49704261  0.38029709
   0.00000000  0.50355169  0.43977856
   0.50000000 -0.00959569  0.43913104
   1.00000000  0.00727881  0.50590065
   1.00000000  0.20644072  0.50981547
Direct configuration=     9
   0.00000000 -0.00018355  0.00291638
   0.50000000  0.50018308  0.00276715
   0.00000000  0.49998428  0.06452636
   0.50000000 -0.00026518  0.06462665
   0.00000000  0.00011152  0.12780100
   0.50000000  0.50013060  0.12783539
   0.00000000  0.49912209  0.19171617
   0.50000000  0.00126319  0.19174050
   0.00000000 -0.00183175  0.25355778
   0.50000000  0.50099191  0.25509346
   0.00000000  0.49842310  0.31714690
   0.50000000  0.00056011  0.31746411
   0.00000000  0.00243594  0.37770922
   0.50000000  0.49667659  0.38011498
   0.00000000  0.50318618  0.43961769
   0.50000000 -0.00948994  0.43895403
   1.00000000  0.00737995  0.50612483
   1.00000000  0.20683152  0.51024422
Direct configuration=    10
   0.00000000 -0.00015706  0.00304179
   0.50000000  0.50014593  0.00289980
   0.00000000  0.49999823  0.06475393
   0.50000000 -0.00029915  0.06484895
   0.00000000 -0.00003018  0.12761992
   0.50000000  0.50029056  0.12762917
   0.00000000  0.49910722  0.19172266
   0.50000000  0.00127517  0.19174651
   0.00000000 -0.00175192  0.25353202
   0.50000000  0.50086139  0.25502388
   0.00000000  0.49828868  0.31703730
   0.50000000  0.00059998  0.31733361
   0.00000000  0.00299807  0.37731270
   0.50000000  0.49557851  0.37956862
   0.00000000  0.50208964  0.43913508
   0.50000000 -0.00917270  0.43842301
   1.00000000  0.00768336  0.50679738
   1.00000000  0.20800391  0.51153049
Direct configuration=    11
   0.00000000 -0.00010407  0.00329261
   0.50000000  0.50007162  0.00316511
   0.00000000  0.50002614  0.06520905
   0.50000000 -0.00036710  0.06529355
   0.00000000 -0.00031358  0.12725777
   0.50000000  0.50061046  0.12721673
   0.00000000  0.49907748  0.19173565
   0.50000000  0.00129911  0.19175854
   0.00000000 -0.00159225  0.25348050
   0.50000000  0.50060036  0.25488473
   0.00000000  0.49801984  0.31681809
   0.50000000  0.00067972  0.31707261
   0.00000000  0.00412234  0.37651967
   0.50000000  0.49338235  0.37847591
   0.00000000  0.49989655  0.43816986
   0.50000000 -0.00853821  0.43736097
   1.00000000  0.00829019  0.50814247
   1.00000000  0.21034868  0.51410301
Direct configuration=    12
   0.00000000  0.00000190  0.00379424
   0.50000000  0.49992302  0.00369572
   0.00000000  0.50008196  0.06611930
   0.50000000 -0.00050298  0.06618275
   0.00000000 -0.00088036  0.12653346
   0.50000000  0.50125027  0.12639184
   0.00000000  0.49901799  0.19176163
   0.50000000  0.00134701  0.19178260
   0.00000000 -0.00127291  0.25337745
   0.50000000  0.50007828  0.25460642
   0.00000000  0.49748216  0.31637969
   0.50000000  0.00083920  0.31655061
   0.00000000  0.00637087  0.37493360
   0.50000000  0.48899003  0.37629050
   0.00000000  0.49551037  0.43623941
   0.50000000 -0.00726924  0.43523688
   1.00000000  0.00950385  0.51083266
   1.00000000  0.21503822  0.51924806
Direct configuration=    13
   0.00000000 -0.00006528  0.00347626
   0.50000000  0.50001722  0.00335937
   0.00000000  0.50004658  0.06554231
   0.50000000 -0.00041685  0.06561909
   0.00000000 -0.00052108  0.12699259
   0.50000000  0.50084470  0.12691473
   0.00000000  0.49905570  0.19174516
   0.50000000  0.00131665  0.19176735
   0.00000000 -0.00147534  0.25344277
   0.50000000  0.50040922  0.25478283
   0.00000000  0.49782299  0.31665759
   0.50000000  0.00073811  0.31688150
   0.00000000  0.00494555  0.37593899
   0.50000000  0.49177427  0.37767581
   0.00000000  0.49829072  0.43746310
   0.50000000 -0.00807363  0.43658332
   1.00000000  0.00873453  0.50912738
   1.00000000  0.21206557  0.51598667
Direct configuration=    14
   0.00000000 -0.00005443  0.00346426
   0.50000000  0.49999224  0.00335788
   0.00000000  0.50000719  0.06554161
   0.50000000 -0.00036972  0.06561172
   0.00000000 -0.00050874  0.12711726
   0.50000000  0.50081302  0.12703785
   0.00000000  0.49908825  0.19168839
   0.50000000  0.00124915  0.19170859
   0.00000000 -0.00146217  0.25345161
   0.50000000  0.50040419  0.25469517
   0.00000000  0.49814847  0.31649561
   0.50000000  0.00036175  0.31669879
   0.00000000  0.00419869  0.37596398
   0.50000000  0.49229806  0.37755694
   0.00000000  0.49820333  0.43738185
   0.50000000 -0.00806301  0.43653800
   1.00000000  0.00876584  0.50931169
   1.00000000  0.21243755  0.51633563
Direct configuration=    15
   0.00000000 -0.00002188  0.00342826
   0.50000000  0.49991729  0.00335339
   0.00000000  0.49988903  0.06553954
   0.50000000 -0.00022832  0.06558961
   0.00000000 -0.00047172  0.12749126
   0.50000000  0.50071796  0.12740720
   0.00000000  0.49918591  0.19151807
   0.50000000  0.00104664  0.19153232
   0.00000000 -0.00142267  0.25347813
   0.50000000  0.50038910  0.25443218
   0.00000000  0.49912491  0.31600969
   0.50000000 -0.00076734  0.31615064
   0.00000000  0.00195809  0.37603893
   0.50000000  0.49386942  0.37720035
   0.00000000  0.49794114  0.43713809
   0.50000000 -0.00803117  0.43640206
   1.00000000  0.00885979  0.50986462
   1.00000000  0.21355346  0.51738251
Direct configuration=    16
   0.00000000  0.00004320  0.00335626
   0.50000000  0.49976740  0.00334441
   0.00000000  0.49965271  0.06553539
   0.50000000  0.00005446  0.06554539
   0.00000000 -0.00039768  0.12823926
   0.50000000  0.50052785  0.12814590
   0.00000000  0.49938122  0.19117742
   0.50000000  0.00064163  0.19117977
   0.00000000 -0.00134367  0.25353117
   0.50000000  0.50035892  0.25390619
   0.00000000  0.50107780  0.31503783
   0.50000000 -0.00302551  0.31505435
   0.00000000 -0.00252310  0.37618885
   0.50000000  0.49701213  0.37648715
   0.00000000  0.49741677  0.43665057
   0.50000000 -0.00796748  0.43613017
   1.00000000  0.00904769  0.51097048
   1.00000000  0.21578529  0.51947627
Direct configuration=    17
   0.00000000  0.00001260  0.00327212
   0.50000000  0.49975420  0.00328235
   0.00000000  0.49961452  0.06555217
   0.50000000  0.00010213  0.06555021
   0.00000000 -0.00034428  0.12851553
   0.50000000  0.50040044  0.12843227
   0.00000000  0.49943707  0.19112106
   0.50000000  0.00047038  0.19111983
   0.00000000 -0.00108892  0.25335684
   0.50000000  0.50008365  0.25354048
   0.00000000  0.50095055  0.31470928
   0.50000000 -0.00313978  0.31469143
   0.00000000 -0.00359766  0.37616067
   0.50000000  0.49762835  0.37623837
   0.00000000  0.49716678  0.43659424
   0.50000000 -0.00759307  0.43620493
   1.00000000  0.01286938  0.51151430
   1.00000000  0.21278329  0.52010075
Direct configuration=    18
   0.00000000 -0.00001515  0.00319585
   0.50000000  0.49974223  0.00322609
   0.00000000  0.49957991  0.06556737
   0.50000000  0.00014534  0.06555458
   0.00000000 -0.00029587  0.12876597
   0.50000000  0.50028495  0.12869186
   0.00000000  0.49948770  0.19106997
   0.50000000  0.00031514  0.19106550
   0.00000000 -0.00085799  0.25319881
   0.50000000  0.49983412  0.25320897
   0.00000000  0.50083520  0.31441146
   0.50000000 -0.00324336  0.31436245
   0.00000000 -0.00457173  0.37613512
   0.50000000  0.49818695  0.37601285
   0.00000000  0.49694017  0.43654318
   0.50000000 -0.00725367  0.43627270
   1.00000000  0.01633365  0.51200725
   1.00000000  0.21006204  0.52066683
Direct configuration=    19
   0.00000000 -0.00000938  0.00321172
   0.50000000  0.49974472  0.00323779
   0.00000000  0.49958712  0.06556421
   0.50000000  0.00013635  0.06555367
   0.00000000 -0.00030595  0.12871386
   0.50000000  0.50030898  0.12863785
   0.00000000  0.49947717  0.19108060
   0.50000000  0.00034744  0.19107680
   0.00000000 -0.00090604  0.25323170
   0.50000000  0.49988604  0.25327795
   0.00000000  0.50085920  0.31447343
   0.50000000 -0.00322181  0.31443091
   0.00000000 -0.00436905  0.37614044
   0.50000000  0.49807072  0.37605977
   0.00000000  0.49698732  0.43655380
   0.50000000 -0.00732429  0.43625860
   1.00000000  0.01561282  0.51190468
   1.00000000  0.21062827  0.52054905
Direct configuration=    20
   0.00000000 -0.00009554  0.00307895
   0.50000000  0.49976820  0.00312505
   0.00000000  0.49960561  0.06563164
   0.50000000  0.00010897  0.06561234
   0.00000000 -0.00025147  0.12892255
   0.50000000  0.50013926  0.12886922
   0.00000000  0.49952900  0.19109791
   0.50000000  0.00012950  0.19109147
   0.00000000 -0.00052013  0.25285467
   0.50000000  0.49941505  0.25276640
   0.00000000  0.49991371  0.31416769
   0.50000000 -0.00263816  0.31410664
   0.00000000 -0.00473348  0.37598527
   0.50000000  0.49800159  0.37579575
   0.00000000  0.49662114  0.43657382
   0.50000000 -0.00658691  0.43645487
   1.00000000  0.01654136  0.51237822
   1.00000000  0.21056194  0.52144440
Direct configuration=    21
   0.00000000 -0.00035403  0.00268063
   0.50000000  0.49983866  0.00278681
   0.00000000  0.49966111  0.06583392
   0.50000000  0.00002681  0.06578833
   0.00000000 -0.00008802  0.12954862
   0.50000000  0.49963009  0.12956332
   0.00000000  0.49968448  0.19114984
   0.50000000 -0.00052434  0.19113545
   0.00000000  0.00063760  0.25172360
   0.50000000  0.49800208  0.25123174
   0.00000000  0.49707725  0.31325049
   0.50000000 -0.00088722  0.31313383
   0.00000000 -0.00582679  0.37551975
   0.50000000  0.49779421  0.37500367
   0.00000000  0.49552260  0.43663386
   0.50000000 -0.00437477  0.43704369
   1.00000000  0.01932697  0.51379884
   1.00000000  0.21036295  0.52413046
Direct configuration=    22
   0.00000000 -0.00038653  0.00267279
   0.50000000  0.49982907  0.00276763
   0.00000000  0.49969946  0.06590769
   0.50000000 -0.00008695  0.06587267
   0.00000000 -0.00018089  0.12929895
   0.50000000  0.49961836  0.12931709
   0.00000000  0.49976487  0.19106614
   0.50000000 -0.00071685  0.19105570
   0.00000000 -0.00013626  0.25159797
   0.50000000  0.49853159  0.25130329
   0.00000000  0.49715623  0.31315453
   0.50000000 -0.00118782  0.31306212
   0.00000000 -0.00507019  0.37536143
   0.50000000  0.49736482  0.37509901
   0.00000000  0.49575445  0.43663479
   0.50000000 -0.00446987  0.43702947
   1.00000000  0.01700516  0.51390576
   1.00000000  0.21302099  0.52484981
Direct configuration=    23
   0.00000000 -0.00038331  0.00267356
   0.50000000  0.49983002  0.00276953
   0.00000000  0.49969567  0.06590039
   0.50000000 -0.00007570  0.06586433
   0.00000000 -0.00017170  0.12932364
   0.50000000  0.49961952  0.12934144
   0.00000000  0.49975692  0.19107442
   0.50000000 -0.00069781  0.19106358
   0.00000000 -0.00005973  0.25161040
   0.50000000  0.49847922  0.25129621
   0.00000000  0.49714842  0.31316402
   0.50000000 -0.00115810  0.31306921
   0.00000000 -0.00514501  0.37537709
   0.50000000  0.49740728  0.37508958
   0.00000000  0.49573152  0.43663469
   0.50000000 -0.00446047  0.43703087
   1.00000000  0.01723477  0.51389518
   1.00000000  0.21275813  0.52477867
Direct configuration=    24
   0.00000000 -0.00040145  0.00269547
   0.50000000  0.49980545  0.00277696
   0.00000000  0.49971796  0.06594775
   0.50000000 -0.00018782  0.06592398
   0.00000000 -0.00026435  0.12905392
   0.50000000  0.49961243  0.12907071
   0.00000000  0.49975522  0.19096838
   0.50000000 -0.00080526  0.19096189
   0.00000000 -0.00083158  0.25153312
   0.50000000  0.49899515  0.25143047
   0.00000000  0.49734644  0.31311243
   0.50000000 -0.00153959  0.31304464
   0.00000000 -0.00434858  0.37523967
   0.50000000  0.49702256  0.37521750
   0.00000000  0.49605277  0.43663936
   0.50000000 -0.00468541  0.43698946
   1.00000000  0.01804951  0.51412069
   1.00000000  0.21221621  0.52523045
Direct configuration=    25
   0.00000000 -0.00045587  0.00276119
   0.50000000  0.49973173  0.00279925
   0.00000000  0.49978483  0.06608981
   0.50000000 -0.00052419  0.06610294
   0.00000000 -0.00054228  0.12824473
   0.50000000  0.49959118  0.12825850
   0.00000000  0.49975011  0.19065026
   0.50000000 -0.00112762  0.19065681
   0.00000000 -0.00314714  0.25130131
   0.50000000  0.50054291  0.25183323
   0.00000000  0.49794052  0.31295765
   0.50000000 -0.00268409  0.31297092
   0.00000000 -0.00195929  0.37482743
   0.50000000  0.49586839  0.37560126
   0.00000000  0.49701651  0.43665337
   0.50000000 -0.00536024  0.43686522
   1.00000000  0.02049372  0.51479720
   1.00000000  0.21059044  0.52658576
Direct configuration=    26
   0.00000000 -0.00043895  0.00282147
   0.50000000  0.49966061  0.00285189
   0.00000000  0.49969112  0.06590605
   0.50000000 -0.00053021  0.06592220
   0.00000000 -0.00053684  0.12821736
   0.50000000  0.49949033  0.12822301
   0.00000000  0.49924419  0.19049126
   0.50000000 -0.00078476  0.19049805
   0.00000000 -0.00278850  0.25124662
   0.50000000  0.49996582  0.25177578
   0.00000000  0.49783743  0.31301022
   0.50000000 -0.00256807  0.31302865
   0.00000000 -0.00190155  0.37482381
   0.50000000  0.49602405  0.37558632
   0.00000000  0.49735906  0.43667215
   0.50000000 -0.00552828  0.43682638
   1.00000000  0.02236474  0.51506253
   1.00000000  0.20894946  0.52699308
Direct configuration=    27
   0.00000000 -0.00042379  0.00287549
   0.50000000  0.49959687  0.00289906
   0.00000000  0.49960714  0.06574138
   0.50000000 -0.00053560  0.06576024
   0.00000000 -0.00053197  0.12819283
   0.50000000  0.49939995  0.12819122
   0.00000000  0.49879084  0.19034878
   0.50000000 -0.00047754  0.19035578
   0.00000000 -0.00246714  0.25119762
   0.50000000  0.49944868  0.25172430
   0.00000000  0.49774505  0.31305732
   0.50000000 -0.00246411  0.31308038
   0.00000000 -0.00184981  0.37482056
   0.50000000  0.49616353  0.37557294
   0.00000000  0.49766602  0.43668899
   0.50000000 -0.00567886  0.43679157
   1.00000000  0.02404136  0.51530029
   1.00000000  0.20747899  0.52735809
Direct configuration=    28
   0.00000000 -0.00041903  0.00289629
   0.50000000  0.49956446  0.00291728
   0.00000000  0.49956230  0.06565109
   0.50000000 -0.00053865  0.06567036
   0.00000000 -0.00054456  0.12818596
   0.50000000  0.49936597  0.12818075
   0.00000000  0.49858730  0.19027955
   0.50000000 -0.00035287  0.19028620
   0.00000000 -0.00228211  0.25117400
   0.50000000  0.49917256  0.25168223
   0.00000000  0.49770021  0.31308320
   0.50000000 -0.00239976  0.31310642
   0.00000000 -0.00187751  0.37483344
   0.50000000  0.49626435  0.37555815
   0.00000000  0.49779489  0.43669802
   0.50000000 -0.00571867  0.43677634
   1.00000000  0.02418603  0.51537569
   1.00000000  0.20744472  0.52760185
Direct configuration=    29
   0.00000000 -0.00040474  0.00295867
   0.50000000  0.49946723  0.00297195
   0.00000000  0.49942778  0.06538023
   0.50000000 -0.00054778  0.06540074
   0.00000000 -0.00058236  0.12816534
   0.50000000  0.49926402  0.12814933
   0.00000000  0.49797667  0.19007187
   0.50000000  0.00002114  0.19007748
   0.00000000 -0.00172703  0.25110312
   0.50000000  0.49834420  0.25155603
   0.00000000  0.49756567  0.31316085
   0.50000000 -0.00220673  0.31318453
   0.00000000 -0.00196060  0.37487207
   0.50000000  0.49656681  0.37551380
   0.00000000  0.49818150  0.43672510
   0.50000000 -0.00583807  0.43673064
   1.00000000  0.02462002  0.51560191
   1.00000000  0.20734191  0.52833315
Direct configuration=    30
   0.00000000 -0.00037616  0.00308345
   0.50000000  0.49927278  0.00308129
   0.00000000  0.49915873  0.06483852
   0.50000000 -0.00056604  0.06486149
   0.00000000 -0.00065796  0.12812409
   0.50000000  0.49906013  0.12808651
   0.00000000  0.49675540  0.18965651
   0.50000000  0.00076915  0.18966003
   0.00000000 -0.00061688  0.25096138
   0.50000000  0.49668746  0.25130364
   0.00000000  0.49729659  0.31331615
   0.50000000 -0.00182066  0.31334074
   0.00000000 -0.00212678  0.37494935
   0.50000000  0.49717172  0.37542510
   0.00000000  0.49895474  0.43677927
   0.50000000 -0.00607688  0.43663925
   1.00000000  0.02548800  0.51605435
   1.00000000  0.20713629  0.52979573
Direct configuration=    31
   0.00000000 -0.00038152  0.00306004
   0.50000000  0.49930925  0.00306078
   0.00000000  0.49920920  0.06494013
   0.50000000 -0.00056261  0.06496264
   0.00000000 -0.00064378  0.12813182
   0.50000000  0.49909838  0.12809829
   0.00000000  0.49698449  0.18973442
   0.50000000  0.00062884  0.18973834
   0.00000000 -0.00082512  0.25098796
   0.50000000  0.49699824  0.25135098
   0.00000000  0.49734706  0.31328702
   0.50000000 -0.00189308  0.31331144
   0.00000000 -0.00209560  0.37493486
   0.50000000  0.49705825  0.37544174
   0.00000000  0.49880969  0.43676911
   0.50000000 -0.00603209  0.43665639
   1.00000000  0.02532518  0.51596948
   1.00000000  0.20717486  0.52952138
Direct configuration=    32
   0.00000000 -0.00041659  0.00301502
   0.50000000  0.49929068  0.00301536
   0.00000000  0.49919114  0.06490655
   0.50000000 -0.00060811  0.06492664
   0.00000000 -0.00079154  0.12805107
   0.50000000  0.49916040  0.12801674
   0.00000000  0.49713269  0.18970086
   0.50000000  0.00038480  0.18970228
   0.00000000 -0.00093837  0.25095325
   0.50000000  0.49703857  0.25127278
   0.00000000  0.49742460  0.31327433
   0.50000000 -0.00194024  0.31329456
   0.00000000 -0.00214814  0.37498325
   0.50000000  0.49715793  0.37542613
   0.00000000  0.49879219  0.43679096
   0.50000000 -0.00587798  0.43665745
   1.00000000  0.02573946  0.51608659
   1.00000000  0.20691817  0.52988302
Direct configuration=    33
   0.00000000 -0.00052181  0.00287997
   0.50000000  0.49923497  0.00287911
   0.00000000  0.49913699  0.06480579
   0.50000000 -0.00074462  0.06481863
   0.00000000 -0.00123483  0.12780881
   0.50000000  0.49934647  0.12777210
   0.00000000  0.49757728  0.18960017
   0.50000000 -0.00034733  0.18959410
   0.00000000 -0.00127811  0.25084910
   0.50000000  0.49715956  0.25103816
   0.00000000  0.49765720  0.31323627
   0.50000000 -0.00208171  0.31324392
   0.00000000 -0.00230575  0.37512844
   0.50000000  0.49745695  0.37537927
   0.00000000  0.49873968  0.43685652
   0.50000000 -0.00541568  0.43666062
   1.00000000  0.02698228  0.51643793
   1.00000000  0.20614809  0.53096792
Direct configuration=    34
   0.00000000 -0.00073226  0.00260986
   0.50000000  0.49912354  0.00260660
   0.00000000  0.49902867  0.06460428
   0.50000000 -0.00101762  0.06460262
   0.00000000 -0.00212140  0.12732428
   0.50000000  0.49971860  0.12728282
   0.00000000  0.49846647  0.18939880
   0.50000000 -0.00181159  0.18937774
   0.00000000 -0.00195759  0.25064081
   0.50000000  0.49740156  0.25056893
   0.00000000  0.49812242  0.31316015
   0.50000000 -0.00236464  0.31314263
   0.00000000 -0.00262098  0.37541881
   0.50000000  0.49805501  0.37528557
   0.00000000  0.49863467  0.43698764
   0.50000000 -0.00449107  0.43666695
   1.00000000  0.02946793  0.51714060
   1.00000000  0.20460793  0.53313774
Direct configuration=    35
   0.00000000 -0.00077812  0.00253486
   0.50000000  0.49910269  0.00253191
   0.00000000  0.49898883  0.06458015
   0.50000000 -0.00104638  0.06457601
   0.00000000 -0.00219831  0.12723713
   0.50000000  0.49969604  0.12719708
   0.00000000  0.49857930  0.18936499
   0.50000000 -0.00201694  0.18934229
   0.00000000 -0.00207877  0.25061128
   0.50000000  0.49748470  0.25050830
   0.00000000  0.49816855  0.31312522
   0.50000000 -0.00239183  0.31310399
   0.00000000 -0.00261790  0.37544957
   0.50000000  0.49809109  0.37527493
   0.00000000  0.49856358  0.43702116
   0.50000000 -0.00428325  0.43668650
   1.00000000  0.03072518  0.51733553
   1.00000000  0.20352116  0.53347594
Direct configuration=    36
   0.00000000 -0.00091569  0.00230988
   0.50000000  0.49904015  0.00230782
   0.00000000  0.49886932  0.06450775
   0.50000000 -0.00113266  0.06449615
   0.00000000 -0.00242905  0.12697571
   0.50000000  0.49962835  0.12693985
   0.00000000  0.49891781  0.18926358
   0.50000000 -0.00263297  0.18923595
   0.00000000 -0.00244229  0.25052269
   0.50000000  0.49773414  0.25032641
   0.00000000  0.49830697  0.31302042
   0.50000000 -0.00247340  0.31298807
   0.00000000 -0.00260866  0.37554184
   0.50000000  0.49819934  0.37524300
   0.00000000  0.49835030  0.43712174
   0.50000000 -0.00365979  0.43674515
   1.00000000  0.03449694  0.51792029
   1.00000000  0.20026083  0.53449055
Direct configuration=    37
   0.00000000 -0.00119084  0.00185992
   0.50000000  0.49891507  0.00185964
   0.00000000  0.49863028  0.06436294
   0.50000000 -0.00130522  0.06433645
   0.00000000 -0.00289053  0.12645285
   0.50000000  0.49949298  0.12642538
   0.00000000  0.49959482  0.18906076
   0.50000000 -0.00386504  0.18902326
   0.00000000 -0.00316932  0.25034551
   0.50000000  0.49823302  0.24996263
   0.00000000  0.49858379  0.31281082
   0.50000000 -0.00263654  0.31275622
   0.00000000 -0.00259017  0.37572638
   0.50000000  0.49841583  0.37517914
   0.00000000  0.49792375  0.43732289
   0.50000000 -0.00241288  0.43686245
   1.00000000  0.04204046  0.51908983
   1.00000000  0.19374017  0.53651976
Direct configuration=    38
   0.00000000 -0.00103218  0.00211938
   0.50000000  0.49898719  0.00211807
   0.00000000  0.49876812  0.06444644
   0.50000000 -0.00120572  0.06442854
   0.00000000 -0.00262443  0.12675434
   0.50000000  0.49957104  0.12672203
   0.00000000  0.49920444  0.18917771
   0.50000000 -0.00315460  0.18914590
   0.00000000 -0.00275009  0.25044768
   0.50000000  0.49794536  0.25017240
   0.00000000  0.49842417  0.31293168
   0.50000000 -0.00254247  0.31288991
   0.00000000 -0.00260083  0.37561997
   0.50000000  0.49829099  0.37521596
   0.00000000  0.49816971  0.43720690
   0.50000000 -0.00313188  0.43679481
   1.00000000  0.03769068  0.51841545
   1.00000000  0.19750015  0.53534966
Direct configuration=    39
   0.00000000 -0.00110868  0.00198547
   0.50000000  0.49894791  0.00198516
   0.00000000  0.49868068  0.06439805
   0.50000000 -0.00122851  0.06437726
   0.00000000 -0.00262426  0.12664174
   0.50000000  0.49941099  0.12661344
   0.00000000  0.49923440  0.18911448
   0.50000000 -0.00331294  0.18908172
   0.00000000 -0.00285255  0.25040719
   0.50000000  0.49802968  0.25011049
   0.00000000  0.49842452  0.31286237
   0.50000000 -0.00253197  0.31281664
   0.00000000 -0.00254217  0.37563875
   0.50000000  0.49828700  0.37520966
   0.00000000  0.49804989  0.43727101
   0.50000000 -0.00281883  0.43684793
   1.00000000  0.03896697  0.51864121
   1.00000000  0.19649752  0.53595426
Direct configuration=    40
   0.00000000 -0.00133818  0.00158374
   0.50000000  0.49883004  0.00158643
   0.00000000  0.49841836  0.06425289
   0.50000000 -0.00129688  0.06422343
   0.00000000 -0.00262375  0.12630392
   0.50000000  0.49893084  0.12628768
   0.00000000  0.49932430  0.18892480
   0.50000000 -0.00378796  0.18888919
   0.00000000 -0.00315993  0.25028575
   0.50000000  0.49828264  0.24992478
   0.00000000  0.49842558  0.31265443
   0.50000000 -0.00250047  0.31259682
   0.00000000 -0.00236619  0.37569508
   0.50000000  0.49827501  0.37519076
   0.00000000  0.49769041  0.43746333
   0.50000000 -0.00187967  0.43700727
   1.00000000  0.04279583  0.51931849
   1.00000000  0.19348966  0.53776805
Direct configuration=    41
   0.00000000 -0.00179718  0.00078029
   0.50000000  0.49859431  0.00078897
   0.00000000  0.49789372  0.06396256
   0.50000000 -0.00143361  0.06391576
   0.00000000 -0.00262272  0.12562829
   0.50000000  0.49797054  0.12563616
   0.00000000  0.49950410  0.18854543
   0.50000000 -0.00473801  0.18850411
   0.00000000 -0.00377469  0.25004287
   0.50000000  0.49878857  0.24955335
   0.00000000  0.49842769  0.31223855
   0.50000000 -0.00243747  0.31215718
   0.00000000 -0.00201424  0.37580775
   0.50000000  0.49825104  0.37515297
   0.00000000  0.49697147  0.43784798
   0.50000000 -0.00000135  0.43732595
   1.00000000  0.05045355  0.52067305
   1.00000000  0.18747392  0.54139563
Direct configuration=    42
   0.00000000 -0.00198236  0.00045613
   0.50000000  0.49849920  0.00046723
   0.00000000  0.49768205  0.06384543
   0.50000000 -0.00148878  0.06379163
   0.00000000 -0.00262231  0.12535570
   0.50000000  0.49758309  0.12537330
   0.00000000  0.49957664  0.18839237
   0.50000000 -0.00512131  0.18834875
   0.00000000 -0.00402272  0.24994487
   0.50000000  0.49899269  0.24940350
   0.00000000  0.49842854  0.31207076
   0.50000000 -0.00241206  0.31197981
   0.00000000 -0.00187224  0.37585321
   0.50000000  0.49824137  0.37513772
   0.00000000  0.49668140  0.43800317