       N       E                     dE             d eps       ncg     rms          rms(c)
DAV:   1     0.945012188725E+03    0.94501E+03   -0.40500E+04   864   0.168E+03
DAV:   2     0.731049596666E+02   -0.87191E+03   -0.83606E+03   864   0.380E+02
DAV:   3    -0.361819377261E+02   -0.10929E+03   -0.99298E+02   920   0.185E+02
DAV:   4    -0.408711975087E+02   -0.46893E+01   -0.46501E+01   960   0.531E+01
DAV:   5    -0.409713858295E+02   -0.10019E+00   -0.10014E+00  1072   0.649E+00    0.279E+01
DAV:   6    -0.343838538543E+02    0.65875E+01   -0.96331E+01   936   0.119E+02    0.148E+01
DAV:   7    -0.287891800376E+02    0.55947E+01   -0.22238E+01   960   0.651E+01    0.614E+00
DAV:   8    -0.281855554905E+02    0.60362E+00   -0.44655E+00  1008   0.500E+01    0.620E+00
DAV:   9    -0.276968743623E+02    0.48868E+00   -0.12508E+00  1144   0.302E+01    0.476E+00
DAV:  10    -0.271363461056E+02    0.56053E+00   -0.26298E+00  1080   0.152E+01    0.365E+00
DAV:  11    -0.282687180592E+02   -0.11324E+01   -0.79583E-01  1112   0.293E+01    0.304E+00
DAV:  12    -0.291274803346E+02   -0.85876E+00   -0.66534E-01  1184   0.254E+01    0.197E+00
DAV:  13    -0.302079791911E+02   -0.10805E+01   -0.73724E-01  1160   0.204E+01    0.157E+00
DAV:  14    -0.321656838421E+02   -0.19577E+01   -0.13948E+00  1112   0.952E+00    0.117E+00
DAV:  15    -0.330213158173E+02   -0.85563E+00   -0.64936E-01  1024   0.467E+00    0.104E+00
DAV:  16    -0.334951156965E+02   -0.47380E+00   -0.33298E-01  1096   0.445E+00    0.767E-01
DAV:  17    -0.337398589640E+02   -0.24474E+00   -0.25074E-01  1096   0.560E+00    0.487E-01
DAV:  18    -0.339294570037E+02   -0.18960E+00   -0.66179E-02  1120   0.352E+00    0.457E-01
DAV:  19    -0.340016002681E+02   -0.72143E-01   -0.30407E-02  1200   0.207E+00    0.269E-01
DAV:  20    -0.340845783069E+02   -0.82978E-01   -0.19130E-02   944   0.110E+00    0.256E-01
DAV:  21    -0.342162099922E+02   -0.13163E+00   -0.95259E-03  1040   0.152E+00    0.191E-01
DAV:  22    -0.342940315979E+02   -0.77822E-01   -0.67331E-03   904   0.402E-01    0.139E-01
DAV:  23    -0.343408733806E+02   -0.46842E-01   -0.12878E-03   768   0.377E-01    0.861E-02
DAV:  24    -0.343648001622E+02   -0.23927E-01   -0.23732E-03   880   0.269E-01    0.623E-02
DAV:  25    -0.343872424906E+02   -0.22442E-01   -0.97292E-04   824   0.247E-01    0.412E-02
DAV:  26    -0.343905517742E+02   -0.33093E-02   -0.36126E-04   696   0.134E-01    0.181E-02
DAV:  27    -0.343925045681E+02   -0.19528E-02   -0.13947E-04   616   0.112E-01    0.128E-02
DAV:  28    -0.343933972024E+02   -0.89263E-03   -0.59951E-05   600   0.778E-02    0.106E-02
DAV:  29    -0.343934636755E+02   -0.66473E-04   -0.15765E-05   584   0.230E-02
   1 F= -.37957112E+02 E0= -.37947645E+02  d E =-.379571E+02  mag=    -0.0025
       N       E                     dE             d eps       ncg     rms          rms(c)
DAV:   1    -0.343936339825E+02   -0.23678E-03   -0.21335E+00   928   0.534E+00    0.126E-01
DAV:   2    -0.343972978450E+02   -0.36639E-02   -0.38370E-02  1280   0.232E+00    0.186E-01
DAV:   3    -0.343969848946E+02    0.31295E-03   -0.25119E-03   928   0.161E+00    0.819E-02
DAV:   4    -0.343969539409E+02    0.30954E-04   -0.51697E-04   744   0.602E-01
   2 F= -.37963729E+02 E0= -.37954072E+02  d E =-.661645E-02  mag=    -0.0021
       N       E                     dE             d eps       ncg     rms          rms(c)
DAV:   1    -0.343892890299E+02    0.76959E-02   -0.54885E+00   920   0.852E+00    0.217E-01
DAV:   2    -0.343990911666E+02   -0.98021E-02   -0.10184E-01  1304   0.388E+00    0.318E-01
DAV:   3    -0.343981487814E+02    0.94239E-03   -0.73173E-03   984   0.289E+00    0.166E-01
DAV:   4    -0.343979912391E+02    0.15754E-03   -0.16865E-03   904   0.110E+00
   3 F= -.37969803E+02 E0= -.37959828E+02  d E =-.126911E-01  mag=    -0.0017
       N       E                     dE             d eps       ncg     rms          rms(c)
DAV:   1    -0.343957790913E+02    0.23697E-02   -0.79744E-01   928   0.335E+00    0.141E-01
DAV:   2    -0.343971761915E+02   -0.13971E-02   -0.13506E-02  1480   0.210E+00    0.164E-01
DAV:   3    -0.343967840075E+02    0.39218E-03   -0.25306E-03   944   0.201E+00    0.114E-01
DAV:   4    -0.343966695161E+02    0.11449E-03   -0.75599E-04   784   0.933E-01
   4 F= -.37970408E+02 E0= -.37960313E+02  d E =-.132959E-01  mag=    -0.0012
       N       E                     dE             d eps       ncg     rms          rms(c)
DAV:   1    -0.343874125548E+02    0.93715E-02   -0.31600E+00   920   0.650E+00    0.153E-01
DAV:   2    -0.343927839071E+02   -0.53714E-02   -0.53792E-02  1280   0.298E+00    0.246E-01
DAV:   3    -0.343923018202E+02    0.48209E-03   -0.50316E-03   928   0.220E+00    0.972E-02
DAV:   4    -0.343923154557E+02   -0.13635E-04   -0.12074E-03   848   0.733E-01
   5 F= -.37969925E+02 E0= -.37959574E+02  d E =-.128122E-01  mag=    -0.0010
       N       E                     dE             d eps       ncg     rms          rms(c)
DAV:   1    -0.343933270226E+02   -0.10252E-02   -0.13825E+00   912   0.432E+00    0.837E-02
DAV:   2    -0.343955959259E+02   -0.22689E-02   -0.21715E-02  1264   0.154E+00    0.103E-01
DAV:   3    -0.343955609655E+02    0.34960E-04   -0.25304E-03   888   0.163E+00    0.751E-02
DAV:   4    -0.343955065455E+02    0.54420E-04   -0.53368E-04   656   0.760E-01
   6 F= -.37970548E+02 E0= -.37960372E+02  d E =-.134358E-01  mag=    -0.0008
       N       E                     dE             d eps       ncg     rms          rms(c)
DAV:   1    -0.343892283961E+02    0.63326E-02   -0.31136E+00   928   0.661E+00    0.120E-01
DAV:   2    -0.343945526875E+02   -0.53243E-02   -0.54806E-02  1248   0.229E+00    0.173E-01
DAV:   3    -0.343944069619E+02    0.14573E-03   -0.32122E-03   904   0.153E+00    0.995E-02
DAV:   4    -0.343943631502E+02    0.43812E-04   -0.65175E-04   720   0.715E-01
   7 F= -.37975283E+02 E0= -.37964960E+02  d E =-.473536E-02  mag=    -0.0007
       N       E                     dE             d eps       ncg     rms          rms(c)
DAV:   1    -0.343770054668E+02    0.17401E-01   -0.80905E+00   928   0.107E+01    0.223E-01
DAV:   2    -0.343911742155E+02   -0.14169E-01   -0.14640E-01  1288   0.414E+00    0.322E-01
DAV:   3    -0.343902688148E+02    0.90540E-03   -0.87991E-03  1008   0.296E+00    0.204E-01
DAV:   4    -0.343900565291E+02    0.21229E-03   -0.21264E-03   888   0.104E+00    0.180E-01
DAV:   5    -0.343897139664E+02    0.34256E-03   -0.17520E-03   936   0.134E+00    0.160E-01
DAV:   6    -0.343894319072E+02    0.28206E-03   -0.28530E-03  1248   0.131E+00    0.647E-02
DAV:   7    -0.343894024185E+02    0.29489E-04   -0.33201E-04   528   0.446E-01
   8 F= -.37979771E+02 E0= -.37969218E+02  d E =-.922247E-02  mag=    -0.0004
       N       E                     dE             d eps       ncg     rms          rms(c)
DAV:   1    -0.343112797604E+02    0.78152E-01   -0.32599E+01   928   0.220E+01    0.456E-01
DAV:   2    -0.343766046925E+02   -0.65325E-01   -0.66918E-01  1320   0.954E+00    0.692E-01
DAV:   3    -0.343712053002E+02    0.53994E-02   -0.35370E-02  1200   0.639E+00    0.352E-01
DAV:   4    -0.343704248431E+02    0.78046E-03   -0.86473E-03  1160   0.247E+00    0.323E-01
DAV:   5    -0.343699601084E+02    0.46473E-03   -0.42134E-03   960   0.190E+00    0.289E-01
DAV:   6    -0.343685061887E+02    0.14539E-02   -0.53075E-03  1352   0.144E+00    0.124E-01
DAV:   7    -0.343685781577E+02   -0.71969E-04   -0.19959E-03   960   0.152E+00
   9 F= -.37977850E+02 E0= -.37966920E+02  d E =-.730217E-02  mag=    -0.0003
       N       E                     dE             d eps       ncg     rms          rms(c)
DAV:   1    -0.343601733553E+02    0.83328E-02   -0.14072E+01   928   0.143E+01    0.249E-01
DAV:   2    -0.343869517411E+02   -0.26778E-01   -0.27471E-01  1224   0.424E+00    0.401E-01
DAV:   3    -0.343856238776E+02    0.13279E-02   -0.91335E-03   880   0.270E+00    0.244E-01
DAV:   4    -0.343853476342E+02    0.27624E-03   -0.19634E-03   976   0.117E+00    0.234E-01
DAV:   5    -0.343848646249E+02    0.48301E-03   -0.12800E-03   880   0.146E+00    0.190E-01
DAV:   6    -0.343841344711E+02    0.73015E-03   -0.19818E-03  1184   0.124E+00    0.700E-02
DAV:   7    -0.343841578479E+02   -0.23377E-04   -0.10930E-03   896   0.715E-01
  10 F= -.37980963E+02 E0= -.37970414E+02  d E =-.104148E-01  mag=    -0.0002
       N       E                     dE             d eps       ncg     rms          rms(c)
DAV:   1    -0.343738777121E+02    0.10257E-01   -0.54445E+00   944   0.885E+00    0.163E-01
DAV:   2    -0.343834825100E+02   -0.96048E-02   -0.96241E-02  1264   0.358E+00    0.275E-01
DAV:   3    -0.343827206922E+02    0.76182E-03   -0.66319E-03  1040   0.257E+00    0.150E-01
DAV:   4    -0.343826516873E+02    0.69005E-04   -0.15716E-03   832   0.798E-01
  11 F= -.37986270E+02 E0= -.37975504E+02  d E =-.530725E-02  mag=    -0.0001
       N       E                     dE             d eps       ncg     rms          rms(c)
DAV:   1    -0.342902246518E+02    0.92496E-01   -0.49565E+01   944   0.274E+01    0.555E-01
DAV:   2    -0.343866313969E+02   -0.96407E-01   -0.96135E-01  1352   0.119E+01    0.895E-01
DAV:   3    -0.343763531846E+02    0.10278E-01   -0.59416E-02  1416   0.817E+00    0.488E-01
DAV:   4    -0.343747759180E+02    0.15773E-02   -0.10196E-02  1112   0.226E+00    0.444E-01
DAV:   5    -0.343719602469E+02    0.28157E-02   -0.13060E-02  1040   0.309E+00    0.367E-01
DAV:   6    -0.343705607557E+02    0.13995E-02   -0.12914E-02  1288   0.288E+00    0.155E-01
DAV:   7    -0.343704826254E+02    0.78130E-04   -0.26901E-03  1104   0.103E+00    0.123E-01
DAV:   8    -0.343702790608E+02    0.20356E-03   -0.10407E-03   840   0.102E+00    0.581E-02
DAV:   9    -0.343702364930E+02    0.42568E-04   -0.21630E-04   512   0.388E-01
  12 F= -.37994308E+02 E0= -.37983380E+02  d E =-.133450E-01  mag=    -0.0001
       N       E                     dE             d eps       ncg     rms          rms(c)
DAV:   1    -0.343606735585E+02    0.96055E-02   -0.31742E+00   944   0.674E+00    0.124E-01
DAV:   2    -0.343661002402E+02   -0.54267E-02   -0.54206E-02  1320   0.259E+00    0.189E-01
DAV:   3    -0.343657922160E+02    0.30802E-03   -0.38844E-03  1040   0.196E+00    0.107E-01
DAV:   4    -0.343657469650E+02    0.45251E-04   -0.90753E-04   768   0.661E-01
  13 F= -.37995038E+02 E0= -.37984085E+02  d E =-.140748E-01  mag=    -0.0001
