  34  34   0   0
  0.2629040E+02  0.7260000E-09  0.5133596E-09  0.2398379E-08  0.5000000E-15
  1.000000000000000E-004
  CAR 
 unknown system                          
     11.84303660    -10.28236161  301      0.76373591      1.00000000
    -10.282  0.0000E+00  0.0000E+00  0.0000E+00  0.0000E+00
    -10.209  0.0000E+00  0.0000E+00  0.0000E+00  0.0000E+00
    -10.135  0.0000E+00  0.0000E+00  0.0000E+00  0.0000E+00
    -10.061  0.0000E+00  0.0000E+00  0.0000E+00  0.0000E+00
     -9.987  0.0000E+00  0.0000E+00  0.0000E+00  0.0000E+00
     -9.914 -0.5570E-31 -0.5570E-31 -0.4108E-32 -0.4108E-32
     -9.840 -0.1896E-28 -0.1896E-28 -0.1402E-29 -0.1402E-29
     -9.766 -0.4916E-26 -0.4916E-26 -0.3640E-27 -0.3640E-27
     -9.692 -0.9684E-24 -0.9684E-24 -0.7179E-25 -0.7179E-25
     -9.619 -0.1449E-21 -0.1449E-21 -0.1076E-22 -0.1076E-22
     -9.545 -0.1646E-19 -0.1646E-19 -0.1225E-20 -0.1225E-20
     -9.471 -0.1419E-17 -0.1419E-17 -0.1058E-18 -0.1058E-18
     -9.397 -0.8967E-16 -0.8967E-16 -0.6719E-17 -0.6719E-17
     -9.324 -0.4423E-14 -0.4423E-14 -0.3329E-15 -0.3329E-15
     -9.250 -0.1648E-12 -0.1648E-12 -0.1248E-13 -0.1248E-13
     -9.176 -0.4632E-11 -0.4632E-11 -0.3541E-12 -0.3541E-12
     -9.102 -0.9802E-10 -0.9802E-10 -0.7583E-11 -0.7583E-11
     -9.029 -0.1556E-08 -0.1556E-08 -0.1224E-09 -0.1224E-09
     -8.955 -0.1845E-07 -0.1845E-07 -0.1483E-08 -0.1483E-08
     -8.881 -0.1621E-06 -0.1621E-06 -0.1344E-07 -0.1344E-07
     -8.807 -0.1044E-05 -0.1044E-05 -0.9042E-07 -0.9042E-07
     -8.734 -0.4819E-05 -0.4819E-05 -0.4458E-06 -0.4458E-06
     -8.660 -0.1526E-04 -0.1526E-04 -0.1571E-05 -0.1571E-05
     -8.586 -0.2933E-04 -0.2933E-04 -0.3734E-05 -0.3734E-05
     -8.512 -0.1540E-04 -0.1540E-04 -0.4870E-05 -0.4870E-05
     -8.439  0.8816E-04  0.8816E-04  0.1632E-05  0.1632E-05
     -8.365  0.2953E-03  0.2953E-03  0.2341E-04  0.2341E-04
     -8.291  0.4830E-03  0.4830E-03  0.5903E-04  0.5903E-04
     -8.217  0.5008E-03  0.5008E-03  0.9597E-04  0.9597E-04
     -8.144  0.4266E-03  0.4266E-03  0.1274E-03  0.1274E-03
     -8.070  0.5297E-03  0.5297E-03  0.1665E-03  0.1665E-03
     -7.996  0.8530E-03  0.8530E-03  0.2294E-03  0.2294E-03
     -7.922  0.1061E-02  0.1061E-02  0.3076E-03  0.3076E-03
     -7.849  0.9203E-03  0.9203E-03  0.3755E-03  0.3755E-03
     -7.775  0.6952E-03  0.6952E-03  0.4268E-03  0.4268E-03
     -7.701  0.7354E-03  0.7354E-03  0.4810E-03  0.4810E-03
     -7.627  0.9148E-03  0.9148E-03  0.5485E-03  0.5485E-03
     -7.554  0.9197E-03  0.9197E-03  0.6163E-03  0.6163E-03
     -7.480  0.9437E-03  0.9437E-03  0.6859E-03  0.6859E-03
     -7.406  0.1478E-02  0.1478E-02  0.7949E-03  0.7949E-03
     -7.332  0.2345E-02  0.2345E-02  0.9678E-03  0.9678E-03
     -7.259  0.2670E-02  0.2670E-02  0.1165E-02  0.1165E-02
     -7.185  0.2159E-02  0.2159E-02  0.1324E-02  0.1324E-02
     -7.111  0.1623E-02  0.1623E-02  0.1444E-02  0.1444E-02
     -7.037  0.1744E-02  0.1744E-02  0.1572E-02  0.1572E-02
     -6.964  0.2064E-02  0.2064E-02  0.1724E-02  0.1724E-02
     -6.890  0.1820E-02  0.1820E-02  0.1859E-02  0.1859E-02
     -6.816  0.1138E-02  0.1138E-02  0.1943E-02  0.1943E-02
     -6.742  0.7017E-03  0.7017E-03  0.1994E-02  0.1994E-02
     -6.669  0.7364E-03  0.7364E-03  0.2049E-02  0.2049E-02
     -6.595  0.1087E-02  0.1087E-02  0.2129E-02  0.2129E-02
     -6.521  0.1902E-02  0.1902E-02  0.2269E-02  0.2269E-02
     -6.447  0.3262E-02  0.3262E-02  0.2510E-02  0.2510E-02
     -6.374  0.4328E-02  0.4328E-02  0.2829E-02  0.2829E-02
     -6.300  0.4050E-02  0.4050E-02  0.3128E-02  0.3128E-02
     -6.226  0.2676E-02  0.2676E-02  0.3325E-02  0.3325E-02
     -6.152  0.1444E-02  0.1444E-02  0.3431E-02  0.3431E-02
     -6.079  0.9866E-03  0.9866E-03  0.3504E-02  0.3504E-02
     -6.005  0.1019E-02  0.1019E-02  0.3579E-02  0.3579E-02
     -5.931  0.1189E-02  0.1189E-02  0.3667E-02  0.3667E-02
     -5.857  0.1470E-02  0.1470E-02  0.3775E-02  0.3775E-02
     -5.784  0.2185E-02  0.2185E-02  0.3937E-02  0.3937E-02
     -5.710  0.3881E-02  0.3881E-02  0.4223E-02  0.4223E-02
     -5.636  0.6481E-02  0.6481E-02  0.4701E-02  0.4701E-02
     -5.562  0.8660E-02  0.8660E-02  0.5339E-02  0.5339E-02
     -5.489  0.8902E-02  0.8902E-02  0.5996E-02  0.5996E-02
     -5.415  0.7030E-02  0.7030E-02  0.6515E-02  0.6515E-02
     -5.341  0.4319E-02  0.4319E-02  0.6833E-02  0.6833E-02
     -5.267  0.2518E-02  0.2518E-02  0.7019E-02  0.7019E-02
     -5.194  0.2809E-02  0.2809E-02  0.7226E-02  0.7226E-02
     -5.120  0.5076E-02  0.5076E-02  0.7600E-02  0.7600E-02
     -5.046  0.7820E-02  0.7820E-02  0.8177E-02  0.8177E-02
     -4.972  0.9165E-02  0.9165E-02  0.8853E-02  0.8853E-02
     -4.899  0.8366E-02  0.8366E-02  0.9470E-02  0.9470E-02
     -4.825  0.6081E-02  0.6081E-02  0.9918E-02  0.9918E-02
     -4.751  0.3360E-02  0.3360E-02  0.1017E-01  0.1017E-01
     -4.677  0.1096E-02  0.1096E-02  0.1025E-01  0.1025E-01
     -4.604  0.1797E-03  0.1797E-03  0.1026E-01  0.1026E-01
     -4.530  0.1299E-02  0.1299E-02  0.1036E-01  0.1036E-01
     -4.456  0.4381E-02  0.4381E-02  0.1068E-01  0.1068E-01
     -4.382  0.8280E-02  0.8280E-02  0.1129E-01  0.1129E-01
     -4.309  0.1123E-01  0.1123E-01  0.1212E-01  0.1212E-01
     -4.235  0.1215E-01  0.1215E-01  0.1301E-01  0.1301E-01
     -4.161  0.1181E-01  0.1181E-01  0.1388E-01  0.1388E-01
     -4.087  0.1230E-01  0.1230E-01  0.1479E-01  0.1479E-01
     -4.013  0.1478E-01  0.1478E-01  0.1588E-01  0.1588E-01
     -3.940  0.1809E-01  0.1809E-01  0.1722E-01  0.1722E-01
     -3.866  0.2029E-01  0.2029E-01  0.1871E-01  0.1871E-01
     -3.792  0.2129E-01  0.2129E-01  0.2028E-01  0.2028E-01
     -3.718  0.2262E-01  0.2262E-01  0.2195E-01  0.2195E-01
     -3.645  0.2452E-01  0.2452E-01  0.2376E-01  0.2376E-01
     -3.571  0.2590E-01  0.2590E-01  0.2567E-01  0.2567E-01
     -3.497  0.2735E-01  0.2735E-01  0.2769E-01  0.2769E-01
     -3.423  0.3116E-01  0.3116E-01  0.2998E-01  0.2998E-01
     -3.350  0.3739E-01  0.3739E-01  0.3274E-01  0.3274E-01
     -3.276  0.4236E-01  0.4236E-01  0.3587E-01  0.3587E-01
     -3.202  0.4286E-01  0.4286E-01  0.3903E-01  0.3903E-01
     -3.128  0.4014E-01  0.4014E-01  0.4199E-01  0.4199E-01
     -3.055  0.3745E-01  0.3745E-01  0.4475E-01  0.4475E-01
     -2.981  0.3571E-01  0.3571E-01  0.4738E-01  0.4738E-01
     -2.907  0.3442E-01  0.3442E-01  0.4992E-01  0.4992E-01
     -2.833  0.3499E-01  0.3499E-01  0.5250E-01  0.5250E-01
     -2.760  0.3954E-01  0.3954E-01  0.5542E-01  0.5542E-01
     -2.686  0.4713E-01  0.4713E-01  0.5889E-01  0.5889E-01
     -2.612  0.5385E-01  0.5385E-01  0.6287E-01  0.6287E-01
     -2.538  0.5691E-01  0.5691E-01  0.6706E-01  0.6706E-01
     -2.465  0.5716E-01  0.5716E-01  0.7128E-01  0.7128E-01
     -2.391  0.5779E-01  0.5779E-01  0.7554E-01  0.7554E-01
     -2.317  0.6142E-01  0.6142E-01  0.8007E-01  0.8007E-01
     -2.243  0.6806E-01  0.6806E-01  0.8509E-01  0.8509E-01
     -2.170  0.7527E-01  0.7527E-01  0.9064E-01  0.9064E-01
     -2.096  0.7960E-01  0.7960E-01  0.9651E-01  0.9651E-01
     -2.022  0.7880E-01  0.7880E-01  0.1023E+00  0.1023E+00
     -1.948  0.7355E-01  0.7355E-01  0.1077E+00  0.1077E+00
     -1.875  0.6682E-01  0.6682E-01  0.1127E+00  0.1127E+00
     -1.801  0.6128E-01  0.6128E-01  0.1172E+00  0.1172E+00
     -1.727  0.5805E-01  0.5805E-01  0.1215E+00  0.1215E+00
     -1.653  0.5753E-01  0.5753E-01  0.1257E+00  0.1257E+00
     -1.580  0.6028E-01  0.6028E-01  0.1302E+00  0.1302E+00
     -1.506  0.6580E-01  0.6580E-01  0.1350E+00  0.1350E+00
     -1.432  0.7118E-01  0.7118E-01  0.1403E+00  0.1403E+00
     -1.358  0.7374E-01  0.7374E-01  0.1457E+00  0.1457E+00
     -1.285  0.7472E-01  0.7472E-01  0.1512E+00  0.1512E+00
     -1.211  0.7682E-01  0.7682E-01  0.1569E+00  0.1569E+00
     -1.137  0.7959E-01  0.7959E-01  0.1628E+00  0.1628E+00
     -1.063  0.8168E-01  0.8168E-01  0.1688E+00  0.1688E+00
     -0.990  0.8553E-01  0.8553E-01  0.1751E+00  0.1751E+00
     -0.916  0.9414E-01  0.9414E-01  0.1820E+00  0.1820E+00
     -0.842  0.1037E+00  0.1037E+00  0.1897E+00  0.1897E+00
     -0.768  0.1043E+00  0.1043E+00  0.1974E+00  0.1974E+00
     -0.695  0.8928E-01  0.8928E-01  0.2039E+00  0.2039E+00
     -0.621  0.6258E-01  0.6258E-01  0.2086E+00  0.2086E+00
     -0.547  0.3548E-01  0.3548E-01  0.2112E+00  0.2112E+00
     -0.473  0.1729E-01  0.1729E-01  0.2125E+00  0.2125E+00
     -0.400  0.9566E-02  0.9566E-02  0.2132E+00  0.2132E+00
     -0.326  0.8219E-02  0.8219E-02  0.2138E+00  0.2138E+00
     -0.252  0.8414E-02  0.8414E-02  0.2144E+00  0.2144E+00
     -0.178  0.7320E-02  0.7320E-02  0.2149E+00  0.2149E+00
     -0.105  0.4645E-02  0.4645E-02  0.2153E+00  0.2153E+00
     -0.031  0.1824E-02  0.1824E-02  0.2154E+00  0.2154E+00
      0.043  0.4804E-03  0.4804E-03  0.2154E+00  0.2154E+00
      0.117  0.1246E-02  0.1246E-02  0.2155E+00  0.2155E+00
      0.190  0.3539E-02  0.3539E-02  0.2158E+00  0.2158E+00
      0.264  0.6121E-02  0.6121E-02  0.2162E+00  0.2162E+00
      0.338  0.8045E-02  0.8045E-02  0.2168E+00  0.2168E+00
      0.412  0.9380E-02  0.9380E-02  0.2175E+00  0.2175E+00
      0.485  0.1078E-01  0.1078E-01  0.2183E+00  0.2183E+00
      0.559  0.1206E-01  0.1206E-01  0.2192E+00  0.2192E+00
      0.633  0.1194E-01  0.1194E-01  0.2201E+00  0.2201E+00
      0.707  0.9881E-02  0.9881E-02  0.2208E+00  0.2208E+00
      0.780  0.7204E-02  0.7204E-02  0.2214E+00  0.2214E+00
      0.854  0.5589E-02  0.5589E-02  0.2218E+00  0.2218E+00
      0.928  0.5403E-02  0.5403E-02  0.2222E+00  0.2222E+00
      1.002  0.6053E-02  0.6053E-02  0.2226E+00  0.2226E+00
      1.075  0.6897E-02  0.6897E-02  0.2231E+00  0.2231E+00
      1.149  0.7239E-02  0.7239E-02  0.2237E+00  0.2237E+00
      1.223  0.6350E-02  0.6350E-02  0.2241E+00  0.2241E+00
      1.297  0.4354E-02  0.4354E-02  0.2244E+00  0.2244E+00
      1.370  0.2663E-02  0.2663E-02  0.2246E+00  0.2246E+00
      1.444  0.2815E-02  0.2815E-02  0.2248E+00  0.2248E+00
      1.518  0.4748E-02  0.4748E-02  0.2252E+00  0.2252E+00
      1.592  0.6578E-02  0.6578E-02  0.2257E+00  0.2257E+00
      1.665  0.6696E-02  0.6696E-02  0.2262E+00  0.2262E+00
      1.739  0.5791E-02  0.5791E-02  0.2266E+00  0.2266E+00
      1.813  0.5705E-02  0.5705E-02  0.2270E+00  0.2270E+00
      1.887  0.6729E-02  0.6729E-02  0.2275E+00  0.2275E+00
      1.960  0.7574E-02  0.7574E-02  0.2281E+00  0.2281E+00
      2.034  0.7608E-02  0.7608E-02  0.2286E+00  0.2286E+00
      2.108  0.7439E-02  0.7439E-02  0.2292E+00  0.2292E+00
      2.182  0.7464E-02  0.7464E-02  0.2297E+00  0.2297E+00
      2.255  0.7323E-02  0.7323E-02  0.2303E+00  0.2303E+00
      2.329  0.6816E-02  0.6816E-02  0.2308E+00  0.2308E+00
      2.403  0.6408E-02  0.6408E-02  0.2313E+00  0.2313E+00
      2.477  0.6503E-02  0.6503E-02  0.2317E+00  0.2317E+00
      2.550  0.6679E-02  0.6679E-02  0.2322E+00  0.2322E+00
      2.624  0.6177E-02  0.6177E-02  0.2327E+00  0.2327E+00
      2.698  0.4998E-02  0.4998E-02  0.2331E+00  0.2331E+00
      2.772  0.3959E-02  0.3959E-02  0.2333E+00  0.2333E+00
      2.845  0.3937E-02  0.3937E-02  0.2336E+00  0.2336E+00
      2.919  0.5352E-02  0.5352E-02  0.2340E+00  0.2340E+00
      2.993  0.7557E-02  0.7557E-02  0.2346E+00  0.2346E+00
      3.067  0.8633E-02  0.8633E-02  0.2352E+00  0.2352E+00
      3.140  0.7174E-02  0.7174E-02  0.2358E+00  0.2358E+00
      3.214  0.4316E-02  0.4316E-02  0.2361E+00  0.2361E+00
      3.288  0.2595E-02  0.2595E-02  0.2363E+00  0.2363E+00
      3.362  0.3103E-02  0.3103E-02  0.2365E+00  0.2365E+00
      3.435  0.4835E-02  0.4835E-02  0.2368E+00  0.2368E+00
      3.509  0.6216E-02  0.6216E-02  0.2373E+00  0.2373E+00
      3.583  0.6442E-02  0.6442E-02  0.2378E+00  0.2378E+00
      3.657  0.5874E-02  0.5874E-02  0.2382E+00  0.2382E+00
      3.730  0.5479E-02  0.5479E-02  0.2386E+00  0.2386E+00
      3.804  0.5697E-02  0.5697E-02  0.2390E+00  0.2390E+00
      3.878  0.6151E-02  0.6151E-02  0.2395E+00  0.2395E+00
      3.952  0.6422E-02  0.6422E-02  0.2400E+00  0.2400E+00
      4.025  0.6374E-02  0.6374E-02  0.2404E+00  0.2404E+00
      4.099  0.5927E-02  0.5927E-02  0.2409E+00  0.2409E+00
      4.173  0.5094E-02  0.5094E-02  0.2412E+00  0.2412E+00
      4.247  0.4224E-02  0.4224E-02  0.2416E+00  0.2416E+00
      4.320  0.3907E-02  0.3907E-02  0.2418E+00  0.2418E+00
      4.394  0.4332E-02  0.4332E-02  0.2422E+00  0.2422E+00
      4.468  0.4827E-02  0.4827E-02  0.2425E+00  0.2425E+00
      4.542  0.4789E-02  0.4789E-02  0.2429E+00  0.2429E+00
      4.615  0.4870E-02  0.4870E-02  0.2432E+00  0.2432E+00
      4.689  0.6176E-02  0.6176E-02  0.2437E+00  0.2437E+00
      4.763  0.8342E-02  0.8342E-02  0.2443E+00  0.2443E+00
      4.837  0.9495E-02  0.9495E-02  0.2450E+00  0.2450E+00
      4.910  0.8385E-02  0.8385E-02  0.2456E+00  0.2456E+00
      4.984  0.5817E-02  0.5817E-02  0.2461E+00  0.2461E+00
      5.058  0.3617E-02  0.3617E-02  0.2463E+00  0.2463E+00
      5.132  0.2893E-02  0.2893E-02  0.2465E+00  0.2465E+00
      5.205  0.3776E-02  0.3776E-02  0.2468E+00  0.2468E+00
      5.279  0.5857E-02  0.5857E-02  0.2472E+00  0.2472E+00
      5.353  0.8041E-02  0.8041E-02  0.2478E+00  0.2478E+00
      5.427  0.9131E-02  0.9131E-02  0.2485E+00  0.2485E+00
      5.500  0.9234E-02  0.9234E-02  0.2492E+00  0.2492E+00
      5.574  0.9265E-02  0.9265E-02  0.2499E+00  0.2499E+00
      5.648  0.9241E-02  0.9241E-02  0.2506E+00  0.2506E+00
      5.722  0.8715E-02  0.8715E-02  0.2512E+00  0.2512E+00
      5.795  0.8152E-02  0.8152E-02  0.2518E+00  0.2518E+00
      5.869  0.8382E-02  0.8381E-02  0.2524E+00  0.2524E+00
      5.943  0.9304E-02  0.9304E-02  0.2531E+00  0.2531E+00
      6.017  0.1006E-01  0.1006E-01  0.2538E+00  0.2538E+00
      6.090  0.1002E-01  0.1002E-01  0.2546E+00  0.2546E+00
      6.164  0.9147E-02  0.9147E-02  0.2553E+00  0.2553E+00
      6.238  0.7910E-02  0.7910E-02  0.2558E+00  0.2558E+00
      6.312  0.7319E-02  0.7319E-02  0.2564E+00  0.2564E+00
      6.385  0.8067E-02  0.8067E-02  0.2570E+00  0.2570E+00
      6.459  0.9620E-02  0.9620E-02  0.2577E+00  0.2577E+00
      6.533  0.1080E-01  0.1080E-01  0.2585E+00  0.2585E+00
      6.607  0.1095E-01  0.1095E-01  0.2593E+00  0.2593E+00
      6.680  0.1023E-01  0.1023E-01  0.2600E+00  0.2600E+00
      6.754  0.9409E-02  0.9409E-02  0.2607E+00  0.2607E+00
      6.828  0.9039E-02  0.9039E-02  0.2614E+00  0.2614E+00
      6.902  0.8851E-02  0.8851E-02  0.2621E+00  0.2621E+00
      6.975  0.8269E-02  0.8269E-02  0.2627E+00  0.2627E+00
      7.049  0.7470E-02  0.7470E-02  0.2632E+00  0.2632E+00
      7.123  0.7258E-02  0.7258E-02  0.2638E+00  0.2638E+00
      7.197  0.8052E-02  0.8052E-02  0.2644E+00  0.2644E+00
      7.270  0.9482E-02  0.9482E-02  0.2651E+00  0.2651E+00
      7.344  0.1071E-01  0.1071E-01  0.2658E+00  0.2658E+00
      7.418  0.1094E-01  0.1094E-01  0.2666E+00  0.2666E+00
      7.492  0.9982E-02  0.9982E-02  0.2674E+00  0.2674E+00
      7.565  0.8486E-02  0.8486E-02  0.2680E+00  0.2680E+00
      7.639  0.7620E-02  0.7620E-02  0.2686E+00  0.2686E+00
      7.713  0.8251E-02  0.8251E-02  0.2692E+00  0.2692E+00
      7.787  0.1023E-01  0.1022E-01  0.2699E+00  0.2699E+00
      7.860  0.1256E-01  0.1256E-01  0.2709E+00  0.2709E+00
      7.934  0.1406E-01  0.1406E-01  0.2719E+00  0.2719E+00
      8.008  0.1376E-01  0.1376E-01  0.2729E+00  0.2729E+00
      8.082  0.1174E-01  0.1174E-01  0.2738E+00  0.2738E+00
      8.155  0.9590E-02  0.9590E-02  0.2745E+00  0.2745E+00
      8.229  0.8980E-02  0.8980E-02  0.2751E+00  0.2751E+00
      8.303  0.9949E-02  0.9949E-02  0.2759E+00  0.2759E+00
      8.377  0.1119E-01  0.1119E-01  0.2767E+00  0.2767E+00
      8.450  0.1146E-01  0.1146E-01  0.2776E+00  0.2776E+00
      8.524  0.1039E-01  0.1039E-01  0.2783E+00  0.2783E+00
      8.598  0.8810E-02  0.8810E-02  0.2790E+00  0.2790E+00
      8.672  0.8290E-02  0.8289E-02  0.2796E+00  0.2796E+00
      8.745  0.9551E-02  0.9551E-02  0.2803E+00  0.2803E+00
      8.819  0.1158E-01  0.1158E-01  0.2811E+00  0.2811E+00
      8.893  0.1285E-01  0.1286E-01  0.2821E+00  0.2821E+00
      8.967  0.1293E-01  0.1293E-01  0.2830E+00  0.2830E+00
      9.040  0.1233E-01  0.1233E-01  0.2839E+00  0.2839E+00
      9.114  0.1120E-01  0.1120E-01  0.2848E+00  0.2848E+00
      9.188  0.9313E-02  0.9313E-02  0.2855E+00  0.2855E+00
      9.262  0.7243E-02  0.7244E-02  0.2860E+00  0.2860E+00
      9.335  0.6262E-02  0.6262E-02  0.2865E+00  0.2865E+00
      9.409  0.6670E-02  0.6665E-02  0.2870E+00  0.2869E+00
      9.483  0.7488E-02  0.7476E-02  0.2875E+00  0.2875E+00
      9.557  0.7815E-02  0.7802E-02  0.2881E+00  0.2881E+00
      9.630  0.7465E-02  0.7462E-02  0.2886E+00  0.2886E+00
      9.704  0.6547E-02  0.6556E-02  0.2891E+00  0.2891E+00
      9.778  0.5240E-02  0.5253E-02  0.2895E+00  0.2895E+00
      9.852  0.3764E-02  0.3773E-02  0.2898E+00  0.2898E+00
      9.926  0.2280E-02  0.2283E-02  0.2899E+00  0.2899E+00
      9.999  0.9873E-03  0.9868E-03  0.2900E+00  0.2900E+00
     10.073  0.1543E-03  0.1537E-03  0.2900E+00  0.2900E+00
     10.147 -0.1509E-03 -0.1512E-03  0.2900E+00  0.2900E+00
     10.221 -0.1432E-03 -0.1433E-03  0.2900E+00  0.2900E+00
     10.294 -0.6630E-04 -0.6632E-04  0.2900E+00  0.2900E+00
     10.368 -0.2005E-04 -0.2005E-04  0.2900E+00  0.2900E+00
     10.442 -0.4258E-05 -0.4260E-05  0.2900E+00  0.2900E+00
     10.516 -0.6552E-06 -0.6554E-06  0.2900E+00  0.2900E+00
     10.589 -0.7419E-07 -0.7422E-07  0.2900E+00  0.2900E+00
     10.663 -0.6242E-08 -0.6244E-08  0.2900E+00  0.2900E+00
     10.737 -0.3925E-09 -0.3927E-09  0.2900E+00  0.2900E+00
     10.811 -0.1853E-10 -0.1854E-10  0.2900E+00  0.2900E+00
     10.884 -0.6591E-12 -0.6594E-12  0.2900E+00  0.2900E+00
     10.958 -0.1769E-13 -0.1770E-13  0.2900E+00  0.2900E+00
     11.032 -0.3596E-15 -0.3596E-15  0.2900E+00  0.2900E+00
     11.106 -0.5018E-17 -0.5018E-17  0.2900E+00  0.2900E+00
     11.179  0.0000E+00  0.0000E+00  0.2900E+00  0.2900E+00
     11.253  0.0000E+00  0.0000E+00  0.2900E+00  0.2900E+00
     11.327  0.0000E+00  0.0000E+00  0.2900E+00  0.2900E+00
     11.401  0.0000E+00  0.0000E+00  0.2900E+00  0.2900E+00
     11.474  0.0000E+00  0.0000E+00  0.2900E+00  0.2900E+00
     11.548  0.0000E+00  0.0000E+00  0.2900E+00  0.2900E+00
     11.622  0.0000E+00  0.0000E+00  0.2900E+00  0.2900E+00
     11.696  0.0000E+00  0.0000E+00  0.2900E+00  0.2900E+00
     11.769  0.0000E+00  0.0000E+00  0.2900E+00  0.2900E+00
     11.843  0.0000E+00  0.0000E+00  0.2900E+00  0.2900E+00
