       N       E                     dE             d eps       ncg     rms          rms(c)
DAV:   1     0.326936289202E+04    0.32694E+04   -0.12733E+05  3712   0.172E+03
DAV:   2     0.383207442078E+03   -0.28862E+04   -0.27592E+04  3712   0.406E+02
DAV:   3    -0.100067357959E+03   -0.48327E+03   -0.43578E+03  3744   0.209E+02
DAV:   4    -0.133111374115E+03   -0.33044E+02   -0.32099E+02  4192   0.769E+01
DAV:   5    -0.133873409522E+03   -0.76204E+00   -0.76005E+00  4160   0.110E+01    0.520E+01
DAV:   6    -0.108464864945E+03    0.25409E+02   -0.32124E+02  4048   0.119E+02    0.263E+01
DAV:   7    -0.953802419147E+02    0.13085E+02   -0.82073E+01  4120   0.747E+01    0.135E+01
DAV:   8    -0.939699135293E+02    0.14103E+01   -0.20727E+01  4280   0.703E+01    0.133E+01
DAV:   9    -0.921163424636E+02    0.18536E+01   -0.68688E+00  5200   0.428E+01    0.102E+01
DAV:  10    -0.934622680475E+02   -0.13459E+01   -0.59565E+00  5480   0.506E+01    0.101E+01
DAV:  11    -0.932739204247E+02    0.18835E+00   -0.59293E+00  5776   0.419E+01    0.757E+00
DAV:  12    -0.956076128861E+02   -0.23337E+01   -0.31305E+00  5128   0.306E+01    0.632E+00
DAV:  13    -0.100528243397E+03   -0.49206E+01   -0.32408E+00  4680   0.212E+01    0.406E+00
DAV:  14    -0.106298438966E+03   -0.57702E+01   -0.36653E+00  4824   0.175E+01    0.291E+00
DAV:  15    -0.110403490981E+03   -0.41051E+01   -0.32041E+00  5160   0.145E+01    0.231E+00
DAV:  16    -0.113256106509E+03   -0.28526E+01   -0.28963E+00  4248   0.101E+01    0.130E+00
DAV:  17    -0.114826596431E+03   -0.15705E+01   -0.10904E+00  4128   0.515E+00    0.112E+00
DAV:  18    -0.116076667576E+03   -0.12501E+01   -0.72649E-01  4296   0.526E+00    0.857E-01
DAV:  19    -0.116698235223E+03   -0.62157E+00   -0.41497E-01  4600   0.331E+00    0.572E-01
DAV:  20    -0.117134543262E+03   -0.43631E+00   -0.15104E-01  4320   0.260E+00    0.499E-01
DAV:  21    -0.117253341947E+03   -0.11880E+00   -0.34065E-02  4416   0.158E+00    0.368E-01
DAV:  22    -0.117454375056E+03   -0.20103E+00   -0.35338E-02  4536   0.151E+00    0.311E-01
DAV:  23    -0.117680285396E+03   -0.22591E+00   -0.18485E-02  4712   0.105E+00    0.227E-01
DAV:  24    -0.117838548567E+03   -0.15826E+00   -0.10494E-02  5024   0.979E-01    0.192E-01
DAV:  25    -0.117971989101E+03   -0.13344E+00   -0.35624E-03  4544   0.719E-01    0.146E-01
DAV:  26    -0.118127450481E+03   -0.15546E+00   -0.40655E-03  4752   0.590E-01    0.952E-02
DAV:  27    -0.118209896956E+03   -0.82446E-01   -0.31334E-03  4792   0.381E-01    0.833E-02
DAV:  28    -0.118238605800E+03   -0.28709E-01   -0.75038E-04  3216   0.320E-01    0.417E-02
DAV:  29    -0.118245979598E+03   -0.73738E-02   -0.40402E-04  2784   0.216E-01    0.309E-02
DAV:  30    -0.118249235606E+03   -0.32560E-02   -0.29320E-04  2688   0.140E-01    0.236E-02
DAV:  31    -0.118250516085E+03   -0.12805E-02   -0.10940E-04  2552   0.748E-02    0.102E-02
DAV:  32    -0.118250753676E+03   -0.23759E-03   -0.46971E-05  2496   0.594E-02    0.117E-02
DAV:  33    -0.118250859794E+03   -0.10612E-03   -0.25275E-05  2456   0.549E-02
   1 F= -.13064647E+03 E0= -.13065828E+03  d E =-.130646E+03  mag=    -0.0003
       N       E                     dE             d eps       ncg     rms          rms(c)
DAV:   1    -0.118236691706E+03    0.14062E-01   -0.15952E+00  3864   0.218E+00    0.443E-01
DAV:   2    -0.118237778385E+03   -0.10867E-02   -0.43989E-02  5144   0.862E-01    0.299E-01
DAV:   3    -0.118238530381E+03   -0.75200E-03   -0.10109E-02  4480   0.217E+00    0.301E-01
DAV:   4    -0.118237699149E+03    0.83123E-03   -0.84901E-03  4416   0.250E+00    0.186E-01
DAV:   5    -0.118236753192E+03    0.94596E-03   -0.39419E-03  4760   0.143E+00    0.518E-02
DAV:   6    -0.118236732607E+03    0.20586E-04   -0.60231E-04  3152   0.366E-01
   2 F= -.13063998E+03 E0= -.13065206E+03  d E =0.648448E-02  mag=    -0.0001
       N       E                     dE             d eps       ncg     rms          rms(c)
DAV:   1    -0.118256521702E+03   -0.19769E-01   -0.56322E-01  3864   0.134E+00    0.249E-01
DAV:   2    -0.118257280057E+03   -0.75836E-03   -0.18710E-02  5152   0.424E-01    0.176E-01
DAV:   3    -0.118257269005E+03    0.11052E-04   -0.28912E-03  4392   0.106E+00    0.148E-01
DAV:   4    -0.118257208515E+03    0.60490E-04   -0.35351E-03  4088   0.144E+00    0.109E-01
DAV:   5    -0.118256851019E+03    0.35750E-03   -0.13528E-03  2760   0.890E-01    0.345E-02
DAV:   6    -0.118256831859E+03    0.19160E-04   -0.16761E-04  2376   0.218E-01
   3 F= -.13065398E+03 E0= -.13066587E+03  d E =-.751043E-02  mag=    -0.0000
       N       E                     dE             d eps       ncg     rms          rms(c)
DAV:   1    -0.118257550407E+03   -0.69939E-03   -0.69032E-01  4056   0.171E+00    0.606E-02
DAV:   2    -0.118258792116E+03   -0.12417E-02   -0.13009E-02  5176   0.446E-01    0.630E-02
DAV:   3    -0.118258775106E+03    0.17010E-04   -0.29801E-04  2720   0.182E-01
   4 F= -.13065698E+03 E0= -.13066905E+03  d E =-.299928E-02  mag=    -0.0000
       N       E                     dE             d eps       ncg     rms          rms(c)
DAV:   1    -0.118258404443E+03    0.38767E-03   -0.85106E-01  4040   0.190E+00    0.906E-02
DAV:   2    -0.118259892616E+03   -0.14882E-02   -0.16422E-02  5184   0.531E-01    0.980E-02
DAV:   3    -0.118259849937E+03    0.42679E-04   -0.59132E-04  3416   0.320E-01
   5 F= -.13065920E+03 E0= -.13067145E+03  d E =-.522715E-02  mag=    -0.0000
       N       E                     dE             d eps       ncg     rms          rms(c)
DAV:   1    -0.118252745990E+03    0.71466E-02   -0.33916E+00  4032   0.382E+00    0.169E-01
DAV:   2    -0.118259190782E+03   -0.64448E-02   -0.65181E-02  5528   0.160E+00    0.237E-01
DAV:   3    -0.118258883389E+03    0.30739E-03   -0.10530E-02  3944   0.166E+00    0.180E-01
DAV:   4    -0.118258723037E+03    0.16035E-03   -0.21387E-03  3864   0.633E-01    0.123E-01
DAV:   5    -0.118258642677E+03    0.80361E-04   -0.10615E-03  3752   0.437E-01
   6 F= -.13066027E+03 E0= -.13067275E+03  d E =-.629201E-02  mag=     0.0000
       N       E                     dE             d eps       ncg     rms          rms(c)
DAV:   1    -0.118258656477E+03    0.66560E-04   -0.53017E-01  3936   0.157E+00    0.648E-02
DAV:   2    -0.118260119902E+03   -0.14634E-02   -0.11664E-02  6504   0.122E+00    0.150E-01
DAV:   3    -0.118259582959E+03    0.53694E-03   -0.25849E-03  3920   0.102E+00    0.616E-02
DAV:   4    -0.118259600499E+03   -0.17541E-04   -0.56970E-04  3136   0.194E-01
   7 F= -.13066033E+03 E0= -.13067278E+03  d E =-.635339E-02  mag=     0.0000
       N       E                     dE             d eps       ncg     rms          rms(c)
DAV:   1    -0.118260497927E+03   -0.91497E-03   -0.24196E-01  3712   0.103E+00    0.899E-02
DAV:   2    -0.118261186669E+03   -0.68874E-03   -0.80838E-03  5192   0.414E-01    0.876E-02
DAV:   3    -0.118261183701E+03    0.29677E-05   -0.83296E-04  2976   0.551E-01
   8 F= -.13066213E+03 E0= -.13067457E+03  d E =-.180362E-02  mag=     0.0000
       N       E                     dE             d eps       ncg     rms          rms(c)
DAV:   1    -0.118261068870E+03    0.11780E-03   -0.10816E-02  5296   0.489E-01    0.559E-02
DAV:   2    -0.118261284928E+03   -0.21606E-03   -0.97547E-04  2400   0.758E-01    0.939E-02
DAV:   3    -0.118261033711E+03    0.25122E-03   -0.73929E-04  2264   0.661E-01    0.327E-02
DAV:   4    -0.118261044262E+03   -0.10551E-04   -0.15219E-04  2456   0.237E-01
   9 F= -.13066207E+03 E0= -.13067445E+03  d E =-.173719E-02  mag=     0.0000
       N       E                     dE             d eps       ncg     rms          rms(c)
DAV:   1    -0.118261509403E+03   -0.47569E-03   -0.21305E-02  4768   0.374E-01    0.233E-02
DAV:   2    -0.118261546230E+03   -0.36827E-04   -0.41464E-04  2544   0.195E-01
  10 F= -.13066277E+03 E0= -.13067516E+03  d E =-.698718E-03  mag=     0.0000
       N       E                     dE             d eps       ncg     rms          rms(c)
DAV:   1    -0.118262509353E+03   -0.99995E-03   -0.18795E-01  3728   0.945E-01    0.851E-02
DAV:   2    -0.118262962255E+03   -0.45290E-03   -0.57269E-03  5160   0.347E-01    0.785E-02
DAV:   3    -0.118262970436E+03   -0.81803E-05   -0.74323E-04  2688   0.538E-01
  11 F= -.13066478E+03 E0= -.13067714E+03  d E =-.271631E-02  mag=     0.0000
       N       E                     dE             d eps       ncg     rms          rms(c)
DAV:   1    -0.118263320847E+03   -0.35859E-03   -0.74921E-01  3712   0.187E+00    0.160E-01
DAV:   2    -0.118265075739E+03   -0.17549E-02   -0.22253E-02  5040   0.557E-01    0.142E-01
DAV:   3    -0.118265060945E+03    0.14794E-04   -0.16141E-03  3944   0.748E-01
  12 F= -.13066808E+03 E0= -.13068045E+03  d E =-.600816E-02  mag=     0.0000
       N       E                     dE             d eps       ncg     rms          rms(c)
DAV:   1    -0.118259673974E+03    0.54018E-02   -0.29971E+00  3712   0.381E+00    0.321E-01
DAV:   2    -0.118268463116E+03   -0.87891E-02   -0.90918E-02  6144   0.257E+00    0.375E-01
DAV:   3    -0.118266379524E+03    0.20836E-02   -0.16634E-02  4312   0.258E+00    0.272E-01
DAV:   4    -0.118265758185E+03    0.62134E-03   -0.56747E-03  4120   0.986E-01    0.143E-01
DAV:   5    -0.118265915346E+03   -0.15716E-03   -0.35410E-03  4304   0.873E-01    0.115E-01
DAV:   6    -0.118265839156E+03    0.76190E-04   -0.17931E-03  4048   0.751E-01
  13 F= -.13067132E+03 E0= -.13068355E+03  d E =-.925104E-02  mag=     0.0000
       N       E                     dE             d eps       ncg     rms          rms(c)
DAV:   1    -0.118268627397E+03   -0.27121E-02   -0.34824E-01  3712   0.123E+00    0.160E-01
DAV:   2    -0.118269460474E+03   -0.83308E-03   -0.12347E-02  5344   0.448E-01    0.130E-01
DAV:   3    -0.118269678482E+03   -0.21801E-03   -0.20276E-03  3672   0.989E-01    0.137E-01
DAV:   4    -0.118269313471E+03    0.36501E-03   -0.17084E-03  2480   0.101E+00    0.481E-02
DAV:   5    -0.118269283734E+03    0.29737E-04   -0.32343E-04  2488   0.397E-01
  14 F= -.13067557E+03 E0= -.13068776E+03  d E =-.424966E-02  mag=     0.0000
       N       E                     dE             d eps       ncg     rms          rms(c)
DAV:   1    -0.118269219128E+03    0.94343E-04   -0.79958E-03  5144   0.271E-01    0.231E-02
DAV:   2    -0.118269243179E+03   -0.24051E-04   -0.28129E-04  2616   0.104E-01
  15 F= -.13067569E+03 E0= -.13068786E+03  d E =-.437294E-02  mag=     0.0000
       N       E                     dE             d eps       ncg     rms          rms(c)
DAV:   1    -0.118273042220E+03   -0.38231E-02   -0.69912E-01  3728   0.180E+00    0.108E-01
DAV:   2    -0.118274706078E+03   -0.16639E-02   -0.18620E-02  5152   0.626E-01    0.121E-01
DAV:   3    -0.118274686960E+03    0.19118E-04   -0.16371E-03  3904   0.640E-01
  16 F= -.13068009E+03 E0= -.13069222E+03  d E =-.439811E-02  mag=     0.0000
       N       E                     dE             d eps       ncg     rms          rms(c)
DAV:   1    -0.118274538407E+03    0.16767E-03   -0.30576E+00  3712   0.377E+00    0.259E-01
DAV:   2    -0.118281684833E+03   -0.71464E-02   -0.85233E-02  5024   0.106E+00    0.253E-01
DAV:   3    -0.118281234111E+03    0.45072E-03   -0.24449E-03  4272   0.550E-01    0.187E-01
DAV:   4    -0.118281125079E+03    0.10903E-03   -0.19291E-03  4200   0.998E-01
  17 F= -.13068440E+03 E0= -.13069671E+03  d E =-.870633E-02  mag=     0.0000
       N       E                     dE             d eps       ncg     rms          rms(c)
DAV:   1    -0.118284391107E+03   -0.31570E-02   -0.22303E-01  5136   0.146E+00    0.152E-01
DAV:   2    -0.118288505845E+03   -0.41147E-02   -0.20130E-02  5480   0.292E+00    0.344E-01
DAV:   3    -0.118284603146E+03    0.39027E-02   -0.93285E-03  4400   0.235E+00    0.961E-02
DAV:   4    -0.118284565328E+03    0.37818E-04   -0.49895E-04  2912   0.424E-01
  18 F= -.13068632E+03 E0= -.13069833E+03  d E =-.191669E-02  mag=     0.0000
       N       E                     dE             d eps       ncg     rms          rms(c)
DAV:   1    -0.118285263915E+03   -0.66077E-03   -0.31801E-02  5168   0.553E-01    0.513E-02
DAV:   2    -0.118285378925E+03   -0.11501E-03   -0.13361E-03  3576   0.538E-01
  19 F= -.13068661E+03 E0= -.13069859E+03  d E =-.221041E-02  mag=     0.0000
       N       E                     dE             d eps       ncg     rms          rms(c)
DAV:   1    -0.118287668022E+03   -0.24041E-02   -0.94469E-02  4784   0.758E-01    0.855E-02
DAV:   2    -0.118287928787E+03   -0.26077E-03   -0.28816E-03  3424   0.628E-01    0.974E-02
DAV:   3    -0.118287797679E+03    0.13111E-03   -0.91100E-04  2624   0.654E-01
  20 F= -.13068852E+03 E0= -.13070046E+03  d E =-.191348E-02  mag=     0.0000
       N       E                     dE             d eps       ncg     rms          rms(c)
DAV:   1    -0.118291483442E+03   -0.35547E-02   -0.83406E-01  3720   0.192E+00    0.185E-01
DAV:   2    -0.118293833780E+03   -0.23503E-02   -0.29729E-02  5056   0.662E-01    0.168E-01
DAV:   3    -0.118293675898E+03    0.15788E-03   -0.17846E-03  4216   0.615E-01
  21 F= -.13069293E+03 E0= -.13070475E+03  d E =-.632232E-02  mag=     0.0000
       N       E                     dE             d eps       ncg     rms          rms(c)
DAV:   1    -0.118291206668E+03    0.26271E-02   -0.33471E+00  3712   0.383E+00    0.416E-01
DAV:   2    -0.118299463032E+03   -0.82564E-02   -0.11096E-01  5392   0.155E+00    0.368E-01
DAV:   3    -0.118300333430E+03   -0.87040E-03   -0.18510E-02  4096   0.277E+00    0.372E-01
DAV:   4    -0.118297929644E+03    0.24038E-02   -0.92380E-03  4464   0.209E+00    0.123E-01
DAV:   5    -0.118298126350E+03   -0.19671E-03   -0.29659E-03  5216   0.112E+00    0.106E-01
DAV:   6    -0.118297976801E+03    0.14955E-03   -0.14570E-03  3952   0.779E-01
  22 F= -.13069452E+03 E0= -.13070594E+03  d E =-.791382E-02  mag=     0.0000
       N       E                     dE             d eps       ncg     rms          rms(c)
DAV:   1    -0.118296729982E+03    0.13964E-02   -0.40264E-01  3728   0.133E+00    0.134E-01
DAV:   2    -0.118297736402E+03   -0.10064E-02   -0.13851E-02  5120   0.491E-01    0.122E-01
DAV:   3    -0.118297692106E+03    0.44296E-04   -0.11134E-03  3392   0.688E-01
  23 F= -.13069514E+03 E0= -.13070668E+03  d E =-.853339E-02  mag=     0.0000
       N       E                     dE             d eps       ncg     rms          rms(c)
DAV:   1    -0.118301160658E+03   -0.34243E-02   -0.28408E-01  4816   0.130E+00    0.146E-01
DAV:   2    -0.118303925445E+03   -0.27648E-02   -0.19099E-02  5696   0.209E+00    0.254E-01
DAV:   3    -0.118301882421E+03    0.20430E-02   -0.52538E-03  3632   0.176E+00    0.106E-01
DAV:   4    -0.118301771524E+03    0.11090E-03   -0.56070E-04  2976   0.363E-01
  24 F= -.13069715E+03 E0= -.13070850E+03  d E =-.200963E-02  mag=     0.0000
       N       E                     dE             d eps       ncg     rms          rms(c)
DAV:   1    -0.118303502295E+03   -0.16199E-02   -0.25227E+00  3712   0.302E+00    0.468E-01
DAV:   2    -0.118311261275E+03   -0.77590E-02   -0.11951E-01  4912   0.955E-01    0.376E-01
DAV:   3    -0.118310721802E+03    0.53947E-03   -0.95074E-03  4352   0.187E+00    0.272E-01
DAV:   4    -0.118311591900E+03   -0.87010E-03   -0.16193E-02  4336   0.308E+00    0.257E-01
DAV:   5    -0.118309676290E+03    0.19156E-02   -0.77673E-03  4368   0.217E+00    0.109E-01
DAV:   6    -0.118309359326E+03    0.31696E-03   -0.68390E-04  2656   0.730E-01    0.255E-02
DAV:   7    -0.118309411417E+03   -0.52090E-04   -0.56914E-04  3088   0.162E-01
  25 F= -.13069881E+03 E0= -.13070988E+03  d E =-.366839E-02  mag=     0.0000
       N       E                     dE             d eps       ncg     rms          rms(c)
DAV:   1    -0.118307516830E+03    0.18425E-02   -0.24121E-01  3728   0.906E-01    0.155E-01
DAV:   2    -0.118308128607E+03   -0.61178E-03   -0.11202E-02  4960   0.371E-01    0.120E-01
DAV:   3    -0.118308317127E+03   -0.18852E-03   -0.18075E-03  3696   0.970E-01
  26 F= -.13069954E+03 E0= -.13071065E+03  d E =-.439563E-02  mag=     0.0000
       N       E                     dE             d eps       ncg     rms          rms(c)
DAV:   1    -0.118310021548E+03   -0.18929E-02   -0.73721E-02  5344   0.120E+00    0.101E-01
DAV:   2    -0.118311381272E+03   -0.13597E-02   -0.79354E-03  3264   0.164E+00    0.201E-01
DAV:   3    -0.118310116995E+03    0.12643E-02   -0.32522E-03  3016   0.137E+00    0.694E-02
DAV:   4    -0.118310139436E+03   -0.22441E-04   -0.79101E-04  3360   0.351E-01
  27 F= -.13070026E+03 E0= -.13071129E+03  d E =-.717993E-03  mag=     0.0000
       N       E                     dE             d eps       ncg     rms          rms(c)
DAV:   1    -0.118315249339E+03   -0.51323E-02   -0.63036E-01  3712   0.149E+00    0.267E-01
DAV:   2    -0.118317020124E+03   -0.17708E-02   -0.30537E-02  5440   0.750E-01    0.211E-01
DAV:   3    -0.118317866794E+03   -0.84667E-03   -0.61696E-03  4128   0.186E+00    0.238E-01
DAV:   4    -0.118316490170E+03    0.13766E-02   -0.53682E-03  3776   0.166E+00    0.622E-02
DAV:   5    -0.118316442712E+03    0.47458E-04   -0.63267E-04  2648   0.606E-01
  28 F= -.13070324E+03 E0= -.13071407E+03  d E =-.369782E-02  mag=     0.0000
       N       E                     dE             d eps       ncg     rms          rms(c)
DAV:   1    -0.118321778778E+03   -0.52886E-02   -0.25194E+00  3728   0.287E+00    0.538E-01
DAV:   2    -0.118329139260E+03   -0.73605E-02   -0.12914E-01  4944   0.873E-01    0.413E-01
DAV:   3    -0.118328467113E+03    0.67215E-03   -0.12035E-02  4208   0.202E+00    0.293E-01
DAV:   4    -0.118329438022E+03   -0.97091E-03   -0.19131E-02  4272   0.334E+00    0.267E-01
DAV:   5    -0.118327261018E+03    0.21770E-02   -0.85584E-03  4208   0.232E+00    0.111E-01
DAV:   6    -0.118326863961E+03    0.39706E-03   -0.55382E-04  2608   0.780E-01    0.220E-02
DAV:   7    -0.118326906182E+03   -0.42221E-04   -0.45181E-04  2960   0.152E-01
  29 F= -.13070696E+03 E0= -.13071757E+03  d E =-.742530E-02  mag=     0.0000
       N       E                     dE             d eps       ncg     rms          rms(c)
DAV:   1    -0.118311288430E+03    0.15576E-01   -0.98732E+00  3728   0.567E+00    0.102E+00
DAV:   2    -0.118350188812E+03   -0.38900E-01   -0.59581E-01  4944   0.159E+00    0.839E-01
DAV:   3    -0.118341124979E+03    0.90638E-02   -0.21865E-02  4384   0.146E+00    0.402E-01
DAV:   4    -0.118347885747E+03   -0.67608E-02   -0.36093E-02  4448   0.436E+00    0.516E-01
DAV:   5    -0.118341503192E+03    0.63826E-02   -0.29127E-02  4368   0.423E+00    0.214E-01
DAV:   6    -0.118340092600E+03    0.14106E-02   -0.32268E-03  4744   0.140E+00    0.436E-02
DAV:   7    -0.118340220770E+03   -0.12817E-03   -0.12709E-03  4000   0.184E-01
  30 F= -.13070620E+03 E0= -.13071618E+03  d E =-.666397E-02  mag=     0.0000
       N       E                     dE             d eps       ncg     rms          rms(c)
DAV:   1    -0.118326641833E+03    0.13451E-01   -0.46130E+00  3728   0.379E+00    0.755E-01
DAV:   2    -0.118336312752E+03   -0.96709E-02   -0.20866E-01  4976   0.123E+00    0.539E-01
DAV:   3    -0.118335779491E+03    0.53326E-03   -0.26023E-02  4272   0.298E+00    0.417E-01
DAV:   4    -0.118336008195E+03   -0.22870E-03   -0.32018E-02  4240   0.438E+00    0.314E-01
DAV:   5    -0.118332651855E+03    0.33563E-02   -0.12573E-02  4736   0.271E+00    0.123E-01
DAV:   6    -0.118332226874E+03    0.42498E-03   -0.85528E-04  2896   0.855E-01    0.375E-02
DAV:   7    -0.118332305845E+03   -0.78972E-04   -0.10521E-03  3968   0.312E-01
  31 F= -.13070791E+03 E0= -.13071830E+03  d E =-.837627E-02  mag=     0.0000
       N       E                     dE             d eps       ncg     rms          rms(c)
DAV:   1    -0.118334702662E+03   -0.24758E-02   -0.11455E+00  3728   0.192E+00    0.353E-01
DAV:   2    -0.118337992310E+03   -0.32896E-02   -0.58752E-02  4976   0.664E-01    0.279E-01
DAV:   3    -0.118337890884E+03    0.10143E-03   -0.65169E-03  4208   0.162E+00    0.227E-01
DAV:   4    -0.118337920807E+03   -0.29922E-04   -0.92929E-03  4256   0.231E+00    0.170E-01
DAV:   5    -0.118337028080E+03    0.89273E-03   -0.38236E-03  3056   0.157E+00    0.799E-02
DAV:   6    -0.118336833034E+03    0.19505E-03   -0.30581E-04  2424   0.549E-01
  32 F= -.13070768E+03 E0= -.13071781E+03  d E =-.814385E-02  mag=     0.0000
       N       E                     dE             d eps       ncg     rms          rms(c)
DAV:   1    -0.118333788946E+03    0.32391E-02   -0.41911E-01  3728   0.115E+00    0.224E-01
DAV:   2    -0.118334655715E+03   -0.86677E-03   -0.18987E-02  4944   0.358E-01    0.163E-01
DAV:   3    -0.118334666415E+03   -0.10700E-04   -0.25563E-03  3920   0.961E-01    0.131E-01
DAV:   4    -0.118334586071E+03    0.80344E-04   -0.30383E-03  2560   0.137E+00    0.922E-02
DAV:   5    -0.118334291454E+03    0.29462E-03   -0.10004E-03  2360   0.776E-01    0.339E-02
DAV:   6    -0.118334264889E+03    0.26565E-04   -0.70225E-05  2512   0.212E-01
  33 F= -.13070800E+03 E0= -.13071828E+03  d E =-.846334E-02  mag=     0.0000
       N       E                     dE             d eps       ncg     rms          rms(c)
DAV:   1    -0.118337206863E+03   -0.29154E-02   -0.26300E-01  3776   0.110E+00    0.470E-02
DAV:   2    -0.118337773939E+03   -0.56708E-03   -0.61480E-03  5184   0.316E-01    0.544E-02
DAV:   3    -0.118337757848E+03    0.16091E-04   -0.15205E-04  2496   0.165E-01
  34 F= -.13071018E+03 E0= -.13072048E+03  d E =-.217952E-02  mag=     0.0000
       N       E                     dE             d eps       ncg     rms          rms(c)
DAV:   1    -0.118340826917E+03   -0.30530E-02   -0.11745E+00  3784   0.232E+00    0.124E-01
DAV:   2    -0.118343169198E+03   -0.23423E-02   -0.26226E-02  5184   0.675E-01    0.130E-01
DAV:   3    -0.118343187092E+03   -0.17894E-04   -0.21611E-03  3824   0.725E-01    0.122E-01
DAV:   4    -0.118343049912E+03    0.13718E-03   -0.48202E-04  2432   0.474E-01
  35 F= -.13071270E+03 E0= -.13072303E+03  d E =-.470233E-02  mag=     0.0000
       N       E                     dE             d eps       ncg     rms          rms(c)
DAV:   1    -0.118343735815E+03   -0.54872E-03   -0.80411E-02  3904   0.662E-01    0.537E-02
DAV:   2    -0.118343897531E+03   -0.16172E-03   -0.20421E-03  4896   0.513E-01    0.572E-02
DAV:   3    -0.118343884112E+03    0.13419E-04   -0.57264E-04  2320   0.517E-01
  36 F= -.13071282E+03 E0= -.13072317E+03  d E =-.481943E-02  mag=     0.0000
       N       E                     dE             d eps       ncg     rms          rms(c)
DAV:   1    -0.118346891132E+03   -0.29936E-02   -0.52244E-01  3792   0.156E+00    0.951E-02
DAV:   2    -0.118347936683E+03   -0.10456E-02   -0.11917E-02  5160   0.490E-01    0.948E-02
DAV:   3    -0.118347947783E+03   -0.11100E-04   -0.11270E-03  3808   0.572E-01
  37 F= -.13071419E+03 E0= -.13072449E+03  d E =-.137273E-02  mag=     0.0000
       N       E                     dE             d eps       ncg     rms          rms(c)
DAV:   1    -0.118347578753E+03    0.35793E-03   -0.47821E-03  5144   0.446E-01    0.438E-02
DAV:   2    -0.118347731970E+03   -0.15322E-03   -0.64206E-04  2400   0.607E-01
  38 F= -.13071423E+03 E0= -.13072458E+03  d E =-.140994E-02  mag=     0.0000
       N       E                     dE             d eps       ncg     rms          rms(c)
DAV:   1    -0.118347590816E+03   -0.12063E-04   -0.93967E-04  2704   0.558E-01    0.278E-02
DAV:   2    -0.118347786539E+03   -0.19572E-03   -0.15920E-03  4080   0.472E-01
  39 F= -.13071412E+03 E0= -.13072440E+03  d E =-.129792E-02  mag=     0.0000
       N       E                     dE             d eps       ncg     rms          rms(c)
DAV:   1    -0.118347565250E+03    0.25565E-04   -0.42666E-04  2384   0.393E-01    0.232E-02
DAV:   2    -0.118347632551E+03   -0.67300E-04   -0.36894E-04  2432   0.365E-01
  40 F= -.13071409E+03 E0= -.13072442E+03  d E =-.126751E-02  mag=     0.0000
       N       E                     dE             d eps       ncg     rms          rms(c)
DAV:   1    -0.118347671722E+03   -0.10647E-03   -0.20543E-04  2272   0.319E-01    0.704E-03
DAV:   2    -0.118347684366E+03   -0.12644E-04   -0.68465E-05  2208   0.148E-01
  41 F= -.13071408E+03 E0= -.13072438E+03  d E =-.125754E-02  mag=     0.0000
       N       E                     dE             d eps       ncg     rms          rms(c)
DAV:   1    -0.118349633975E+03   -0.19623E-02   -0.43290E-01  4056   0.140E+00    0.476E-02
DAV:   2    -0.118350429873E+03   -0.79590E-03   -0.83048E-03  5168   0.362E-01    0.590E-02
DAV:   3    -0.118350408619E+03    0.21254E-04   -0.19455E-04  2368   0.172E-01
  42 F= -.13071511E+03 E0= -.13072537E+03  d E =-.103025E-02  mag=     0.0000
       N       E                     dE             d eps       ncg     rms          rms(c)
DAV:   1    -0.118351800305E+03   -0.13704E-02   -0.22059E-01  4056   0.100E+00    0.590E-02
DAV:   2    -0.118352135024E+03   -0.33472E-03   -0.36739E-03  5520   0.424E-01    0.696E-02
DAV:   3    -0.118352096674E+03    0.38350E-04   -0.64692E-04  2856   0.435E-01
  43 F= -.13071559E+03 E0= -.13072580E+03  d E =-.151125E-02  mag=     0.0000
       N       E                     dE             d eps       ncg     rms          rms(c)
DAV:   1    -0.118353530691E+03   -0.13957E-02   -0.87208E-01  4072   0.198E+00    0.801E-02
DAV:   2    -0.118355086342E+03   -0.15557E-02   -0.16732E-02  5184   0.509E-01    0.926E-02
DAV:   3    -0.118355047369E+03    0.38972E-04   -0.39429E-04  2496   0.262E-01
  44 F= -.13071611E+03 E0= -.13072624E+03  d E =-.202744E-02  mag=     0.0000
       N       E                     dE             d eps       ncg     rms          rms(c)
DAV:   1    -0.118353620588E+03    0.14658E-02   -0.13267E-01  4056   0.833E-01    0.656E-02
DAV:   2    -0.118354058225E+03   -0.43764E-03   -0.20008E-03  2872   0.947E-01    0.118E-01
DAV:   3    -0.118353801900E+03    0.25633E-03   -0.29983E-03  5552   0.901E-01    0.234E-02
DAV:   4    -0.118353844150E+03   -0.42250E-04   -0.50589E-04  2896   0.183E-01
  45 F= -.13071587E+03 E0= -.13072605E+03  d E =-.179217E-02  mag=     0.0000
       N       E                     dE             d eps       ncg     rms          rms(c)
DAV:   1    -0.118354623332E+03   -0.82143E-03   -0.16484E-01  4088   0.862E-01    0.318E-02
DAV:   2    -0.118354946776E+03   -0.32344E-03   -0.34027E-03  5168   0.256E-01    0.386E-02
DAV:   3    -0.118354938307E+03    0.84680E-05   -0.11480E-04  2288   0.163E-01
  46 F= -.13071639E+03 E0= -.13072648E+03  d E =-.522574E-03  mag=     0.0000
       N       E                     dE             d eps       ncg     rms          rms(c)
DAV:   1    -0.118355154294E+03   -0.20752E-03   -0.15241E-02  4144   0.287E-01    0.275E-02
DAV:   2    -0.118355186994E+03   -0.32700E-04   -0.19363E-04  2264   0.304E-01
  47 F= -.13071647E+03 E0= -.13072653E+03  d E =-.602664E-03  mag=     0.0000
       N       E                     dE             d eps       ncg     rms          rms(c)
DAV:   1    -0.118355442432E+03   -0.28814E-03   -0.59871E-02  4408   0.600E-01    0.319E-02
DAV:   2    -0.118355544235E+03   -0.10180E-03   -0.11284E-03  4176   0.242E-01
  48 F= -.13071650E+03 E0= -.13072651E+03  d E =-.625497E-03  mag=     0.0000
       N       E                     dE             d eps       ncg     rms          rms(c)
DAV:   1    -0.118355279564E+03    0.16287E-03   -0.26047E-02  5088   0.419E-01    0.223E-02
DAV:   2    -0.118355347193E+03   -0.67629E-04   -0.29594E-04  2336   0.393E-01
  49 F= -.13071652E+03 E0= -.13072655E+03  d E =-.651224E-03  mag=     0.0000
       N       E                     dE             d eps       ncg     rms          rms(c)
DAV:   1    -0.118355443512E+03   -0.16395E-03   -0.10922E-02  5280   0.402E-01    0.125E-02
DAV:   2    -0.118355452952E+03   -0.94402E-05   -0.80655E-05  2216   0.149E-01
  50 F= -.13071648E+03 E0= -.13072651E+03  d E =-.613010E-03  mag=     0.0000
       N       E                     dE             d eps       ncg     rms          rms(c)
DAV:   1    -0.118356525713E+03   -0.10822E-02   -0.91827E-02  4008   0.655E-01    0.297E-02
DAV:   2    -0.118356697826E+03   -0.17211E-03   -0.18797E-03  5120   0.188E-01
  51 F= -.13071670E+03 E0= -.13072666E+03  d E =-.218886E-03  mag=    -0.0000
