<?xml version="1.0" encoding="ISO-8859-1"?>
<modeling>
 <generator>
  <i name="program" type="string">vasp </i>
  <i name="version" type="string">6.3.2  </i>
  <i name="subversion" type="string">27Jun22 (build Aug 17 2022 15:43:34) complex                          parallel </i>
  <i name="platform" type="string">tv2STDVTST </i>
  <i name="date" type="string">2025 02 17 </i>
  <i name="time" type="string">16:53:37 </i>
 </generator>
 <incar>
  <i type="int" name="ISTART">     0</i>
  <i type="string" name="PREC">Normal</i>
  <i type="int" name="ISPIN">     2</i>
  <i type="int" name="ICHARG">     2</i>
  <i type="int" name="IBRION">     2</i>
  <i name="EDIFF">      0.00020000</i>
  <i name="EDIFFG">     -0.03000000</i>
  <i type="int" name="NSW">   800</i>
  <i type="int" name="ISIF">     2</i>
  <i type="int" name="ISYM">     1</i>
  <i name="ENCUT">    400.00000000</i>
  <i name="POTIM">      0.50000000</i>
  <i type="logical" name="LREAL"> F  </i>
  <i type="int" name="ISMEAR">     1</i>
  <i name="SIGMA">      0.20000000</i>
  <i type="logical" name="LWAVE"> F  </i>
  <i type="logical" name="LCHARG"> F  </i>
  <i type="string" name="GGA">PE</i>
  <i type="int" name="IVDW">    11</i>
 </incar>
 <primitive_cell>
  <structure name="primitive_cell" >
   <crystal>
    <varray name="basis" >
     <v>       7.26000023       0.00000000       0.00000000 </v>
     <v>       0.00000000       5.13359547       0.00000000 </v>
     <v>       0.00000000       0.00000000      23.98379135 </v>
    </varray>
    <i name="volume">    893.87360752 </i>
    <varray name="rec_basis" >
     <v>       0.13774104       0.00000000       0.00000000 </v>
     <v>       0.00000000       0.19479525       0.00000000 </v>
     <v>       0.00000000       0.00000000       0.04169483 </v>
    </varray>
   </crystal>
   <varray name="positions" >
    <v>       0.00000000       0.00000000       0.00000000 </v>
    <v>       0.00000000       0.50000000       0.00000000 </v>
    <v>       0.50000000       0.00000000       0.00000000 </v>
    <v>       0.50000000       0.50000000       0.00000000 </v>
    <v>       0.25000000       0.25000000       0.05351109 </v>
    <v>       0.25000000       0.75000000       0.05351109 </v>
    <v>       0.75000000       0.25000000       0.05351109 </v>
    <v>       0.75000000       0.75000000       0.05351109 </v>
    <v>       0.00000000       0.00000000       0.10541371 </v>
    <v>       0.00000000       0.50000000       0.10541371 </v>
    <v>       0.50000000       0.00000000       0.10541371 </v>
    <v>       0.50000000       0.50000000       0.10541371 </v>
    <v>       0.25000000       0.25000000       0.15715010 </v>
    <v>       0.25000000       0.75000000       0.15715010 </v>
    <v>       0.75000000       0.25000000       0.15715010 </v>
    <v>       0.75000000       0.75000000       0.15715010 </v>
    <v>       0.00000000       0.00000000       0.20866257 </v>
    <v>       0.00000000       0.50000000       0.20866257 </v>
    <v>       0.50000000       0.00000000       0.20866257 </v>
    <v>       0.50000000       0.50000000       0.20866257 </v>
    <v>       0.25000000       0.25000000       0.25947965 </v>
    <v>       0.25000000       0.75000000       0.25947965 </v>
    <v>       0.75000000       0.25000000       0.25947965 </v>
    <v>       0.75000000       0.75000000       0.25947965 </v>
    <v>       0.00000000       0.00000000       0.31415415 </v>
    <v>       0.00000000       0.50000000       0.31415415 </v>
    <v>       0.50000000       0.00000000       0.31415415 </v>
    <v>       0.50000000       0.50000000       0.31415415 </v>
    <v>       0.25000000       0.25000000       0.36181799 </v>
    <v>       0.25000000       0.75000000       0.36181799 </v>
    <v>       0.75000000       0.25000000       0.36181799 </v>
    <v>       0.75000000       0.75000000       0.36181799 </v>
    <v>       0.50000000       0.75000000       0.42690792 </v>
    <v>       0.50000000       0.75000000       0.45801226 </v>
   </varray>
  </structure>
  <varray name="primitive_index" >
   <v type="int" >        1 </v>
   <v type="int" >        2 </v>
   <v type="int" >        3 </v>
   <v type="int" >        4 </v>
   <v type="int" >        5 </v>
   <v type="int" >        6 </v>
   <v type="int" >        7 </v>
   <v type="int" >        8 </v>
   <v type="int" >        9 </v>
   <v type="int" >       10 </v>
   <v type="int" >       11 </v>
   <v type="int" >       12 </v>
   <v type="int" >       13 </v>
   <v type="int" >       14 </v>
   <v type="int" >       15 </v>
   <v type="int" >       16 </v>
   <v type="int" >       17 </v>
   <v type="int" >       18 </v>
   <v type="int" >       19 </v>
   <v type="int" >       20 </v>
   <v type="int" >       21 </v>
   <v type="int" >       22 </v>
   <v type="int" >       23 </v>
   <v type="int" >       24 </v>
   <v type="int" >       25 </v>
   <v type="int" >       26 </v>
   <v type="int" >       27 </v>
   <v type="int" >       28 </v>
   <v type="int" >       29 </v>
   <v type="int" >       30 </v>
   <v type="int" >       31 </v>
   <v type="int" >       32 </v>
   <v type="int" >       33 </v>
   <v type="int" >       34 </v>
  </varray>
 </primitive_cell>
 <kpoints>
  <generation param="Monkhorst-Pack">
   <v type="int" name="divisions">       3        3        1 </v>
   <v name="usershift">      0.00000000       0.00000000       0.00000000 </v>
   <v name="genvec1">      0.33333333       0.00000000       0.00000000 </v>
   <v name="genvec2">      0.00000000       0.33333333       0.00000000 </v>
   <v name="genvec3">      0.00000000       0.00000000       1.00000000 </v>
   <v name="shift">      0.00000000       0.00000000       0.00000000 </v>
  </generation>
  <varray name="kpointlist" >
   <v>       0.00000000       0.00000000       0.00000000 </v>
   <v>       0.33333333       0.00000000       0.00000000 </v>
   <v>       0.00000000       0.33333333       0.00000000 </v>
   <v>       0.33333333       0.33333333       0.00000000 </v>
  </varray>
  <varray name="weights" >
   <v>       0.11111111 </v>
   <v>       0.22222222 </v>
   <v>       0.22222222 </v>
   <v>       0.44444444 </v>
  </varray>
 </kpoints>
 <parameters>
  <separator name="general" >
   <i type="string" name="SYSTEM">unknown system</i>
   <i type="logical" name="LCOMPAT"> F  </i>
  </separator>
  <separator name="electronic" >
   <i type="string" name="PREC">normal</i>
   <i name="ENMAX">    400.00000000</i>
   <i name="ENAUG">    586.98000000</i>
   <i name="EDIFF">      0.00020000</i>
   <i type="int" name="IALGO">    38</i>
   <i type="int" name="IWAVPR">    11</i>
   <i type="int" name="NBANDS">   232</i>
   <i type="int" name="NBANDSLOW">    -1</i>
   <i type="int" name="NBANDSHIGH">    -1</i>
   <i name="NELECT">    354.00000000</i>
   <i type="int" name="TURBO">     0</i>
   <i type="int" name="IRESTART">     0</i>
   <i type="int" name="NREBOOT">     0</i>
   <i type="int" name="NMIN">     0</i>
   <i name="EREF">      0.00000000</i>
   <separator name="electronic smearing" >
    <i type="int" name="ISMEAR">     1</i>
    <i name="SIGMA">      0.20000000</i>
    <i name="KSPACING">      0.50000000</i>
    <i type="logical" name="KGAMMA"> T  </i>
    <i type="logical" name="KBLOWUP"> T  </i>
   </separator>
   <separator name="electronic projectors" >
    <i type="logical" name="LREAL"> F  </i>
    <v name="ROPT">      0.00000000      0.00000000</v>
    <i type="int" name="LMAXPAW">  -100</i>
    <i type="int" name="LMAXMIX">     2</i>
    <i type="logical" name="NLSPLINE"> F  </i>
   </separator>
   <separator name="electronic startup" >
    <i type="int" name="ISTART">     0</i>
    <i type="int" name="ICHARG">     2</i>
    <i type="int" name="INIWAV">     1</i>
   </separator>
   <separator name="electronic spin" >
    <i type="int" name="ISPIN">     2</i>
    <i type="logical" name="LNONCOLLINEAR"> F  </i>
    <v name="MAGMOM">      1.00000000      1.00000000      1.00000000      1.00000000      1.00000000      1.00000000      1.00000000      1.00000000      1.00000000      1.00000000      1.00000000      1.00000000      1.00000000      1.00000000      1.00000000      1.00000000      1.00000000      1.00000000      1.00000000      1.00000000
      1.00000000      1.00000000      1.00000000      1.00000000      1.00000000      1.00000000      1.00000000      1.00000000      1.00000000      1.00000000      1.00000000      1.00000000      1.00000000      1.00000000</v>
    <i name="NUPDOWN">     -1.00000000</i>
    <i type="logical" name="LSORBIT"> F  </i>
    <v name="SAXIS">      0.00000000      0.00000000      1.00000000</v>
    <i type="logical" name="LSPIRAL"> F  </i>
    <v name="QSPIRAL">      0.00000000      0.00000000      0.00000000</v>
    <i type="logical" name="LZEROZ"> F  </i>
   </separator>
   <separator name="electronic exchange-correlation" >
    <i type="logical" name="LASPH"> F  </i>
    <i type="logical" name="LMETAGGA"> F  </i>
   </separator>
   <separator name="electronic convergence" >
    <i type="int" name="NELM">    60</i>
    <i type="int" name="NELMDL">    -5</i>
    <i type="int" name="NELMIN">     2</i>
    <i name="ENINI">    400.00000000</i>
    <separator name="electronic convergence detail" >
     <i type="logical" name="LDIAG"> T  </i>
     <i type="logical" name="LSUBROT"> F  </i>
     <i name="WEIMIN">      0.00100000</i>
     <i name="EBREAK">      0.00000022</i>
     <i name="DEPER">      0.30000000</i>
     <i type="int" name="NRMM">     4</i>
     <i name="TIME">      0.40000000</i>
    </separator>
   </separator>
   <separator name="electronic mixer" >
    <i name="AMIX">      0.40000000</i>
    <i name="BMIX">      1.00000000</i>
    <i name="AMIN">      0.10000000</i>
    <i name="AMIX_MAG">      1.60000000</i>
    <i name="BMIX_MAG">      1.00000000</i>
    <separator name="electronic mixer details" >
     <i type="int" name="IMIX">     4</i>
     <i type="logical" name="MIXFIRST"> F  </i>
     <i type="int" name="MAXMIX">   -45</i>
     <i name="WC">    100.00000000</i>
     <i type="int" name="INIMIX">     1</i>
     <i type="int" name="MIXPRE">     1</i>
     <i type="int" name="MREMOVE">     5</i>
    </separator>
   </separator>
   <separator name="electronic dipolcorrection" >
    <i type="logical" name="LDIPOL"> F  </i>
    <i type="logical" name="LMONO"> F  </i>
    <i type="int" name="IDIPOL">     0</i>
    <i name="EPSILON">      1.00000000</i>
    <v name="DIPOL">   -100.00000000   -100.00000000   -100.00000000</v>
    <i name="EFIELD">      0.00000000</i>
   </separator>
  </separator>
  <separator name="grids" >
   <i type="int" name="NGX">    36</i>
   <i type="int" name="NGY">    28</i>
   <i type="int" name="NGZ">   120</i>
   <i type="int" name="NGXF">    72</i>
   <i type="int" name="NGYF">    56</i>
   <i type="int" name="NGZF">   240</i>
   <i type="logical" name="ADDGRID"> F  </i>
  </separator>
  <separator name="ionic" >
   <i type="int" name="NSW">   800</i>
   <i type="int" name="IBRION">     2</i>
   <i type="int" name="MDALGO">     0</i>
   <i type="int" name="ISIF">     2</i>
   <i name="PSTRESS">      0.00000000</i>
   <i name="EDIFFG">     -0.03000000</i>
   <i type="int" name="NFREE">     1</i>
   <i name="POTIM">      0.50000000</i>
   <i name="SMASS">     -3.00000000</i>
   <i name="SCALEE">      1.00000000</i>
  </separator>
  <separator name="ionic md" >
   <i name="TEBEG">      0.00010000</i>
   <i name="TEEND">      0.00010000</i>
   <i type="int" name="NBLOCK">     1</i>
   <i type="int" name="KBLOCK">   800</i>
   <i type="int" name="NPACO">   256</i>
   <i name="APACO">     10.00000000</i>
  </separator>
  <separator name="symmetry" >
   <i type="int" name="ISYM">     1</i>
   <i name="SYMPREC">      0.00001000</i>
  </separator>
  <separator name="dos" >
   <i type="int" name="LORBIT">     0</i>
   <v name="RWIGS">     -1.00000000     -1.00000000</v>
   <i type="int" name="NEDOS">   301</i>
   <i name="EMIN">     10.00000000</i>
   <i name="EMAX">    -10.00000000</i>
   <i name="EFERMI">      0.00000000</i>
  </separator>
  <separator name="writing" >
   <i type="int" name="NWRITE">     2</i>
   <i type="logical" name="LWAVE"> F  </i>
   <i type="logical" name="LDOWNSAMPLE"> F  </i>
   <i type="logical" name="LCHARG"> F  </i>
   <i type="logical" name="LPARD"> F  </i>
   <i type="logical" name="LVTOT"> F  </i>
   <i type="logical" name="LVHAR"> F  </i>
   <i type="logical" name="LELF"> F  </i>
   <i type="logical" name="LOPTICS"> F  </i>
   <v name="STM">      0.00000000      0.00000000      0.00000000      0.00000000      0.00000000      0.00000000      0.00000000</v>
  </separator>
  <separator name="performance" >
   <i type="int" name="NPAR">     4</i>
   <i type="int" name="NSIM">     4</i>
   <i type="int" name="NBLK">    -1</i>
   <i type="logical" name="LPLANE"> T  </i>
   <i type="logical" name="LSCALAPACK"> T  </i>
   <i type="logical" name="LSCAAWARE"> F  </i>
   <i type="logical" name="LSCALU"> F  </i>
   <i type="logical" name="LASYNC"> F  </i>
   <i type="logical" name="LORBITALREAL"> F  </i>
  </separator>
  <separator name="miscellaneous" >
   <i type="int" name="IDIOT">     3</i>
   <i type="int" name="PHON_NSTRUCT">    -1</i>
   <i type="logical" name="LMUSIC"> F  </i>
   <v name="POMASS">     63.54600000      1.00000000</v>
   <v name="DARWINR">      0.00000000      0.00000000</v>
   <v name="DARWINV">      1.00000000      1.00000000</v>
   <i type="logical" name="LCORR"> T  </i>
  </separator>
  <i type="logical" name="GGA_COMPAT"> T  </i>
  <i type="logical" name="LBERRY"> F  </i>
  <i type="int" name="ICORELEVEL">     0</i>
  <i type="logical" name="LDAU"> F  </i>
  <i type="int" name="I_CONSTRAINED_M">     0</i>
  <separator name="electronic exchange-correlation" >
   <i type="string" name="GGA">PE</i>
   <i type="int" name="VOSKOWN">     0</i>
   <i type="logical" name="LHFCALC"> F  </i>
   <i type="string" name="PRECFOCK"></i>
   <i type="logical" name="LSYMGRAD"> F  </i>
   <i type="logical" name="LHFONE"> F  </i>
   <i type="logical" name="LRHFCALC"> F  </i>
   <i type="logical" name="LTHOMAS"> F  </i>
   <i type="logical" name="LMODELHF"> F  </i>
   <i type="logical" name="LFOCKACE"> F  </i>
   <i name="ENCUT4O">     -1.00000000</i>
   <i type="int" name="EXXOEP">     0</i>
   <i type="int" name="FOURORBIT">     0</i>
   <i name="AEXX">      0.00000000</i>
   <i name="HFALPHA">      0.00000000</i>
   <i name="MCALPHA">      0.00000000</i>
   <i name="ALDAX">      1.00000000</i>
   <i name="AGGAX">      1.00000000</i>
   <i name="ALDAC">      1.00000000</i>
   <i name="AGGAC">      1.00000000</i>
   <i type="int" name="NKREDX">     1</i>
   <i type="int" name="NKREDY">     1</i>
   <i type="int" name="NKREDZ">     1</i>
   <i type="logical" name="SHIFTRED"> F  </i>
   <i type="logical" name="ODDONLY"> F  </i>
   <i type="logical" name="EVENONLY"> F  </i>
   <i type="int" name="LMAXFOCK">     0</i>
   <i type="int" name="NMAXFOCKAE">     0</i>
   <i type="logical" name="LFOCKAEDFT"> F  </i>
   <i name="HFSCREEN">      0.00000000</i>
   <i name="HFSCREENC">      0.00000000</i>
   <i type="int" name="NBANDSGWLOW">     0</i>
  </separator>
  <separator name="vdW DFT" >
   <i type="logical" name="LUSE_VDW"> F  </i>
   <i name="Zab_VDW">     -0.84910000</i>
   <i name="PARAM1">      0.12340000</i>
   <i name="PARAM2">      1.00000000</i>
   <i name="PARAM3">      0.00000000</i>
  </separator>
  <separator name="model GW" >
   <i type="int" name="MODEL_GW">     0</i>
   <i name="MODEL_EPS0">     15.77424013</i>
   <i name="MODEL_ALPHA">      1.00000000</i>
  </separator>
  <separator name="linear response parameters" >
   <i type="logical" name="LEPSILON"> F  </i>
   <i type="logical" name="LRPA"> F  </i>
   <i type="logical" name="LNABLA"> F  </i>
   <i type="logical" name="LVEL"> F  </i>
   <i name="CSHIFT">      0.10000000</i>
   <i name="OMEGAMAX">     -1.00000000</i>
   <i name="DEG_THRESHOLD">      0.00200000</i>
   <i name="RTIME">     -0.10000000</i>
   <i name="WPLASMAI">      0.00000000</i>
   <v name="DFIELD">      0.00000000      0.00000000      0.00000000</v>
   <v name="WPLASMA">      0.00000000      0.00000000      0.00000000      0.00000000      0.00000000      0.00000000      0.00000000      0.00000000      0.00000000</v>
  </separator>
  <separator name="orbital magnetization" >
   <i type="logical" name="NUCIND"> F  </i>
   <v name="MAGPOS">      0.00000000      0.00000000      0.00000000</v>
   <i type="logical" name="LNICSALL"> T  </i>
   <i type="logical" name="ORBITALMAG"> F  </i>
   <i type="logical" name="LMAGBLOCH"> F  </i>
   <i type="logical" name="LCHIMAG"> F  </i>
   <i type="logical" name="LGAUGE"> T  </i>
   <i type="int" name="MAGATOM">     0</i>
   <v name="MAGDIPOL">      0.00000000      0.00000000      0.00000000</v>
   <v name="AVECCONST">      0.00000000      0.00000000      0.00000000</v>
  </separator>
  <separator name="response functions" >
   <i type="logical" name="LFINITE_TEMPERATURE"> F  </i>
   <i type="logical" name="LADDER"> F  </i>
   <i type="logical" name="LRPAFORCE"> F  </i>
   <i type="logical" name="LFXC"> F  </i>
   <i type="logical" name="LHARTREE"> T  </i>
   <i type="int" name="IBSE">     0</i>
   <v type="int" name="KPOINT">    -1     0     0     0</v>
   <i type="logical" name="LTCTC"> F  </i>
   <i type="logical" name="LTCTE"> F  </i>
   <i type="logical" name="LTETE"> F  </i>
   <i type="logical" name="LTRIPLET"> F  </i>
   <i type="logical" name="LFXCEPS"> F  </i>
   <i type="logical" name="LFXHEG"> F  </i>
   <i type="int" name="NATURALO">     2</i>
   <i type="logical" name="LHOLEGF"> F  </i>
   <i type="logical" name="L2ORDER"> F  </i>
   <i type="logical" name="LDMP1"> F  </i>
   <i type="logical" name="LMP2LT"> F  </i>
   <i type="logical" name="LSMP2LT"> F  </i>
   <i type="logical" name="LGWLF"> F  </i>
   <i name="ENCUTGW">     -2.00000000</i>
   <i name="ENCUTGWSOFT">     -2.00000000</i>
   <i name="ENCUTLF">     -1.00000000</i>
   <i type="logical" name="LESF_SPLINES"> F  </i>
   <i type="int" name="LMAXMP2">    -1</i>
   <i name="SCISSOR">      0.00000000</i>
   <i type="int" name="NOMEGA">     0</i>
   <i type="int" name="NOMEGAR">     0</i>
   <i type="int" name="NBANDSGW">    -1</i>
   <i type="int" name="NBANDSO">    -1</i>
   <i type="int" name="NBANDSV">    -1</i>
   <i type="int" name="NELMGW">     1</i>
   <i type="int" name="NELMHF">     1</i>
   <i type="int" name="DIM">     3</i>
   <i type="int" name="IESPILON">     4</i>
   <i type="int" name="ANTIRES">     0</i>
   <i name="OMEGAMAX">    -30.00000000</i>
   <i name="OMEGAMIN">    -30.00000000</i>
   <i name="OMEGATL">   -200.00000000</i>
   <i type="int" name="OMEGAGRID">     0</i>
   <i name="CSHIFT">     -0.10000000</i>
   <i type="logical" name="LSELFENERGY"> F  </i>
   <i type="logical" name="LSPECTRAL"> F  </i>
   <i type="logical" name="LSPECTRALGW"> F  </i>
   <i type="logical" name="LSINGLES"> F  </i>
   <i type="logical" name="LFERMIGW"> F  </i>
   <i type="logical" name="ODDONLYGW"> F  </i>
   <i type="logical" name="EVENONLYGW"> F  </i>
   <i type="int" name="NKREDLFX">     1</i>
   <i type="int" name="NKREDLFY">     1</i>
   <i type="int" name="NKREDLFZ">     1</i>
   <i type="int" name="MAXMEM">  2800</i>
   <i type="int" name="TELESCOPE">     0</i>
   <i type="int" name="NTAUPAR">    -1</i>
   <i type="int" name="NOMEGAPAR">    -1</i>
   <i name="DAMP_NEWTON">      0.80000001</i>
   <i name="LAMBDA">      1.00000000</i>
  </separator>
  <separator name="External order field" >
   <i name="OFIELD_KAPPA">      0.00000000</i>
   <v name="OFIELD_K">      0.00000000      0.00000000      0.00000000</v>
   <i name="OFIELD_Q6_NEAR">      0.00000000</i>
   <i name="OFIELD_Q6_FAR">      0.00000000</i>
   <i name="OFIELD_A">      0.00000000</i>
  </separator>
  <separator name="optional k-points parameters" >
   <i type="int" name="KPOINTS_OPT_MODE">     1</i>
   <i type="logical" name="LKPOINTS_OPT"> F  </i>
  </separator>
 </parameters>
 <atominfo>
  <atoms>      34 </atoms>
  <types>       2 </types>
  <array name="atoms" >
   <dimension dim="1">ion</dimension>
   <field type="string">element</field>
   <field type="int">atomtype</field>
   <set>
    <rc><c>Cu</c><c>   1</c></rc>
    <rc><c>Cu</c><c>   1</c></rc>
    <rc><c>Cu</c><c>   1</c></rc>
    <rc><c>Cu</c><c>   1</c></rc>
    <rc><c>Cu</c><c>   1</c></rc>
    <rc><c>Cu</c><c>   1</c></rc>
    <rc><c>Cu</c><c>   1</c></rc>
    <rc><c>Cu</c><c>   1</c></rc>
    <rc><c>Cu</c><c>   1</c></rc>
    <rc><c>Cu</c><c>   1</c></rc>
    <rc><c>Cu</c><c>   1</c></rc>
    <rc><c>Cu</c><c>   1</c></rc>
    <rc><c>Cu</c><c>   1</c></rc>
    <rc><c>Cu</c><c>   1</c></rc>
    <rc><c>Cu</c><c>   1</c></rc>
    <rc><c>Cu</c><c>   1</c></rc>
    <rc><c>Cu</c><c>   1</c></rc>
    <rc><c>Cu</c><c>   1</c></rc>
    <rc><c>Cu</c><c>   1</c></rc>
    <rc><c>Cu</c><c>   1</c></rc>
    <rc><c>Cu</c><c>   1</c></rc>
    <rc><c>Cu</c><c>   1</c></rc>
    <rc><c>Cu</c><c>   1</c></rc>
    <rc><c>Cu</c><c>   1</c></rc>
    <rc><c>Cu</c><c>   1</c></rc>
    <rc><c>Cu</c><c>   1</c></rc>
    <rc><c>Cu</c><c>   1</c></rc>
    <rc><c>Cu</c><c>   1</c></rc>
    <rc><c>Cu</c><c>   1</c></rc>
    <rc><c>Cu</c><c>   1</c></rc>
    <rc><c>Cu</c><c>   1</c></rc>
    <rc><c>Cu</c><c>   1</c></rc>
    <rc><c>H </c><c>   2</c></rc>
    <rc><c>H </c><c>   2</c></rc>
   </set>
  </array>
  <array name="atomtypes" >
   <dimension dim="1">type</dimension>
   <field type="int">atomspertype</field>
   <field type="string">element</field>
   <field>mass</field>
   <field>valence</field>
   <field type="string">pseudopotential</field>
   <set>
    <rc><c>  32</c><c>Cu</c><c>     63.54600000</c><c>     11.00000000</c><c>  PAW_PBE Cu 22Jun2005                  </c></rc>
    <rc><c>   2</c><c>H </c><c>      1.00000000</c><c>      1.00000000</c><c>  PAW_PBE H 15Jun2001                   </c></rc>
   </set>
  </array>
 </atominfo>
 <structure name="initialpos" >
  <crystal>
   <varray name="basis" >
    <v>       7.26000023       0.00000000       0.00000000 </v>
    <v>       0.00000000       5.13359547       0.00000000 </v>
    <v>       0.00000000       0.00000000      23.98379135 </v>
   </varray>
   <i name="volume">    893.87360752 </i>
   <varray name="rec_basis" >
    <v>       0.13774104       0.00000000       0.00000000 </v>
    <v>       0.00000000       0.19479525       0.00000000 </v>
    <v>       0.00000000       0.00000000       0.04169483 </v>
   </varray>
  </crystal>
  <varray name="positions" >
   <v>       0.00000000       0.00000000       0.00000000 </v>
   <v>       0.00000000       0.50000000       0.00000000 </v>
   <v>       0.50000000       0.00000000       0.00000000 </v>
   <v>       0.50000000       0.50000000       0.00000000 </v>
   <v>       0.25000000       0.25000000       0.05351109 </v>
   <v>       0.25000000       0.75000000       0.05351109 </v>
   <v>       0.75000000       0.25000000       0.05351109 </v>
   <v>       0.75000000       0.75000000       0.05351109 </v>
   <v>       0.00000000       0.00000000       0.10541371 </v>
   <v>       0.00000000       0.50000000       0.10541371 </v>
   <v>       0.50000000       0.00000000       0.10541371 </v>
   <v>       0.50000000       0.50000000       0.10541371 </v>
   <v>       0.25000000       0.25000000       0.15715010 </v>
   <v>       0.25000000       0.75000000       0.15715010 </v>
   <v>       0.75000000       0.25000000       0.15715010 </v>
   <v>       0.75000000       0.75000000       0.15715010 </v>
   <v>       0.00000000       0.00000000       0.20866257 </v>
   <v>       0.00000000       0.50000000       0.20866257 </v>
   <v>       0.50000000       0.00000000       0.20866257 </v>
   <v>       0.50000000       0.50000000       0.20866257 </v>
   <v>       0.25000000       0.25000000       0.25947965 </v>
   <v>       0.25000000       0.75000000       0.25947965 </v>
   <v>       0.75000000       0.25000000       0.25947965 </v>
   <v>       0.75000000       0.75000000       0.25947965 </v>
   <v>       0.00000000       0.00000000       0.31415415 </v>
   <v>       0.00000000       0.50000000       0.31415415 </v>
   <v>       0.50000000       0.00000000       0.31415415 </v>
   <v>       0.50000000       0.50000000       0.31415415 </v>
   <v>       0.25000000       0.25000000       0.36181799 </v>
   <v>       0.25000000       0.75000000       0.36181799 </v>
   <v>       0.75000000       0.25000000       0.36181799 </v>
   <v>       0.75000000       0.75000000       0.36181799 </v>
   <v>       0.50000000       0.75000000       0.42690792 </v>
   <v>       0.50000000       0.75000000       0.45801226 </v>
  </varray>
  <varray name="selective"  type="logical" >
   <v type="logical" >  F  F  F </v>
   <v type="logical" >  F  F  F </v>
   <v type="logical" >  F  F  F </v>
   <v type="logical" >  F  F  F </v>
   <v type="logical" >  F  F  F </v>
   <v type="logical" >  F  F  F </v>
   <v type="logical" >  F  F  F </v>
   <v type="logical" >  F  F  F </v>
   <v type="logical" >  F  F  F </v>
   <v type="logical" >  F  F  F </v>
   <v type="logical" >  F  F  F </v>
   <v type="logical" >  F  F  F </v>
   <v type="logical" >  T  T  T </v>
   <v type="logical" >  T  T  T </v>
   <v type="logical" >  T  T  T </v>
   <v type="logical" >  T  T  T </v>
   <v type="logical" >  T  T  T </v>
   <v type="logical" >  T  T  T </v>
   <v type="logical" >  T  T  T </v>
   <v type="logical" >  T  T  T </v>
   <v type="logical" >  T  T  T </v>
   <v type="logical" >  T  T  T </v>
   <v type="logical" >  T  T  T </v>
   <v type="logical" >  T  T  T </v>
   <v type="logical" >  T  T  T </v>
   <v type="logical" >  T  T  T </v>
   <v type="logical" >  T  T  T </v>
   <v type="logical" >  T  T  T </v>
   <v type="logical" >  T  T  T </v>
   <v type="logical" >  T  T  T </v>
   <v type="logical" >  T  T  T </v>
   <v type="logical" >  T  T  T </v>
   <v type="logical" >  T  T  T </v>
   <v type="logical" >  T  T  T </v>
  </varray>
  <nose>
   <v>      -3.00000000       0.00000000       0.00010000       0.00010000 </v>
  </nose>
 </structure>
 <calculation>
  <scstep>
   <time name="dav">    7.60    7.66</time>
   <time name="total">    7.69    7.75</time>
   <energy>
    <i name="alphaZ">    844.48149002 </i>
    <i name="ewald"> 172970.30134569 </i>
    <i name="hartreedc">-216110.14691016 </i>
    <i name="XCdc">   1468.27819957 </i>
    <i name="pawpsdc">  39302.70853331 </i>
    <i name="pawaedc"> -42689.07521165 </i>
    <i name="eentropy">     -0.00294963 </i>
    <i name="bandstr">   2947.21664316 </i>
    <i name="atom">  44535.60175172 </i>
    <i name="e_fr_energy">   3269.36289202 </i>
    <i name="e_wo_entrp">   3269.36584165 </i>
    <i name="e_0_energy">   3269.36387523 </i>
   </energy>
  </scstep>
  <scstep>
   <time name="dav">    7.50    7.56</time>
   <time name="total">    7.51    7.57</time>
   <energy>
    <i name="e_fr_energy">    383.20744208 </i>
    <i name="e_wo_entrp">    383.22489580 </i>
    <i name="e_0_energy">    383.21325999 </i>
   </energy>
  </scstep>
  <scstep>
   <time name="dav">    7.51    7.57</time>
   <time name="total">    7.51    7.57</time>
   <energy>
    <i name="e_fr_energy">   -100.06735796 </i>
    <i name="e_wo_entrp">   -100.09996506 </i>
    <i name="e_0_energy">   -100.07822699 </i>
   </energy>
  </scstep>
  <scstep>
   <time name="dav">    8.23    8.30</time>
   <time name="total">    8.23    8.30</time>
   <energy>
    <i name="e_fr_energy">   -133.11137412 </i>
    <i name="e_wo_entrp">   -133.14141755 </i>
    <i name="e_0_energy">   -133.12138859 </i>
   </energy>
  </scstep>
  <scstep>
   <time name="dav">    8.13    8.19</time>
   <time name="total">    8.51    8.58</time>
   <energy>
    <i name="e_fr_energy">   -133.87340952 </i>
    <i name="e_wo_entrp">   -133.90437710 </i>
    <i name="e_0_energy">   -133.88373205 </i>
   </energy>
  </scstep>
  <scstep>
   <time name="dav">    7.96    8.02</time>
   <time name="total">    8.41    8.48</time>
   <energy>
    <i name="e_fr_energy">   -108.46486494 </i>
    <i name="e_wo_entrp">   -108.46063608 </i>
    <i name="e_0_energy">   -108.46345532 </i>
   </energy>
  </scstep>
  <scstep>
   <time name="dav">    8.06    8.12</time>
   <time name="total">    8.51    8.57</time>
   <energy>
    <i name="e_fr_energy">    -95.38024191 </i>
    <i name="e_wo_entrp">    -95.37253218 </i>
    <i name="e_0_energy">    -95.37767200 </i>
   </energy>
  </scstep>
  <scstep>
   <time name="dav">    8.30    8.36</time>
   <time name="total">    8.74    8.81</time>
   <energy>
    <i name="e_fr_energy">    -93.96991353 </i>
    <i name="e_wo_entrp">    -93.97152629 </i>
    <i name="e_0_energy">    -93.97045112 </i>
   </energy>
  </scstep>
  <scstep>
   <time name="dav">    9.70    9.77</time>
   <time name="total">   10.13   10.21</time>
   <energy>
    <i name="e_fr_energy">    -92.11634246 </i>
    <i name="e_wo_entrp">    -92.11616547 </i>
    <i name="e_0_energy">    -92.11628347 </i>
   </energy>
  </scstep>
  <scstep>
   <time name="dav">   10.20   10.27</time>
   <time name="total">   10.65   10.73</time>
   <energy>
    <i name="e_fr_energy">    -93.46226805 </i>
    <i name="e_wo_entrp">    -93.46410251 </i>
    <i name="e_0_energy">    -93.46287953 </i>
   </energy>
  </scstep>
  <scstep>
   <time name="dav">   10.59   10.67</time>
   <time name="total">   11.03   11.12</time>
   <energy>
    <i name="e_fr_energy">    -93.27392042 </i>
    <i name="e_wo_entrp">    -93.26086522 </i>
    <i name="e_0_energy">    -93.26956869 </i>
   </energy>
  </scstep>
  <scstep>
   <time name="dav">    9.58    9.66</time>
   <time name="total">   10.03   10.11</time>
   <energy>
    <i name="e_fr_energy">    -95.60761289 </i>
    <i name="e_wo_entrp">    -95.57210144 </i>
    <i name="e_0_energy">    -95.59577574 </i>
   </energy>
  </scstep>
  <scstep>
   <time name="dav">    8.90    8.97</time>
   <time name="total">    9.35    9.42</time>
   <energy>
    <i name="e_fr_energy">   -100.52824340 </i>
    <i name="e_wo_entrp">   -100.50477001 </i>
    <i name="e_0_energy">   -100.52041893 </i>
   </energy>
  </scstep>
  <scstep>
   <time name="dav">    9.11    9.18</time>
   <time name="total">    9.56    9.63</time>
   <energy>
    <i name="e_fr_energy">   -106.29843897 </i>
    <i name="e_wo_entrp">   -106.28841874 </i>
    <i name="e_0_energy">   -106.29509889 </i>
   </energy>
  </scstep>
  <scstep>
   <time name="dav">    9.64    9.72</time>
   <time name="total">   10.09   10.17</time>
   <energy>
    <i name="e_fr_energy">   -110.40349098 </i>
    <i name="e_wo_entrp">   -110.42749959 </i>
    <i name="e_0_energy">   -110.41149385 </i>
   </energy>
  </scstep>
  <scstep>
   <time name="dav">    8.27    8.33</time>
   <time name="total">    8.74    8.81</time>
   <energy>
    <i name="e_fr_energy">   -113.25610651 </i>
    <i name="e_wo_entrp">   -113.30097391 </i>
    <i name="e_0_energy">   -113.27106231 </i>
   </energy>
  </scstep>
  <scstep>
   <time name="dav">    8.04    8.10</time>
   <time name="total">    8.50    8.56</time>
   <energy>
    <i name="e_fr_energy">   -114.82659643 </i>
    <i name="e_wo_entrp">   -114.86940094 </i>
    <i name="e_0_energy">   -114.84086460 </i>
   </energy>
  </scstep>
  <scstep>
   <time name="dav">    8.30    8.36</time>
   <time name="total">    8.76    8.83</time>
   <energy>
    <i name="e_fr_energy">   -116.07666758 </i>
    <i name="e_wo_entrp">   -116.10202245 </i>
    <i name="e_0_energy">   -116.08511920 </i>
   </energy>
  </scstep>
  <scstep>
   <time name="dav">    8.72    8.79</time>
   <time name="total">    9.17    9.24</time>
   <energy>
    <i name="e_fr_energy">   -116.69823522 </i>
    <i name="e_wo_entrp">   -116.72565681 </i>
    <i name="e_0_energy">   -116.70737575 </i>
   </energy>
  </scstep>
  <scstep>
   <time name="dav">    8.32    8.38</time>
   <time name="total">    8.75    8.82</time>
   <energy>
    <i name="e_fr_energy">   -117.13454326 </i>
    <i name="e_wo_entrp">   -117.16329328 </i>
    <i name="e_0_energy">   -117.14412660 </i>
   </energy>
  </scstep>
  <scstep>
   <time name="dav">    8.48    8.54</time>
   <time name="total">    8.93    9.00</time>
   <energy>
    <i name="e_fr_energy">   -117.25334195 </i>
    <i name="e_wo_entrp">   -117.28533733 </i>
    <i name="e_0_energy">   -117.26400707 </i>
   </energy>
  </scstep>
  <scstep>
   <time name="dav">    8.62    8.69</time>
   <time name="total">    9.07    9.14</time>
   <energy>
    <i name="e_fr_energy">   -117.45437506 </i>
    <i name="e_wo_entrp">   -117.48837115 </i>
    <i name="e_0_energy">   -117.46570709 </i>
   </energy>
  </scstep>
  <scstep>
   <time name="dav">    8.88    8.95</time>
   <time name="total">    9.33    9.40</time>
   <energy>
    <i name="e_fr_energy">   -117.68028540 </i>
    <i name="e_wo_entrp">   -117.71340739 </i>
    <i name="e_0_energy">   -117.69132606 </i>
   </energy>
  </scstep>
  <scstep>
   <time name="dav">    9.34    9.41</time>
   <time name="total">    9.79    9.86</time>
   <energy>
    <i name="e_fr_energy">   -117.83854857 </i>
    <i name="e_wo_entrp">   -117.87398307 </i>
    <i name="e_0_energy">   -117.85036007 </i>
   </energy>
  </scstep>
  <scstep>
   <time name="dav">    8.62    8.68</time>
   <time name="total">    9.07    9.14</time>
   <energy>
    <i name="e_fr_energy">   -117.97198910 </i>
    <i name="e_wo_entrp">   -118.00719912 </i>
    <i name="e_0_energy">   -117.98372577 </i>
   </energy>
  </scstep>
  <scstep>
   <time name="dav">    8.93    9.00</time>
   <time name="total">    9.39    9.46</time>
   <energy>
    <i name="e_fr_energy">   -118.12745048 </i>
    <i name="e_wo_entrp">   -118.16236673 </i>
    <i name="e_0_energy">   -118.13908923 </i>
   </energy>
  </scstep>
  <scstep>
   <time name="dav">    9.01    9.08</time>
   <time name="total">    9.46    9.54</time>
   <energy>
    <i name="e_fr_energy">   -118.20989696 </i>
    <i name="e_wo_entrp">   -118.24572668 </i>
    <i name="e_0_energy">   -118.22184020 </i>
   </energy>
  </scstep>
  <scstep>
   <time name="dav">    6.65    6.70</time>
   <time name="total">    7.10    7.16</time>
   <energy>
    <i name="e_fr_energy">   -118.23860580 </i>
    <i name="e_wo_entrp">   -118.27414867 </i>
    <i name="e_0_energy">   -118.25045342 </i>
   </energy>
  </scstep>
  <scstep>
   <time name="dav">    6.02    6.07</time>
   <time name="total">    6.47    6.52</time>
   <energy>
    <i name="e_fr_energy">   -118.24597960 </i>
    <i name="e_wo_entrp">   -118.28143172 </i>
    <i name="e_0_energy">   -118.25779697 </i>
   </energy>
  </scstep>
  <scstep>
   <time name="dav">    5.88    5.93</time>
   <time name="total">    6.35    6.40</time>
   <energy>
    <i name="e_fr_energy">   -118.24923561 </i>
    <i name="e_wo_entrp">   -118.28486369 </i>
    <i name="e_0_energy">   -118.26111163 </i>
   </energy>
  </scstep>
  <scstep>
   <time name="dav">    5.69    5.73</time>
   <time name="total">    6.15    6.20</time>
   <energy>
    <i name="e_fr_energy">   -118.25051609 </i>
    <i name="e_wo_entrp">   -118.28597554 </i>
    <i name="e_0_energy">   -118.26233590 </i>
   </energy>
  </scstep>
  <scstep>
   <time name="dav">    5.60    5.65</time>
   <time name="total">    6.07    6.12</time>
   <energy>
    <i name="e_fr_energy">   -118.25075368 </i>
    <i name="e_wo_entrp">   -118.28616634 </i>
    <i name="e_0_energy">   -118.26255790 </i>
   </energy>
  </scstep>
  <scstep>
   <time name="dav">    5.55    5.59</time>
   <time name="total">    5.63    5.67</time>
   <energy>
    <i name="alphaZ">    844.48149002 </i>
    <i name="ewald"> 172970.30134569 </i>
    <i name="hartreedc">-215728.08001471 </i>
    <i name="XCdc">   1431.81393335 </i>
    <i name="pawpsdc">  41948.43235156 </i>
    <i name="pawaedc"> -45396.34790779 </i>
    <i name="eentropy">      0.03542971 </i>
    <i name="bandstr">   -724.48923934 </i>
    <i name="atom">  44535.60175172 </i>
    <i name="e_fr_energy">   -118.25085979 </i>
    <i name="e_wo_entrp">   -118.28628950 </i>
    <i name="e_0_energy">   -118.26266970 </i>
   </energy>
  </scstep>
  <structure>
   <crystal>
    <varray name="basis" >
     <v>       7.26000023       0.00000000       0.00000000 </v>
     <v>       0.00000000       5.13359547       0.00000000 </v>
     <v>       0.00000000       0.00000000      23.98379135 </v>
    </varray>
    <i name="volume">    893.87360752 </i>
    <varray name="rec_basis" >
     <v>       0.13774104       0.00000000       0.00000000 </v>
     <v>       0.00000000       0.19479525       0.00000000 </v>
     <v>       0.00000000       0.00000000       0.04169483 </v>
    </varray>
   </crystal>
   <varray name="positions" >
    <v>       0.00000000       0.00000000       0.00000000 </v>
    <v>       0.00000000       0.50000000       0.00000000 </v>
    <v>       0.50000000       0.00000000       0.00000000 </v>
    <v>       0.50000000       0.50000000       0.00000000 </v>
    <v>       0.25000000       0.25000000       0.05351109 </v>
    <v>       0.25000000       0.75000000       0.05351109 </v>
    <v>       0.75000000       0.25000000       0.05351109 </v>
    <v>       0.75000000       0.75000000       0.05351109 </v>
    <v>       0.00000000       0.00000000       0.10541371 </v>
    <v>       0.00000000       0.50000000       0.10541371 </v>
    <v>       0.50000000       0.00000000       0.10541371 </v>
    <v>       0.50000000       0.50000000       0.10541371 </v>
    <v>       0.25000000       0.25000000       0.15715010 </v>
    <v>       0.25000000       0.75000000       0.15715010 </v>
    <v>       0.75000000       0.25000000       0.15715010 </v>
    <v>       0.75000000       0.75000000       0.15715010 </v>
    <v>       0.00000000       0.00000000       0.20866257 </v>
    <v>       0.00000000       0.50000000       0.20866257 </v>
    <v>       0.50000000       0.00000000       0.20866257 </v>
    <v>       0.50000000       0.50000000       0.20866257 </v>
    <v>       0.25000000       0.25000000       0.25947965 </v>
    <v>       0.25000000       0.75000000       0.25947965 </v>
    <v>       0.75000000       0.25000000       0.25947965 </v>
    <v>       0.75000000       0.75000000       0.25947965 </v>
    <v>       0.00000000       0.00000000       0.31415415 </v>
    <v>       0.00000000       0.50000000       0.31415415 </v>
    <v>       0.50000000       0.00000000       0.31415415 </v>
    <v>       0.50000000       0.50000000       0.31415415 </v>
    <v>       0.25000000       0.25000000       0.36181799 </v>
    <v>       0.25000000       0.75000000       0.36181799 </v>
    <v>       0.75000000       0.25000000       0.36181799 </v>
    <v>       0.75000000       0.75000000       0.36181799 </v>
    <v>       0.50000000       0.75000000       0.42690792 </v>
    <v>       0.50000000       0.75000000       0.45801226 </v>
   </varray>
  </structure>
  <varray name="forces" >
   <v>       0.00000000      -0.01104813       0.44533459 </v>
   <v>       0.00000000       0.01104813       0.44533459 </v>
   <v>       0.00000000      -0.00770752       0.45856362 </v>
   <v>       0.00000000       0.00770752       0.45856362 </v>
   <v>       0.00289916       0.00000000      -0.45321442 </v>
   <v>      -0.00519501       0.00000000      -0.45758398 </v>
   <v>      -0.00289916       0.00000000      -0.45321442 </v>
   <v>       0.00519501       0.00000000      -0.45758398 </v>
   <v>       0.00000000      -0.00329599      -0.01095706 </v>
   <v>       0.00000000       0.00329599      -0.01095706 </v>
   <v>       0.00000000       0.00200761      -0.03013210 </v>
   <v>       0.00000000      -0.00200761      -0.03013210 </v>
   <v>       0.00641941       0.00000000       0.01471729 </v>
   <v>       0.00062507       0.00000000       0.01179596 </v>
   <v>      -0.00641941       0.00000000       0.01471729 </v>
   <v>      -0.00062507       0.00000000       0.01179596 </v>
   <v>       0.00000000       0.00005672       0.02111782 </v>
   <v>       0.00000000      -0.00005672       0.02111782 </v>
   <v>       0.00000000       0.00973453      -0.01550307 </v>
   <v>       0.00000000      -0.00973453      -0.01550307 </v>
   <v>      -0.00797664       0.00000000       0.00262642 </v>
   <v>       0.01510993       0.00000000       0.01737264 </v>
   <v>       0.00797664       0.00000000       0.00262642 </v>
   <v>      -0.01510993       0.00000000       0.01737264 </v>
   <v>       0.00000000       0.00306303       0.04109025 </v>
   <v>       0.00000000      -0.00306303       0.04109025 </v>
   <v>       0.00000000       0.03151956      -0.06292250 </v>
   <v>       0.00000000      -0.03151956      -0.06292250 </v>
   <v>      -0.03461122       0.00000000      -0.03724003 </v>
   <v>      -0.11224632       0.00000000      -0.06730016 </v>
   <v>       0.03461122       0.00000000      -0.03724003 </v>
   <v>       0.11224632       0.00000000      -0.06730016 </v>
   <v>       0.00000000       0.00000000      -0.47643000 </v>
   <v>       0.00000000       0.00000000       0.72089948 </v>
  </varray>
  <varray name="stress" >
   <v>     -31.57399523       0.00000000       0.00000000 </v>
   <v>       0.00000000     -28.68973011       0.00000000 </v>
   <v>       0.00000000       0.00000000      -6.35238232 </v>
  </varray>
  <energy>
   <i name="e_fr_energy">   -130.64646715 </i>
   <i name="e_wo_entrp">   -130.68189685 </i>
   <i name="e_0_energy">   -130.65827705 </i>
  </energy>
  <time name="totalsc">  297.67  299.99</time>
 </calculation>
 <calculation>
  <scstep>
   <time name="dav">    7.61    7.66</time>
   <time name="total">    8.07    8.14</time>
   <energy>
    <i name="alphaZ">    844.48149002 </i>
    <i name="ewald"> 173015.85235719 </i>
    <i name="hartreedc">-215774.11642201 </i>
    <i name="XCdc">   1431.77773063 </i>
    <i name="pawpsdc">  41948.29487478 </i>
    <i name="pawaedc"> -45396.19021447 </i>
    <i name="eentropy">      0.03656257 </i>
    <i name="bandstr">   -723.97482214 </i>
    <i name="atom">  44535.60175172 </i>
    <i name="e_fr_energy">   -118.23669171 </i>
    <i name="e_wo_entrp">   -118.27325428 </i>
    <i name="e_0_energy">   -118.24887923 </i>
   </energy>
  </scstep>
  <scstep>
   <time name="dav">    9.51    9.58</time>
   <time name="total">    9.98   10.05</time>
   <energy>
    <i name="e_fr_energy">   -118.23777839 </i>
    <i name="e_wo_entrp">   -118.27369240 </i>
    <i name="e_0_energy">   -118.24974972 </i>
   </energy>
  </scstep>
  <scstep>
   <time name="dav">    8.51    8.58</time>
   <time name="total">    8.97    9.04</time>
   <energy>
    <i name="e_fr_energy">   -118.23853038 </i>
    <i name="e_wo_entrp">   -118.27528902 </i>
    <i name="e_0_energy">   -118.25078326 </i>
   </energy>
  </scstep>
  <scstep>
   <time name="dav">    8.41    8.47</time>
   <time name="total">    8.87    8.94</time>
   <energy>
    <i name="e_fr_energy">   -118.23769915 </i>
    <i name="e_wo_entrp">   -118.27410678 </i>
    <i name="e_0_energy">   -118.24983502 </i>
   </energy>
  </scstep>
  <scstep>
   <time name="dav">    8.96    9.03</time>
   <time name="total">    9.43    9.50</time>
   <energy>
    <i name="e_fr_energy">   -118.23675319 </i>
    <i name="e_wo_entrp">   -118.27250956 </i>
    <i name="e_0_energy">   -118.24867198 </i>
   </energy>
  </scstep>
  <scstep>
   <time name="dav">    6.57    6.62</time>
   <time name="total">    6.65    6.70</time>
   <energy>
    <i name="alphaZ">    844.48149002 </i>
    <i name="ewald"> 173015.85235719 </i>
    <i name="hartreedc">-215772.16364647 </i>
    <i name="XCdc">   1431.69826585 </i>
    <i name="pawpsdc">  41946.75192796 </i>
    <i name="pawaedc"> -45394.62979352 </i>
    <i name="eentropy">      0.03624631 </i>
    <i name="bandstr">   -725.86533168 </i>
    <i name="atom">  44535.60175172 </i>
    <i name="e_fr_energy">   -118.23673261 </i>
    <i name="e_wo_entrp">   -118.27297892 </i>
    <i name="e_0_energy">   -118.24881471 </i>
   </energy>
  </scstep>
  <structure>
   <crystal>
    <varray name="basis" >
     <v>       7.26000023       0.00000000       0.00000000 </v>
     <v>       0.00000000       5.13359547       0.00000000 </v>
     <v>       0.00000000       0.00000000      23.98379135 </v>
    </varray>
    <i name="volume">    893.87360752 </i>
    <varray name="rec_basis" >
     <v>       0.13774104       0.00000000       0.00000000 </v>
     <v>       0.00000000       0.19479525       0.00000000 </v>
     <v>       0.00000000       0.00000000       0.04169483 </v>
    </varray>
   </crystal>
   <varray name="positions" >
    <v>       0.00000000       0.00000000       0.00000000 </v>
    <v>       0.00000000       0.50000000       0.00000000 </v>
    <v>       0.50000000       0.00000000       0.00000000 </v>
    <v>       0.50000000       0.50000000       0.00000000 </v>
    <v>       0.25000000       0.25000000       0.05351109 </v>
    <v>       0.25000000       0.75000000       0.05351109 </v>
    <v>       0.75000000       0.25000000       0.05351109 </v>
    <v>       0.75000000       0.75000000       0.05351109 </v>
    <v>       0.00000000       0.00000000       0.10541371 </v>
    <v>       0.00000000       0.50000000       0.10541371 </v>
    <v>       0.50000000       0.00000000       0.10541371 </v>
    <v>       0.50000000       0.50000000       0.10541371 </v>
    <v>       0.25004266       0.25000000       0.15717970 </v>
    <v>       0.25000415       0.75000000       0.15717382 </v>
    <v>       0.74995734       0.25000000       0.15717970 </v>
    <v>       0.74999585       0.75000000       0.15717382 </v>
    <v>       0.00000000       0.00000053       0.20870505 </v>
    <v>       0.00000000       0.49999947       0.20870505 </v>
    <v>       0.50000000       0.00009148       0.20863139 </v>
    <v>       0.50000000       0.49990852       0.20863139 </v>
    <v>       0.24994700       0.25000000       0.25948494 </v>
    <v>       0.25010041       0.75000000       0.25951460 </v>
    <v>       0.75005300       0.25000000       0.25948494 </v>
    <v>       0.74989959       0.75000000       0.25951460 </v>
    <v>       0.00000000       0.00002878       0.31423680 </v>
    <v>       0.00000000       0.49997122       0.31423680 </v>
    <v>       0.50000000       0.00029620       0.31402758 </v>
    <v>       0.50000000       0.49970380       0.31402758 </v>
    <v>       0.24977001       0.25000000       0.36174308 </v>
    <v>       0.24925412       0.75000000       0.36168262 </v>
    <v>       0.75022999       0.25000000       0.36174308 </v>
    <v>       0.75074588       0.75000000       0.36168262 </v>
    <v>       0.50000000       0.75000000       0.42594960 </v>
    <v>       0.50000000       0.75000000       0.45946233 </v>
   </varray>
  </structure>
  <varray name="forces" >
   <v>       0.00000000      -0.01121133       0.44150295 </v>
   <v>       0.00000000       0.01121133       0.44150295 </v>
   <v>       0.00000000      -0.00781129       0.45511429 </v>
   <v>       0.00000000       0.00781129       0.45511429 </v>
   <v>       0.00213524       0.00000000      -0.45266391 </v>
   <v>      -0.00542768       0.00000000      -0.45790166 </v>
   <v>      -0.00213524       0.00000000      -0.45266391 </v>
   <v>       0.00542768       0.00000000      -0.45790166 </v>
   <v>       0.00000000      -0.00227761      -0.00955069 </v>
   <v>       0.00000000       0.00227761      -0.00955069 </v>
   <v>       0.00000000       0.00160193      -0.03552612 </v>
   <v>       0.00000000      -0.00160193      -0.03552612 </v>
   <v>      -0.00195370       0.00000000       0.00223791 </v>
   <v>      -0.00257180       0.00000000       0.00490493 </v>
   <v>       0.00195370       0.00000000       0.00223791 </v>
   <v>       0.00257180       0.00000000       0.00490493 </v>
   <v>       0.00000000      -0.00212703       0.01130635 </v>
   <v>       0.00000000       0.00212703       0.01130635 </v>
   <v>       0.00000000       0.00145535      -0.01150516 </v>
   <v>       0.00000000      -0.00145535      -0.01150516 </v>
   <v>      -0.00794331       0.00000000      -0.00179408 </v>
   <v>       0.00639409       0.00000000      -0.00177852 </v>
   <v>       0.00794331       0.00000000      -0.00179408 </v>
   <v>      -0.00639409       0.00000000      -0.00177852 </v>
   <v>       0.00000000       0.00831780       0.01151443 </v>
   <v>       0.00000000      -0.00831780       0.01151443 </v>
   <v>       0.00000000       0.00311592      -0.02524778 </v>
   <v>       0.00000000      -0.00311592      -0.02524778 </v>
   <v>      -0.01571612       0.00000000      -0.01508166 </v>
   <v>      -0.04362099       0.00000000      -0.01255296 </v>
   <v>       0.01571612       0.00000000      -0.01508166 </v>
   <v>       0.04362099       0.00000000      -0.01255296 </v>
   <v>       0.00000000       0.00000000       0.87635097 </v>
   <v>       0.00000000       0.00000000      -0.68230763 </v>
  </varray>
  <varray name="stress" >
   <v>     -30.09918373       0.00000000       0.00000000 </v>
   <v>       0.00000000     -27.08131103       0.00000000 </v>
   <v>       0.00000000       0.00000000      -6.72644395 </v>
  </varray>
  <energy>
   <i name="e_fr_energy">   -130.63998267 </i>
   <i name="e_wo_entrp">   -130.67622898 </i>
   <i name="e_0_energy">   -130.65206477 </i>
  </energy>
  <time name="totalsc">   66.94   67.47</time>
 </calculation>
 <calculation>
  <scstep>
   <time name="dav">    7.59    7.65</time>
   <time name="total">    8.05    8.12</time>
   <energy>
    <i name="alphaZ">    844.48149002 </i>
    <i name="ewald"> 172988.34528923 </i>
    <i name="hartreedc">-215744.39690798 </i>
    <i name="XCdc">   1431.72105548 </i>
    <i name="pawpsdc">  41946.82183909 </i>
    <i name="pawaedc"> -45394.72598341 </i>
    <i name="eentropy">      0.03542640 </i>
    <i name="bandstr">   -726.14048226 </i>
    <i name="atom">  44535.60175172 </i>
    <i name="e_fr_energy">   -118.25652170 </i>
    <i name="e_wo_entrp">   -118.29194811 </i>
    <i name="e_0_energy">   -118.26833050 </i>
   </energy>
  </scstep>
  <scstep>
   <time name="dav">    9.52    9.59</time>
   <time name="total">    9.98   10.05</time>
   <energy>
    <i name="e_fr_energy">   -118.25728006 </i>
    <i name="e_wo_entrp">   -118.29303239 </i>
    <i name="e_0_energy">   -118.26919750 </i>
   </energy>
  </scstep>
  <scstep>
   <time name="dav">    8.37    8.44</time>
   <time name="total">    8.83    8.90</time>
   <energy>
    <i name="e_fr_energy">   -118.25726900 </i>
    <i name="e_wo_entrp">   -118.29294264 </i>
    <i name="e_0_energy">   -118.26916022 </i>
   </energy>
  </scstep>
  <scstep>
   <time name="dav">    7.93    7.99</time>
   <time name="total">    8.38    8.45</time>
   <energy>
    <i name="e_fr_energy">   -118.25720851 </i>
    <i name="e_wo_entrp">   -118.29272406 </i>
    <i name="e_0_energy">   -118.26904703 </i>
   </energy>
  </scstep>
  <scstep>
   <time name="dav">    6.00    6.05</time>
   <time name="total">    6.46    6.51</time>
   <energy>
    <i name="e_fr_energy">   -118.25685102 </i>
    <i name="e_wo_entrp">   -118.29261069 </i>
    <i name="e_0_energy">   -118.26877091 </i>
   </energy>
  </scstep>
  <scstep>
   <time name="dav">    5.44    5.48</time>
   <time name="total">    5.52    5.56</time>
   <energy>
    <i name="alphaZ">    844.48149002 </i>
    <i name="ewald"> 172988.34528923 </i>
    <i name="hartreedc">-215744.90063677 </i>
    <i name="XCdc">   1431.76697374 </i>
    <i name="pawpsdc">  41947.51034509 </i>
    <i name="pawaedc"> -45395.43620455 </i>
    <i name="eentropy">      0.03567528 </i>
    <i name="bandstr">   -725.66151562 </i>
    <i name="atom">  44535.60175172 </i>
    <i name="e_fr_energy">   -118.25683186 </i>
    <i name="e_wo_entrp">   -118.29250714 </i>
    <i name="e_0_energy">   -118.26872362 </i>
   </energy>
  </scstep>
  <structure>
   <crystal>
    <varray name="basis" >
     <v>       7.26000023       0.00000000       0.00000000 </v>
     <v>       0.00000000       5.13359547       0.00000000 </v>
     <v>       0.00000000       0.00000000      23.98379135 </v>
    </varray>
    <i name="volume">    893.87360752 </i>
    <varray name="rec_basis" >
     <v>       0.13774104       0.00000000       0.00000000 </v>
     <v>       0.00000000       0.19479525       0.00000000 </v>
     <v>       0.00000000       0.00000000       0.04169483 </v>
    </varray>
   </crystal>
   <varray name="positions" >
    <v>       0.00000000       0.00000000       0.00000000 </v>
    <v>       0.00000000       0.50000000       0.00000000 </v>
    <v>       0.50000000       0.00000000       0.00000000 </v>
    <v>       0.50000000       0.50000000       0.00000000 </v>
    <v>       0.25000000       0.25000000       0.05351109 </v>
    <v>       0.25000000       0.75000000       0.05351109 </v>
    <v>       0.75000000       0.25000000       0.05351109 </v>
    <v>       0.75000000       0.75000000       0.05351109 </v>
    <v>       0.00000000       0.00000000       0.10541371 </v>
    <v>       0.00000000       0.50000000       0.10541371 </v>
    <v>       0.50000000       0.00000000       0.10541371 </v>
    <v>       0.50000000       0.50000000       0.10541371 </v>
    <v>       0.25001694       0.25000000       0.15716185 </v>
    <v>       0.25000165       0.75000000       0.15715952 </v>
    <v>       0.74998306       0.25000000       0.15716185 </v>
    <v>       0.74999835       0.75000000       0.15715952 </v>
    <v>       0.00000000       0.00000021       0.20867944 </v>
    <v>       0.00000000       0.49999979       0.20867944 </v>
    <v>       0.50000000       0.00003633       0.20865018 </v>
    <v>       0.50000000       0.49996367       0.20865018 </v>
    <v>       0.24997895       0.25000000       0.25948175 </v>
    <v>       0.25003988       0.75000000       0.25949353 </v>
    <v>       0.75002105       0.25000000       0.25948175 </v>
    <v>       0.74996012       0.75000000       0.25949353 </v>
    <v>       0.00000000       0.00001143       0.31418698 </v>
    <v>       0.00000000       0.49998857       0.31418698 </v>
    <v>       0.50000000       0.00011765       0.31410388 </v>
    <v>       0.50000000       0.49988235       0.31410388 </v>
    <v>       0.24990865       0.25000000       0.36178824 </v>
    <v>       0.24970375       0.75000000       0.36176422 </v>
    <v>       0.75009135       0.25000000       0.36178824 </v>
    <v>       0.75029625       0.75000000       0.36176422 </v>
    <v>       0.50000000       0.75000000       0.42652730 </v>
    <v>       0.50000000       0.75000000       0.45858819 </v>
   </varray>
  </structure>
  <varray name="forces" >
   <v>       0.00000000      -0.01122383       0.44374727 </v>
   <v>       0.00000000       0.01122383       0.44374727 </v>
   <v>       0.00000000      -0.00760159       0.45792486 </v>
   <v>       0.00000000       0.00760159       0.45792486 </v>
   <v>       0.00241058      -0.00000000      -0.45099470 </v>
   <v>      -0.00564044      -0.00000000      -0.45546893 </v>
   <v>      -0.00241058      -0.00000000      -0.45099470 </v>
   <v>       0.00564044      -0.00000000      -0.45546893 </v>
   <v>       0.00000000      -0.00323910      -0.00805900 </v>
   <v>       0.00000000       0.00323910      -0.00805900 </v>
   <v>       0.00000000       0.00191892      -0.02878336 </v>
   <v>       0.00000000      -0.00191892      -0.02878336 </v>
   <v>       0.00596876      -0.00000000       0.01717101 </v>
   <v>      -0.00007236      -0.00000000       0.01511060 </v>
   <v>      -0.00596876      -0.00000000       0.01717101 </v>
   <v>       0.00007236      -0.00000000       0.01511060 </v>
   <v>       0.00000000      -0.00072040       0.02496774 </v>
   <v>       0.00000000       0.00072040       0.02496774 </v>
   <v>       0.00000000       0.00951962      -0.01604493 </v>
   <v>       0.00000000      -0.00951962      -0.01604493 </v>
   <v>      -0.01008943      -0.00000000       0.00112732 </v>
   <v>       0.01495015      -0.00000000       0.01432526 </v>
   <v>       0.01008943      -0.00000000       0.00112732 </v>
   <v>      -0.01495015      -0.00000000       0.01432526 </v>
   <v>       0.00000000       0.00562520       0.03779757 </v>
   <v>       0.00000000      -0.00562520       0.03779757 </v>
   <v>       0.00000000       0.02979377      -0.06725336 </v>
   <v>       0.00000000      -0.02979377      -0.06725336 </v>
   <v>      -0.03732235      -0.00000000      -0.03691221 </v>
   <v>      -0.10701105      -0.00000000      -0.06333941 </v>
   <v>       0.03732235      -0.00000000      -0.03691221 </v>
   <v>       0.10701105      -0.00000000      -0.06333941 </v>
   <v>       0.00000000      -0.00000000       0.18060833 </v>
   <v>       0.00000000      -0.00000000       0.04876022 </v>
  </varray>
  <varray name="stress" >
   <v>     -31.19609167       0.00000000       0.00000000 </v>
   <v>       0.00000000     -28.27568139       0.00000000 </v>
   <v>       0.00000000       0.00000000      -6.85052093 </v>
  </varray>
  <energy>
   <i name="e_fr_energy">   -130.65397758 </i>
   <i name="e_wo_entrp">   -130.68965286 </i>
   <i name="e_0_energy">   -130.66586934 </i>
  </energy>
  <time name="totalsc">   62.20   62.69</time>
 </calculation>
 <calculation>
  <scstep>
   <time name="dav">    7.88    7.94</time>
   <time name="total">    8.34    8.41</time>
   <energy>
    <i name="alphaZ">    844.48149002 </i>
    <i name="ewald"> 173034.51447477 </i>
    <i name="hartreedc">-215790.92443332 </i>
    <i name="XCdc">   1431.78077414 </i>
    <i name="pawpsdc">  41947.53762666 </i>
    <i name="pawaedc"> -45395.45956149 </i>
    <i name="eentropy">      0.03620711 </i>
    <i name="bandstr">   -725.82588001 </i>
    <i name="atom">  44535.60175172 </i>
    <i name="e_fr_energy">   -118.25755041 </i>
    <i name="e_wo_entrp">   -118.29375752 </i>
    <i name="e_0_energy">   -118.26961944 </i>
   </energy>
  </scstep>
  <scstep>
   <time name="dav">    9.56    9.64</time>
   <time name="total">   10.02   10.10</time>
   <energy>
    <i name="e_fr_energy">   -118.25879212 </i>
    <i name="e_wo_entrp">   -118.29487053 </i>
    <i name="e_0_energy">   -118.27081826 </i>
   </energy>
  </scstep>
  <scstep>
   <time name="dav">    5.94    5.98</time>
   <time name="total">    6.02    6.06</time>
   <energy>
    <i name="alphaZ">    844.48149002 </i>
    <i name="ewald"> 173034.51447477 </i>
    <i name="hartreedc">-215790.68379429 </i>
    <i name="XCdc">   1431.77663554 </i>
    <i name="pawpsdc">  41948.72759835 </i>
    <i name="pawaedc"> -45396.64286668 </i>
    <i name="eentropy">      0.03621220 </i>
    <i name="bandstr">   -726.07027673 </i>
    <i name="atom">  44535.60175172 </i>
    <i name="e_fr_energy">   -118.25877511 </i>
    <i name="e_wo_entrp">   -118.29498731 </i>
    <i name="e_0_energy">   -118.27084584 </i>
   </energy>
  </scstep>
  <structure>
   <crystal>
    <varray name="basis" >
     <v>       7.26000023       0.00000000       0.00000000 </v>
     <v>       0.00000000       5.13359547       0.00000000 </v>
     <v>       0.00000000       0.00000000      23.98379135 </v>
    </varray>
    <i name="volume">    893.87360752 </i>
    <varray name="rec_basis" >
     <v>       0.13774104       0.00000000       0.00000000 </v>
     <v>       0.00000000       0.19479525       0.00000000 </v>
     <v>       0.00000000       0.00000000       0.04169483 </v>
    </varray>
   </crystal>
   <varray name="positions" >
    <v>       0.00000000       0.00000000       0.00000000 </v>
    <v>       0.00000000       0.50000000       0.00000000 </v>
    <v>       0.50000000       0.00000000       0.00000000 </v>
    <v>       0.50000000       0.50000000       0.00000000 </v>
    <v>       0.25000000       0.25000000       0.05351109 </v>
    <v>       0.25000000       0.75000000       0.05351109 </v>
    <v>       0.75000000       0.25000000       0.05351109 </v>
    <v>       0.75000000       0.75000000       0.05351109 </v>
    <v>       0.00000000       0.00000000       0.10541371 </v>
    <v>       0.00000000       0.50000000       0.10541371 </v>
    <v>       0.50000000       0.00000000       0.10541371 </v>
    <v>       0.50000000       0.50000000       0.10541371 </v>
    <v>       0.25005580       0.25000000       0.15719499 </v>
    <v>       0.25000161       0.75000000       0.15718846 </v>
    <v>       0.74994420       0.25000000       0.15719499 </v>
    <v>       0.74999839       0.75000000       0.15718846 </v>
    <v>       0.00000000      -0.00000569       0.20872756 </v>
    <v>       0.00000000       0.50000569       0.20872756 </v>
    <v>       0.50000000       0.00012353       0.20861890 </v>
    <v>       0.50000000       0.49987647       0.20861890 </v>
    <v>       0.24991505       0.25000000       0.25948424 </v>
    <v>       0.25013660       0.75000000       0.25952213 </v>
    <v>       0.75008495       0.25000000       0.25948424 </v>
    <v>       0.74986340       0.75000000       0.25952213 </v>
    <v>       0.00000000       0.00006060       0.31426154 </v>
    <v>       0.00000000       0.49993940       0.31426154 </v>
    <v>       0.50000000       0.00039146       0.31397312 </v>
    <v>       0.50000000       0.49960854       0.31397312 </v>
    <v>       0.24966913       0.25000000       0.36171597 </v>
    <v>       0.24900893       0.75000000       0.36163957 </v>
    <v>       0.75033087       0.25000000       0.36171597 </v>
    <v>       0.75099107       0.75000000       0.36163957 </v>
    <v>       0.50000000       0.75000000       0.42675753 </v>
    <v>       0.50000000       0.75000000       0.45880951 </v>
   </varray>
  </structure>
  <varray name="forces" >
   <v>       0.00000000      -0.01107311       0.44231988 </v>
   <v>       0.00000000       0.01107311       0.44231988 </v>
   <v>       0.00000000      -0.00741734       0.45616839 </v>
   <v>       0.00000000       0.00741734       0.45616839 </v>
   <v>       0.00236294      -0.00000000      -0.45130851 </v>
   <v>      -0.00544637      -0.00000000      -0.45620256 </v>
   <v>      -0.00236294      -0.00000000      -0.45130851 </v>
   <v>       0.00544637      -0.00000000      -0.45620256 </v>
   <v>       0.00000000      -0.00230894      -0.00610721 </v>
   <v>       0.00000000       0.00230894      -0.00610721 </v>
   <v>       0.00000000       0.00139552      -0.03435804 </v>
   <v>       0.00000000      -0.00139552      -0.03435804 </v>
   <v>      -0.00342627      -0.00000000       0.00027353 </v>
   <v>      -0.00320874      -0.00000000       0.00322702 </v>
   <v>       0.00342627      -0.00000000       0.00027353 </v>
   <v>       0.00320874      -0.00000000       0.00322702 </v>
   <v>       0.00000000      -0.00268112       0.00896658 </v>
   <v>       0.00000000       0.00268112       0.00896658 </v>
   <v>       0.00000000       0.00089498      -0.01277081 </v>
   <v>       0.00000000      -0.00089498      -0.01277081 </v>
   <v>      -0.00901938      -0.00000000      -0.00594083 </v>
   <v>       0.00491306      -0.00000000      -0.00622954 </v>
   <v>       0.00901938      -0.00000000      -0.00594083 </v>
   <v>      -0.00491306      -0.00000000      -0.00622954 </v>
   <v>       0.00000000       0.00872983       0.00326164 </v>
   <v>       0.00000000      -0.00872983       0.00326164 </v>
   <v>       0.00000000      -0.00181763      -0.01911157 </v>
   <v>       0.00000000       0.00181763      -0.01911157 </v>
   <v>      -0.00818565      -0.00000000      -0.01271282 </v>
   <v>      -0.03618294      -0.00000000      -0.02277882 </v>
   <v>       0.00818565      -0.00000000      -0.01271282 </v>
   <v>       0.03618294      -0.00000000      -0.02277882 </v>
   <v>       0.00000000      -0.00000000       0.18648598 </v>
   <v>       0.00000000      -0.00000000       0.04012133 </v>
  </varray>
  <varray name="stress" >
   <v>     -30.54963045       0.00000000       0.00000000 </v>
   <v>       0.00000000     -27.66651102       0.00000000 </v>
   <v>       0.00000000       0.00000000      -6.15516107 </v>
  </varray>
  <energy>
   <i name="e_fr_energy">   -130.65697686 </i>
   <i name="e_wo_entrp">   -130.69318906 </i>
   <i name="e_0_energy">   -130.66904759 </i>
  </energy>
  <time name="totalsc">   39.37   39.70</time>
 </calculation>
 <calculation>
  <scstep>
   <time name="dav">    7.87    7.93</time>
   <time name="total">    8.32    8.39</time>
   <energy>
    <i name="alphaZ">    844.48149002 </i>
    <i name="ewald"> 173085.53525600 </i>
    <i name="hartreedc">-215841.66343658 </i>
    <i name="XCdc">   1431.79379609 </i>
    <i name="pawpsdc">  41948.95513908 </i>
    <i name="pawaedc"> -45396.88288498 </i>
    <i name="eentropy">      0.03661877 </i>
    <i name="bandstr">   -726.11613456 </i>
    <i name="atom">  44535.60175172 </i>
    <i name="e_fr_energy">   -118.25840444 </i>
    <i name="e_wo_entrp">   -118.29502321 </i>
    <i name="e_0_energy">   -118.27061070 </i>
   </energy>
  </scstep>
  <scstep>
   <time name="dav">    9.60    9.67</time>
   <time name="total">   10.06   10.14</time>
   <energy>
    <i name="e_fr_energy">   -118.25989262 </i>
    <i name="e_wo_entrp">   -118.29661636 </i>
    <i name="e_0_energy">   -118.27213387 </i>
   </energy>
  </scstep>
  <scstep>
   <time name="dav">    6.95    7.00</time>
   <time name="total">    7.03    7.08</time>
   <energy>
    <i name="alphaZ">    844.48149002 </i>
    <i name="ewald"> 173085.53525600 </i>
    <i name="hartreedc">-215841.14066176 </i>
    <i name="XCdc">   1431.78850083 </i>
    <i name="pawpsdc">  41950.73217725 </i>
    <i name="pawaedc"> -45398.65885459 </i>
    <i name="eentropy">      0.03674986 </i>
    <i name="bandstr">   -726.63625928 </i>
    <i name="atom">  44535.60175172 </i>
    <i name="e_fr_energy">   -118.25984994 </i>
    <i name="e_wo_entrp">   -118.29659980 </i>
    <i name="e_0_energy">   -118.27209989 </i>
   </energy>
  </scstep>
  <structure>
   <crystal>
    <varray name="basis" >
     <v>       7.26000023       0.00000000       0.00000000 </v>
     <v>       0.00000000       5.13359547       0.00000000 </v>
     <v>       0.00000000       0.00000000      23.98379135 </v>
    </varray>
    <i name="volume">    893.87360752 </i>
    <varray name="rec_basis" >
     <v>       0.13774104       0.00000000       0.00000000 </v>
     <v>       0.00000000       0.19479525       0.00000000 </v>
     <v>       0.00000000       0.00000000       0.04169483 </v>
    </varray>
   </crystal>
   <varray name="positions" >
    <v>       0.00000000       0.00000000       0.00000000 </v>
    <v>       0.00000000       0.50000000       0.00000000 </v>
    <v>       0.50000000       0.00000000       0.00000000 </v>
    <v>       0.50000000       0.50000000       0.00000000 </v>
    <v>       0.25000000       0.25000000       0.05351109 </v>
    <v>       0.25000000       0.75000000       0.05351109 </v>
    <v>       0.75000000       0.25000000       0.05351109 </v>
    <v>       0.75000000       0.75000000       0.05351109 </v>
    <v>       0.00000000       0.00000000       0.10541371 </v>
    <v>       0.00000000       0.50000000       0.10541371 </v>
    <v>       0.50000000       0.00000000       0.10541371 </v>
    <v>       0.50000000       0.50000000       0.10541371 </v>
    <v>       0.25009865       0.25000000       0.15723153 </v>
    <v>       0.25000157       0.75000000       0.15722038 </v>
    <v>       0.74990135       0.25000000       0.15723153 </v>
    <v>       0.74999843       0.75000000       0.15722038 </v>
    <v>       0.00000000      -0.00001220       0.20878064 </v>
    <v>       0.00000000       0.50001220       0.20878064 </v>
    <v>       0.50000000       0.00021970       0.20858439 </v>
    <v>       0.50000000       0.49978030       0.20858439 </v>
    <v>       0.24984457       0.25000000       0.25948698 </v>
    <v>       0.25024327       0.75000000       0.25955367 </v>
    <v>       0.75015543       0.25000000       0.25948698 </v>
    <v>       0.74975673       0.75000000       0.25955367 </v>
    <v>       0.00000000       0.00011484       0.31434377 </v>
    <v>       0.00000000       0.49988516       0.31434377 </v>
    <v>       0.50000000       0.00069347       0.31382891 </v>
    <v>       0.50000000       0.49930653       0.31382891 </v>
    <v>       0.24940494       0.25000000       0.36163625 </v>
    <v>       0.24824257       0.75000000       0.36150208 </v>
    <v>       0.75059506       0.25000000       0.36163625 </v>
    <v>       0.75175743       0.75000000       0.36150208 </v>
    <v>       0.50000000       0.75000000       0.42701146 </v>
    <v>       0.50000000       0.75000000       0.45905361 </v>
   </varray>
  </structure>
  <varray name="forces" >
   <v>       0.00000000      -0.01100904       0.44086942 </v>
   <v>       0.00000000       0.01100904       0.44086942 </v>
   <v>       0.00000000      -0.00712254       0.45472204 </v>
   <v>       0.00000000       0.00712254       0.45472204 </v>
   <v>       0.00229598       0.00000000      -0.44834268 </v>
   <v>      -0.00534593       0.00000000      -0.45339234 </v>
   <v>      -0.00229598       0.00000000      -0.44834268 </v>
   <v>       0.00534593       0.00000000      -0.45339234 </v>
   <v>       0.00000000      -0.00176297       0.00048546 </v>
   <v>       0.00000000       0.00176297       0.00048546 </v>
   <v>       0.00000000       0.00077594      -0.03445311 </v>
   <v>       0.00000000      -0.00077594      -0.03445311 </v>
   <v>      -0.00975561       0.00000000      -0.00578431 </v>
   <v>      -0.00582433       0.00000000       0.00104006 </v>
   <v>       0.00975561       0.00000000      -0.00578431 </v>
   <v>       0.00582433       0.00000000       0.00104006 </v>
   <v>       0.00000000      -0.00476669       0.00447973 </v>
   <v>       0.00000000       0.00476669       0.00447973 </v>
   <v>       0.00000000      -0.00440302      -0.01149700 </v>
   <v>       0.00000000       0.00440302      -0.01149700 </v>
   <v>      -0.01034995       0.00000000      -0.01157287 </v>
   <v>      -0.00020425       0.00000000      -0.02104472 </v>
   <v>       0.01034995       0.00000000      -0.01157287 </v>
   <v>       0.00020425       0.00000000      -0.02104472 </v>
   <v>       0.00000000       0.01347097      -0.01980977 </v>
   <v>       0.00000000      -0.01347097      -0.01980977 </v>
   <v>       0.00000000      -0.02093500       0.00066369 </v>
   <v>       0.00000000       0.02093500       0.00066369 </v>
   <v>       0.00850423       0.00000000      -0.00250215 </v>
   <v>       0.00540171       0.00000000      -0.00408099 </v>
   <v>      -0.00850423       0.00000000      -0.00250215 </v>
   <v>      -0.00540171       0.00000000      -0.00408099 </v>
   <v>       0.00000000       0.00000000       0.18747726 </v>
   <v>       0.00000000       0.00000000       0.03296180 </v>
  </varray>
  <varray name="stress" >
   <v>     -29.84829901       0.00000000       0.00000000 </v>
   <v>       0.00000000     -27.01272876       0.00000000 </v>
   <v>       0.00000000       0.00000000      -5.37975500 </v>
  </varray>
  <energy>
   <i name="e_fr_energy">   -130.65920472 </i>
   <i name="e_wo_entrp">   -130.69595459 </i>
   <i name="e_0_energy">   -130.67145468 </i>
  </energy>
  <time name="totalsc">   40.38   40.72</time>
 </calculation>
 <calculation>
  <scstep>
   <time name="dav">    7.84    7.90</time>
   <time name="total">    8.31    8.37</time>
   <energy>
    <i name="alphaZ">    844.48149002 </i>
    <i name="ewald"> 173187.88571782 </i>
    <i name="hartreedc">-215943.37687456 </i>
    <i name="XCdc">   1431.82705252 </i>
    <i name="pawpsdc">  41951.26361769 </i>
    <i name="pawaedc"> -45399.22983461 </i>
    <i name="eentropy">      0.03785937 </i>
    <i name="bandstr">   -726.74352596 </i>
    <i name="atom">  44535.60175172 </i>
    <i name="e_fr_energy">   -118.25274599 </i>
    <i name="e_wo_entrp">   -118.29060536 </i>
    <i name="e_0_energy">   -118.26536578 </i>
   </energy>
  </scstep>
  <scstep>
   <time name="dav">   10.09   10.16</time>
   <time name="total">   10.55   10.63</time>
   <energy>
    <i name="e_fr_energy">   -118.25919078 </i>
    <i name="e_wo_entrp">   -118.29655951 </i>
    <i name="e_0_energy">   -118.27164702 </i>
   </energy>
  </scstep>
  <scstep>
   <time name="dav">    7.72    7.78</time>
   <time name="total">    8.19    8.25</time>
   <energy>
    <i name="e_fr_energy">   -118.25888339 </i>
    <i name="e_wo_entrp">   -118.29669639 </i>
    <i name="e_0_energy">   -118.27148772 </i>
   </energy>
  </scstep>
  <scstep>
   <time name="dav">    7.60    7.66</time>
   <time name="total">    8.06    8.12</time>
   <energy>
    <i name="e_fr_energy">   -118.25872304 </i>
    <i name="e_wo_entrp">   -118.29652233 </i>
    <i name="e_0_energy">   -118.27132280 </i>
   </energy>
  </scstep>
  <scstep>
   <time name="dav">    7.46    7.51</time>
   <time name="total">    7.54    7.60</time>
   <energy>
    <i name="alphaZ">    844.48149002 </i>
    <i name="ewald"> 173187.88571782 </i>
    <i name="hartreedc">-215943.09458531 </i>
    <i name="XCdc">   1431.82402308 </i>
    <i name="pawpsdc">  41956.83155106 </i>
    <i name="pawaedc"> -45404.93692506 </i>
    <i name="eentropy">      0.03745074 </i>
    <i name="bandstr">   -726.88911674 </i>
    <i name="atom">  44535.60175172 </i>
    <i name="e_fr_energy">   -118.25864268 </i>
    <i name="e_wo_entrp">   -118.29609342 </i>
    <i name="e_0_energy">   -118.27112626 </i>
   </energy>
  </scstep>
  <structure>
   <crystal>
    <varray name="basis" >
     <v>       7.26000023       0.00000000       0.00000000 </v>
     <v>       0.00000000       5.13359547       0.00000000 </v>
     <v>       0.00000000       0.00000000      23.98379135 </v>
    </varray>
    <i name="volume">    893.87360752 </i>
    <varray name="rec_basis" >
     <v>       0.13774104       0.00000000       0.00000000 </v>
     <v>       0.00000000       0.19479525       0.00000000 </v>
     <v>       0.00000000       0.00000000       0.04169483 </v>
    </varray>
   </crystal>
   <varray name="positions" >
    <v>       0.00000000       0.00000000       0.00000000 </v>
    <v>       0.00000000       0.50000000       0.00000000 </v>
    <v>       0.50000000       0.00000000       0.00000000 </v>
    <v>       0.50000000       0.50000000       0.00000000 </v>
    <v>       0.25000000       0.25000000       0.05351109 </v>
    <v>       0.25000000       0.75000000       0.05351109 </v>
    <v>       0.75000000       0.25000000       0.05351109 </v>
    <v>       0.75000000       0.75000000       0.05351109 </v>
    <v>       0.00000000       0.00000000       0.10541371 </v>
    <v>       0.00000000       0.50000000       0.10541371 </v>
    <v>       0.50000000       0.00000000       0.10541371 </v>
    <v>       0.50000000       0.50000000       0.10541371 </v>
    <v>       0.25018436       0.25000000       0.15730461 </v>
    <v>       0.25000149       0.75000000       0.15728422 </v>
    <v>       0.74981564       0.25000000       0.15730461 </v>
    <v>       0.74999851       0.75000000       0.15728422 </v>
    <v>       0.00000000      -0.00002523       0.20888680 </v>
    <v>       0.00000000       0.50002523       0.20888680 </v>
    <v>       0.50000000       0.00041204       0.20851537 </v>
    <v>       0.50000000       0.49958796       0.20851537 </v>
    <v>       0.24970362       0.25000000       0.25949246 </v>
    <v>       0.25045662       0.75000000       0.25961675 </v>
    <v>       0.75029638       0.25000000       0.25949246 </v>
    <v>       0.74954338       0.75000000       0.25961675 </v>
    <v>       0.00000000       0.00022330       0.31450825 </v>
    <v>       0.00000000       0.49977670       0.31450825 </v>
    <v>       0.50000000       0.00129748       0.31354047 </v>
    <v>       0.50000000       0.49870252       0.31354047 </v>
    <v>       0.24887656       0.25000000       0.36147682 </v>
    <v>       0.24670985       0.75000000       0.36122711 </v>
    <v>       0.75112344       0.25000000       0.36147682 </v>
    <v>       0.75329015       0.75000000       0.36122711 </v>
    <v>       0.50000000       0.75000000       0.42751932 </v>
    <v>       0.50000000       0.75000000       0.45954181 </v>
   </varray>
  </structure>
  <varray name="forces" >
   <v>       0.00000000      -0.01100999       0.44354133 </v>
   <v>       0.00000000       0.01100999       0.44354133 </v>
   <v>       0.00000000      -0.00659633       0.45807529 </v>
   <v>       0.00000000       0.00659633       0.45807529 </v>
   <v>       0.00245221       0.00000000      -0.44288578 </v>
   <v>      -0.00479794       0.00000000      -0.44837642 </v>
   <v>      -0.00245221       0.00000000      -0.44288578 </v>
   <v>       0.00479794       0.00000000      -0.44837642 </v>
   <v>       0.00000000      -0.00057557       0.01098409 </v>
   <v>       0.00000000       0.00057557       0.01098409 </v>
   <v>       0.00000000      -0.00020786      -0.03676695 </v>
   <v>       0.00000000       0.00020786      -0.03676695 </v>
   <v>      -0.02149497      -0.00000000      -0.02048287 </v>
   <v>      -0.01058222       0.00000000      -0.00596561 </v>
   <v>       0.02149497      -0.00000000      -0.02048287 </v>
   <v>       0.01058222       0.00000000      -0.00596561 </v>
   <v>       0.00000000      -0.00857259      -0.00455785 </v>
   <v>       0.00000000       0.00857259      -0.00455785 </v>
   <v>       0.00000000      -0.01443566      -0.01082173 </v>
   <v>       0.00000000       0.01443566      -0.01082173 </v>
   <v>      -0.01405317      -0.00000000      -0.02320290 </v>
   <v>      -0.00960190       0.00000000      -0.05091232 </v>
   <v>       0.01405317      -0.00000000      -0.02320290 </v>
   <v>       0.00960190       0.00000000      -0.05091232 </v>
   <v>       0.00000000       0.02464239      -0.06262226 </v>
   <v>       0.00000000      -0.02464239      -0.06262226 </v>
   <v>       0.00000000      -0.05439592       0.03949952 </v>
   <v>       0.00000000       0.05439592       0.03949952 </v>
   <v>       0.03585353      -0.00000000       0.01723469 </v>
   <v>       0.06899772      -0.00000000       0.03274120 </v>
   <v>      -0.03585353      -0.00000000       0.01723469 </v>
   <v>      -0.06899772      -0.00000000       0.03274120 </v>
   <v>       0.00000000       0.00000000       0.18421416 </v>
   <v>       0.00000000       0.00000000       0.02482298 </v>
  </varray>
  <varray name="stress" >
   <v>     -31.89701487       0.00000000       0.00000000 </v>
   <v>       0.00000000     -29.19520883       0.00000000 </v>
   <v>       0.00000000       0.00000000      -7.58838062 </v>
  </varray>
  <energy>
   <i name="e_fr_energy">   -130.66026959 </i>
   <i name="e_wo_entrp">   -130.69772033 </i>
   <i name="e_0_energy">   -130.67275317 </i>
  </energy>
  <time name="totalsc">   57.62   58.07</time>
 </calculation>
 <calculation>
  <scstep>
   <time name="dav">    7.70    7.76</time>
   <time name="total">    8.16    8.23</time>
   <energy>
    <i name="alphaZ">    844.48149002 </i>
    <i name="ewald"> 173147.22207453 </i>
    <i name="hartreedc">-215901.76884603 </i>
    <i name="XCdc">   1431.80333592 </i>
    <i name="pawpsdc">  41958.04162774 </i>
    <i name="pawaedc"> -45406.15909889 </i>
    <i name="eentropy">      0.03750417 </i>
    <i name="bandstr">   -727.51849565 </i>
    <i name="atom">  44535.60175172 </i>
    <i name="e_fr_energy">   -118.25865648 </i>
    <i name="e_wo_entrp">   -118.29616064 </i>
    <i name="e_0_energy">   -118.27115787 </i>
   </energy>
  </scstep>
  <scstep>
   <time name="dav">   11.66   11.75</time>
   <time name="total">   12.13   12.22</time>
   <energy>
[...]
       <r>    10.5155    -0.0005   232.0000 </r>
       <r>    10.5893    -0.0001   232.0000 </r>
       <r>    10.6630    -0.0000   232.0000 </r>
       <r>    10.7368    -0.0000   232.0000 </r>
       <r>    10.8105    -0.0000   232.0000 </r>
       <r>    10.8843    -0.0000   232.0000 </r>
       <r>    10.9580    -0.0000   232.0000 </r>
       <r>    11.0318    -0.0000   232.0000 </r>
       <r>    11.1055    -0.0000   232.0000 </r>
       <r>    11.1793     0.0000   232.0000 </r>
       <r>    11.2530     0.0000   232.0000 </r>
       <r>    11.3268     0.0000   232.0000 </r>
       <r>    11.4005     0.0000   232.0000 </r>
       <r>    11.4743     0.0000   232.0000 </r>
       <r>    11.5480     0.0000   232.0000 </r>
       <r>    11.6218     0.0000   232.0000 </r>
       <r>    11.6955     0.0000   232.0000 </r>
       <r>    11.7693     0.0000   232.0000 </r>
       <r>    11.8430     0.0000   232.0000 </r>
      </set>
      <set comment="spin 2">
       <r>   -10.2824     0.0000     0.0000 </r>
       <r>   -10.2086     0.0000     0.0000 </r>
       <r>   -10.1349     0.0000     0.0000 </r>
       <r>   -10.0611     0.0000     0.0000 </r>
       <r>    -9.9874     0.0000     0.0000 </r>
       <r>    -9.9136    -0.0000    -0.0000 </r>
       <r>    -9.8399    -0.0000    -0.0000 </r>
       <r>    -9.7661    -0.0000    -0.0000 </r>
       <r>    -9.6924    -0.0000    -0.0000 </r>
       <r>    -9.6186    -0.0000    -0.0000 </r>
       <r>    -9.5448    -0.0000    -0.0000 </r>
       <r>    -9.4711    -0.0000    -0.0000 </r>
       <r>    -9.3973    -0.0000    -0.0000 </r>
       <r>    -9.3236    -0.0000    -0.0000 </r>
       <r>    -9.2498    -0.0000    -0.0000 </r>
       <r>    -9.1761    -0.0000    -0.0000 </r>
       <r>    -9.1023    -0.0000    -0.0000 </r>
       <r>    -9.0286    -0.0000    -0.0000 </r>
       <r>    -8.9548    -0.0000    -0.0000 </r>
       <r>    -8.8811    -0.0001    -0.0000 </r>
       <r>    -8.8073    -0.0008    -0.0001 </r>
       <r>    -8.7336    -0.0039    -0.0004 </r>
       <r>    -8.6598    -0.0122    -0.0013 </r>
       <r>    -8.5861    -0.0235    -0.0030 </r>
       <r>    -8.5123    -0.0123    -0.0039 </r>
       <r>    -8.4386     0.0705     0.0013 </r>
       <r>    -8.3648     0.2362     0.0187 </r>
       <r>    -8.2911     0.3864     0.0472 </r>
       <r>    -8.2173     0.4007     0.0768 </r>
       <r>    -8.1436     0.3413     0.1019 </r>
       <r>    -8.0698     0.4237     0.1332 </r>
       <r>    -7.9961     0.6824     0.1835 </r>
       <r>    -7.9223     0.8485     0.2461 </r>
       <r>    -7.8486     0.7362     0.3004 </r>
       <r>    -7.7748     0.5562     0.3414 </r>
       <r>    -7.7011     0.5884     0.3848 </r>
       <r>    -7.6273     0.7318     0.4388 </r>
       <r>    -7.5536     0.7357     0.4930 </r>
       <r>    -7.4798     0.7549     0.5487 </r>
       <r>    -7.4061     1.1825     0.6359 </r>
       <r>    -7.3323     1.8756     0.7743 </r>
       <r>    -7.2586     2.1361     0.9318 </r>
       <r>    -7.1848     1.7271     1.0592 </r>
       <r>    -7.1111     1.2982     1.1549 </r>
       <r>    -7.0373     1.3952     1.2578 </r>
       <r>    -6.9636     1.6510     1.3796 </r>
       <r>    -6.8898     1.4557     1.4869 </r>
       <r>    -6.8160     0.9104     1.5541 </r>
       <r>    -6.7423     0.5614     1.5955 </r>
       <r>    -6.6685     0.5891     1.6389 </r>
       <r>    -6.5948     0.8697     1.7031 </r>
       <r>    -6.5210     1.5219     1.8153 </r>
       <r>    -6.4473     2.6098     2.0078 </r>
       <r>    -6.3735     3.4627     2.2632 </r>
       <r>    -6.2998     3.2400     2.5021 </r>
       <r>    -6.2260     2.1405     2.6600 </r>
       <r>    -6.1523     1.1550     2.7452 </r>
       <r>    -6.0785     0.7893     2.8034 </r>
       <r>    -6.0048     0.8152     2.8635 </r>
       <r>    -5.9310     0.9510     2.9337 </r>
       <r>    -5.8573     1.1762     3.0204 </r>
       <r>    -5.7835     1.7477     3.1493 </r>
       <r>    -5.7098     3.1046     3.3783 </r>
       <r>    -5.6360     5.1849     3.7607 </r>
       <r>    -5.5623     6.9278     4.2716 </r>
       <r>    -5.4885     7.1218     4.7968 </r>
       <r>    -5.4148     5.6239     5.2116 </r>
       <r>    -5.3410     3.4550     5.4664 </r>
       <r>    -5.2673     2.0145     5.6150 </r>
       <r>    -5.1935     2.2471     5.7807 </r>
       <r>    -5.1198     4.0608     6.0802 </r>
       <r>    -5.0460     6.2563     6.5416 </r>
       <r>    -4.9723     7.3323     7.0824 </r>
       <r>    -4.8985     6.6927     7.5760 </r>
       <r>    -4.8248     4.8650     7.9348 </r>
       <r>    -4.7510     2.6879     8.1330 </r>
       <r>    -4.6773     0.8768     8.1977 </r>
       <r>    -4.6035     0.1438     8.2083 </r>
       <r>    -4.5298     1.0396     8.2850 </r>
       <r>    -4.4560     3.5047     8.5434 </r>
       <r>    -4.3823     6.6237     9.0319 </r>
       <r>    -4.3085     8.9829     9.6944 </r>
       <r>    -4.2348     9.7167    10.4111 </r>
       <r>    -4.1610     9.4475    11.1078 </r>
       <r>    -4.0873     9.8386    11.8334 </r>
       <r>    -4.0135    11.8213    12.7053 </r>
       <r>    -3.9397    14.4735    13.7727 </r>
       <r>    -3.8660    16.2290    14.9696 </r>
       <r>    -3.7922    17.0341    16.2259 </r>
       <r>    -3.7185    18.0987    17.5607 </r>
       <r>    -3.6447    19.6125    19.0072 </r>
       <r>    -3.5710    20.7174    20.5351 </r>
       <r>    -3.4972    21.8813    22.1489 </r>
       <r>    -3.4235    24.9307    23.9876 </r>
       <r>    -3.3497    29.9151    26.1938 </r>
       <r>    -3.2760    33.8875    28.6931 </r>
       <r>    -3.2022    34.2881    31.2219 </r>
       <r>    -3.1285    32.1105    33.5901 </r>
       <r>    -3.0547    29.9578    35.7995 </r>
       <r>    -2.9810    28.5656    37.9062 </r>
       <r>    -2.9072    27.5394    39.9373 </r>
       <r>    -2.8335    27.9953    42.0020 </r>
       <r>    -2.7597    31.6353    44.3351 </r>
       <r>    -2.6860    37.7055    47.1160 </r>
       <r>    -2.6122    43.0832    50.2934 </r>
       <r>    -2.5385    45.5285    53.6512 </r>
       <r>    -2.4647    45.7250    57.0235 </r>
       <r>    -2.3910    46.2348    60.4334 </r>
       <r>    -2.3172    49.1359    64.0572 </r>
       <r>    -2.2435    54.4513    68.0731 </r>
       <r>    -2.1697    60.2132    72.5139 </r>
       <r>    -2.0960    63.6765    77.2101 </r>
       <r>    -2.0222    63.0367    81.8591 </r>
       <r>    -1.9485    58.8377    86.1985 </r>
       <r>    -1.8747    53.4527    90.1407 </r>
       <r>    -1.8010    49.0255    93.7564 </r>
       <r>    -1.7272    46.4417    97.1815 </r>
       <r>    -1.6535    46.0227   100.5758 </r>
       <r>    -1.5797    48.2210   104.1321 </r>
       <r>    -1.5060    52.6422   108.0146 </r>
       <r>    -1.4322    56.9454   112.2144 </r>
       <r>    -1.3585    58.9948   116.5653 </r>
       <r>    -1.2847    59.7780   120.9740 </r>
       <r>    -1.2109    61.4566   125.5065 </r>
       <r>    -1.1372    63.6753   130.2026 </r>
       <r>    -1.0634    65.3407   135.0216 </r>
       <r>    -0.9897    68.4205   140.0677 </r>
       <r>    -0.9159    75.3139   145.6222 </r>
       <r>    -0.8422    82.9493   151.7398 </r>
       <r>    -0.7684    83.4103   157.8915 </r>
       <r>    -0.6947    71.4242   163.1591 </r>
       <r>    -0.6209    50.0618   166.8512 </r>
       <r>    -0.5472    28.3833   168.9445 </r>
       <r>    -0.4734    13.8351   169.9649 </r>
       <r>    -0.3997     7.6529   170.5293 </r>
       <r>    -0.3259     6.5749   171.0142 </r>
       <r>    -0.2522     6.7311   171.5106 </r>
       <r>    -0.1784     5.8558   171.9425 </r>
       <r>    -0.1047     3.7159   172.2166 </r>
       <r>    -0.0309     1.4589   172.3242 </r>
       <r>     0.0428     0.3843   172.3525 </r>
       <r>     0.1166     0.9967   172.4260 </r>
       <r>     0.1903     2.8316   172.6348 </r>
       <r>     0.2641     4.8969   172.9960 </r>
       <r>     0.3378     6.4360   173.4707 </r>
       <r>     0.4116     7.5041   174.0241 </r>
       <r>     0.4853     8.6224   174.6600 </r>
       <r>     0.5591     9.6473   175.3715 </r>
       <r>     0.6328     9.5536   176.0761 </r>
       <r>     0.7066     7.9049   176.6591 </r>
       <r>     0.7803     5.7632   177.0841 </r>
       <r>     0.8541     4.4712   177.4139 </r>
       <r>     0.9278     4.3222   177.7327 </r>
       <r>     1.0016     4.8421   178.0898 </r>
       <r>     1.0753     5.5177   178.4967 </r>
       <r>     1.1491     5.7911   178.9238 </r>
       <r>     1.2228     5.0797   179.2985 </r>
       <r>     1.2966     3.4830   179.5553 </r>
       <r>     1.3703     2.1305   179.7125 </r>
       <r>     1.4441     2.2522   179.8786 </r>
       <r>     1.5179     3.7985   180.1587 </r>
       <r>     1.5916     5.2623   180.5468 </r>
       <r>     1.6654     5.3569   180.9419 </r>
       <r>     1.7391     4.6332   181.2836 </r>
       <r>     1.8129     4.5641   181.6202 </r>
       <r>     1.8866     5.3836   182.0172 </r>
       <r>     1.9604     6.0592   182.4641 </r>
       <r>     2.0341     6.0867   182.9130 </r>
       <r>     2.1079     5.9508   183.3519 </r>
       <r>     2.1816     5.9709   183.7923 </r>
       <r>     2.2554     5.8583   184.2243 </r>
       <r>     2.3291     5.4528   184.6265 </r>
       <r>     2.4029     5.1261   185.0045 </r>
       <r>     2.4766     5.2027   185.3882 </r>
       <r>     2.5504     5.3435   185.7823 </r>
       <r>     2.6241     4.9418   186.1468 </r>
       <r>     2.6979     3.9983   186.4417 </r>
       <r>     2.7716     3.1669   186.6752 </r>
       <r>     2.8454     3.1496   186.9075 </r>
       <r>     2.9191     4.2812   187.2233 </r>
       <r>     2.9929     6.0458   187.6691 </r>
       <r>     3.0666     6.9066   188.1785 </r>
       <r>     3.1404     5.7393   188.6018 </r>
       <r>     3.2141     3.4531   188.8565 </r>
       <r>     3.2879     2.0761   189.0096 </r>
       <r>     3.3616     2.4821   189.1926 </r>
       <r>     3.4354     3.8682   189.4779 </r>
       <r>     3.5091     4.9726   189.8447 </r>
       <r>     3.5829     5.1538   190.2248 </r>
       <r>     3.6566     4.6995   190.5714 </r>
       <r>     3.7304     4.3836   190.8946 </r>
       <r>     3.8041     4.5577   191.2308 </r>
       <r>     3.8779     4.9211   191.5937 </r>
       <r>     3.9516     5.1374   191.9726 </r>
       <r>     4.0254     5.0995   192.3487 </r>
       <r>     4.0991     4.7412   192.6984 </r>
       <r>     4.1729     4.0752   192.9989 </r>
       <r>     4.2466     3.3791   193.2481 </r>
       <r>     4.3204     3.1259   193.4787 </r>
       <r>     4.3942     3.4655   193.7343 </r>
       <r>     4.4679     3.8620   194.0191 </r>
       <r>     4.5417     3.8311   194.3017 </r>
       <r>     4.6154     3.8962   194.5890 </r>
       <r>     4.6892     4.9410   194.9534 </r>
       <r>     4.7629     6.6734   195.4456 </r>
       <r>     4.8367     7.5957   196.0058 </r>
       <r>     4.9104     6.7077   196.5005 </r>
       <r>     4.9842     4.6535   196.8437 </r>
       <r>     5.0579     2.8937   197.0571 </r>
       <r>     5.1317     2.3141   197.2278 </r>
       <r>     5.2054     3.0206   197.4505 </r>
       <r>     5.2792     4.6859   197.7961 </r>
       <r>     5.3529     6.4329   198.2705 </r>
       <r>     5.4267     7.3045   198.8093 </r>
       <r>     5.5004     7.3875   199.3541 </r>
       <r>     5.5742     7.4120   199.9007 </r>
       <r>     5.6479     7.3926   200.4460 </r>
       <r>     5.7217     6.9720   200.9602 </r>
       <r>     5.7954     6.5214   201.4411 </r>
       <r>     5.8692     6.7052   201.9356 </r>
       <r>     5.9429     7.4430   202.4846 </r>
       <r>     6.0167     8.0455   203.0779 </r>
       <r>     6.0904     8.0181   203.6693 </r>
       <r>     6.1642     7.3178   204.2090 </r>
       <r>     6.2379     6.3282   204.6757 </r>
       <r>     6.3117     5.8553   205.1075 </r>
       <r>     6.3854     6.4534   205.5835 </r>
       <r>     6.4592     7.6957   206.1510 </r>
       <r>     6.5329     8.6427   206.7884 </r>
       <r>     6.6067     8.7580   207.4344 </r>
       <r>     6.6804     8.1872   208.0382 </r>
       <r>     6.7542     7.5275   208.5933 </r>
       <r>     6.8279     7.2312   209.1266 </r>
       <r>     6.9017     7.0810   209.6489 </r>
       <r>     6.9754     6.6151   210.1367 </r>
       <r>     7.0492     5.9762   210.5775 </r>
       <r>     7.1230     5.8066   211.0058 </r>
       <r>     7.1967     6.4416   211.4808 </r>
       <r>     7.2705     7.5854   212.0403 </r>
       <r>     7.3442     8.5657   212.6720 </r>
       <r>     7.4180     8.7511   213.3174 </r>
       <r>     7.4917     7.9858   213.9064 </r>
       <r>     7.5655     6.7885   214.4070 </r>
       <r>     7.6392     6.0958   214.8566 </r>
       <r>     7.7130     6.6006   215.3434 </r>
       <r>     7.7867     8.1800   215.9467 </r>
       <r>     7.8605    10.0465   216.6876 </r>
       <r>     7.9342    11.2460   217.5170 </r>
       <r>     8.0080    11.0084   218.3289 </r>
       <r>     8.0817     9.3954   219.0218 </r>
       <r>     8.1555     7.6722   219.5877 </r>
       <r>     8.2292     7.1838   220.1175 </r>
       <r>     8.3030     7.9593   220.7045 </r>
       <r>     8.3767     8.9538   221.3648 </r>
       <r>     8.4505     9.1717   222.0413 </r>
       <r>     8.5242     8.3147   222.6545 </r>
       <r>     8.5980     7.0481   223.1743 </r>
       <r>     8.6717     6.6314   223.6634 </r>
       <r>     8.7455     7.6407   224.2269 </r>
       <r>     8.8192     9.2666   224.9103 </r>
       <r>     8.8930    10.2841   225.6688 </r>
       <r>     8.9667    10.3464   226.4318 </r>
       <r>     9.0405     9.8632   227.1593 </r>
       <r>     9.1142     8.9616   227.8202 </r>
       <r>     9.1880     7.4506   228.3697 </r>
       <r>     9.2617     5.7954   228.7971 </r>
       <r>     9.3355     5.0092   229.1665 </r>
       <r>     9.4092     5.3317   229.5598 </r>
       <r>     9.4830     5.9806   230.0008 </r>
       <r>     9.5567     6.2415   230.4612 </r>
       <r>     9.6305     5.9695   230.9014 </r>
       <r>     9.7042     5.2450   231.2882 </r>
       <r>     9.7780     4.2027   231.5982 </r>
       <r>     9.8518     3.0183   231.8208 </r>
       <r>     9.9255     1.8260   231.9555 </r>
       <r>     9.9993     0.7895   232.0137 </r>
       <r>    10.0730     0.1230   232.0228 </r>
       <r>    10.1468    -0.1209   232.0138 </r>
       <r>    10.2205    -0.1146   232.0054 </r>
       <r>    10.2943    -0.0531   232.0015 </r>
       <r>    10.3680    -0.0160   232.0003 </r>
       <r>    10.4418    -0.0034   232.0000 </r>
       <r>    10.5155    -0.0005   232.0000 </r>
       <r>    10.5893    -0.0001   232.0000 </r>
       <r>    10.6630    -0.0000   232.0000 </r>
       <r>    10.7368    -0.0000   232.0000 </r>
       <r>    10.8105    -0.0000   232.0000 </r>
       <r>    10.8843    -0.0000   232.0000 </r>
       <r>    10.9580    -0.0000   232.0000 </r>
       <r>    11.0318    -0.0000   232.0000 </r>
       <r>    11.1055    -0.0000   232.0000 </r>
       <r>    11.1793     0.0000   232.0000 </r>
       <r>    11.2530     0.0000   232.0000 </r>
       <r>    11.3268     0.0000   232.0000 </r>
       <r>    11.4005     0.0000   232.0000 </r>
       <r>    11.4743     0.0000   232.0000 </r>
       <r>    11.5480     0.0000   232.0000 </r>
       <r>    11.6218     0.0000   232.0000 </r>
       <r>    11.6955     0.0000   232.0000 </r>
       <r>    11.7693     0.0000   232.0000 </r>
       <r>    11.8430     0.0000   232.0000 </r>
      </set>
     </set>
    </array>
   </total>
  </dos>
 </calculation>
 <structure name="finalpos" >
  <crystal>
   <varray name="basis" >
    <v>       7.26000023       0.00000000       0.00000000 </v>
    <v>       0.00000000       5.13359547       0.00000000 </v>
    <v>       0.00000000       0.00000000      23.98379135 </v>
   </varray>
   <i name="volume">    893.87360752 </i>
   <varray name="rec_basis" >
    <v>       0.13774104       0.00000000       0.00000000 </v>
    <v>       0.00000000       0.19479525       0.00000000 </v>
    <v>       0.00000000       0.00000000       0.04169483 </v>
   </varray>
  </crystal>
  <varray name="positions" >
   <v>       0.00000000       0.00000000       0.00000000 </v>
   <v>       0.00000000       0.50000000       0.00000000 </v>
   <v>       0.50000000       0.00000000       0.00000000 </v>
   <v>       0.50000000       0.50000000       0.00000000 </v>
   <v>       0.25000000       0.25000000       0.05351109 </v>
   <v>       0.25000000       0.75000000       0.05351109 </v>
   <v>       0.75000000       0.25000000       0.05351109 </v>
   <v>       0.75000000       0.75000000       0.05351109 </v>
   <v>       0.00000000       0.00000000       0.10541371 </v>
   <v>       0.00000000       0.50000000       0.10541371 </v>
   <v>       0.50000000       0.00000000       0.10541371 </v>
   <v>       0.50000000       0.50000000       0.10541371 </v>
   <v>       0.25000809       0.25000000       0.15709335 </v>
   <v>       0.25003738       0.75000000       0.15710646 </v>
   <v>       0.74999191       0.25000000       0.15709335 </v>
   <v>       0.74996262       0.75000000       0.15710646 </v>
   <v>      -0.00000000      -0.00019179       0.20859952 </v>
   <v>      -0.00000000       0.50019179       0.20859952 </v>
   <v>       0.50000000       0.00019084       0.20849418 </v>
   <v>       0.50000000       0.49980916       0.20849418 </v>
   <v>       0.24989439       0.25000000       0.25922222 </v>
   <v>       0.25029922       0.75000000       0.25926987 </v>
   <v>       0.75010561       0.25000000       0.25922222 </v>
   <v>       0.74970078       0.75000000       0.25926987 </v>
   <v>      -0.00000000      -0.00001332       0.31390348 </v>
   <v>      -0.00000000       0.50001332       0.31390348 </v>
   <v>       0.50000000       0.00002034       0.31396672 </v>
   <v>       0.50000000       0.49997966       0.31396672 </v>
   <v>       0.24931110       0.25000000       0.36147941 </v>
   <v>       0.24940554       0.75000000       0.36143693 </v>
   <v>       0.75068890       0.25000000       0.36147941 </v>
   <v>       0.75059446       0.75000000       0.36143693 </v>
   <v>       0.50000000       0.75000000       0.44834303 </v>
   <v>       0.50000000       0.75000000       0.47996220 </v>
  </varray>
  <varray name="selective"  type="logical" >
   <v type="logical" >  F  F  F </v>
   <v type="logical" >  F  F  F </v>
   <v type="logical" >  F  F  F </v>
   <v type="logical" >  F  F  F </v>
   <v type="logical" >  F  F  F </v>
   <v type="logical" >  F  F  F </v>
   <v type="logical" >  F  F  F </v>
   <v type="logical" >  F  F  F </v>
   <v type="logical" >  F  F  F </v>
   <v type="logical" >  F  F  F </v>
   <v type="logical" >  F  F  F </v>
   <v type="logical" >  F  F  F </v>
   <v type="logical" >  T  T  T </v>
   <v type="logical" >  T  T  T </v>
   <v type="logical" >  T  T  T </v>
   <v type="logical" >  T  T  T </v>
   <v type="logical" >  T  T  T </v>
   <v type="logical" >  T  T  T </v>
   <v type="logical" >  T  T  T </v>
   <v type="logical" >  T  T  T </v>
   <v type="logical" >  T  T  T </v>
   <v type="logical" >  T  T  T </v>
   <v type="logical" >  T  T  T </v>
   <v type="logical" >  T  T  T </v>
   <v type="logical" >  T  T  T </v>
   <v type="logical" >  T  T  T </v>
   <v type="logical" >  T  T  T </v>
   <v type="logical" >  T  T  T </v>
   <v type="logical" >  T  T  T </v>
   <v type="logical" >  T  T  T </v>
   <v type="logical" >  T  T  T </v>
   <v type="logical" >  T  T  T </v>
   <v type="logical" >  T  T  T </v>
   <v type="logical" >  T  T  T </v>
  </varray>
  <nose>
   <v>      -3.00000000       0.00000000       0.00010000       0.00010000 </v>
  </nose>
 </structure>
</modeling>
