unknown system                          
           1
     7.260000    0.000000    0.000000
     0.000000    5.133595    0.000000
     0.000000    0.000000   23.983791
   Cu   H 
    32     2
Direct configuration=     1
   0.00000000  0.00000000  0.00000000
   0.00000000  0.50000000  0.00000000
   0.50000000  0.00000000  0.00000000
   0.50000000  0.50000000  0.00000000
   0.25000000  0.25000000  0.05351109
   0.25000000  0.75000000  0.05351109
   0.75000000  0.25000000  0.05351109
   0.75000000  0.75000000  0.05351109
   0.00000000  0.00000000  0.10541371
   0.00000000  0.50000000  0.10541371
   0.50000000  0.00000000  0.10541371
   0.50000000  0.50000000  0.10541371
   0.25000000  0.25000000  0.15715010
   0.25000000  0.75000000  0.15715010
   0.75000000  0.25000000  0.15715010
   0.75000000  0.75000000  0.15715010
   0.00000000  0.00000000  0.20866257
   0.00000000  0.50000000  0.20866257
   0.50000000  0.00000000  0.20866257
   0.50000000  0.50000000  0.20866257
   0.25000000  0.25000000  0.25947965
   0.25000000  0.75000000  0.25947965
   0.75000000  0.25000000  0.25947965
   0.75000000  0.75000000  0.25947965
   0.00000000  0.00000000  0.31415415
   0.00000000  0.50000000  0.31415415
   0.50000000  0.00000000  0.31415415
   0.50000000  0.50000000  0.31415415
   0.25000000  0.25000000  0.36181799
   0.25000000  0.75000000  0.36181799
   0.75000000  0.25000000  0.36181799
   0.75000000  0.75000000  0.36181799
   0.50000000  0.75000000  0.42690792
   0.50000000  0.75000000  0.45801226
Direct configuration=     2
   0.00000000  0.00000000  0.00000000
   0.00000000  0.50000000  0.00000000
   0.50000000  0.00000000  0.00000000
   0.50000000  0.50000000  0.00000000
   0.25000000  0.25000000  0.05351109
   0.25000000  0.75000000  0.05351109
   0.75000000  0.25000000  0.05351109
   0.75000000  0.75000000  0.05351109
   0.00000000  0.00000000  0.10541371
   0.00000000  0.50000000  0.10541371
   0.50000000  0.00000000  0.10541371
   0.50000000  0.50000000  0.10541371
   0.25004266  0.25000000  0.15717970
   0.25000415  0.75000000  0.15717382
   0.74995734  0.25000000  0.15717970
   0.74999585  0.75000000  0.15717382
   0.00000000  0.00000053  0.20870505
   0.00000000  0.49999947  0.20870505
   0.50000000  0.00009148  0.20863139
   0.50000000  0.49990852  0.20863139
   0.24994700  0.25000000  0.25948494
   0.25010041  0.75000000  0.25951460
   0.75005300  0.25000000  0.25948494
   0.74989959  0.75000000  0.25951460
   0.00000000  0.00002878  0.31423680
   0.00000000  0.49997122  0.31423680
   0.50000000  0.00029620  0.31402758
   0.50000000  0.49970380  0.31402758
   0.24977001  0.25000000  0.36174308
   0.24925412  0.75000000  0.36168262
   0.75022999  0.25000000  0.36174308
   0.75074588  0.75000000  0.36168262
   0.50000000  0.75000000  0.42594960
   0.50000000  0.75000000  0.45946233
Direct configuration=     3
   0.00000000  0.00000000  0.00000000
   0.00000000  0.50000000  0.00000000
   0.50000000  0.00000000  0.00000000
   0.50000000  0.50000000  0.00000000
   0.25000000  0.25000000  0.05351109
   0.25000000  0.75000000  0.05351109
   0.75000000  0.25000000  0.05351109
   0.75000000  0.75000000  0.05351109
   0.00000000  0.00000000  0.10541371
   0.00000000  0.50000000  0.10541371
   0.50000000  0.00000000  0.10541371
   0.50000000  0.50000000  0.10541371
   0.25001694  0.25000000  0.15716185
   0.25000165  0.75000000  0.15715952
   0.74998306  0.25000000  0.15716185
   0.74999835  0.75000000  0.15715952
   0.00000000  0.00000021  0.20867944
   0.00000000  0.49999979  0.20867944
   0.50000000  0.00003633  0.20865018
   0.50000000  0.49996367  0.20865018
   0.24997895  0.25000000  0.25948175
   0.25003988  0.75000000  0.25949353
   0.75002105  0.25000000  0.25948175
   0.74996012  0.75000000  0.25949353
   0.00000000  0.00001143  0.31418698
   0.00000000  0.49998857  0.31418698
   0.50000000  0.00011765  0.31410388
   0.50000000  0.49988235  0.31410388
   0.24990865  0.25000000  0.36178824
   0.24970375  0.75000000  0.36176422
   0.75009135  0.25000000  0.36178824
   0.75029625  0.75000000  0.36176422
   0.50000000  0.75000000  0.42652730
   0.50000000  0.75000000  0.45858819
Direct configuration=     4
   0.00000000  0.00000000  0.00000000
   0.00000000  0.50000000  0.00000000
   0.50000000  0.00000000  0.00000000
   0.50000000  0.50000000  0.00000000
   0.25000000  0.25000000  0.05351109
   0.25000000  0.75000000  0.05351109
   0.75000000  0.25000000  0.05351109
   0.75000000  0.75000000  0.05351109
   0.00000000  0.00000000  0.10541371
   0.00000000  0.50000000  0.10541371
   0.50000000  0.00000000  0.10541371
   0.50000000  0.50000000  0.10541371
   0.25005580  0.25000000  0.15719499
   0.25000161  0.75000000  0.15718846
   0.74994420  0.25000000  0.15719499
   0.74999839  0.75000000  0.15718846
   0.00000000 -0.00000569  0.20872756
   0.00000000  0.50000569  0.20872756
   0.50000000  0.00012353  0.20861890
   0.50000000  0.49987647  0.20861890
   0.24991505  0.25000000  0.25948424
   0.25013660  0.75000000  0.25952213
   0.75008495  0.25000000  0.25948424
   0.74986340  0.75000000  0.25952213
   0.00000000  0.00006060  0.31426154
   0.00000000  0.49993940  0.31426154
   0.50000000  0.00039146  0.31397312
   0.50000000  0.49960854  0.31397312
   0.24966913  0.25000000  0.36171597
   0.24900893  0.75000000  0.36163957
   0.75033087  0.25000000  0.36171597
   0.75099107  0.75000000  0.36163957
   0.50000000  0.75000000  0.42675753
   0.50000000  0.75000000  0.45880951
Direct configuration=     5
   0.00000000  0.00000000  0.00000000
   0.00000000  0.50000000  0.00000000
   0.50000000  0.00000000  0.00000000
   0.50000000  0.50000000  0.00000000
   0.25000000  0.25000000  0.05351109
   0.25000000  0.75000000  0.05351109
   0.75000000  0.25000000  0.05351109
   0.75000000  0.75000000  0.05351109
   0.00000000  0.00000000  0.10541371
   0.00000000  0.50000000  0.10541371
   0.50000000  0.00000000  0.10541371
   0.50000000  0.50000000  0.10541371
   0.25009865  0.25000000  0.15723153
   0.25000157  0.75000000  0.15722038
   0.74990135  0.25000000  0.15723153
   0.74999843  0.75000000  0.15722038
   0.00000000 -0.00001220  0.20878064
   0.00000000  0.50001220  0.20878064
   0.50000000  0.00021970  0.20858439
   0.50000000  0.49978030  0.20858439
   0.24984457  0.25000000  0.25948698
   0.25024327  0.75000000  0.25955367
   0.75015543  0.25000000  0.25948698
   0.74975673  0.75000000  0.25955367
   0.00000000  0.00011484  0.31434377
   0.00000000  0.49988516  0.31434377
   0.50000000  0.00069347  0.31382891
   0.50000000  0.49930653  0.31382891
   0.24940494  0.25000000  0.36163625
   0.24824257  0.75000000  0.36150208
   0.75059506  0.25000000  0.36163625
   0.75175743  0.75000000  0.36150208
   0.50000000  0.75000000  0.42701146
   0.50000000  0.75000000  0.45905361
Direct configuration=     6
   0.00000000  0.00000000  0.00000000
   0.00000000  0.50000000  0.00000000
   0.50000000  0.00000000  0.00000000
   0.50000000  0.50000000  0.00000000
   0.25000000  0.25000000  0.05351109
   0.25000000  0.75000000  0.05351109
   0.75000000  0.25000000  0.05351109
   0.75000000  0.75000000  0.05351109
   0.00000000  0.00000000  0.10541371
   0.00000000  0.50000000  0.10541371
   0.50000000  0.00000000  0.10541371
   0.50000000  0.50000000  0.10541371
   0.25018436  0.25000000  0.15730461
   0.25000149  0.75000000  0.15728422
   0.74981564  0.25000000  0.15730461
   0.74999851  0.75000000  0.15728422
   0.00000000 -0.00002523  0.20888680
   0.00000000  0.50002523  0.20888680
   0.50000000  0.00041204  0.20851537
   0.50000000  0.49958796  0.20851537
   0.24970362  0.25000000  0.25949246
   0.25045662  0.75000000  0.25961675
   0.75029638  0.25000000  0.25949246
   0.74954338  0.75000000  0.25961675
   0.00000000  0.00022330  0.31450825
   0.00000000  0.49977670  0.31450825
   0.50000000  0.00129748  0.31354047
   0.50000000  0.49870252  0.31354047
   0.24887656  0.25000000  0.36147682
   0.24670985  0.75000000  0.36122711
   0.75112344  0.25000000  0.36147682
   0.75329015  0.75000000  0.36122711
   0.50000000  0.75000000  0.42751932
   0.50000000  0.75000000  0.45954181
Direct configuration=     7
   0.00000000  0.00000000  0.00000000
   0.00000000  0.50000000  0.00000000
   0.50000000  0.00000000  0.00000000
   0.50000000  0.50000000  0.00000000
   0.25000000  0.25000000  0.05351109
   0.25000000  0.75000000  0.05351109
   0.75000000  0.25000000  0.05351109
   0.75000000  0.75000000  0.05351109
   0.00000000  0.00000000  0.10541371
   0.00000000  0.50000000  0.10541371
   0.50000000  0.00000000  0.10541371
   0.50000000  0.50000000  0.10541371
   0.25015035  0.25000000  0.15727561
   0.25000153  0.75000000  0.15725889
   0.74984965  0.25000000  0.15727561
   0.74999847  0.75000000  0.15725889
   0.00000000 -0.00002006  0.20884467
   0.00000000  0.50002006  0.20884467
   0.50000000  0.00033572  0.20854276
   0.50000000  0.49966428  0.20854276
   0.24975955  0.25000000  0.25949029
   0.25037196  0.75000000  0.25959172
   0.75024045  0.25000000  0.25949029
   0.74962804  0.75000000  0.25959172
   0.00000000  0.00018026  0.31444298
   0.00000000  0.49981974  0.31444298
   0.50000000  0.00105780  0.31365493
   0.50000000  0.49894220  0.31365493
   0.24908623  0.25000000  0.36154009
   0.24731806  0.75000000  0.36133622
   0.75091377  0.25000000  0.36154009
   0.75268194  0.75000000  0.36133622
   0.50000000  0.75000000  0.42731779
   0.50000000  0.75000000  0.45934808
Direct configuration=     8
   0.00000000  0.00000000  0.00000000
   0.00000000  0.50000000  0.00000000
   0.50000000  0.00000000  0.00000000
   0.50000000  0.50000000  0.00000000
   0.25000000  0.25000000  0.05351109
   0.25000000  0.75000000  0.05351109
   0.75000000  0.25000000  0.05351109
   0.75000000  0.75000000  0.05351109
   0.00000000  0.00000000  0.10541371
   0.00000000  0.50000000  0.10541371
   0.50000000  0.00000000  0.10541371
   0.50000000  0.50000000  0.10541371
   0.25003667  0.25000000  0.15726586
   0.24992964  0.75000000  0.15727601
   0.74996333  0.25000000  0.15726586
   0.75007036  0.75000000  0.15727601
   0.00000000 -0.00010946  0.20888104
   0.00000000  0.50010946  0.20888104
   0.50000000  0.00026507  0.20850181
   0.50000000  0.49973493  0.20850181
   0.24961206  0.25000000  0.25945256
   0.25038531  0.75000000  0.25951846
   0.75038794  0.25000000  0.25945256
   0.74961469  0.75000000  0.25951846
   0.00000000  0.00044953  0.31438010
   0.00000000  0.49955047  0.31438010
   0.50000000  0.00073210  0.31363986
   0.50000000  0.49926790  0.31363986
   0.24912809  0.25000000  0.36151477
   0.24724269  0.75000000  0.36129028
   0.75087191  0.25000000  0.36151477
   0.75275731  0.75000000  0.36129028
   0.50000000  0.75000000  0.42789217
   0.50000000  0.75000000  0.45952524
Direct configuration=     9
   0.00000000  0.00000000  0.00000000
   0.00000000  0.50000000  0.00000000
   0.50000000  0.00000000  0.00000000
   0.50000000  0.50000000  0.00000000
   0.25000000  0.25000000  0.05351109
   0.25000000  0.75000000  0.05351109
   0.75000000  0.25000000  0.05351109
   0.75000000  0.75000000  0.05351109
   0.00000000  0.00000000  0.10541371
   0.00000000  0.50000000  0.10541371
   0.50000000  0.00000000  0.10541371
   0.50000000  0.50000000  0.10541371
   0.25001320  0.25000000  0.15726384
   0.24991480  0.75000000  0.15727955
   0.74998680  0.25000000  0.15726384
   0.75008520  0.75000000  0.15727955
   0.00000000 -0.00012792  0.20888855
   0.00000000  0.50012792  0.20888855
   0.50000000  0.00025048  0.20849335
   0.50000000  0.49974952  0.20849335
   0.24958161  0.25000000  0.25944477
   0.25038806  0.75000000  0.25950334
   0.75041839  0.25000000  0.25944477
   0.74961194  0.75000000  0.25950334
   0.00000000  0.00050512  0.31436712
   0.00000000  0.49949488  0.31436712
   0.50000000  0.00066487  0.31363675
   0.50000000  0.49933513  0.31363675
   0.24913673  0.25000000  0.36150955
   0.24722713  0.75000000  0.36128079
   0.75086327  0.25000000  0.36150955
   0.75277287  0.75000000  0.36128079
   0.50000000  0.75000000  0.42801075
   0.50000000  0.75000000  0.45956181
Direct configuration=    10
   0.00000000  0.00000000  0.00000000
   0.00000000  0.50000000  0.00000000
   0.50000000  0.00000000  0.00000000
   0.50000000  0.50000000  0.00000000
   0.25000000  0.25000000  0.05351109
   0.25000000  0.75000000  0.05351109
   0.75000000  0.25000000  0.05351109
   0.75000000  0.75000000  0.05351109
   0.00000000  0.00000000  0.10541371
   0.00000000  0.50000000  0.10541371
   0.50000000  0.00000000  0.10541371
   0.50000000  0.50000000  0.10541371
   0.24997719  0.25000000  0.15725820
   0.24989285  0.75000000  0.15728045
   0.75002281  0.25000000  0.15725820
   0.75010715  0.75000000  0.15728045
   0.00000000 -0.00015274  0.20889416
   0.00000000  0.50015274  0.20889416
   0.50000000  0.00023275  0.20848138
   0.50000000  0.49976725  0.20848138
   0.24954824  0.25000000  0.25943183
   0.25038860  0.75000000  0.25947946
   0.75045176  0.25000000  0.25943183
   0.74961140  0.75000000  0.25947946
   0.00000000  0.00057767  0.31434337
   0.00000000  0.49942233  0.31434337
   0.50000000  0.00056106  0.31363646
   0.50000000  0.49943894  0.31363646
   0.24916509  0.25000000  0.36150382
   0.24722913  0.75000000  0.36126976
   0.75083491  0.25000000  0.36150382
   0.75277087  0.75000000  0.36126976
   0.50000000  0.75000000  0.42814082
   0.50000000  0.75000000  0.45968832
Direct configuration=    11
   0.00000000  0.00000000  0.00000000
   0.00000000  0.50000000  0.00000000
   0.50000000  0.00000000  0.00000000
   0.50000000  0.50000000  0.00000000
   0.25000000  0.25000000  0.05351109
   0.25000000  0.75000000  0.05351109
   0.75000000  0.25000000  0.05351109
   0.75000000  0.75000000  0.05351109
   0.00000000  0.00000000  0.10541371
   0.00000000  0.50000000  0.10541371
   0.50000000  0.00000000  0.10541371
   0.50000000  0.50000000  0.10541371
   0.24986916  0.25000000  0.15724126
   0.24982699  0.75000000  0.15728316
   0.75013084  0.25000000  0.15724126
   0.75017301  0.75000000  0.15728316
   0.00000000 -0.00022721  0.20891100
   0.00000000  0.50022721  0.20891100
   0.50000000  0.00017954  0.20844547
   0.50000000  0.49982046  0.20844547
   0.24944813  0.25000000  0.25939301
   0.25039020  0.75000000  0.25940782
   0.75055187  0.25000000  0.25939301
   0.74960980  0.75000000  0.25940782
   0.00000000  0.00079531  0.31427215
   0.00000000  0.49920469  0.31427215
   0.50000000  0.00024963  0.31363561
   0.50000000  0.49975037  0.31363561
   0.24925018  0.25000000  0.36148663
   0.24723514  0.75000000  0.36123666
   0.75074982  0.25000000  0.36148663
   0.75276486  0.75000000  0.36123666
   0.50000000  0.75000000  0.42853102
   0.50000000  0.75000000  0.46006784
Direct configuration=    12
   0.00000000  0.00000000  0.00000000
   0.00000000  0.50000000  0.00000000
   0.50000000  0.00000000  0.00000000
   0.50000000  0.50000000  0.00000000
   0.25000000  0.25000000  0.05351109
   0.25000000  0.75000000  0.05351109
   0.75000000  0.25000000  0.05351109
   0.75000000  0.75000000  0.05351109
   0.00000000  0.00000000  0.10541371
   0.00000000  0.50000000  0.10541371
   0.50000000  0.00000000  0.10541371
   0.50000000  0.50000000  0.10541371
   0.24965309  0.25000000  0.15720738
   0.24969526  0.75000000  0.15728857
   0.75034691  0.25000000  0.15720738
   0.75030474  0.75000000  0.15728857
   0.00000000 -0.00037614  0.20894466
   0.00000000  0.50037614  0.20894466
   0.50000000  0.00007312  0.20837365
   0.50000000  0.49992688  0.20837365
   0.24924792  0.25000000  0.25931538
   0.25039341  0.75000000  0.25926454
   0.75075208  0.25000000  0.25931538
   0.74960659  0.75000000  0.25926454
   0.00000000  0.00123059  0.31412970
   0.00000000  0.49876941  0.31412970
   0.50000000 -0.00037322  0.31363390
   0.50000000  0.50037322  0.31363390
   0.24942035  0.25000000  0.36145226
   0.24724717  0.75000000  0.36117046
   0.75057965  0.25000000  0.36145226
   0.75275283  0.75000000  0.36117046
   0.50000000  0.75000000  0.42931142
   0.50000000  0.75000000  0.46082689
Direct configuration=    13
   0.00000000  0.00000000  0.00000000
   0.00000000  0.50000000  0.00000000
   0.50000000  0.00000000  0.00000000
   0.50000000  0.50000000  0.00000000
   0.25000000  0.25000000  0.05351109
   0.25000000  0.75000000  0.05351109
   0.75000000  0.25000000  0.05351109
   0.75000000  0.75000000  0.05351109
   0.00000000  0.00000000  0.10541371
   0.00000000  0.50000000  0.10541371
   0.50000000  0.00000000  0.10541371
   0.50000000  0.50000000  0.10541371
   0.24922096  0.25000000  0.15713962
   0.24943181  0.75000000  0.15729939
   0.75077904  0.25000000  0.15713962
   0.75056819  0.75000000  0.15729939
   0.00000000 -0.00067399  0.20901198
   0.00000000  0.50067399  0.20901198
   0.50000000 -0.00013972  0.20823000
   0.50000000  0.50013972  0.20823000
   0.24884750  0.25000000  0.25916012
   0.25039983  0.75000000  0.25897798
   0.75115250  0.25000000  0.25916012
   0.74960017  0.75000000  0.25897798
   0.00000000  0.00210116  0.31384481
   0.00000000  0.49789884  0.31384481
   0.50000000 -0.00161892  0.31363048
   0.50000000  0.50161892  0.31363048
   0.24976071  0.25000000  0.36138352
   0.24727121  0.75000000  0.36103805
   0.75023929  0.25000000  0.36138352
   0.75272879  0.75000000  0.36103805
   0.50000000  0.75000000  0.43087222
   0.50000000  0.75000000  0.46234499
Direct configuration=    14
   0.00000000  0.00000000  0.00000000
   0.00000000  0.50000000  0.00000000
   0.50000000  0.00000000  0.00000000
   0.50000000  0.50000000  0.00000000
   0.25000000  0.25000000  0.05351109
   0.25000000  0.75000000  0.05351109
   0.75000000  0.25000000  0.05351109
   0.75000000  0.75000000  0.05351109
   0.00000000  0.00000000  0.10541371
   0.00000000  0.50000000  0.10541371
   0.50000000  0.00000000  0.10541371
   0.50000000  0.50000000  0.10541371
   0.24917632  0.25000000  0.15711106
   0.24940091  0.75000000  0.15722718
   0.75082368  0.25000000  0.15711106
   0.75059909  0.75000000  0.15722718
   0.00000000 -0.00063811  0.20893677
   0.00000000  0.50063811  0.20893677
   0.50000000  0.00005231  0.20822048
   0.50000000  0.49994769  0.20822048
   0.24910863  0.25000000  0.25913452
   0.25042193  0.75000000  0.25897177
   0.75089136  0.25000000  0.25913452
   0.74957807  0.75000000  0.25897177
   0.00000000  0.00193417  0.31378756
   0.00000000  0.49806583  0.31378756
   0.50000000 -0.00151186  0.31360910
   0.50000000  0.50151186  0.31360910
   0.24996585  0.25000000  0.36134214
   0.24721337  0.75000000  0.36097866
   0.75003415  0.25000000  0.36134214
   0.75278663  0.75000000  0.36097866
   0.50000000  0.75000000  0.43119852
   0.50000000  0.75000000  0.46325841
Direct configuration=    15
   0.00000000  0.00000000  0.00000000
   0.00000000  0.50000000  0.00000000
   0.50000000  0.00000000  0.00000000
   0.50000000  0.50000000  0.00000000
   0.25000000  0.25000000  0.05351109
   0.25000000  0.75000000  0.05351109
   0.75000000  0.25000000  0.05351109
   0.75000000  0.75000000  0.05351109
   0.00000000  0.00000000  0.10541371
   0.00000000  0.50000000  0.10541371
   0.50000000  0.00000000  0.10541371
   0.50000000  0.50000000  0.10541371
   0.24916975  0.25000000  0.15710687
   0.24939636  0.75000000  0.15721656
   0.75083025  0.25000000  0.15710687
   0.75060364  0.75000000  0.15721656
   0.00000000 -0.00063283  0.20892570
   0.00000000  0.50063283  0.20892570
   0.50000000  0.00008055  0.20821908
   0.50000000  0.49991945  0.20821908
   0.24914705  0.25000000  0.25913076
   0.25042518  0.75000000  0.25897085
   0.75085295  0.25000000  0.25913076
   0.74957482  0.75000000  0.25897085
   0.00000000  0.00190961  0.31377914
   0.00000000  0.49809039  0.31377914
   0.50000000 -0.00149611  0.31360596
   0.50000000  0.50149611  0.31360596
   0.24999602  0.25000000  0.36133605
   0.24720486  0.75000000  0.36096992
   0.75000398  0.25000000  0.36133605
   0.75279514  0.75000000  0.36096992
   0.50000000  0.75000000  0.43124652
   0.50000000  0.75000000  0.46339277
Direct configuration=    16
   0.00000000  0.00000000  0.00000000
   0.00000000  0.50000000  0.00000000
   0.50000000  0.00000000  0.00000000
   0.50000000  0.50000000  0.00000000
   0.25000000  0.25000000  0.05351109
   0.25000000  0.75000000  0.05351109
   0.75000000  0.25000000  0.05351109
   0.75000000  0.75000000  0.05351109
   0.00000000  0.00000000  0.10541371
   0.00000000  0.50000000  0.10541371
   0.50000000  0.00000000  0.10541371
   0.50000000  0.50000000  0.10541371
   0.24924876  0.25000000  0.15708039
   0.24945011  0.75000000  0.15710736
   0.75075124  0.25000000  0.15708039
   0.75054989  0.75000000  0.15710736
   0.00000000 -0.00047638  0.20878952
   0.00000000  0.50047638  0.20878952
   0.50000000  0.00038299  0.20824174
   0.50000000  0.49961701  0.20824174
   0.24964743  0.25000000  0.25913673
   0.25045750  0.75000000  0.25903807
   0.75035257  0.25000000  0.25913673
   0.74954250  0.75000000  0.25903807
   0.00000000  0.00142059  0.31377794
   0.00000000  0.49857941  0.31377794
   0.50000000 -0.00094784  0.31357292
   0.50000000  0.50094784  0.31357292
   0.25018083  0.25000000  0.36129066
   0.24712964  0.75000000  0.36092709
   0.74981917  0.25000000  0.36129066
   0.75287036  0.75000000  0.36092709
   0.50000000  0.75000000  0.43183827
   0.50000000  0.75000000  0.46390886
Direct configuration=    17
   0.00000000  0.00000000  0.00000000
   0.00000000  0.50000000  0.00000000
   0.50000000  0.00000000  0.00000000
   0.50000000  0.50000000  0.00000000
   0.25000000  0.25000000  0.05351109
   0.25000000  0.75000000  0.05351109
   0.75000000  0.25000000  0.05351109
   0.75000000  0.75000000  0.05351109
   0.00000000  0.00000000  0.10541371
   0.00000000  0.50000000  0.10541371
   0.50000000  0.00000000  0.10541371
   0.50000000  0.50000000  0.10541371
   0.24941378  0.25000000  0.15702511
   0.24956237  0.75000000  0.15687930
   0.75058622  0.25000000  0.15702511
   0.75043763  0.75000000  0.15687930
   0.00000000 -0.00014963  0.20850512
   0.00000000  0.50014963  0.20850512
   0.50000000  0.00101461  0.20828907
   0.50000000  0.49898539  0.20828907
   0.25069245  0.25000000  0.25914920
   0.25052500  0.75000000  0.25917846
   0.74930755  0.25000000  0.25914920
   0.74947500  0.75000000  0.25917846
   0.00000000  0.00039930  0.31377544
   0.00000000  0.49960070  0.31377544
   0.50000000  0.00019719  0.31350392
   0.50000000  0.49980281  0.31350392
   0.25056679  0.25000000  0.36119587
   0.24697255  0.75000000  0.36083762
   0.74943321  0.25000000  0.36119587
   0.75302745  0.75000000  0.36083762
   0.50000000  0.75000000  0.43307410
   0.50000000  0.75000000  0.46498668
Direct configuration=    18
   0.00000000  0.00000000  0.00000000
   0.00000000  0.50000000  0.00000000
   0.50000000  0.00000000  0.00000000
   0.50000000  0.50000000  0.00000000
   0.25000000  0.25000000  0.05351109
   0.25000000  0.75000000  0.05351109
   0.75000000  0.25000000  0.05351109
   0.75000000  0.75000000  0.05351109
   0.00000000  0.00000000  0.10541371
   0.00000000  0.50000000  0.10541371
   0.50000000  0.00000000  0.10541371
   0.50000000  0.50000000  0.10541371
   0.24960780  0.25000000  0.15700668
   0.24977473  0.75000000  0.15688022
   0.75039220  0.25000000  0.15700668
   0.75022527  0.75000000  0.15688022
  -0.00000000 -0.00001724  0.20847574
  -0.00000000  0.50001724  0.20847574
   0.50000000  0.00072616  0.20826924
   0.50000000  0.49927384  0.20826924
   0.25068554  0.25000000  0.25913859
   0.25052565  0.75000000  0.25913922
   0.74931446  0.25000000  0.25913859
   0.74947435  0.75000000  0.25913922
  -0.00000000  0.00045492  0.31375255
  -0.00000000  0.49954508  0.31375255
   0.50000000  0.00026566  0.31350994
   0.50000000  0.49973434  0.31350994
   0.25046143  0.25000000  0.36118291
   0.24716919  0.75000000  0.36085972
   0.74953857  0.25000000  0.36118291
   0.75283081  0.75000000  0.36085972
   0.50000000  0.75000000  0.43389247
   0.50000000  0.75000000  0.46542705
Direct configuration=    19
   0.00000000  0.00000000  0.00000000
   0.00000000  0.50000000  0.00000000
   0.50000000  0.00000000  0.00000000
   0.50000000  0.50000000  0.00000000
   0.25000000  0.25000000  0.05351109
   0.25000000  0.75000000  0.05351109
   0.75000000  0.25000000  0.05351109
   0.75000000  0.75000000  0.05351109
   0.00000000  0.00000000  0.10541371
   0.00000000  0.50000000  0.10541371
   0.50000000  0.00000000  0.10541371
   0.50000000  0.50000000  0.10541371
   0.24967987  0.25000000  0.15699984
   0.24985361  0.75000000  0.15688056
   0.75032013  0.25000000  0.15699984
   0.75014639  0.75000000  0.15688056
  -0.00000000  0.00003194  0.20846483
  -0.00000000  0.49996806  0.20846483
   0.50000000  0.00061902  0.20826187
   0.50000000  0.49938098  0.20826187
   0.25068297  0.25000000  0.25913465
   0.25052589  0.75000000  0.25912464
   0.74931703  0.25000000  0.25913465
   0.74947411  0.75000000  0.25912464
  -0.00000000  0.00047558  0.31374405
  -0.00000000  0.49952442  0.31374405
   0.50000000  0.00029109  0.31351218
   0.50000000  0.49970891  0.31351218
   0.25042229  0.25000000  0.36117809
   0.24724223  0.75000000  0.36086793
   0.74957771  0.25000000  0.36117809
   0.75275777  0.75000000  0.36086793
   0.50000000  0.75000000  0.43419646
   0.50000000  0.75000000  0.46559063
Direct configuration=    20
   0.00000000  0.00000000  0.00000000
   0.00000000  0.50000000  0.00000000
   0.50000000  0.00000000  0.00000000
   0.50000000  0.50000000  0.00000000
   0.25000000  0.25000000  0.05351109
   0.25000000  0.75000000  0.05351109
   0.75000000  0.25000000  0.05351109
   0.75000000  0.75000000  0.05351109
   0.00000000  0.00000000  0.10541371
   0.00000000  0.50000000  0.10541371
   0.50000000  0.00000000  0.10541371
   0.50000000  0.50000000  0.10541371
   0.24979323  0.25000000  0.15699421
   0.24996901  0.75000000  0.15689840
   0.75020677  0.25000000  0.15699421
   0.75003099  0.75000000  0.15689840
  -0.00000000  0.00008552  0.20846526
  -0.00000000  0.49991448  0.20846526
   0.50000000  0.00040497  0.20825029
   0.50000000  0.49959503  0.20825029
   0.25060349  0.25000000  0.25912444
   0.25051283  0.75000000  0.25909124
   0.74939651  0.25000000  0.25912444
   0.74948717  0.75000000  0.25909124
  -0.00000000  0.00057198  0.31372887
  -0.00000000  0.49942802  0.31372887
   0.50000000  0.00024731  0.31352139
   0.50000000  0.49975269  0.31352139
   0.25032119  0.25000000  0.36117660
   0.24738633  0.75000000  0.36088805
   0.74967881  0.25000000  0.36117660
   0.75261367  0.75000000  0.36088805
   0.50000000  0.75000000  0.43451253
   0.50000000  0.75000000  0.46597756
Direct configuration=    21
   0.00000000  0.00000000  0.00000000
   0.00000000  0.50000000  0.00000000
   0.50000000  0.00000000  0.00000000
   0.50000000  0.50000000  0.00000000
   0.25000000  0.25000000  0.05351109
   0.25000000  0.75000000  0.05351109
   0.75000000  0.25000000  0.05351109
   0.75000000  0.75000000  0.05351109
   0.00000000  0.00000000  0.10541371
   0.00000000  0.50000000  0.10541371
   0.50000000  0.00000000  0.10541371
   0.50000000  0.50000000  0.10541371
   0.25013332  0.25000000  0.15697731
   0.25031522  0.75000000  0.15695192
   0.74986668  0.25000000  0.15697731
   0.74968478  0.75000000  0.15695192
  -0.00000000  0.00024626  0.20846655
  -0.00000000  0.49975374  0.20846655
   0.50000000 -0.00023720  0.20821557
   0.50000000  0.50023720  0.20821557
   0.25036502  0.25000000  0.25909381
   0.25047363  0.75000000  0.25899103
   0.74963498  0.25000000  0.25909381
   0.74952637  0.75000000  0.25899103
  -0.00000000  0.00086117  0.31368331
  -0.00000000  0.49913883  0.31368331
   0.50000000  0.00011595  0.31354904
   0.50000000  0.49988405  0.31354904
   0.25001789  0.25000000  0.36117211
   0.24781861  0.75000000  0.36094843
   0.74998211  0.25000000  0.36117211
   0.75218139  0.75000000  0.36094843
   0.50000000  0.75000000  0.43546074
   0.50000000  0.75000000  0.46713834
Direct configuration=    22
   0.00000000  0.00000000  0.00000000
   0.00000000  0.50000000  0.00000000
   0.50000000  0.00000000  0.00000000
   0.50000000  0.50000000  0.00000000
   0.25000000  0.25000000  0.05351109
   0.25000000  0.75000000  0.05351109
   0.75000000  0.25000000  0.05351109
   0.75000000  0.75000000  0.05351109
   0.00000000  0.00000000  0.10541371
   0.00000000  0.50000000  0.10541371
   0.50000000  0.00000000  0.10541371
   0.50000000  0.50000000  0.10541371
   0.25081349  0.25000000  0.15694353
   0.25100763  0.75000000  0.15705895
   0.74918651  0.25000000  0.15694353
   0.74899237  0.75000000  0.15705895
  -0.00000000  0.00056774  0.20846913
  -0.00000000  0.49943226  0.20846913
   0.50000000 -0.00152154  0.20814613
   0.50000000  0.50152154  0.20814613
   0.24988809  0.25000000  0.25903255
   0.25039525  0.75000000  0.25879061
   0.75011191  0.25000000  0.25903255
   0.74960475  0.75000000  0.25879061
  -0.00000000  0.00143955  0.31359220
  -0.00000000  0.49856045  0.31359220
   0.50000000 -0.00014676  0.31360434
   0.50000000  0.50014676  0.31360434
   0.24941130  0.25000000  0.36116313
   0.24868318  0.75000000  0.36106918
   0.75058870  0.25000000  0.36116313
   0.75131682  0.75000000  0.36106918
   0.50000000  0.75000000  0.43735717
   0.50000000  0.75000000  0.46945991
Direct configuration=    23
   0.00000000  0.00000000  0.00000000
   0.00000000  0.50000000  0.00000000
   0.50000000  0.00000000  0.00000000
   0.50000000  0.50000000  0.00000000
   0.25000000  0.25000000  0.05351109
   0.25000000  0.75000000  0.05351109
   0.75000000  0.25000000  0.05351109
   0.75000000  0.75000000  0.05351109
   0.00000000  0.00000000  0.10541371
   0.00000000  0.50000000  0.10541371
   0.50000000  0.00000000  0.10541371
   0.50000000  0.50000000  0.10541371
   0.25057722  0.25000000  0.15695526
   0.25076711  0.75000000  0.15702177
   0.74942277  0.25000000  0.15695526
   0.74923289  0.75000000  0.15702177
  -0.00000000  0.00045607  0.20846823
  -0.00000000  0.49954393  0.20846823
   0.50000000 -0.00107541  0.20817026