  34  34   0   0
  0.1991679E+02  0.5133596E-09  0.5133596E-09  0.2967047E-08  0.5000000E-15
  1.000000000000000E-004
  CAR 
 unknown system                          
     14.82815083     -9.12992082  301      2.16820998      1.00000000
     -9.130  0.0000E+00  0.0000E+00  0.0000E+00  0.0000E+00
     -9.050  0.0000E+00  0.0000E+00  0.0000E+00  0.0000E+00
     -8.970  0.0000E+00  0.0000E+00  0.0000E+00  0.0000E+00
     -8.890  0.0000E+00  0.0000E+00  0.0000E+00  0.0000E+00
     -8.810  0.0000E+00  0.0000E+00  0.0000E+00  0.0000E+00
     -8.731 -0.5955E-30 -0.5955E-30 -0.4756E-31 -0.4756E-31
     -8.651 -0.2873E-27 -0.2873E-27 -0.2299E-28 -0.2299E-28
     -8.571 -0.1006E-24 -0.1006E-24 -0.8059E-26 -0.8059E-26
     -8.491 -0.2553E-22 -0.2553E-22 -0.2047E-23 -0.2047E-23
     -8.411 -0.4691E-20 -0.4691E-20 -0.3767E-21 -0.3767E-21
     -8.331 -0.6238E-18 -0.6238E-18 -0.5020E-19 -0.5020E-19
     -8.251 -0.5806E-16 -0.5806E-16 -0.4687E-17 -0.4687E-17
     -8.172 -0.4017E-14 -0.4017E-14 -0.3255E-15 -0.3255E-15
     -8.092 -0.2001E-12 -0.2001E-12 -0.1630E-13 -0.1630E-13
     -8.012 -0.7165E-11 -0.7165E-11 -0.5885E-12 -0.5885E-12
     -7.932 -0.1839E-09 -0.1839E-09 -0.1528E-10 -0.1528E-10
     -7.852 -0.3369E-08 -0.3369E-08 -0.2843E-09 -0.2843E-09
     -7.772 -0.4375E-07 -0.4375E-07 -0.3778E-08 -0.3778E-08
     -7.692 -0.3983E-06 -0.3983E-06 -0.3559E-07 -0.3559E-07
     -7.613 -0.2495E-05 -0.2495E-05 -0.2349E-06 -0.2349E-06
     -7.533 -0.1035E-04 -0.1035E-04 -0.1061E-05 -0.1061E-05
     -7.453 -0.2565E-04 -0.2565E-04 -0.3110E-05 -0.3110E-05
     -7.373 -0.2275E-04 -0.2275E-04 -0.4926E-05 -0.4926E-05
     -7.293  0.7162E-04  0.7162E-04  0.7934E-06  0.7934E-06
     -7.213  0.2985E-03  0.2985E-03  0.2463E-04  0.2463E-04
     -7.133  0.5226E-03  0.5226E-03  0.6637E-04  0.6637E-04
     -7.054  0.5196E-03  0.5196E-03  0.1079E-03  0.1079E-03
     -6.974  0.3008E-03  0.3008E-03  0.1319E-03  0.1319E-03
     -6.894  0.1540E-03  0.1540E-03  0.1442E-03  0.1442E-03
     -6.814  0.2707E-03  0.2707E-03  0.1658E-03  0.1658E-03
     -6.734  0.4834E-03  0.4834E-03  0.2044E-03  0.2044E-03
     -6.654  0.4663E-03  0.4663E-03  0.2416E-03  0.2416E-03
     -6.574  0.1641E-03  0.1641E-03  0.2548E-03  0.2548E-03
     -6.495 -0.3027E-04 -0.3027E-04  0.2523E-03  0.2523E-03
     -6.415  0.4952E-03  0.4952E-03  0.2919E-03  0.2919E-03
     -6.335  0.1905E-02  0.1905E-02  0.4440E-03  0.4440E-03
     -6.255  0.3262E-02  0.3262E-02  0.7045E-03  0.7045E-03
     -6.175  0.3306E-02  0.3306E-02  0.9685E-03  0.9685E-03
     -6.095  0.2252E-02  0.2252E-02  0.1148E-02  0.1148E-02
     -6.015  0.1697E-02  0.1697E-02  0.1284E-02  0.1284E-02
     -5.936  0.2429E-02  0.2429E-02  0.1478E-02  0.1478E-02
     -5.856  0.3317E-02  0.3317E-02  0.1743E-02  0.1743E-02
     -5.776  0.2911E-02  0.2911E-02  0.1975E-02  0.1975E-02
     -5.696  0.1417E-02  0.1417E-02  0.2088E-02  0.2088E-02
     -5.616  0.1074E-03  0.1074E-03  0.2097E-02  0.2097E-02
     -5.536 -0.3756E-03 -0.3756E-03  0.2067E-02  0.2067E-02
     -5.456  0.2243E-04  0.2243E-04  0.2069E-02  0.2069E-02
     -5.376  0.1406E-02  0.1406E-02  0.2181E-02  0.2181E-02
     -5.297  0.3243E-02  0.3243E-02  0.2440E-02  0.2440E-02
     -5.217  0.4005E-02  0.4005E-02  0.2760E-02  0.2760E-02
     -5.137  0.2904E-02  0.2904E-02  0.2992E-02  0.2992E-02
     -5.057  0.1044E-02  0.1044E-02  0.3075E-02  0.3075E-02
     -4.977 -0.1556E-03 -0.1556E-03  0.3063E-02  0.3063E-02
     -4.897 -0.3454E-03 -0.3454E-03  0.3035E-02  0.3035E-02
     -4.817  0.3651E-03  0.3651E-03  0.3064E-02  0.3064E-02
     -4.738  0.1812E-02  0.1812E-02  0.3209E-02  0.3209E-02
     -4.658  0.3328E-02  0.3328E-02  0.3475E-02  0.3475E-02
     -4.578  0.4313E-02  0.4313E-02  0.3819E-02  0.3819E-02
     -4.498  0.5096E-02  0.5096E-02  0.4226E-02  0.4226E-02
     -4.418  0.5906E-02  0.5906E-02  0.4698E-02  0.4698E-02
     -4.338  0.5848E-02  0.5848E-02  0.5165E-02  0.5165E-02
     -4.258  0.4343E-02  0.4343E-02  0.5512E-02  0.5512E-02
     -4.179  0.2603E-02  0.2603E-02  0.5720E-02  0.5720E-02
     -4.099  0.2232E-02  0.2232E-02  0.5898E-02  0.5898E-02
     -4.019  0.3162E-02  0.3162E-02  0.6150E-02  0.6150E-02
     -3.939  0.4509E-02  0.4509E-02  0.6510E-02  0.6510E-02
     -3.859  0.6081E-02  0.6081E-02  0.6996E-02  0.6996E-02
     -3.779  0.7514E-02  0.7514E-02  0.7596E-02  0.7596E-02
     -3.699  0.7882E-02  0.7882E-02  0.8225E-02  0.8225E-02
     -3.620  0.7321E-02  0.7321E-02  0.8810E-02  0.8810E-02
     -3.540  0.7193E-02  0.7193E-02  0.9385E-02  0.9385E-02
     -3.460  0.7932E-02  0.7932E-02  0.1002E-01  0.1002E-01
     -3.380  0.8195E-02  0.8195E-02  0.1067E-01  0.1067E-01
     -3.300  0.6974E-02  0.6974E-02  0.1123E-01  0.1123E-01
     -3.220  0.5028E-02  0.5028E-02  0.1163E-01  0.1163E-01
     -3.140  0.3674E-02  0.3674E-02  0.1192E-01  0.1192E-01
     -3.061  0.3818E-02  0.3818E-02  0.1223E-01  0.1223E-01
     -2.981  0.5534E-02  0.5534E-02  0.1267E-01  0.1267E-01
     -2.901  0.7772E-02  0.7772E-02  0.1329E-01  0.1329E-01
     -2.821  0.1003E-01  0.1003E-01  0.1409E-01  0.1409E-01
     -2.741  0.1358E-01  0.1358E-01  0.1518E-01  0.1518E-01
     -2.661  0.1924E-01  0.1924E-01  0.1671E-01  0.1671E-01
     -2.581  0.2580E-01  0.2580E-01  0.1877E-01  0.1877E-01
     -2.502  0.3104E-01  0.3104E-01  0.2125E-01  0.2125E-01
     -2.422  0.3270E-01  0.3270E-01  0.2387E-01  0.2387E-01
     -2.342  0.2973E-01  0.2973E-01  0.2624E-01  0.2624E-01
     -2.262  0.2467E-01  0.2467E-01  0.2821E-01  0.2821E-01
     -2.182  0.2243E-01  0.2243E-01  0.3000E-01  0.3000E-01
     -2.102  0.2563E-01  0.2563E-01  0.3205E-01  0.3205E-01
     -2.022  0.3294E-01  0.3294E-01  0.3468E-01  0.3468E-01
     -1.942  0.4107E-01  0.4107E-01  0.3796E-01  0.3796E-01
     -1.863  0.4660E-01  0.4660E-01  0.4168E-01  0.4168E-01
     -1.783  0.4782E-01  0.4782E-01  0.4550E-01  0.4550E-01
     -1.703  0.4535E-01  0.4535E-01  0.4912E-01  0.4912E-01
     -1.623  0.4079E-01  0.4079E-01  0.5238E-01  0.5238E-01
     -1.543  0.3663E-01  0.3663E-01  0.5530E-01  0.5530E-01
     -1.463  0.3520E-01  0.3520E-01  0.5811E-01  0.5811E-01
     -1.383  0.3698E-01  0.3698E-01  0.6107E-01  0.6107E-01
     -1.304  0.4225E-01  0.4225E-01  0.6444E-01  0.6444E-01
     -1.224  0.5076E-01  0.5076E-01  0.6849E-01  0.6849E-01
     -1.144  0.5860E-01  0.5860E-01  0.7317E-01  0.7317E-01
     -1.064  0.6142E-01  0.6142E-01  0.7808E-01  0.7808E-01
     -0.984  0.6189E-01  0.6189E-01  0.8302E-01  0.8302E-01
     -0.904  0.6662E-01  0.6662E-01  0.8834E-01  0.8834E-01
     -0.824  0.7489E-01  0.7489E-01  0.9432E-01  0.9432E-01
     -0.745  0.7953E-01  0.7953E-01  0.1007E+00  0.1007E+00
     -0.665  0.7805E-01  0.7805E-01  0.1069E+00  0.1069E+00
     -0.585  0.7421E-01  0.7421E-01  0.1128E+00  0.1128E+00
     -0.505  0.7116E-01  0.7116E-01  0.1185E+00  0.1185E+00
     -0.425  0.6932E-01  0.6932E-01  0.1241E+00  0.1241E+00
     -0.345  0.6852E-01  0.6852E-01  0.1295E+00  0.1295E+00
     -0.265  0.6792E-01  0.6792E-01  0.1349E+00  0.1349E+00
     -0.186  0.6572E-01  0.6572E-01  0.1402E+00  0.1402E+00
     -0.106  0.6267E-01  0.6267E-01  0.1452E+00  0.1452E+00
     -0.026  0.6122E-01  0.6122E-01  0.1501E+00  0.1501E+00
      0.054  0.6185E-01  0.6185E-01  0.1550E+00  0.1550E+00
      0.134  0.6628E-01  0.6628E-01  0.1603E+00  0.1603E+00
      0.214  0.7664E-01  0.7664E-01  0.1664E+00  0.1664E+00
      0.294  0.8792E-01  0.8792E-01  0.1735E+00  0.1735E+00
      0.373  0.9269E-01  0.9269E-01  0.1809E+00  0.1809E+00
      0.453  0.9233E-01  0.9233E-01  0.1882E+00  0.1882E+00
      0.533  0.9218E-01  0.9218E-01  0.1956E+00  0.1956E+00
      0.613  0.8872E-01  0.8872E-01  0.2027E+00  0.2027E+00
      0.693  0.7269E-01  0.7269E-01  0.2085E+00  0.2085E+00
      0.773  0.4448E-01  0.4448E-01  0.2120E+00  0.2120E+00
      0.853  0.1691E-01  0.1691E-01  0.2134E+00  0.2134E+00
      0.932  0.1446E-02  0.1446E-02  0.2135E+00  0.2135E+00
      1.012 -0.1676E-02 -0.1676E-02  0.2134E+00  0.2134E+00
      1.092  0.6922E-03  0.6922E-03  0.2134E+00  0.2134E+00
      1.172  0.2980E-02  0.2980E-02  0.2137E+00  0.2137E+00
      1.252  0.3981E-02  0.3981E-02  0.2140E+00  0.2140E+00
      1.332  0.4828E-02  0.4828E-02  0.2144E+00  0.2144E+00
      1.412  0.5962E-02  0.5962E-02  0.2148E+00  0.2148E+00
      1.491  0.6326E-02  0.6326E-02  0.2154E+00  0.2154E+00
      1.571  0.4931E-02  0.4931E-02  0.2157E+00  0.2157E+00
      1.651  0.2804E-02  0.2804E-02  0.2160E+00  0.2160E+00
      1.731  0.2692E-02  0.2692E-02  0.2162E+00  0.2162E+00
      1.811  0.6094E-02  0.6094E-02  0.2167E+00  0.2167E+00
      1.891  0.1119E-01  0.1119E-01  0.2176E+00  0.2176E+00
      1.971  0.1441E-01  0.1441E-01  0.2187E+00  0.2187E+00
      2.051  0.1410E-01  0.1410E-01  0.2198E+00  0.2198E+00
      2.130  0.1223E-01  0.1223E-01  0.2208E+00  0.2208E+00
      2.210  0.1128E-01  0.1128E-01  0.2217E+00  0.2217E+00
      2.290  0.1026E-01  0.1026E-01  0.2225E+00  0.2225E+00
      2.370  0.7085E-02  0.7085E-02  0.2231E+00  0.2231E+00
      2.450  0.3359E-02  0.3359E-02  0.2234E+00  0.2234E+00
      2.530  0.2420E-02  0.2420E-02  0.2236E+00  0.2236E+00
      2.610  0.4602E-02  0.4602E-02  0.2239E+00  0.2239E+00
      2.689  0.7468E-02  0.7468E-02  0.2245E+00  0.2245E+00
      2.769  0.8731E-02  0.8731E-02  0.2252E+00  0.2252E+00
      2.849  0.7678E-02  0.7678E-02  0.2258E+00  0.2258E+00
      2.929  0.5660E-02  0.5660E-02  0.2263E+00  0.2263E+00
      3.009  0.4718E-02  0.4718E-02  0.2267E+00  0.2267E+00
      3.089  0.4681E-02  0.4681E-02  0.2270E+00  0.2270E+00
      3.169  0.3965E-02  0.3965E-02  0.2274E+00  0.2274E+00
      3.248  0.2839E-02  0.2839E-02  0.2276E+00  0.2276E+00
      3.328  0.2992E-02  0.2992E-02  0.2278E+00  0.2278E+00
      3.408  0.5052E-02  0.5052E-02  0.2282E+00  0.2282E+00
      3.488  0.8306E-02  0.8306E-02  0.2289E+00  0.2289E+00
      3.568  0.1143E-01  0.1143E-01  0.2298E+00  0.2298E+00
      3.648  0.1273E-01  0.1273E-01  0.2308E+00  0.2308E+00
      3.728  0.1112E-01  0.1112E-01  0.2317E+00  0.2317E+00
      3.807  0.7579E-02  0.7579E-02  0.2323E+00  0.2323E+00
      3.887  0.4602E-02  0.4602E-02  0.2327E+00  0.2327E+00
      3.967  0.3429E-02  0.3429E-02  0.2330E+00  0.2330E+00
      4.047  0.2878E-02  0.2878E-02  0.2332E+00  0.2332E+00
      4.127  0.1726E-02  0.1726E-02  0.2333E+00  0.2333E+00
      4.207  0.3874E-03  0.3874E-03  0.2334E+00  0.2334E+00
      4.287 -0.4055E-03 -0.4055E-03  0.2333E+00  0.2333E+00
      4.366 -0.5060E-03 -0.5060E-03  0.2333E+00  0.2333E+00
      4.446  0.4639E-03  0.4639E-03  0.2333E+00  0.2333E+00
      4.526  0.2989E-02  0.2989E-02  0.2336E+00  0.2336E+00
      4.606  0.5970E-02  0.5970E-02  0.2340E+00  0.2340E+00
      4.686  0.7117E-02  0.7117E-02  0.2346E+00  0.2346E+00
      4.766  0.6029E-02  0.6029E-02  0.2351E+00  0.2351E+00
      4.846  0.4415E-02  0.4415E-02  0.2354E+00  0.2354E+00
      4.925  0.3083E-02  0.3083E-02  0.2357E+00  0.2357E+00
      5.005  0.1644E-02  0.1644E-02  0.2358E+00  0.2358E+00
      5.085  0.2648E-03  0.2648E-03  0.2358E+00  0.2358E+00
      5.165 -0.4017E-03 -0.4017E-03  0.2358E+00  0.2358E+00
      5.245  0.1353E-03  0.1353E-03  0.2358E+00  0.2358E+00
      5.325  0.2139E-02  0.2139E-02  0.2360E+00  0.2360E+00
      5.405  0.5029E-02  0.5029E-02  0.2364E+00  0.2364E+00
      5.485  0.7265E-02  0.7265E-02  0.2370E+00  0.2370E+00
      5.564  0.8124E-02  0.8124E-02  0.2376E+00  0.2376E+00
      5.644  0.8617E-02  0.8617E-02  0.2383E+00  0.2383E+00
      5.724  0.9307E-02  0.9307E-02  0.2390E+00  0.2390E+00
      5.804  0.9079E-02  0.9079E-02  0.2398E+00  0.2398E+00
      5.884  0.7405E-02  0.7405E-02  0.2404E+00  0.2404E+00
      5.964  0.5307E-02  0.5307E-02  0.2408E+00  0.2408E+00
      6.044  0.3573E-02  0.3573E-02  0.2411E+00  0.2411E+00
      6.123  0.2322E-02  0.2322E-02  0.2413E+00  0.2413E+00
      6.203  0.2214E-02  0.2214E-02  0.2414E+00  0.2414E+00
      6.283  0.4350E-02  0.4349E-02  0.2418E+00  0.2418E+00
      6.363  0.7986E-02  0.7986E-02  0.2424E+00  0.2424E+00
      6.443  0.9999E-02  0.9999E-02  0.2432E+00  0.2432E+00
      6.523  0.8781E-02  0.8781E-02  0.2439E+00  0.2439E+00
      6.603  0.6308E-02  0.6308E-02  0.2444E+00  0.2444E+00
      6.682  0.4685E-02  0.4685E-02  0.2448E+00  0.2448E+00
      6.762  0.4183E-02  0.4183E-02  0.2451E+00  0.2451E+00
      6.842  0.4859E-02  0.4859E-02  0.2455E+00  0.2455E+00
      6.922  0.6328E-02  0.6328E-02  0.2460E+00  0.2460E+00
      7.002  0.7224E-02  0.7224E-02  0.2466E+00  0.2466E+00
      7.082  0.7501E-02  0.7501E-02  0.2472E+00  0.2472E+00
      7.162  0.8518E-02  0.8518E-02  0.2479E+00  0.2479E+00
      7.241  0.1017E-01  0.1017E-01  0.2487E+00  0.2487E+00
      7.321  0.1118E-01  0.1118E-01  0.2496E+00  0.2496E+00
      7.401  0.1088E-01  0.1088E-01  0.2505E+00  0.2505E+00
      7.481  0.8836E-02  0.8836E-02  0.2512E+00  0.2512E+00
      7.561  0.5533E-02  0.5533E-02  0.2516E+00  0.2516E+00
      7.641  0.3210E-02  0.3210E-02  0.2519E+00  0.2519E+00
      7.721  0.3576E-02  0.3576E-02  0.2521E+00  0.2521E+00
      7.800  0.6122E-02  0.6122E-02  0.2526E+00  0.2526E+00
      7.880  0.9244E-02  0.9244E-02  0.2534E+00  0.2534E+00
      7.960  0.1113E-01  0.1113E-01  0.2543E+00  0.2543E+00
      8.040  0.1034E-01  0.1034E-01  0.2551E+00  0.2551E+00
      8.120  0.7327E-02  0.7327E-02  0.2557E+00  0.2557E+00
      8.200  0.4626E-02  0.4626E-02  0.2560E+00  0.2560E+00
      8.280  0.4063E-02  0.4063E-02  0.2564E+00  0.2564E+00
      8.359  0.5296E-02  0.5296E-02  0.2568E+00  0.2568E+00
      8.439  0.7686E-02  0.7686E-02  0.2574E+00  0.2574E+00
      8.519  0.1089E-01  0.1089E-01  0.2583E+00  0.2583E+00
      8.599  0.1309E-01  0.1309E-01  0.2593E+00  0.2593E+00
      8.679  0.1183E-01  0.1183E-01  0.2603E+00  0.2603E+00
      8.759  0.7603E-02  0.7603E-02  0.2609E+00  0.2609E+00
      8.839  0.4090E-02  0.4090E-02  0.2612E+00  0.2612E+00
      8.918  0.3887E-02  0.3887E-02  0.2615E+00  0.2615E+00
      8.998  0.5654E-02  0.5654E-02  0.2620E+00  0.2620E+00
      9.078  0.6322E-02  0.6322E-02  0.2625E+00  0.2625E+00
      9.158  0.5297E-02  0.5297E-02  0.2629E+00  0.2629E+00
      9.238  0.5033E-02  0.5033E-02  0.2633E+00  0.2633E+00
      9.318  0.7231E-02  0.7231E-02  0.2639E+00  0.2639E+00
      9.398  0.1030E-01  0.1030E-01  0.2647E+00  0.2647E+00
      9.478  0.1133E-01  0.1133E-01  0.2656E+00  0.2656E+00
      9.557  0.9361E-02  0.9361E-02  0.2663E+00  0.2663E+00
      9.637  0.6353E-02  0.6353E-02  0.2668E+00  0.2668E+00
      9.717  0.4862E-02  0.4861E-02  0.2672E+00  0.2672E+00
      9.797  0.5278E-02  0.5277E-02  0.2677E+00  0.2677E+00
      9.877  0.6386E-02  0.6386E-02  0.2682E+00  0.2682E+00
      9.957  0.7916E-02  0.7917E-02  0.2688E+00  0.2688E+00
     10.037  0.1017E-01  0.1017E-01  0.2696E+00  0.2696E+00
     10.116  0.1167E-01  0.1167E-01  0.2705E+00  0.2705E+00
     10.196  0.1055E-01  0.1055E-01  0.2714E+00  0.2714E+00
     10.276  0.7770E-02  0.7770E-02  0.2720E+00  0.2720E+00
     10.356  0.5973E-02  0.5973E-02  0.2725E+00  0.2725E+00
     10.436  0.6062E-02  0.6062E-02  0.2730E+00  0.2730E+00
     10.516  0.7413E-02  0.7413E-02  0.2736E+00  0.2736E+00
     10.596  0.9409E-02  0.9409E-02  0.2743E+00  0.2743E+00
     10.675  0.1109E-01  0.1109E-01  0.2752E+00  0.2752E+00
     10.755  0.1131E-01  0.1131E-01  0.2761E+00  0.2761E+00
     10.835  0.1060E-01  0.1060E-01  0.2769E+00  0.2769E+00
     10.915  0.1054E-01  0.1054E-01  0.2778E+00  0.2778E+00
     10.995  0.1076E-01  0.1076E-01  0.2786E+00  0.2786E+00
     11.075  0.9799E-02  0.9799E-02  0.2794E+00  0.2794E+00
     11.155  0.8592E-02  0.8592E-02  0.2801E+00  0.2801E+00
     11.234  0.9605E-02  0.9605E-02  0.2809E+00  0.2809E+00
     11.314  0.1284E-01  0.1284E-01  0.2819E+00  0.2819E+00
     11.394  0.1508E-01  0.1508E-01  0.2831E+00  0.2831E+00
     11.474  0.1362E-01  0.1362E-01  0.2842E+00  0.2842E+00
     11.554  0.9631E-02  0.9631E-02  0.2850E+00  0.2850E+00
     11.634  0.6603E-02  0.6603E-02  0.2855E+00  0.2855E+00
     11.714  0.6471E-02  0.6471E-02  0.2860E+00  0.2860E+00
     11.793  0.8141E-02  0.8141E-02  0.2867E+00  0.2867E+00
     11.873  0.9007E-02  0.9007E-02  0.2874E+00  0.2874E+00
     11.953  0.7487E-02  0.7487E-02  0.2880E+00  0.2880E+00
     12.033  0.4488E-02  0.4488E-02  0.2883E+00  0.2883E+00
     12.113  0.2033E-02  0.2033E-02  0.2885E+00  0.2885E+00
     12.193  0.8784E-03  0.8784E-03  0.2886E+00  0.2886E+00
     12.273  0.5882E-03  0.5882E-03  0.2886E+00  0.2886E+00
     12.352  0.8582E-03  0.8580E-03  0.2887E+00  0.2887E+00
     12.432  0.1500E-02  0.1500E-02  0.2888E+00  0.2888E+00
     12.512  0.2067E-02  0.2066E-02  0.2890E+00  0.2890E+00
     12.592  0.2280E-02  0.2281E-02  0.2892E+00  0.2892E+00
     12.672  0.2356E-02  0.2363E-02  0.2893E+00  0.2893E+00
     12.752  0.2568E-02  0.2578E-02  0.2895E+00  0.2895E+00
     12.832  0.2649E-02  0.2654E-02  0.2898E+00  0.2898E+00
     12.912  0.2089E-02  0.2084E-02  0.2899E+00  0.2899E+00
     12.991  0.1032E-02  0.1022E-02  0.2900E+00  0.2900E+00
     13.071  0.1854E-03  0.1795E-03  0.2900E+00  0.2900E+00
     13.151 -0.1172E-03 -0.1184E-03  0.2900E+00  0.2900E+00
     13.231 -0.1015E-03 -0.1009E-03  0.2900E+00  0.2900E+00
     13.311 -0.3824E-04 -0.3780E-04  0.2900E+00  0.2900E+00
     13.391 -0.8869E-05 -0.8724E-05  0.2900E+00  0.2900E+00
     13.471 -0.1375E-05 -0.1346E-05  0.2900E+00  0.2900E+00
     13.550 -0.1472E-06 -0.1435E-06  0.2900E+00  0.2900E+00
     13.630 -0.1108E-07 -0.1075E-07  0.2900E+00  0.2900E+00
     13.710 -0.5922E-09 -0.5722E-09  0.2900E+00  0.2900E+00
     13.790 -0.2261E-10 -0.2175E-10  0.2900E+00  0.2900E+00
     13.870 -0.6194E-12 -0.5931E-12  0.2900E+00  0.2900E+00
     13.950 -0.1221E-13 -0.1164E-13  0.2900E+00  0.2900E+00
     14.030 -0.1730E-15 -0.1653E-15  0.2900E+00  0.2900E+00
     14.109 -0.2317E-17 -0.1545E-17  0.2900E+00  0.2900E+00
     14.189  0.0000E+00  0.0000E+00  0.2900E+00  0.2900E+00
     14.269  0.0000E+00  0.0000E+00  0.2900E+00  0.2900E+00
     14.349  0.0000E+00  0.0000E+00  0.2900E+00  0.2900E+00
     14.429  0.0000E+00  0.0000E+00  0.2900E+00  0.2900E+00
     14.509  0.0000E+00  0.0000E+00  0.2900E+00  0.2900E+00
     14.589  0.0000E+00  0.0000E+00  0.2900E+00  0.2900E+00
     14.668  0.0000E+00  0.0000E+00  0.2900E+00  0.2900E+00
     14.748  0.0000E+00  0.0000E+00  0.2900E+00  0.2900E+00
     14.828  0.0000E+00  0.0000E+00  0.2900E+00  0.2900E+00
