   34   34  800    2
  0.1991679E+02  0.5133595E-09  0.5133595E-09  0.2967047E-08  0.5000000E-15
  1.000000000000000E-004
  CAR 
 unknown system                          
    354      4    232
 
  0.0000000E+00  0.0000000E+00  0.0000000E+00  0.1111111E+00
      1         -7.129921       -7.129921   1.000000   1.000000
      2         -6.728288       -6.728288   1.000000   1.000000
      3         -6.092888       -6.092888   1.000000   1.000000
      4         -5.253149       -5.253149   1.000000   1.000000
      5         -4.331616       -4.331616   1.000000   1.000000
      6         -3.623585       -3.623585   1.000000   1.000000
      7         -3.412575       -3.412575   1.000000   1.000000
      8         -3.024573       -3.024573   1.000000   1.000000
      9         -2.904190       -2.904190   1.000000   1.000000
     10         -2.902046       -2.902046   1.000000   1.000000
     11         -2.902019       -2.902019   1.000000   1.000000
     12         -2.895913       -2.895913   1.000000   1.000000
     13         -2.715833       -2.715833   1.000000   1.000000
     14         -2.715691       -2.715691   1.000000   1.000000
     15         -2.715233       -2.715233   1.000000   1.000000
     16         -2.694427       -2.694427   1.000000   1.000000
     17         -2.694029       -2.694029   1.000000   1.000000
     18         -2.693888       -2.693888   1.000000   1.000000
     19         -2.574854       -2.574854   1.000000   1.000000
     20         -2.574590       -2.574590   1.000000   1.000000
     21         -2.573955       -2.573955   1.000000   1.000000
     22         -2.435515       -2.435515   1.000000   1.000000
     23         -2.435156       -2.435156   1.000000   1.000000
     24         -2.435135       -2.435135   1.000000   1.000000
     25         -2.388740       -2.388740   1.000000   1.000000
     26         -2.388560       -2.388560   1.000000   1.000000
     27         -2.388155       -2.388154   1.000000   1.000000
     28         -2.244164       -2.244164   1.000000   1.000000
     29         -2.243698       -2.243698   1.000000   1.000000
     30         -2.243573       -2.243573   1.000000   1.000000
     31         -2.124539       -2.124539   1.000000   1.000000
     32         -2.123936       -2.123936   1.000000   1.000000
     33         -2.123085       -2.123085   1.000000   1.000000
     34         -2.119364       -2.119364   1.000000   1.000000
     35         -2.119319       -2.119320   1.000000   1.000000
     36         -2.118920       -2.118920   1.000000   1.000000
     37         -2.109584       -2.109584   1.000000   1.000000
     38         -2.108870       -2.108870   1.000000   1.000000
     39         -2.108489       -2.108489   1.000000   1.000000
     40         -1.935621       -1.935621   1.000000   1.000000
     41         -1.935190       -1.935190   1.000000   1.000000
     42         -1.934805       -1.934805   1.000000   1.000000
     43         -1.691588       -1.691588   1.000000   1.000000
     44         -1.690646       -1.690646   1.000000   1.000000
     45         -1.690446       -1.690446   1.000000   1.000000
     46         -1.375599       -1.375599   1.000000   1.000000
     47         -1.374452       -1.374452   1.000000   1.000000
     48         -1.374182       -1.374182   1.000000   1.000000
     49         -1.071774       -1.071774   1.000000   1.000000
     50         -1.071158       -1.071158   1.000000   1.000000
     51         -1.071058       -1.071058   1.000000   1.000000
     52         -0.964141       -0.964141   1.000000   1.000000
     53         -0.954202       -0.954202   1.000000   1.000000
     54         -0.936960       -0.936960   1.000000   1.000000
     55         -0.934964       -0.934964   1.000000   1.000000
     56         -0.934930       -0.934930   1.000000   1.000000
     57         -0.881368       -0.881368   1.000000   1.000000
     58         -0.881300       -0.881300   1.000000   1.000000
     59         -0.877012       -0.877012   1.000000   1.000000
     60         -0.877009       -0.877009   1.000000   1.000000
     61         -0.876369       -0.876369   1.000000   1.000000
     62         -0.876109       -0.876109   1.000000   1.000000
     63         -0.874821       -0.874821   1.000000   1.000000
     64         -0.812908       -0.812908   1.000000   1.000000
     65         -0.804486       -0.804486   1.000000   1.000000
     66         -0.804434       -0.804434   1.000000   1.000000
     67         -0.801944       -0.801944   1.000000   1.000000
     68         -0.786102       -0.786102   1.000000   1.000000
     69         -0.785714       -0.785714   1.000000   1.000000
     70         -0.785209       -0.785209   1.000000   1.000000
     71         -0.783309       -0.783309   1.000000   1.000000
     72         -0.782620       -0.782620   1.000000   1.000000
     73         -0.781705       -0.781705   1.000000   1.000000
     74         -0.780859       -0.780859   1.000000   1.000000
     75         -0.780721       -0.780721   1.000000   1.000000
     76         -0.779252       -0.779252   1.000000   1.000000
     77         -0.779243       -0.779243   1.000000   1.000000
     78         -0.778363       -0.778363   1.000000   1.000000
     79         -0.734608       -0.734608   1.000000   1.000000
     80         -0.734563       -0.734563   1.000000   1.000000
     81         -0.726043       -0.726043   1.000000   1.000000
     82         -0.694665       -0.694665   1.000000   1.000000
     83         -0.694238       -0.694238   1.000000   1.000000
     84         -0.684290       -0.684290   1.000000   1.000000
     85         -0.683830       -0.683830   1.000000   1.000000
     86         -0.683082       -0.683082   1.000000   1.000000
     87         -0.604203       -0.604203   1.000000   1.000000
     88         -0.604132       -0.604132   1.000000   1.000000
     89         -0.587715       -0.587715   1.000000   1.000000
     90         -0.587594       -0.587594   1.000000   1.000000
     91         -0.549918       -0.549918   1.000000   1.000000
     92         -0.549096       -0.549096   1.000000   1.000000
     93         -0.548675       -0.548675   1.000000   1.000000
     94         -0.462687       -0.462687   1.000000   1.000000
     95         -0.462617       -0.462617   1.000000   1.000000
     96         -0.460622       -0.460621   1.000000   1.000000
     97         -0.457984       -0.457984   1.000000   1.000000
     98         -0.258599       -0.258599   1.000000   1.000000
     99         -0.258495       -0.258495   1.000000   1.000000
    100         -0.257591       -0.257591   1.000000   1.000000
    101         -0.202822       -0.202822   1.000000   1.000000
    102         -0.201730       -0.201730   1.000000   1.000000
    103         -0.201383       -0.201383   1.000000   1.000000
    104         -0.026707       -0.026707   1.000000   1.000000
    105         -0.023745       -0.023745   1.000000   1.000000
    106         -0.017393       -0.017393   1.000000   1.000000
    107         -0.013913       -0.013913   1.000000   1.000000
    108          0.018013        0.018013   1.000000   1.000000
    109          0.019351        0.019351   1.000000   1.000000
    110          0.019447        0.019447   1.000000   1.000000
    111          0.021591        0.021591   1.000000   1.000000
    112          0.021853        0.021853   1.000000   1.000000
    113          0.030513        0.030513   1.000000   1.000000
    114          0.030954        0.030954   1.000000   1.000000
    115          0.031345        0.031345   1.000000   1.000000
    116          0.079998        0.079998   1.000000   1.000000
    117          0.080126        0.080126   1.000000   1.000000
    118          0.234574        0.234574   1.000000   1.000000
    119          0.235222        0.235222   1.000000   1.000000
    120          0.283369        0.283369   1.000000   1.000000
    121          0.283993        0.283993   1.000000   1.000000
    122          0.284235        0.284235   1.000000   1.000000
    123          0.313798        0.313798   1.000000   1.000000
    124          0.314477        0.314477   1.000000   1.000000
    125          0.315048        0.315048   1.000000   1.000000
    126          0.381492        0.381492   1.000000   1.000000
    127          0.388010        0.388010   1.000000   1.000000
    128          0.389185        0.389185   1.000000   1.000000
    129          0.478916        0.478916   1.000000   1.000000
    130          0.479551        0.479551   1.000000   1.000000
    131          0.479777        0.479777   1.000000   1.000000
    132          0.500608        0.500608   1.000000   1.000000
    133          0.501047        0.501047   1.000000   1.000000
    134          0.502215        0.502215   1.000000   1.000000
    135          0.524619        0.524619   1.000000   1.000000
    136          0.526285        0.526285   1.000000   1.000000
    137          0.546293        0.546293   1.000000   1.000000
    138          0.546370        0.546370   1.000000   1.000000
    139          0.547711        0.547711   1.000000   1.000000
    140          0.549829        0.549829   1.000000   1.000000
    141          0.550395        0.550395   1.000000   1.000000
    142          0.550732        0.550732   1.000000   1.000000
    143          0.577960        0.577960   1.000000   1.000000
    144          0.578273        0.578273   1.000000   1.000000
    145          0.578849        0.578849   1.000000   1.000000
    146          0.583821        0.583821   1.000000   1.000000
    147          0.584244        0.584244   1.000000   1.000000
    148          0.584844        0.584844   1.000000   1.000000
    149          0.603754        0.603754   1.000000   1.000000
    150          0.603887        0.603887   1.000000   1.000000
    151          0.604440        0.604440   1.000000   1.000000
    152          0.604773        0.604773   1.000000   1.000000
    153          0.608212        0.608212   1.000000   1.000000
    154          0.650204        0.650204   1.000000   1.000000
    155          0.650418        0.650418   1.000000   1.000000
    156          0.650784        0.650784   1.000000   1.000000
    157          0.659509        0.659509   1.000000   1.000000
    158          0.659946        0.659946   1.000000   1.000000
    159          0.659979        0.659979   1.000000   1.000000
    160          0.679675        0.679675   1.000000   1.000000
    161          0.680374        0.680374   1.000000   1.000000
    162          0.680571        0.680571   1.000000   1.000000
    163          0.702708        0.702708   1.000000   1.000000
    164          0.703526        0.703526   1.000000   1.000000
    165          0.703815        0.703815   1.000000   1.000000
    166          0.740821        0.740821   1.000000   1.000000
    167          0.741294        0.741294   1.000000   1.000000
    168          0.741616        0.741616   1.000000   1.000000
    169          1.474241        1.474241   1.000005   1.000005
    170          1.480750        1.480750   1.000007   1.000007
    171          1.481108        1.481108   1.000007   1.000007
    172          1.631603        1.631603   1.000492   1.000492
    173          1.971021        1.971021   1.023607   1.023607
    174          2.105636        2.105636   0.750952   0.750953
    175          2.108736        2.108736   0.739742   0.739742
    176          2.109149        2.109149   0.738237   0.738236
    177          2.646553        2.646553  -0.001853  -0.001853
    178          2.648276        2.648276  -0.001787  -0.001787
    179          2.648295        2.648295  -0.001786  -0.001786
    180          3.034344        3.034344  -0.000000  -0.000000
    181          3.035548        3.035548  -0.000000  -0.000000
    182          3.037483        3.037483  -0.000000  -0.000000
    183          3.295448        3.295448  -0.000000  -0.000000
    184          3.296304        3.296304  -0.000000  -0.000000
    185          3.300156        3.300156  -0.000000  -0.000000
    186          3.488252        3.488252  -0.000000  -0.000000
    187          3.490076        3.490076  -0.000000  -0.000000
    188          3.495900        3.495900  -0.000000  -0.000000
    189          3.648635        3.648635  -0.000000  -0.000000
    190          3.650351        3.650351  -0.000000  -0.000000
    191          3.656422        3.656422  -0.000000  -0.000000
    192          3.730683        3.730683  -0.000000  -0.000000
    193          3.731528        3.731528  -0.000000  -0.000000
    194          3.746386        3.746386  -0.000000  -0.000000
    195          6.117267        6.117267  -0.000000  -0.000000
    196          6.130990        6.130990  -0.000000  -0.000000
    197          6.131656        6.131656  -0.000000  -0.000000
    198          6.446203        6.446216  -0.000000  -0.000000
    199          6.539313        6.539313  -0.000000  -0.000000
    200          6.547856        6.547856  -0.000000  -0.000000
    201          6.554411        6.554411  -0.000000  -0.000000
    202          6.648492        6.648495  -0.000000  -0.000000
    203          7.088880        7.088880  -0.000000  -0.000000
    204          7.091967        7.091967  -0.000000  -0.000000
    205          7.117846        7.117847  -0.000000  -0.000000
    206          7.383893        7.383894  -0.000000  -0.000000
    207          7.682224        7.682225   0.000000   0.000000
    208          7.683351        7.683351   0.000000   0.000000
    209          7.694735        7.694739   0.000000   0.000000
    210          7.895316        7.895331   0.000000   0.000000
    211          8.413806        8.413806   0.000000   0.000000
    212          8.441854        8.441854   0.000000   0.000000
    213          8.473625        8.473625   0.000000   0.000000
    214          8.792509        8.792517   0.000000   0.000000
    215          9.297634        9.297639   0.000000   0.000000
    216          9.449730        9.449730   0.000000   0.000000
    217          9.452830        9.452830   0.000000   0.000000
    218          9.538571        9.538576   0.000000   0.000000
    219         10.009917       10.009917   0.000000   0.000000
    220         10.077814       10.077814   0.000000   0.000000
    221         10.144976       10.144976   0.000000   0.000000
    222         10.283097       10.283098   0.000000   0.000000
    223         10.703608       10.703608   0.000000   0.000000
    224         10.705484       10.705484   0.000000   0.000000
    225         10.853759       10.853760   0.000000   0.000000
    226         11.148058       11.148058   0.000000   0.000000
    227         11.171969       11.171973   0.000000   0.000000
    228         11.363594       11.363595   0.000000   0.000000
    229         11.478024       11.478026   0.000000   0.000000
    230         11.573346       11.573350   0.000000   0.000000
    231         11.744119       11.744119   0.000000   0.000000
    232         11.986561       11.986562   0.000000   0.000000
 
  0.3333333E+00  0.5551115E-16  0.0000000E+00  0.4444444E+00
      1         -6.259950       -6.259950   1.000000   1.000000
      2         -5.874195       -5.874195   1.000000   1.000000
      3         -5.266558       -5.266558   1.000000   1.000000
      4         -4.471806       -4.471806   1.000000   1.000000
      5         -4.036341       -4.036341   1.000000   1.000000
      6         -3.772236       -3.772236   1.000000   1.000000
      7         -3.651862       -3.651862   1.000000   1.000000
      8         -3.461422       -3.461422   1.000000   1.000000
      9         -3.387773       -3.387773   1.000000   1.000000
     10         -2.977002       -2.977002   1.000000   1.000000
     11         -2.858305       -2.858305   1.000000   1.000000
     12         -2.707448       -2.707448   1.000000   1.000000
     13         -2.705742       -2.705742   1.000000   1.000000
     14         -2.603297       -2.603297   1.000000   1.000000
     15         -2.554042       -2.554042   1.000000   1.000000
     16         -2.553259       -2.553259   1.000000   1.000000
     17         -2.487587       -2.487587   1.000000   1.000000
     18         -2.456850       -2.456850   1.000000   1.000000
     19         -2.454751       -2.454751   1.000000   1.000000
     20         -2.411608       -2.411608   1.000000   1.000000
     21         -2.403637       -2.403637   1.000000   1.000000
     22         -2.402851       -2.402851   1.000000   1.000000
     23         -2.288117       -2.288117   1.000000   1.000000
     24         -2.286336       -2.286336   1.000000   1.000000
     25         -2.286090       -2.286090   1.000000   1.000000
     26         -2.120113       -2.120113   1.000000   1.000000
     27         -2.119703       -2.119703   1.000000   1.000000
     28         -2.014894       -2.014894   1.000000   1.000000
     29         -2.014387       -2.014387   1.000000   1.000000
     30         -2.013750       -2.013750   1.000000   1.000000
     31         -2.010707       -2.010707   1.000000   1.000000
     32         -1.911477       -1.911477   1.000000   1.000000
     33         -1.910497       -1.910497   1.000000   1.000000
     34         -1.886518       -1.886518   1.000000   1.000000
     35         -1.886188       -1.886188   1.000000   1.000000
     36         -1.882330       -1.882330   1.000000   1.000000
     37         -1.852394       -1.852394   1.000000   1.000000
     38         -1.722852       -1.722852   1.000000   1.000000
     39         -1.721703       -1.721703   1.000000   1.000000
     40         -1.696651       -1.696651   1.000000   1.000000
     41         -1.691218       -1.691218   1.000000   1.000000
     42         -1.690827       -1.690827   1.000000   1.000000
     43         -1.525569       -1.525569   1.000000   1.000000
     44         -1.524971       -1.524971   1.000000   1.000000
     45         -1.520312       -1.520312   1.000000   1.000000
     46         -1.457822       -1.457822   1.000000   1.000000
     47         -1.457274       -1.457273   1.000000   1.000000
     48         -1.405635       -1.405635   1.000000   1.000000
     49         -1.337398       -1.337398   1.000000   1.000000
     50         -1.301629       -1.301629   1.000000   1.000000
     51         -1.300274       -1.300274   1.000000   1.000000
     52         -1.278931       -1.278931   1.000000   1.000000
     53         -1.248341       -1.248341   1.000000   1.000000
     54         -1.190594       -1.190594   1.000000   1.000000
     55         -1.190301       -1.190301   1.000000   1.000000
     56         -1.188893       -1.188893   1.000000   1.000000
     57         -1.161794       -1.161794   1.000000   1.000000
     58         -1.160461       -1.160461   1.000000   1.000000
     59         -1.124942       -1.124942   1.000000   1.000000
     60         -1.123473       -1.123473   1.000000   1.000000
     61         -1.105347       -1.105347   1.000000   1.000000
     62         -1.103988       -1.103988   1.000000   1.000000
     63         -1.094156       -1.094156   1.000000   1.000000
     64         -1.090534       -1.090534   1.000000   1.000000
     65         -1.040478       -1.040478   1.000000   1.000000
     66         -0.996278       -0.996278   1.000000   1.000000
     67         -0.994400       -0.994400   1.000000   1.000000
     68         -0.928641       -0.928641   1.000000   1.000000
     69         -0.889183       -0.889183   1.000000   1.000000
     70         -0.877636       -0.877636   1.000000   1.000000
     71         -0.858453       -0.858453   1.000000   1.000000
     72         -0.856039       -0.856039   1.000000   1.000000
     73         -0.839907       -0.839907   1.000000   1.000000
     74         -0.831183       -0.831183   1.000000   1.000000
     75         -0.813523       -0.813523   1.000000   1.000000
     76         -0.812869       -0.812869   1.000000   1.000000
     77         -0.772903       -0.772903   1.000000   1.000000
     78         -0.765392       -0.765392   1.000000   1.000000
     79         -0.718479       -0.718479   1.000000   1.000000
     80         -0.698368       -0.698368   1.000000   1.000000
     81         -0.695694       -0.695694   1.000000   1.000000
     82         -0.691072       -0.691072   1.000000   1.000000
     83         -0.665744       -0.665744   1.000000   1.000000
     84         -0.664245       -0.664245   1.000000   1.000000
     85         -0.659461       -0.659461   1.000000   1.000000
     86         -0.645604       -0.645604   1.000000   1.000000
     87         -0.642474       -0.642474   1.000000   1.000000
     88         -0.593307       -0.593307   1.000000   1.000000
     89         -0.591529       -0.591529   1.000000   1.000000
     90         -0.590414       -0.590414   1.000000   1.000000
     91         -0.584465       -0.584465   1.000000   1.000000
     92         -0.563883       -0.563883   1.000000   1.000000
     93         -0.526146       -0.526146   1.000000   1.000000
     94         -0.492683       -0.492683   1.000000   1.000000
     95         -0.483171       -0.483171   1.000000   1.000000
     96         -0.469757       -0.469757   1.000000   1.000000
     97         -0.467917       -0.467917   1.000000   1.000000
     98         -0.467723       -0.467723   1.000000   1.000000
     99         -0.465031       -0.465031   1.000000   1.000000
    100         -0.454729       -0.454729   1.000000   1.000000
    101         -0.444515       -0.444515   1.000000   1.000000
    102         -0.442201       -0.442201   1.000000   1.000000
    103         -0.366427       -0.366427   1.000000   1.000000
    104         -0.350654       -0.350654   1.000000   1.000000
    105         -0.349981       -0.349981   1.000000   1.000000
    106         -0.319260       -0.319260   1.000000   1.000000
    107         -0.293828       -0.293828   1.000000   1.000000
    108         -0.280961       -0.280961   1.000000   1.000000
    109         -0.268461       -0.268461   1.000000   1.000000
    110         -0.267805       -0.267805   1.000000   1.000000
    111         -0.256933       -0.256933   1.000000   1.000000
    112         -0.255402       -0.255402   1.000000   1.000000
    113         -0.255191       -0.255191   1.000000   1.000000
    114         -0.200091       -0.200091   1.000000   1.000000
    115         -0.185309       -0.185309   1.000000   1.000000
    116         -0.173259       -0.173259   1.000000   1.000000
    117         -0.130106       -0.130106   1.000000   1.000000
    118         -0.128882       -0.128882   1.000000   1.000000
    119         -0.085196       -0.085196   1.000000   1.000000
    120         -0.060028       -0.060028   1.000000   1.000000
    121         -0.054804       -0.054804   1.000000   1.000000
    122         -0.016082       -0.016082   1.000000   1.000000
    123          0.021005        0.021005   1.000000   1.000000
    124          0.021725        0.021725   1.000000   1.000000
    125          0.027062        0.027062   1.000000   1.000000
    126          0.075320        0.075320   1.000000   1.000000
    127          0.096983        0.096983   1.000000   1.000000
    128          0.153534        0.153534   1.000000   1.000000
    129          0.153973        0.153973   1.000000   1.000000
    130          0.161128        0.161128   1.000000   1.000000
    131          0.198568        0.198568   1.000000   1.000000
    132          0.213336        0.213336   1.000000   1.000000
    133          0.213988        0.213988   1.000000   1.000000
    134          0.222188        0.222188   1.000000   1.000000
    135          0.229225        0.229225   1.000000   1.000000
    136          0.229629        0.229629   1.000000   1.000000
    137          0.236235        0.236235   1.000000   1.000000
    138          0.245981        0.245981   1.000000   1.000000
    139          0.258383        0.258383   1.000000   1.000000
    140          0.258677        0.258677   1.000000   1.000000
    141          0.259259        0.259259   1.000000   1.000000
    142          0.281135        0.281135   1.000000   1.000000
    143          0.320029        0.320029   1.000000   1.000000
    144          0.320750        0.320750   1.000000   1.000000
    145          0.327977        0.327977   1.000000   1.000000
    146          0.345338        0.345338   1.000000   1.000000
    147          0.348738        0.348738   1.000000   1.000000
    148          0.374320        0.374320   1.000000   1.000000
    149          0.378437        0.378437   1.000000   1.000000
    150          0.402531        0.402531   1.000000   1.000000
    151          0.423457        0.423457   1.000000   1.000000
    152          0.437762        0.437762   1.000000   1.000000
    153          0.438902        0.438902   1.000000   1.000000
    154          0.457372        0.457372   1.000000   1.000000
    155          0.544304        0.544304   1.000000   1.000000
    156          0.544805        0.544805   1.000000   1.000000
    157          0.545036        0.545036   1.000000   1.000000
    158          0.573543        0.573543   1.000000   1.000000
    159          0.579188        0.579188   1.000000   1.000000
    160          0.588136        0.588136   1.000000   1.000000
    161          0.588736        0.588736   1.000000   1.000000
    162          0.609302        0.609302   1.000000   1.000000
    163          0.609637        0.609637   1.000000   1.000000
    164          0.631396        0.631396   1.000000   1.000000
    165          0.656475        0.656475   1.000000   1.000000
    166          0.657127        0.657127   1.000000   1.000000
    167          0.677741        0.677741   1.000000   1.000000
    168          0.678607        0.678607   1.000000   1.000000
    169          0.718384        0.718384   1.000000   1.000000
    170          0.719933        0.719933   1.000000   1.000000
    171          1.115575        1.115575   1.000000   1.000000
    172          1.492236        1.492236   1.000010   1.000010
    173          1.849660        1.849660   1.023401   1.023401
    174          1.850748        1.850748   1.023653   1.023653
    175          1.954667        1.954667   1.030802   1.030802
    176          2.007011        2.007011   0.991565   0.991565
    177          2.007752        2.007752   0.990631   0.990631
    178          2.267557        2.267557   0.131700   0.131700
    179          2.268422        2.268422   0.129320   0.129320
    180          2.603759        2.603759  -0.004319  -0.004319
    181          2.785403        2.785403  -0.000057  -0.000057
    182          2.787859        2.787859  -0.000053  -0.000053
    183          3.071583        3.071583  -0.000000  -0.000000
    184          3.588501        3.588501  -0.000000  -0.000000
    185          3.592425        3.592425  -0.000000  -0.000000
    186          3.729163        3.729163  -0.000000  -0.000000
    187          3.977613        3.977613  -0.000000  -0.000000
    188          4.618335        4.618335  -0.000000  -0.000000
    189          4.623880        4.623880  -0.000000  -0.000000
    190          5.490670        5.490670  -0.000000  -0.000000
    191          5.716745        5.716745  -0.000000  -0.000000
    192          5.724360        5.724360  -0.000000  -0.000000
    193          6.375737        6.375737  -0.000000  -0.000000
    194          6.385771        6.385771  -0.000000  -0.000000
    195          6.694794        6.694795  -0.000000  -0.000000
    196          6.923748        6.923748  -0.000000  -0.000000
    197          6.933977        6.933977  -0.000000  -0.000000
    198          7.185300        7.185308  -0.000000  -0.000000
    199          7.240006        7.240008  -0.000000  -0.000000
    200          7.411359        7.411359  -0.000000  -0.000000
    201          7.440143        7.440143  -0.000000  -0.000000
    202          7.864061        7.864062   0.000000   0.000000
    203          7.981793        7.981793   0.000000   0.000000
    204          8.030626        8.030627   0.000000   0.000000
    205          8.276594        8.276608   0.000000   0.000000
    206          8.526269        8.526269   0.000000   0.000000
    207          8.564963        8.564965   0.000000   0.000000
    208          8.635483        8.635483   0.000000   0.000000
    209          8.995755        8.995757   0.000000   0.000000
    210          9.048393        9.048400   0.000000   0.000000
    211          9.305096        9.305097   0.000000   0.000000
    212          9.426272        9.426273   0.000000   0.000000
    213          9.474926        9.474928   0.000000   0.000000
    214          9.757852        9.757858   0.000000   0.000000
    215         10.047723       10.047725   0.000000   0.000000
    216         10.090994       10.090999   0.000000   0.000000
    217         10.156370       10.156371   0.000000   0.000000
    218         10.342344       10.342356   0.000000   0.000000
    219         10.461060       10.461063   0.000000   0.000000
    220         10.597552       10.597553   0.000000   0.000000
    221         10.686597       10.686597   0.000000   0.000000
    222         10.732342       10.732343   0.000000   0.000000
    223         10.943367       10.943378   0.000000   0.000000
    224         10.980755       10.980755   0.000000   0.000000
    225         10.991242       10.991244   0.000000   0.000000
    226         11.156076       11.156077   0.000000   0.000000
    227         11.295907       11.295907   0.000000   0.000000
    228         11.337290       11.337291   0.000000   0.000000
    229         11.518973       11.518980   0.000000   0.000000
    230         11.726546       11.726548   0.000000   0.000000
    231         11.847946       11.847948   0.000000   0.000000