       N       E                     dE             d eps       ncg     rms          rms(c)
DAV:   1     0.344801663922E+04    0.34480E+04   -0.12525E+05  3712   0.193E+03
DAV:   2     0.486369193252E+03   -0.29616E+04   -0.28262E+04  3712   0.448E+02
DAV:   3    -0.923728989877E+02   -0.57874E+03   -0.52581E+03  3720   0.230E+02
DAV:   4    -0.138033432450E+03   -0.45661E+02   -0.43850E+02  4112   0.895E+01
DAV:   5    -0.139138106703E+03   -0.11047E+01   -0.11009E+01  4120   0.140E+01    0.525E+01
DAV:   6    -0.115158960192E+03    0.23979E+02   -0.30877E+02  4224   0.124E+02    0.272E+01
DAV:   7    -0.102837533960E+03    0.12321E+02   -0.78520E+01  4288   0.987E+01    0.167E+01
DAV:   8    -0.108942387685E+03   -0.61049E+01   -0.71085E+01  4840   0.129E+02    0.223E+01
DAV:   9    -0.992534189592E+02    0.96890E+01   -0.19892E+01  5296   0.652E+01    0.122E+01
DAV:  10    -0.100240847655E+03   -0.98743E+00   -0.58580E+00  5088   0.405E+01    0.114E+01
DAV:  11    -0.102453339068E+03   -0.22125E+01   -0.11562E+01  4712   0.533E+01    0.120E+01
DAV:  12    -0.101293131872E+03    0.11602E+01   -0.11249E+01  4584   0.535E+01    0.996E+00
DAV:  13    -0.102630254313E+03   -0.13371E+01   -0.52518E+00  5920   0.347E+01    0.789E+00
DAV:  14    -0.105393499876E+03   -0.27632E+01   -0.59812E+00  5656   0.351E+01    0.713E+00
DAV:  15    -0.109279558181E+03   -0.38861E+01   -0.31293E+00  5032   0.222E+01    0.455E+00
DAV:  16    -0.112179574043E+03   -0.29000E+01   -0.31854E+00  4632   0.205E+01    0.286E+00
DAV:  17    -0.113868083970E+03   -0.16885E+01   -0.16897E+00  4792   0.133E+01    0.243E+00
DAV:  18    -0.114814394376E+03   -0.94631E+00   -0.10274E+00  4416   0.104E+01    0.205E+00
DAV:  19    -0.115626127067E+03   -0.81173E+00   -0.62969E-01  4424   0.666E+00    0.181E+00
DAV:  20    -0.116462537570E+03   -0.83641E+00   -0.51160E-01  4896   0.579E+00    0.158E+00
DAV:  21    -0.117334687798E+03   -0.87215E+00   -0.70129E-01  5128   0.806E+00    0.163E+00
DAV:  22    -0.117640589889E+03   -0.30590E+00   -0.22079E-01  4920   0.555E+00    0.119E+00
DAV:  23    -0.118100003562E+03   -0.45941E+00   -0.20997E-01  4736   0.366E+00    0.105E+00
DAV:  24    -0.118688958822E+03   -0.58896E+00   -0.19826E-01  4616   0.356E+00    0.713E-01
DAV:  25    -0.119755009989E+03   -0.10661E+01   -0.13672E-01  5032   0.309E+00    0.601E-01
DAV:  26    -0.120481373560E+03   -0.72636E+00   -0.56446E-02  4552   0.271E+00    0.356E-01
DAV:  27    -0.120716281507E+03   -0.23491E+00   -0.21974E-02  4152   0.201E+00    0.209E-01
DAV:  28    -0.120766875057E+03   -0.50594E-01   -0.63609E-03  4184   0.701E-01    0.158E-01
DAV:  29    -0.120775102003E+03   -0.82269E-02   -0.43463E-03  4160   0.834E-01    0.117E-01
DAV:  30    -0.120782071120E+03   -0.69691E-02   -0.10529E-03  3888   0.449E-01    0.984E-02
DAV:  31    -0.120786479386E+03   -0.44083E-02   -0.61146E-04  3160   0.294E-01    0.590E-02
DAV:  32    -0.120786023639E+03    0.45575E-03   -0.31865E-04  2528   0.256E-01    0.410E-02
DAV:  33    -0.120786074887E+03   -0.51248E-04   -0.11292E-04  2472   0.954E-02
   1 F= -.13479952E+03 E0= -.13479551E+03  d E =-.134800E+03  mag=     0.0020
       N       E                     dE             d eps       ncg     rms          rms(c)
DAV:   1    -0.120758293839E+03    0.27730E-01   -0.11405E+01  3856   0.683E+00    0.749E-01
DAV:   2    -0.120780514435E+03   -0.22221E-01   -0.31388E-01  5360   0.272E+00    0.619E-01
DAV:   3    -0.120818200425E+03   -0.37686E-01   -0.19431E-01  4592   0.756E+00    0.124E+00
DAV:   4    -0.120782415779E+03    0.35785E-01   -0.22890E-01  4648   0.770E+00    0.516E-01
DAV:   5    -0.120781742157E+03    0.67362E-03   -0.25524E-02  6336   0.402E+00    0.458E-01
DAV:   6    -0.120778993949E+03    0.27482E-02   -0.21284E-02  5864   0.393E+00    0.303E-01
DAV:   7    -0.120776854457E+03    0.21395E-02   -0.71041E-03  5920   0.200E+00    0.106E-01
DAV:   8    -0.120776890414E+03   -0.35957E-04   -0.26681E-03  4240   0.742E-01    0.538E-02
DAV:   9    -0.120777032819E+03   -0.14241E-03   -0.13261E-03  3696   0.344E-01
   2 F= -.13481920E+03 E0= -.13481446E+03  d E =-.196780E-01  mag=     0.0012
       N       E                     dE             d eps       ncg     rms          rms(c)
DAV:   1    -0.120809569609E+03   -0.32679E-01   -0.23954E+00  3792   0.314E+00    0.308E-01
DAV:   2    -0.120815106642E+03   -0.55370E-02   -0.67189E-02  5432   0.128E+00    0.293E-01
DAV:   3    -0.120819703204E+03   -0.45966E-02   -0.35083E-02  4544   0.315E+00    0.470E-01
DAV:   4    -0.120814560860E+03    0.51423E-02   -0.25232E-02  4360   0.259E+00    0.167E-01
DAV:   5    -0.120816386300E+03   -0.18254E-02   -0.67819E-03  4184   0.204E+00    0.290E-01
DAV:   6    -0.120814367595E+03    0.20187E-02   -0.47814E-03  4496   0.188E+00    0.106E-01
DAV:   7    -0.120814283555E+03    0.84040E-04   -0.12404E-03  4200   0.582E-01
   3 F= -.13483575E+03 E0= -.13483143E+03  d E =-.362272E-01  mag=     0.0008
       N       E                     dE             d eps       ncg     rms          rms(c)
DAV:   1    -0.120819363401E+03   -0.49958E-02   -0.71703E+00  4048   0.558E+00    0.220E-01
DAV:   2    -0.120833250936E+03   -0.13888E-01   -0.14321E-01  5288   0.174E+00    0.288E-01
DAV:   3    -0.120833948396E+03   -0.69746E-03   -0.14721E-02  4248   0.215E+00    0.314E-01
DAV:   4    -0.120833482569E+03    0.46583E-03   -0.11483E-02  4144   0.194E+00    0.233E-01
DAV:   5    -0.120832837733E+03    0.64484E-03   -0.59163E-03  3024   0.134E+00    0.173E-01
DAV:   6    -0.120832485476E+03    0.35226E-03   -0.14243E-03  2840   0.793E-01    0.135E-01
DAV:   7    -0.120832481937E+03    0.35383E-05   -0.24074E-03  4664   0.782E-01    0.985E-02
DAV:   8    -0.120832500554E+03   -0.18617E-04   -0.85061E-04  3496   0.508E-01
   4 F= -.13485928E+03 E0= -.13485428E+03  d E =-.235332E-01  mag=     0.0006
       N       E                     dE             d eps       ncg     rms          rms(c)
DAV:   1    -0.120818186880E+03    0.14295E-01   -0.10876E+01  4048   0.691E+00    0.285E-01
DAV:   2    -0.120840147787E+03   -0.21961E-01   -0.23330E-01  5336   0.218E+00    0.341E-01
DAV:   3    -0.120845057993E+03   -0.49102E-02   -0.41058E-02  4304   0.344E+00    0.537E-01
DAV:   4    -0.120839422639E+03    0.56354E-02   -0.29042E-02  4240   0.284E+00    0.214E-01
DAV:   5    -0.120839499341E+03   -0.76701E-04   -0.37433E-03  4624   0.117E+00    0.213E-01
DAV:   6    -0.120839138566E+03    0.36077E-03   -0.26443E-03  4576   0.116E+00    0.168E-01
DAV:   7    -0.120838985015E+03    0.15355E-03   -0.28316E-03  3992   0.107E+00    0.110E-01
DAV:   8    -0.120838995937E+03   -0.10921E-04   -0.13389E-03  3928   0.713E-01
   5 F= -.13487259E+03 E0= -.13486703E+03  d E =-.368400E-01  mag=     0.0004
       N       E                     dE             d eps       ncg     rms          rms(c)
DAV:   1    -0.120840980573E+03   -0.19956E-02   -0.23313E+00  3784   0.332E+00    0.202E-01
DAV:   2    -0.120851209878E+03   -0.10229E-01   -0.71827E-02  6664   0.280E+00    0.501E-01
DAV:   3    -0.120846381191E+03    0.48287E-02   -0.36421E-02  6520   0.292E+00    0.198E-01
DAV:   4    -0.120846184707E+03    0.19648E-03   -0.45066E-03  4144   0.116E+00    0.189E-01
DAV:   5    -0.120846074602E+03    0.11010E-03   -0.24359E-03  4024   0.114E+00    0.148E-01
DAV:   6    -0.120846048782E+03    0.25820E-04   -0.24206E-03  4080   0.108E+00    0.134E-01
DAV:   7    -0.120845813423E+03    0.23536E-03   -0.11844E-03  3640   0.736E-01    0.529E-02
DAV:   8    -0.120845826568E+03   -0.13145E-04   -0.37876E-04  2424   0.213E-01
   6 F= -.13488423E+03 E0= -.13487874E+03  d E =-.116479E-01  mag=     0.0003
       N       E                     dE             d eps       ncg     rms          rms(c)
DAV:   1    -0.120840272089E+03    0.55413E-02   -0.14951E+00  3816   0.263E+00    0.165E-01
DAV:   2    -0.120843964605E+03   -0.36925E-02   -0.37235E-02  5544   0.120E+00    0.227E-01
DAV:   3    -0.120844137400E+03   -0.17279E-03   -0.92833E-03  4408   0.161E+00    0.204E-01
DAV:   4    -0.120843754899E+03    0.38250E-03   -0.65917E-03  3960   0.141E+00    0.169E-01
DAV:   5    -0.120843478377E+03    0.27652E-03   -0.19128E-03  2816   0.101E+00    0.114E-01
DAV:   6    -0.120843381309E+03    0.97067E-04   -0.11103E-03  2800   0.849E-01
   7 F= -.13488631E+03 E0= -.13488066E+03  d E =-.137208E-01  mag=     0.0002
       N       E                     dE             d eps       ncg     rms          rms(c)
DAV:   1    -0.120844245755E+03   -0.76738E-03   -0.21908E-01  4720   0.118E+00    0.565E-02
DAV:   2    -0.120845503952E+03   -0.12582E-02   -0.66695E-03  4592   0.112E+00    0.193E-01
DAV:   3    -0.120844628711E+03    0.87524E-03   -0.50403E-03  3544   0.115E+00    0.621E-02
DAV:   4    -0.120844618427E+03    0.10284E-04   -0.53095E-04  2560   0.354E-01
   8 F= -.13488969E+03 E0= -.13488426E+03  d E =-.338346E-02  mag=     0.0002
       N       E                     dE             d eps       ncg     rms          rms(c)
DAV:   1    -0.120843690760E+03    0.93795E-03   -0.19417E+00  3808   0.297E+00    0.164E-01
DAV:   2    -0.120848164260E+03   -0.44735E-02   -0.43679E-02  5728   0.136E+00    0.229E-01
DAV:   3    -0.120847986133E+03    0.17813E-03   -0.65734E-03  4160   0.148E+00    0.193E-01
DAV:   4    -0.120847949058E+03    0.37075E-04   -0.50261E-03  3960   0.120E+00    0.173E-01
DAV:   5    -0.120847671948E+03    0.27711E-03   -0.28961E-03  3344   0.960E-01    0.127E-01
DAV:   6    -0.120847591967E+03    0.79981E-04   -0.78731E-04  3120   0.727E-01
   9 F= -.13489914E+03 E0= -.13489337E+03  d E =-.128297E-01  mag=     0.0001
       N       E                     dE             d eps       ncg     rms          rms(c)
DAV:   1    -0.120831738201E+03    0.15934E-01   -0.77590E+00  3776   0.601E+00    0.294E-01
DAV:   2    -0.120849012853E+03   -0.17275E-01   -0.17959E-01  5200   0.194E+00    0.352E-01
DAV:   3    -0.120850073794E+03   -0.10609E-02   -0.17677E-02  4192   0.227E+00    0.354E-01
DAV:   4    -0.120849466699E+03    0.60710E-03   -0.16895E-02  4224   0.233E+00    0.304E-01
DAV:   5    -0.120848820019E+03    0.64668E-03   -0.83086E-03  3848   0.183E+00    0.237E-01
DAV:   6    -0.120848531789E+03    0.28823E-03   -0.35715E-03  3744   0.157E+00    0.210E-01
DAV:   7    -0.120847782272E+03    0.74952E-03   -0.33051E-03  5408   0.120E+00    0.748E-02
DAV:   8    -0.120847815931E+03   -0.33659E-04   -0.11857E-03  4072   0.398E-01
  10 F= -.13491244E+03 E0= -.13490688E+03  d E =-.261366E-01  mag=     0.0001
       N       E                     dE             d eps       ncg     rms          rms(c)
DAV:   1    -0.120759968563E+03    0.87814E-01   -0.31127E+01  3776   0.119E+01    0.615E-01
DAV:   2    -0.120834229166E+03   -0.74261E-01   -0.76466E-01  5264   0.486E+00    0.854E-01
DAV:   3    -0.120845771647E+03   -0.11542E-01   -0.15050E-01  4344   0.652E+00    0.886E-01
DAV:   4    -0.120827876705E+03    0.17895E-01   -0.81277E-02  4712   0.493E+00    0.492E-01
DAV:   5    -0.120826855740E+03    0.10210E-02   -0.91716E-03  5320   0.194E+00    0.423E-01
DAV:   6    -0.120831109475E+03   -0.42537E-02   -0.16745E-02  4808   0.305E+00    0.508E-01
DAV:   7    -0.120826227637E+03    0.48818E-02   -0.18449E-02  4496   0.366E+00    0.242E-01
DAV:   8    -0.120825227501E+03    0.10001E-02   -0.63924E-03  5016   0.129E+00    0.846E-02
DAV:   9    -0.120825353554E+03   -0.12605E-03   -0.24045E-03  4000   0.522E-01    0.522E-02
DAV:  10    -0.120825402673E+03   -0.49119E-04   -0.11573E-03  3608   0.350E-01
  11 F= -.13491662E+03 E0= -.13491092E+03  d E =-.303133E-01  mag=     0.0001
       N       E                     dE             d eps       ncg     rms          rms(c)
DAV:   1    -0.120832649098E+03   -0.72955E-02   -0.24630E+00  3760   0.327E+00    0.238E-01
DAV:   2    -0.120838545488E+03   -0.58964E-02   -0.59966E-02  5744   0.146E+00    0.280E-01
DAV:   3    -0.120839611506E+03   -0.10660E-02   -0.17392E-02  4432   0.240E+00    0.300E-01
DAV:   4    -0.120838029261E+03    0.15822E-02   -0.94991E-03  3928   0.190E+00    0.193E-01
DAV:   5    -0.120838102909E+03   -0.73649E-04   -0.29018E-03  3576   0.149E+00    0.187E-01
DAV:   6    -0.120837689977E+03    0.41293E-03   -0.22039E-03  4280   0.125E+00    0.122E-01
DAV:   7    -0.120837522511E+03    0.16747E-03   -0.11119E-03  3824   0.753E-01
  12 F= -.13493582E+03 E0= -.13492977E+03  d E =-.192035E-01  mag=     0.0000
       N       E                     dE             d eps       ncg     rms          rms(c)
DAV:   1    -0.120832807727E+03    0.48823E-02   -0.24971E+00  3760   0.330E+00    0.230E-01
DAV:   2    -0.120838814390E+03   -0.60067E-02   -0.60554E-02  5808   0.143E+00    0.267E-01
DAV:   3    -0.120839729471E+03   -0.91508E-03   -0.15519E-02  4536   0.234E+00    0.295E-01
DAV:   4    -0.120838626766E+03    0.11027E-02   -0.90003E-03  4040   0.189E+00    0.215E-01
DAV:   5    -0.120838104293E+03    0.52247E-03   -0.30966E-03  3688   0.144E+00    0.152E-01
DAV:   6    -0.120837899970E+03    0.20432E-03   -0.16844E-03  4296   0.848E-01    0.871E-02
DAV:   7    -0.120837854033E+03    0.45937E-04   -0.95429E-04  3696   0.550E-01
  13 F= -.13494418E+03 E0= -.13493776E+03  d E =-.275642E-01  mag=     0.0000
       N       E                     dE             d eps       ncg     rms          rms(c)
DAV:   1    -0.120855337090E+03   -0.17437E-01   -0.45853E+00  3760   0.458E+00    0.247E-01
DAV:   2    -0.120867205254E+03   -0.11868E-01   -0.11208E-01  5632   0.222E+00    0.398E-01
DAV:   3    -0.120866634484E+03    0.57077E-03   -0.24146E-02  4472   0.292E+00    0.328E-01
DAV:   4    -0.120865634006E+03    0.10005E-02   -0.10209E-02  4216   0.193E+00    0.224E-01
DAV:   5    -0.120865410311E+03    0.22369E-03   -0.39620E-03  4344   0.145E+00    0.198E-01
DAV:   6    -0.120865109606E+03    0.30070E-03   -0.25264E-03  4192   0.124E+00    0.149E-01
DAV:   7    -0.120864828850E+03    0.28076E-03   -0.18002E-03  4336   0.815E-01    0.308E-02
DAV:   8    -0.120864885780E+03   -0.56929E-04   -0.73794E-04  3368   0.283E-01
  14 F= -.13497173E+03 E0= -.13496457E+03  d E =-.275475E-01  mag=     0.0000
       N       E                     dE             d eps       ncg     rms          rms(c)
DAV:   1    -0.120869904743E+03   -0.50759E-02   -0.36200E+00  3760   0.407E+00    0.224E-01
DAV:   2    -0.120880175214E+03   -0.10270E-01   -0.90103E-02  6048   0.219E+00    0.392E-01
DAV:   3    -0.120878308976E+03    0.18662E-02   -0.24566E-02  4816   0.284E+00    0.272E-01
DAV:   4    -0.120877662256E+03    0.64672E-03   -0.55894E-03  4176   0.136E+00    0.182E-01
DAV:   5    -0.120877945160E+03   -0.28290E-03   -0.28896E-03  4328   0.129E+00    0.197E-01
DAV:   6    -0.120877628782E+03    0.31638E-03   -0.26130E-03  4112   0.132E+00    0.139E-01
DAV:   7    -0.120877313912E+03    0.31487E-03   -0.12358E-03  3824   0.769E-01    0.301E-02
DAV:   8    -0.120877355257E+03   -0.41346E-04   -0.66161E-04  2960   0.269E-01
  15 F= -.13498529E+03 E0= -.13497752E+03  d E =-.411057E-01  mag=     0.0000
       N       E                     dE             d eps       ncg     rms          rms(c)
DAV:   1    -0.120837801586E+03    0.39512E-01   -0.14518E+01  3760   0.814E+00    0.468E-01
DAV:   2    -0.120879531486E+03   -0.41730E-01   -0.36836E-01  6016   0.450E+00    0.800E-01
DAV:   3    -0.120872474692E+03    0.70568E-02   -0.98774E-02  4760   0.581E+00    0.585E-01
DAV:   4    -0.120869125014E+03    0.33497E-02   -0.24306E-02  4384   0.301E+00    0.389E-01
DAV:   5    -0.120869778666E+03   -0.65365E-03   -0.13181E-02  4480   0.269E+00    0.397E-01
DAV:   6    -0.120868238053E+03    0.15406E-02   -0.10419E-02  4432   0.252E+00    0.269E-01
DAV:   7    -0.120867277018E+03    0.96103E-03   -0.60148E-03  5040   0.155E+00    0.663E-02
DAV:   8    -0.120867440490E+03   -0.16347E-03   -0.28298E-03  4496   0.591E-01    0.584E-02
DAV:   9    -0.120867504294E+03   -0.63803E-04   -0.10598E-03  3600   0.334E-01
  16 F= -.13497844E+03 E0= -.13496961E+03  d E =-.342534E-01  mag=     0.0000
       N       E                     dE             d eps       ncg     rms          rms(c)
DAV:   1    -0.120867222528E+03    0.21796E-03   -0.65421E+00  3792   0.545E+00    0.321E-01
DAV:   2    -0.120882933410E+03   -0.15711E-01   -0.14940E-01  5776   0.258E+00    0.478E-01
DAV:   3    -0.120881984729E+03    0.94868E-03   -0.44225E-02  4544   0.344E+00    0.393E-01
DAV:   4    -0.120880686047E+03    0.12987E-02   -0.14768E-02  4288   0.232E+00    0.289E-01
DAV:   5    -0.120880295569E+03    0.39048E-03   -0.59313E-03  4640   0.205E+00    0.243E-01
DAV:   6    -0.120879788676E+03    0.50689E-03   -0.44830E-03  4648   0.173E+00    0.183E-01
DAV:   7    -0.120879308495E+03    0.48018E-03   -0.26232E-03  4720   0.992E-01    0.410E-02
DAV:   8    -0.120879381944E+03   -0.73449E-04   -0.10828E-03  3600   0.341E-01
  17 F= -.13498822E+03 E0= -.13498005E+03  d E =-.440401E-01  mag=     0.0000
       N       E                     dE             d eps       ncg     rms          rms(c)
DAV:   1    -0.120883428910E+03   -0.41204E-02   -0.49661E+00  3744   0.475E+00    0.265E-01
DAV:   2    -0.120894500678E+03   -0.11072E-01   -0.10798E-01  5632   0.212E+00    0.383E-01
DAV:   3    -0.120893473900E+03    0.10268E-02   -0.10781E-02  4384   0.214E+00    0.253E-01
DAV:   4    -0.120893044914E+03    0.42899E-03   -0.35430E-03  4192   0.122E+00    0.192E-01
DAV:   5    -0.120893951858E+03   -0.90694E-03   -0.53657E-03  4208   0.148E+00    0.252E-01
DAV:   6    -0.120894800106E+03   -0.84825E-03   -0.17403E-02  3960   0.254E+00    0.279E-01
DAV:   7    -0.120892507334E+03    0.22928E-02   -0.73218E-03  2848   0.165E+00    0.548E-02
DAV:   8    -0.120892574003E+03   -0.66669E-04   -0.12463E-03  4144   0.375E-01
  18 F= -.13500325E+03 E0= -.13499438E+03  d E =-.150216E-01  mag=     0.0000
       N       E                     dE             d eps       ncg     rms          rms(c)
DAV:   1    -0.120888201349E+03    0.43060E-02   -0.44453E+00  3744   0.451E+00    0.240E-01
DAV:   2    -0.120900280750E+03   -0.12079E-01   -0.10600E-01  5904   0.237E+00    0.424E-01
DAV:   3    -0.120898767534E+03    0.15132E-02   -0.20137E-02  4672   0.270E+00    0.302E-01
DAV:   4    -0.120898360010E+03    0.40752E-03   -0.10598E-02  4192   0.190E+00    0.246E-01
DAV:   5    -0.120897699512E+03    0.66050E-03   -0.43272E-03  4184   0.134E+00    0.182E-01
DAV:   6    -0.120897595493E+03    0.10402E-03   -0.21746E-03  4344   0.105E+00    0.154E-01
DAV:   7    -0.120897323290E+03    0.27220E-03   -0.19035E-03  4208   0.859E-01    0.358E-02
DAV:   8    -0.120897368612E+03   -0.45322E-04   -0.63775E-04  3056   0.260E-01
  19 F= -.13500993E+03 E0= -.13500039E+03  d E =-.217032E-01  mag=     0.0000
       N       E                     dE             d eps       ncg     rms          rms(c)
DAV:   1    -0.120901911575E+03   -0.45883E-02   -0.61376E+00  3728   0.530E+00    0.293E-01
DAV:   2    -0.120916269854E+03   -0.14358E-01   -0.14687E-01  5264   0.200E+00    0.388E-01
DAV:   3    -0.120917433775E+03   -0.11639E-02   -0.26753E-02  4288   0.293E+00    0.411E-01
DAV:   4    -0.120915719570E+03    0.17142E-02   -0.17540E-02  4240   0.233E+00    0.272E-01
DAV:   5    -0.120915250797E+03    0.46877E-03   -0.63635E-03  4160   0.172E+00    0.238E-01
DAV:   6    -0.120914750529E+03    0.50027E-03   -0.34249E-03  4624   0.144E+00    0.164E-01
DAV:   7    -0.120914350707E+03    0.39982E-03   -0.25309E-03  4528   0.112E+00    0.652E-02
DAV:   8    -0.120914375394E+03   -0.24687E-04   -0.10355E-03  3696   0.431E-01
  20 F= -.13502791E+03 E0= -.13501800E+03  d E =-.179864E-01  mag=     0.0000
       N       E                     dE             d eps       ncg     rms          rms(c)
DAV:   1    -0.120905404582E+03    0.89461E-02   -0.76502E+00  3744   0.591E+00    0.334E-01
DAV:   2    -0.120922588517E+03   -0.17184E-01   -0.18546E-01  5152   0.185E+00    0.374E-01
DAV:   3    -0.120925990575E+03   -0.34021E-02   -0.30481E-02  4400   0.302E+00    0.500E-01
DAV:   4    -0.120922278898E+03    0.37117E-02   -0.26405E-02  4256   0.271E+00    0.274E-01
DAV:   5    -0.120922772263E+03   -0.49336E-03   -0.84750E-03  3952   0.197E+00    0.303E-01
DAV:   6    -0.120921692526E+03    0.10797E-02   -0.52694E-03  4400   0.197E+00    0.195E-01
DAV:   7    -0.120920960096E+03    0.73243E-03   -0.37135E-03  5056   0.137E+00    0.854E-02
DAV:   8    -0.120920972590E+03   -0.12495E-04   -0.13085E-03  4088   0.509E-01
  21 F= -.13503579E+03 E0= -.13502557E+03  d E =-.258596E-01  mag=     0.0000
       N       E                     dE             d eps       ncg     rms          rms(c)
DAV:   1    -0.120922471521E+03   -0.15114E-02   -0.39349E+00  3728   0.419E+00    0.282E-01
DAV:   2    -0.120932935408E+03   -0.10464E-01   -0.10168E-01  6112   0.211E+00    0.397E-01
DAV:   3    -0.120932659864E+03    0.27554E-03   -0.32178E-02  5104   0.289E+00    0.325E-01
DAV:   4    -0.120930730356E+03    0.19295E-02   -0.10061E-02  4240   0.161E+00    0.192E-01
DAV:   5    -0.120932507699E+03   -0.17773E-02   -0.55794E-03  4248   0.184E+00    0.305E-01
DAV:   6    -0.120930855057E+03    0.16526E-02   -0.61766E-03  4496   0.200E+00    0.152E-01
DAV:   7    -0.120930516405E+03    0.33865E-03   -0.17107E-03  4280   0.866E-01    0.497E-02
DAV:   8    -0.120930568266E+03   -0.51861E-04   -0.82017E-04  3352   0.274E-01
  22 F= -.13504658E+03 E0= -.13503639E+03  d E =-.107922E-01  mag=     0.0000
       N       E                     dE             d eps       ncg     rms          rms(c)
DAV:   1    -0.120927366967E+03    0.31494E-02   -0.23522E+00  3728   0.324E+00    0.215E-01
DAV:   2    -0.120933067955E+03   -0.57010E-02   -0.58189E-02  5696   0.140E+00    0.270E-01
DAV:   3    -0.120933663221E+03   -0.59527E-03   -0.16814E-02  4464   0.215E+00    0.273E-01
DAV:   4    -0.120932506324E+03    0.11569E-02   -0.86114E-03  4096   0.156E+00    0.175E-01
DAV:   5    -0.120932671276E+03   -0.16495E-03   -0.31000E-03  3648   0.132E+00    0.179E-01
DAV:   6    -0.120932196417E+03    0.47486E-03   -0.21527E-03  4080   0.111E+00    0.904E-02
DAV:   7    -0.120932114740E+03    0.81677E-04   -0.97330E-04  3816   0.560E-01
  23 F= -.13504922E+03 E0= -.13503913E+03  d E =-.134384E-01  mag=     0.0000
       N       E                     dE             d eps       ncg     rms          rms(c)
DAV:   1    -0.120938263441E+03   -0.60670E-02   -0.40732E+00  3712   0.420E+00    0.317E-01
DAV:   2    -0.120947990920E+03   -0.97275E-02   -0.10584E-01  5392   0.176E+00    0.360E-01
DAV:   3    -0.120950715089E+03   -0.27242E-02   -0.36413E-02  4400   0.310E+00    0.426E-01
DAV:   4    -0.120946695926E+03    0.40192E-02   -0.22917E-02  4640   0.240E+00    0.195E-01
DAV:   5    -0.120946502432E+03    0.19349E-03   -0.37317E-03  4464   0.121E+00    0.137E-01
DAV:   6    -0.120947060647E+03   -0.55821E-03   -0.38452E-03  4448   0.136E+00    0.170E-01
DAV:   7    -0.120946385982E+03    0.67466E-03   -0.23832E-03  4240   0.105E+00    0.390E-02
DAV:   8    -0.120946418489E+03   -0.32507E-04   -0.64450E-04  2936   0.266E-01
  24 F= -.13506233E+03 E0= -.13505272E+03  d E =-.131026E-01  mag=     0.0000
       N       E                     dE             d eps       ncg     rms          rms(c)
DAV:   1    -0.120949438364E+03   -0.30524E-02   -0.17345E+00  3712   0.274E+00    0.211E-01
DAV:   2    -0.120953243877E+03   -0.38055E-02   -0.44242E-02  5040   0.862E-01    0.190E-01
DAV:   3    -0.120953948460E+03   -0.70458E-03   -0.61621E-03  4304   0.137E+00    0.232E-01
DAV:   4    -0.120953920283E+03    0.28177E-04   -0.13063E-02  3856   0.184E+00    0.208E-01
DAV:   5    -0.120953740428E+03    0.17986E-03   -0.84953E-03  2760   0.161E+00    0.184E-01
DAV:   6    -0.120953107304E+03    0.63312E-03   -0.28985E-03  2784   0.135E+00    0.996E-02
DAV:   7    -0.120952870411E+03    0.23689E-03   -0.58409E-04  2832   0.579E-01    0.212E-02
DAV:   8    -0.120952899416E+03   -0.29005E-04   -0.32633E-04  2528   0.128E-01
  25 F= -.13506798E+03 E0= -.13505875E+03  d E =-.187567E-01  mag=     0.0000
       N       E                     dE             d eps       ncg     rms          rms(c)
DAV:   1    -0.120945166589E+03    0.77038E-02   -0.69402E+00  3712   0.548E+00    0.423E-01
DAV:   2    -0.120963750293E+03   -0.18584E-01   -0.18753E-01  5904   0.292E+00    0.557E-01
DAV:   3    -0.120963502613E+03    0.24768E-03   -0.70172E-02  5048   0.413E+00    0.477E-01
DAV:   4    -0.120959060048E+03    0.44426E-02   -0.23972E-02  4624   0.241E+00    0.247E-01
DAV:   5    -0.120959330762E+03   -0.27071E-03   -0.68802E-03  4536   0.174E+00    0.233E-01
DAV:   6    -0.120959604812E+03   -0.27405E-03   -0.75113E-03  4488   0.184E+00    0.200E-01
DAV:   7    -0.120958819131E+03    0.78568E-03   -0.37265E-03  4368   0.125E+00    0.611E-02
DAV:   8    -0.120958869331E+03   -0.50200E-04   -0.11236E-03  3584   0.373E-01
  26 F= -.13507216E+03 E0= -.13506363E+03  d E =-.229385E-01  mag=     0.0000
       N       E                     dE             d eps       ncg     rms          rms(c)
DAV:   1    -0.120966960500E+03   -0.81414E-02   -0.43332E+00  3712   0.418E+00    0.407E-01
DAV:   2    -0.120978070467E+03   -0.11110E-01   -0.12403E-01  5552   0.170E+00    0.404E-01
DAV:   3    -0.120983348980E+03   -0.52785E-02   -0.56674E-02  4408   0.384E+00    0.562E-01
DAV:   4    -0.120978516669E+03    0.48323E-02   -0.47778E-02  4496   0.342E+00    0.362E-01
DAV:   5    -0.120977076541E+03    0.14401E-02   -0.14266E-02  4368   0.275E+00    0.248E-01
DAV:   6    -0.120975869079E+03    0.12075E-02   -0.49867E-03  5456   0.145E+00    0.848E-02
DAV:   7    -0.120975861611E+03    0.74675E-05   -0.17105E-03  3984   0.602E-01
  27 F= -.13508527E+03 E0= -.13507713E+03  d E =-.131022E-01  mag=     0.0000
       N       E                     dE             d eps       ncg     rms          rms(c)
DAV:   1    -0.120979581660E+03   -0.37126E-02   -0.11377E+00  3728   0.214E+00    0.203E-01
DAV:   2    -0.120982377975E+03   -0.27963E-02   -0.32278E-02  5104   0.660E-01    0.179E-01
DAV:   3    -0.120984434563E+03   -0.20566E-02   -0.12621E-02  4152   0.193E+00    0.308E-01
DAV:   4    -0.120982607887E+03    0.18267E-02   -0.15390E-02  2688   0.194E+00    0.157E-01
DAV:   5    -0.120982782149E+03   -0.17426E-03   -0.48653E-03  2688   0.148E+00    0.169E-01
DAV:   6    -0.120982136455E+03    0.64569E-03   -0.16239E-03  2832   0.103E+00    0.665E-02
DAV:   7    -0.120982056543E+03    0.79911E-04   -0.48153E-04  2576   0.400E-01
  28 F= -.13508941E+03 E0= -.13508142E+03  d E =-.172510E-01  mag=     0.0000
       N       E                     dE             d eps       ncg     rms          rms(c)
DAV:   1    -0.120979946889E+03    0.21896E-02   -0.45135E+00  3728   0.425E+00    0.400E-01
DAV:   2    -0.120993638403E+03   -0.13692E-01   -0.13496E-01  6168   0.254E+00    0.500E-01
DAV:   3    -0.120992888863E+03    0.74954E-03   -0.58554E-02  5408   0.373E+00    0.442E-01
DAV:   4    -0.120991025169E+03    0.18637E-02   -0.23186E-02  4456   0.256E+00    0.338E-01
DAV:   5    -0.120990382489E+03    0.64268E-03   -0.12461E-02  4480   0.266E+00    0.266E-01
DAV:   6    -0.120989078965E+03    0.13035E-02   -0.51725E-03  5104   0.144E+00    0.907E-02
DAV:   7    -0.120989116503E+03   -0.37539E-04   -0.18908E-03  4048   0.583E-01
  29 F= -.13509235E+03 E0= -.13508469E+03  d E =-.201825E-01  mag=     0.0000
       N       E                     dE             d eps       ncg     rms          rms(c)
DAV:   1    -0.120997793647E+03   -0.87147E-02   -0.12123E+00  3712   0.224E+00    0.199E-01
DAV:   2    -0.121002586665E+03   -0.47930E-02   -0.42524E-02  6336   0.169E+00    0.299E-01
DAV:   3    -0.121001531600E+03    0.10551E-02   -0.16693E-02  5456   0.202E+00    0.215E-01
DAV:   4    -0.121001346788E+03    0.18481E-03   -0.56310E-03  3848   0.130E+00    0.191E-01
DAV:   5    -0.121000900439E+03    0.44635E-03   -0.25792E-03  3520   0.116E+00    0.121E-01
DAV:   6    -0.121000863105E+03    0.37334E-04   -0.12245E-03  3776   0.768E-01
  30 F= -.13510036E+03 E0= -.13509300E+03  d E =-.801837E-02  mag=     0.0000
       N       E                     dE             d eps       ncg     rms          rms(c)
DAV:   1    -0.120998871818E+03    0.20286E-02   -0.10880E+01  3712   0.667E+00    0.599E-01
DAV:   2    -0.121032733550E+03   -0.33862E-01   -0.35031E-01  5768   0.334E+00    0.704E-01
DAV:   3    -0.121034501396E+03   -0.17678E-02   -0.10486E-01  4832   0.506E+00    0.713E-01
DAV:   4    -0.121030821906E+03    0.36795E-02   -0.71864E-02  4352   0.421E+00    0.581E-01
DAV:   5    -0.121026395282E+03    0.44266E-02   -0.26325E-02  4480   0.358E+00    0.368E-01
DAV:   6    -0.121024444929E+03    0.19504E-02   -0.11902E-02  5968   0.170E+00    0.104E-01
DAV:   7    -0.121024632802E+03   -0.18787E-03   -0.40790E-03  4376   0.725E-01    0.603E-02
DAV:   8    -0.121024698589E+03   -0.65787E-04   -0.14893E-03  3704   0.365E-01
  31 F= -.13511315E+03 E0= -.13510608E+03  d E =-.208021E-01  mag=     0.0000
       N       E                     dE             d eps       ncg     rms          rms(c)
DAV:   1    -0.121026271249E+03   -0.16384E-02   -0.30619E-01  3712   0.112E+00    0.106E-01
DAV:   2    -0.121027946657E+03   -0.16754E-02   -0.12745E-02  5632   0.113E+00    0.198E-01
DAV:   3    -0.121027136252E+03    0.81040E-03   -0.61490E-03  3408   0.122E+00    0.103E-01
DAV:   4    -0.121027132192E+03    0.40597E-05   -0.83653E-04  2496   0.522E-01
  32 F= -.13511376E+03 E0= -.13510684E+03  d E =-.214116E-01  mag=     0.0000
       N       E                     dE             d eps       ncg     rms          rms(c)
DAV:   1    -0.121028015791E+03   -0.87954E-03   -0.12167E+00  3712   0.230E+00    0.253E-01
DAV:   2    -0.121033281510E+03   -0.52657E-02   -0.42679E-02  6368   0.204E+00    0.364E-01
DAV:   3    -0.121031876971E+03    0.14045E-02   -0.23076E-02  5736   0.261E+00    0.287E-01
DAV:   4    -0.121031862625E+03    0.14346E-04   -0.13910E-02  4096   0.209E+00    0.274E-01
DAV:   5    -0.121030367573E+03    0.14951E-02   -0.67820E-03  3968   0.158E+00    0.944E-02
DAV:   6    -0.121030403952E+03   -0.36379E-04   -0.17285E-03  4192   0.795E-01
  33 F= -.13511341E+03 E0= -.13510677E+03  d E =-.210608E-01  mag=     0.0000
       N       E                     dE             d eps       ncg     rms          rms(c)
DAV:   1    -0.121028669622E+03    0.16980E-02   -0.25683E-01  3952   0.113E+00    0.104E-01
DAV:   2    -0.121030790482E+03   -0.21209E-02   -0.13678E-02  5328   0.148E+00    0.254E-01
DAV:   3    -0.121029147063E+03    0.16434E-02   -0.87014E-03  3304   0.147E+00    0.914E-02
DAV:   4    -0.121029201212E+03   -0.54149E-04   -0.80698E-04  2480   0.536E-01
  34 F= -.13511385E+03 E0= -.13510682E+03  d E =-.215044E-01  mag=     0.0000
       N       E                     dE             d eps       ncg     rms          rms(c)
DAV:   1    -0.121028182926E+03    0.96414E-03   -0.91815E-02  5184   0.977E-01    0.993E-02
DAV:   2    -0.121030863393E+03   -0.26805E-02   -0.74167E-03  4376   0.203E+00    0.312E-01
DAV:   3    -0.121028163131E+03    0.27003E-02   -0.46443E-03  3520   0.174E+00    0.569E-02
DAV:   4    -0.121028324582E+03   -0.16145E-03   -0.87932E-04  2448   0.498E-01
  35 F= -.13511396E+03 E0= -.13510711E+03  d E =-.216146E-01  mag=     0.0000
       N       E                     dE             d eps       ncg     rms          rms(c)
DAV:   1    -0.121033831657E+03   -0.56685E-02   -0.82350E-01  3792   0.205E+00    0.146E-01
DAV:   2    -0.121052251567E+03   -0.18420E-01   -0.90480E-02  6520   0.441E+00    0.728E-01
DAV:   3    -0.121035496933E+03    0.16755E-01   -0.67854E-02  6680   0.388E+00    0.129E-01
DAV:   4    -0.121035860546E+03   -0.36361E-03   -0.29716E-03  5832   0.732E-01    0.130E-01
DAV:   5    -0.121035773878E+03    0.86668E-04   -0.20220E-03  3872   0.863E-01    0.102E-01
DAV:   6    -0.121035716193E+03    0.57685E-04   -0.11686E-03  3712   0.577E-01
  36 F= -.13511847E+03 E0= -.13511150E+03  d E =-.451311E-02  mag=     0.0000
       N       E                     dE             d eps       ncg     rms          rms(c)
DAV:   1    -0.121035920629E+03   -0.14675E-03   -0.58739E+00  3744   0.502E+00    0.391E-01
DAV:   2    -0.121052530128E+03   -0.16609E-01   -0.16394E-01  6080   0.267E+00    0.524E-01
DAV:   3    -0.121052491522E+03    0.38606E-04   -0.56870E-02  4880   0.372E+00    0.460E-01
DAV:   4    -0.121051098957E+03    0.13926E-02   -0.33010E-02  4368   0.294E+00    0.386E-01
DAV:   5    -0.121048953470E+03    0.21455E-02   -0.10809E-02  4576   0.230E+00    0.236E-01
DAV:   6    -0.121048597338E+03    0.35613E-03   -0.47314E-03  4784   0.140E+00    0.150E-01
DAV:   7    -0.121048387040E+03    0.21030E-03   -0.26932E-03  4192   0.949E-01    0.400E-02
DAV:   8    -0.121048445260E+03   -0.58220E-04   -0.94719E-04  3408   0.284E-01
  37 F= -.13512360E+03 E0= -.13511692E+03  d E =-.963519E-02  mag=     0.0000
       N       E                     dE             d eps       ncg     rms          rms(c)
DAV:   1    -0.121054144274E+03   -0.57572E-02   -0.96834E-01  3728   0.205E+00    0.146E-01
DAV:   2    -0.121056767694E+03   -0.26234E-02   -0.26183E-02  5920   0.985E-01    0.190E-01
DAV:   3    -0.121056767902E+03   -0.20870E-06   -0.79003E-03  4256   0.142E+00    0.172E-01
DAV:   4    -0.121056448064E+03    0.31984E-03   -0.32095E-03  3200   0.927E-01    0.127E-01
DAV:   5    -0.121056415923E+03    0.32141E-04   -0.14032E-03  2592   0.867E-01
  38 F= -.13512677E+03 E0= -.13512014E+03  d E =-.317479E-02  mag=     0.0000
       N       E                     dE             d eps       ncg     rms          rms(c)
DAV:   1    -0.121059470965E+03   -0.30229E-02   -0.12845E+00  3744   0.244E+00    0.177E-01
DAV:   2    -0.121062673491E+03   -0.32025E-02   -0.33816E-02  5552   0.109E+00    0.194E-01
DAV:   3    -0.121062958543E+03   -0.28505E-03   -0.65413E-03  4192   0.147E+00    0.207E-01
DAV:   4    -0.121063029011E+03   -0.70468E-04   -0.82829E-03  3936   0.151E+00    0.198E-01
DAV:   5    -0.121062466656E+03    0.56235E-03   -0.54499E-03  2992   0.130E+00    0.127E-01
DAV:   6    -0.121062299174E+03    0.16748E-03   -0.10925E-03  2688   0.810E-01
  39 F= -.13512723E+03 E0= -.13512125E+03  d E =-.363923E-02  mag=    -0.0000
       N       E                     dE             d eps       ncg     rms          rms(c)
DAV:   1    -0.121059948113E+03    0.25185E-02   -0.21211E-01  4528   0.110E+00    0.782E-02
DAV:   2    -0.121060426761E+03   -0.47865E-03   -0.45269E-03  4416   0.623E-01    0.112E-01
DAV:   3    -0.121060377625E+03    0.49136E-04   -0.23250E-03  2776   0.830E-01    0.970E-02
DAV:   4    -0.121060320720E+03    0.56905E-04   -0.15068E-03  2448   0.661E-01
  40 F= -.13512744E+03 E0= -.13512098E+03  d E =-.384529E-02  mag=    -0.0000
       N       E                     dE             d eps       ncg     rms          rms(c)
DAV:   1    -0.121067043622E+03   -0.66660E-02   -0.14353E+00  3792   0.256E+00    0.135E-01
DAV:   2    -0.121070666638E+03   -0.36230E-02   -0.31971E-02  6216   0.130E+00    0.209E-01
DAV:   3    -0.121070114728E+03    0.55191E-03   -0.67102E-03  4128   0.150E+00    0.166E-01
DAV:   4    -0.121070266295E+03   -0.15157E-03   -0.45556E-03  3792   0.107E+00    0.157E-01
DAV:   5    -0.121069931354E+03    0.33494E-03   -0.30961E-03  3512   0.895E-01    0.982E-02
DAV:   6    -0.121069906974E+03    0.24380E-04   -0.10367E-03  3152   0.528E-01
  41 F= -.13513083E+03 E0= -.13512468E+03  d E =-.339383E-02  mag=     0.0000
       N       E                     dE             d eps       ncg     rms          rms(c)
DAV:   1    -0.121074658210E+03   -0.47269E-02   -0.40567E+00  3792   0.425E+00    0.248E-01
DAV:   2    -0.121086955952E+03   -0.12298E-01   -0.10345E-01  6592   0.279E+00    0.483E-01
DAV:   3    -0.121083355794E+03    0.36002E-02   -0.41691E-02  6352   0.309E+00    0.261E-01
DAV:   4    -0.121082997716E+03    0.35808E-03   -0.69747E-03  4160   0.141E+00    0.221E-01
DAV:   5    -0.121082780475E+03    0.21724E-03   -0.38725E-03  4224   0.132E+00    0.181E-01
DAV:   6    -0.121082516920E+03    0.26356E-03   -0.27843E-03  4304   0.103E+00    0.107E-01
DAV:   7    -0.121082448792E+03    0.68128E-04   -0.12131E-03  4032   0.535E-01
  42 F= -.13513305E+03 E0= -.13512717E+03  d E =-.561386E-02  mag=     0.0000
       N       E                     dE             d eps       ncg     rms          rms(c)
DAV:   1    -0.121090869432E+03   -0.83525E-02   -0.22830E+00  3808   0.315E+00    0.173E-01
DAV:   2    -0.121099094802E+03   -0.82254E-02   -0.62292E-02  6624   0.250E+00    0.420E-01
DAV:   3    -0.121095395025E+03    0.36998E-02   -0.29059E-02  6568   0.252E+00    0.169E-01
DAV:   4    -0.121095259454E+03    0.13557E-03   -0.27185E-03  3896   0.639E-01    0.130E-01
DAV:   5    -0.121095673901E+03   -0.41445E-03   -0.20741E-03  4064   0.938E-01    0.174E-01
DAV:   6    -0.121095601291E+03    0.72610E-04   -0.33026E-03  4048   0.133E+00    0.137E-01
DAV:   7    -0.121095213978E+03    0.38731E-03   -0.12474E-03  3504   0.717E-01    0.584E-02
DAV:   8    -0.121095219916E+03   -0.59375E-05   -0.30937E-04  2432   0.147E-01
  43 F= -.13513591E+03 E0= -.13513018E+03  d E =-.285961E-02  mag=     0.0000
       N       E                     dE             d eps       ncg     rms          rms(c)
DAV:   1    -0.121100991022E+03   -0.57770E-02   -0.15417E+00  3808   0.258E+00    0.145E-01
DAV:   2    -0.121106851620E+03   -0.58606E-02   -0.42884E-02  6696   0.220E+00    0.372E-01
DAV:   3    -0.121103900128E+03    0.29515E-02   -0.22396E-02  6264   0.222E+00    0.135E-01
DAV:   4    -0.121103805388E+03    0.94740E-04   -0.20296E-03  3928   0.503E-01    0.103E-01
DAV:   5    -0.121104424529E+03   -0.61914E-03   -0.20117E-03  3704   0.970E-01    0.177E-01
DAV:   6    -0.121103866048E+03    0.55848E-03   -0.24326E-03  3824   0.113E+00    0.686E-02
DAV:   7    -0.121103804275E+03    0.61772E-04   -0.60581E-04  2760   0.364E-01
  44 F= -.13513642E+03 E0= -.13513080E+03  d E =-.336956E-02  mag=     0.0000
       N       E                     dE             d eps       ncg     rms          rms(c)
DAV:   1    -0.121112144854E+03   -0.82788E-02   -0.20304E+00  3824   0.298E+00    0.159E-01
DAV:   2    -0.121118412457E+03   -0.62676E-02   -0.49771E-02  6608   0.219E+00    0.363E-01
DAV:   3    -0.121116188431E+03    0.22240E-02   -0.25165E-02  6280   0.239E+00    0.168E-01
DAV:   4    -0.121115796509E+03    0.39192E-03   -0.27998E-03  3888   0.708E-01    0.115E-01
DAV:   5    -0.121116168050E+03   -0.37154E-03   -0.15613E-03  3888   0.843E-01    0.164E-01
DAV:   6    -0.121116109295E+03    0.58754E-04   -0.31023E-03  4032   0.123E+00    0.131E-01
DAV:   7    -0.121115807331E+03    0.30196E-03   -0.12112E-03  3552   0.675E-01    0.664E-02
DAV:   8    -0.121115819091E+03   -0.11760E-04   -0.35183E-04  2400   0.118E-01
  45 F= -.13513891E+03 E0= -.13513326E+03  d E =-.248329E-02  mag=    -0.0000
       N       E                     dE             d eps       ncg     rms          rms(c)
DAV:   1    -0.121123229690E+03   -0.74224E-02   -0.43555E+00  3824   0.436E+00    0.223E-01
DAV:   2    -0.121134163884E+03   -0.10934E-01   -0.97056E-02  6480   0.246E+00    0.427E-01
DAV:   3    -0.121131773053E+03    0.23908E-02   -0.33464E-02  6232   0.273E+00    0.236E-01
DAV:   4    -0.121131037698E+03    0.73536E-03   -0.45448E-03  4016   0.902E-01    0.168E-01
DAV:   5    -0.121131771161E+03   -0.73346E-03   -0.32181E-03  4256   0.118E+00    0.233E-01
DAV:   6    -0.121131341753E+03    0.42941E-03   -0.56007E-03  4304   0.168E+00    0.150E-01
DAV:   7    -0.121130932014E+03    0.40974E-03   -0.16208E-03  3872   0.739E-01    0.827E-02
DAV:   8    -0.121130938371E+03   -0.63572E-05   -0.47380E-04  2560   0.173E-01
  46 F= -.13514016E+03 E0= -.13513446E+03  d E =-.373410E-02  mag=    -0.0000
       N       E                     dE             d eps       ncg     rms          rms(c)
DAV:   1    -0.121137832849E+03   -0.69008E-02   -0.10983E+00  3872   0.228E+00    0.101E-01
DAV:   2    -0.121140769995E+03   -0.29371E-02   -0.25051E-02  6576   0.134E+00    0.218E-01
DAV:   3    -0.121140058017E+03    0.71198E-03   -0.86449E-03  4880   0.141E+00    0.115E-01
DAV:   4    -0.121139981311E+03    0.76706E-04   -0.16448E-03  3328   0.624E-01
  47 F= -.13514231E+03 E0= -.13513652E+03  d E =-.214807E-02  mag=    -0.0000
       N       E                     dE             d eps       ncg     rms          rms(c)
DAV:   1    -0.121147180571E+03   -0.71226E-02   -0.27218E+00  3824   0.356E+00    0.203E-01
DAV:   2    -0.121152846449E+03   -0.56659E-02   -0.55862E-02  6024   0.159E+00    0.296E-01
DAV:   3    -0.121152633352E+03    0.21310E-03   -0.16402E-02  4736   0.202E+00    0.246E-01
DAV:   4    -0.121151986759E+03    0.64659E-03   -0.61060E-03  4192   0.132E+00    0.183E-01
DAV:   5    -0.121151889271E+03    0.97489E-04   -0.26662E-03  3856   0.108E+00    0.153E-01
DAV:   6    -0.121151780836E+03    0.10844E-03   -0.27683E-03  3952   0.121E+00    0.136E-01
DAV:   7    -0.121151469930E+03    0.31091E-03   -0.12847E-03  3728   0.707E-01    0.250E-02
DAV:   8    -0.121151501236E+03   -0.31306E-04   -0.41655E-04  2384   0.188E-01
  48 F= -.13514305E+03 E0= -.13513691E+03  d E =-.289079E-02  mag=    -0.0000
       N       E                     dE             d eps       ncg     rms          rms(c)
DAV:   1    -0.121148832658E+03    0.26373E-02   -0.14891E-01  3880   0.831E-01    0.386E-02
DAV:   2    -0.121149130601E+03   -0.29794E-03   -0.30863E-03  5184   0.300E-01    0.558E-02
DAV:   3    -0.121149113210E+03    0.17392E-04   -0.18301E-04  2368   0.240E-01
  49 F= -.13514317E+03 E0= -.13513713E+03  d E =-.301646E-02  mag=    -0.0000
       N       E                     dE             d eps       ncg     rms          rms(c)
DAV:   1    -0.121153512325E+03   -0.43817E-02   -0.80907E-01  3856   0.193E+00    0.882E-02
DAV:   2    -0.121157516660E+03   -0.40043E-02   -0.25083E-02  6440   0.181E+00    0.308E-01
DAV:   3    -0.121154901233E+03    0.26154E-02   -0.15516E-02  6112   0.184E+00    0.869E-02
DAV:   4    -0.121154970739E+03   -0.69506E-04   -0.12353E-03  3784   0.498E-01
  50 F= -.13514404E+03 E0= -.13513790E+03  d E =-.861262E-03  mag=    -0.0000
       N       E                     dE             d eps       ncg     rms          rms(c)
DAV:   1    -0.121155565185E+03   -0.66395E-03   -0.13850E-02  5568   0.594E-01    0.707E-02
DAV:   2    -0.121156713043E+03   -0.11479E-02   -0.38987E-03  3440   0.132E+00    0.216E-01
DAV:   3    -0.121155767474E+03    0.94557E-03   -0.57430E-03  2608   0.137E+00    0.999E-02
DAV:   4    -0.121155559451E+03    0.20802E-03   -0.17312E-03  2480   0.695E-01    0.517E-02
DAV:   5    -0.121155525177E+03    0.34273E-04   -0.30306E-04  2392   0.335E-01
  51 F= -.13514396E+03 E0= -.13513768E+03  d E =-.782405E-03  mag=    -0.0000
       N       E                     dE             d eps       ncg     rms          rms(c)
DAV:   1    -0.121155072383E+03    0.48707E-03   -0.84110E-03  5416   0.301E-01    0.165E-02
DAV:   2    -0.121155114291E+03   -0.41907E-04   -0.16199E-04  2512   0.272E-01
  52 F= -.13514405E+03 E0= -.13513772E+03  d E =-.872126E-03  mag=    -0.0000
       N       E                     dE             d eps       ncg     rms          rms(c)
DAV:   1    -0.121159484475E+03   -0.44121E-02   -0.74662E-01  3904   0.188E+00    0.681E-02
DAV:   2    -0.121163648130E+03   -0.41637E-02   -0.24820E-02  6592   0.192E+00    0.324E-01
DAV:   3    -0.121160782318E+03    0.28658E-02   -0.15230E-02  6008   0.182E+00    0.812E-02
DAV:   4    -0.121160826759E+03   -0.44441E-04   -0.12945E-03  3744   0.484E-01
  53 F= -.13514481E+03 E0= -.13513864E+03  d E =-.766842E-03  mag=    -0.0000
       N       E                     dE             d eps       ncg     rms          rms(c)
DAV:   1    -0.121163869672E+03   -0.30874E-02   -0.67207E+00  3904   0.556E+00    0.227E-01
DAV:   2    -0.121178567739E+03   -0.14698E-01   -0.13383E-01  6112   0.254E+00    0.452E-01
DAV:   3    -0.121176161591E+03    0.24061E-02   -0.32753E-02  4688   0.264E+00    0.281E-01
DAV:   4    -0.121175799963E+03    0.36163E-03   -0.79801E-03  4200   0.136E+00    0.230E-01
DAV:   5    -0.121175670091E+03    0.12987E-03   -0.35391E-03  4176   0.102E+00    0.205E-01
DAV:   6    -0.121175381155E+03    0.28894E-03   -0.20656E-03  4320   0.888E-01    0.177E-01
DAV:   7    -0.121174966288E+03    0.41487E-03   -0.21974E-03  4240   0.941E-01    0.493E-02
DAV:   8    -0.121174928358E+03    0.37930E-04   -0.57187E-04  2656   0.344E-01
  54 F= -.13514417E+03 E0= -.13513774E+03  d E =-.120109E-03  mag=     0.0000
       N       E                     dE             d eps       ncg     rms          rms(c)
DAV:   1    -0.121165572899E+03    0.93934E-02   -0.17422E+00  3904   0.282E+00    0.104E-01
DAV:   2    -0.121168684976E+03   -0.31121E-02   -0.31404E-02  5360   0.895E-01    0.162E-01
DAV:   3    -0.121168616964E+03    0.68012E-04   -0.36287E-03  3984   0.902E-01    0.130E-01
DAV:   4    -0.121168636424E+03   -0.19460E-04   -0.19766E-03  2904   0.710E-01
  55 F= -.13514536E+03 E0= -.13513901E+03  d E =-.131660E-02  mag=     0.0000
       N       E                     dE             d eps       ncg     rms          rms(c)
DAV:   1    -0.121171021392E+03   -0.24044E-02   -0.35537E-01  4096   0.139E+00    0.106E-01
DAV:   2    -0.121173739751E+03   -0.27184E-02   -0.13041E-02  6336   0.174E+00    0.274E-01
DAV:   3    -0.121172077484E+03    0.16623E-02   -0.13244E-02  4416   0.190E+00    0.155E-01
DAV:   4    -0.121171787021E+03    0.29046E-03   -0.48290E-03  3232   0.114E+00    0.101E-01
DAV:   5    -0.121171614573E+03    0.17245E-03   -0.13421E-03  3104   0.557E-01
  56 F= -.13514593E+03 E0= -.13513986E+03  d E =-.564703E-03  mag=     0.0000
       N       E                     dE             d eps       ncg     rms          rms(c)
DAV:   1    -0.121171692571E+03    0.94449E-04   -0.66835E-04  3152   0.307E-01    0.391E-02
DAV:   2    -0.121171894428E+03   -0.20186E-03   -0.10017E-03  3024   0.649E-01    0.991E-02
DAV:   3    -0.121171871347E+03    0.23081E-04   -0.22059E-03  2544   0.809E-01    0.838E-02
DAV:   4    -0.121171723570E+03    0.14778E-03   -0.97844E-04  2480   0.514E-01
  57 F= -.13514598E+03 E0= -.13513978E+03  d E =-.613065E-03  mag=     0.0000
       N       E                     dE             d eps       ncg     rms          rms(c)
DAV:   1    -0.121171652400E+03    0.21895E-03   -0.11686E-04  2336   0.189E-01    0.166E-02
DAV:   2    -0.121171837210E+03   -0.18481E-03   -0.67817E-04  2448   0.487E-01
  58 F= -.13514615E+03 E0= -.13513988E+03  d E =-.784418E-03  mag=     0.0000
       N       E                     dE             d eps       ncg     rms          rms(c)
DAV:   1    -0.121171709889E+03   -0.57489E-04   -0.89516E-04  2408   0.501E-01    0.332E-02
DAV:   2    -0.121174383079E+03   -0.26732E-02   -0.11703E-02  2608   0.179E+00    0.298E-01
DAV:   3    -0.121171744737E+03    0.26383E-02   -0.10994E-02  2544   0.164E+00    0.507E-02
DAV:   4    -0.121171686022E+03    0.58716E-04   -0.18313E-04  2288   0.291E-01
  59 F= -.13514597E+03 E0= -.13513980E+03  d E =-.604369E-03  mag=     0.0000
       N       E                     dE             d eps       ncg     rms          rms(c)
DAV:   1    -0.121173057747E+03   -0.13130E-02   -0.31842E-01  4064   0.120E+00    0.403E-02
DAV:   2    -0.121173658373E+03   -0.60063E-03   -0.62355E-03  5440   0.389E-01    0.586E-02
DAV:   3    -0.121173689135E+03   -0.30762E-04   -0.65000E-04  2400   0.394E-01
  60 F= -.13514685E+03 E0= -.13514085E+03  d E =-.882239E-03  mag=     0.0000
       N       E                     dE             d eps       ncg     rms          rms(c)
DAV:   1    -0.121173906766E+03   -0.24839E-03   -0.10689E-02  5616   0.414E-01    0.436E-02
DAV:   2    -0.121175062537E+03   -0.11558E-02   -0.53286E-03  2544   0.119E+00    0.204E-01
DAV:   3    -0.121173870843E+03    0.11917E-02   -0.48063E-03  2512   0.107E+00    0.277E-02
DAV:   4    -0.121173938017E+03   -0.67173E-04   -0.18140E-04  2352   0.315E-01
  61 F= -.13514691E+03 E0= -.13514111E+03  d E =-.937896E-03  mag=     0.0000
       N       E                     dE             d eps       ncg     rms          rms(c)
DAV:   1    -0.121174299176E+03   -0.42833E-03   -0.39153E-02  5392   0.551E-01    0.295E-02
DAV:   2    -0.121174534812E+03   -0.23564E-03   -0.92252E-04  2768   0.672E-01    0.967E-02
DAV:   3    -0.121174339823E+03    0.19499E-03   -0.77882E-04  2544   0.596E-01
  62 F= -.13514692E+03 E0= -.13514093E+03  d E =-.954287E-03  mag=     0.0000
