<?xml version="1.0" encoding="ISO-8859-1"?>
<modeling>
 <generator>
  <i name="program" type="string">vasp </i>
  <i name="version" type="string">6.3.2  </i>
  <i name="subversion" type="string">27Jun22 (build Aug 17 2022 15:43:34) complex                          parallel </i>
  <i name="platform" type="string">tv2STDVTST </i>
  <i name="date" type="string">2025 02 17 </i>
  <i name="time" type="string">20:51:32 </i>
 </generator>
 <incar>
  <i type="int" name="ISTART">     0</i>
  <i type="string" name="PREC">Normal</i>
  <i type="int" name="ISPIN">     2</i>
  <i type="int" name="ICHARG">     2</i>
  <i type="int" name="IBRION">     2</i>
  <i name="EDIFF">      0.00020000</i>
  <i name="EDIFFG">     -0.03000000</i>
  <i type="int" name="NSW">   800</i>
  <i type="int" name="ISIF">     2</i>
  <i type="int" name="ISYM">     1</i>
  <i name="ENCUT">    400.00000000</i>
  <i name="POTIM">      0.50000000</i>
  <i type="logical" name="LREAL"> F  </i>
  <i type="int" name="ISMEAR">     1</i>
  <i name="SIGMA">      0.20000000</i>
  <i type="logical" name="LWAVE"> F  </i>
  <i type="logical" name="LCHARG"> F  </i>
  <i type="string" name="GGA">PE</i>
  <i type="int" name="IVDW">    11</i>
 </incar>
 <primitive_cell>
  <structure name="primitive_cell" >
   <crystal>
    <varray name="basis" >
     <v>       5.13359547       0.00000000       0.00000000 </v>
     <v>       2.56679773       4.44582409       0.00000000 </v>
     <v>       0.00000000       0.00000000      29.67047119 </v>
    </varray>
    <i name="volume">    677.17101477 </i>
    <varray name="rec_basis" >
     <v>       0.19479525      -0.11246509       0.00000000 </v>
     <v>       0.00000000       0.22493018       0.00000000 </v>
     <v>       0.00000000       0.00000000       0.03370354 </v>
    </varray>
   </crystal>
   <varray name="positions" >
    <v>       0.00000000       0.00000000       0.00000000 </v>
    <v>       1.00000000       0.50000000       0.00000000 </v>
    <v>       0.50000000       0.00000000       0.00000000 </v>
    <v>       0.50000000       0.50000000       0.00000000 </v>
    <v>       0.16666667       0.16666667       0.07063526 </v>
    <v>       0.16666667       0.66666667       0.07063526 </v>
    <v>       0.66666667       0.16666667       0.07063526 </v>
    <v>       0.66666667       0.66666667       0.07063526 </v>
    <v>       0.33333333       0.33333333       0.13847021 </v>
    <v>       0.33333333       0.83333333       0.13847021 </v>
    <v>       0.83333333       0.33333333       0.13847021 </v>
    <v>       0.83333333       0.83333333       0.13847021 </v>
    <v>       0.00000000       0.00000000       0.20667428 </v>
    <v>       1.00000000       0.50000000       0.20667428 </v>
    <v>       0.50000000       0.00000000       0.20667428 </v>
    <v>       0.50000000       0.50000000       0.20667428 </v>
    <v>       0.16666667       0.16666667       0.27488859 </v>
    <v>       0.16666667       0.66666667       0.27488859 </v>
    <v>       0.66666667       0.16666667       0.27488859 </v>
    <v>       0.66666667       0.66666667       0.27488859 </v>
    <v>       0.33333333       0.33333333       0.34319917 </v>
    <v>       0.33333333       0.83333333       0.34319917 </v>
    <v>       0.83333333       0.33333333       0.34319917 </v>
    <v>       0.83333333       0.83333333       0.34319917 </v>
    <v>       0.00000000       0.00000000       0.41105828 </v>
    <v>       1.00000000       0.50000000       0.41105828 </v>
    <v>       0.50000000       0.00000000       0.41105828 </v>
    <v>       0.50000000       0.50000000       0.41105828 </v>
    <v>       0.16666667       0.16666667       0.48054462 </v>
    <v>       0.16666667       0.66666667       0.48054462 </v>
    <v>       0.66666667       0.16666667       0.48054462 </v>
    <v>       0.66666667       0.66666667       0.48054462 </v>
    <v>       0.00000000       0.50000000       0.53425930 </v>
    <v>       0.94067448       0.61865104       0.55203798 </v>
   </varray>
  </structure>
  <varray name="primitive_index" >
   <v type="int" >        1 </v>
   <v type="int" >        2 </v>
   <v type="int" >        3 </v>
   <v type="int" >        4 </v>
   <v type="int" >        5 </v>
   <v type="int" >        6 </v>
   <v type="int" >        7 </v>
   <v type="int" >        8 </v>
   <v type="int" >        9 </v>
   <v type="int" >       10 </v>
   <v type="int" >       11 </v>
   <v type="int" >       12 </v>
   <v type="int" >       13 </v>
   <v type="int" >       14 </v>
   <v type="int" >       15 </v>
   <v type="int" >       16 </v>
   <v type="int" >       17 </v>
   <v type="int" >       18 </v>
   <v type="int" >       19 </v>
   <v type="int" >       20 </v>
   <v type="int" >       21 </v>
   <v type="int" >       22 </v>
   <v type="int" >       23 </v>
   <v type="int" >       24 </v>
   <v type="int" >       25 </v>
   <v type="int" >       26 </v>
   <v type="int" >       27 </v>
   <v type="int" >       28 </v>
   <v type="int" >       29 </v>
   <v type="int" >       30 </v>
   <v type="int" >       31 </v>
   <v type="int" >       32 </v>
   <v type="int" >       33 </v>
   <v type="int" >       34 </v>
  </varray>
 </primitive_cell>
 <kpoints>
  <generation param="Monkhorst-Pack">
   <v type="int" name="divisions">       3        3        1 </v>
   <v name="usershift">      0.00000000       0.00000000       0.00000000 </v>
   <v name="genvec1">      0.33333333       0.00000000       0.00000000 </v>
   <v name="genvec2">      0.00000000       0.33333333       0.00000000 </v>
   <v name="genvec3">      0.00000000       0.00000000       1.00000000 </v>
   <v name="shift">      0.00000000       0.00000000       0.00000000 </v>
  </generation>
  <varray name="kpointlist" >
   <v>       0.00000000       0.00000000       0.00000000 </v>
   <v>       0.33333333       0.00000000       0.00000000 </v>
   <v>       0.00000000       0.33333333       0.00000000 </v>
   <v>      -0.33333333       0.33333333       0.00000000 </v>
  </varray>
  <varray name="weights" >
   <v>       0.11111111 </v>
   <v>       0.44444444 </v>
   <v>       0.22222222 </v>
   <v>       0.22222222 </v>
  </varray>
 </kpoints>
 <parameters>
  <separator name="general" >
   <i type="string" name="SYSTEM">unknown system</i>
   <i type="logical" name="LCOMPAT"> F  </i>
  </separator>
  <separator name="electronic" >
   <i type="string" name="PREC">normal</i>
   <i name="ENMAX">    400.00000000</i>
   <i name="ENAUG">    586.98000000</i>
   <i name="EDIFF">      0.00020000</i>
   <i type="int" name="IALGO">    38</i>
   <i type="int" name="IWAVPR">    11</i>
   <i type="int" name="NBANDS">   232</i>
   <i type="int" name="NBANDSLOW">    -1</i>
   <i type="int" name="NBANDSHIGH">    -1</i>
   <i name="NELECT">    354.00000000</i>
   <i type="int" name="TURBO">     0</i>
   <i type="int" name="IRESTART">     0</i>
   <i type="int" name="NREBOOT">     0</i>
   <i type="int" name="NMIN">     0</i>
   <i name="EREF">      0.00000000</i>
   <separator name="electronic smearing" >
    <i type="int" name="ISMEAR">     1</i>
    <i name="SIGMA">      0.20000000</i>
    <i name="KSPACING">      0.50000000</i>
    <i type="logical" name="KGAMMA"> T  </i>
    <i type="logical" name="KBLOWUP"> T  </i>
   </separator>
   <separator name="electronic projectors" >
    <i type="logical" name="LREAL"> F  </i>
    <v name="ROPT">      0.00000000      0.00000000</v>
    <i type="int" name="LMAXPAW">  -100</i>
    <i type="int" name="LMAXMIX">     2</i>
    <i type="logical" name="NLSPLINE"> F  </i>
   </separator>
   <separator name="electronic startup" >
    <i type="int" name="ISTART">     0</i>
    <i type="int" name="ICHARG">     2</i>
    <i type="int" name="INIWAV">     1</i>
   </separator>
   <separator name="electronic spin" >
    <i type="int" name="ISPIN">     2</i>
    <i type="logical" name="LNONCOLLINEAR"> F  </i>
    <v name="MAGMOM">      1.00000000      1.00000000      1.00000000      1.00000000      1.00000000      1.00000000      1.00000000      1.00000000      1.00000000      1.00000000      1.00000000      1.00000000      1.00000000      1.00000000      1.00000000      1.00000000      1.00000000      1.00000000      1.00000000      1.00000000
      1.00000000      1.00000000      1.00000000      1.00000000      1.00000000      1.00000000      1.00000000      1.00000000      1.00000000      1.00000000      1.00000000      1.00000000      1.00000000      1.00000000</v>
    <i name="NUPDOWN">     -1.00000000</i>
    <i type="logical" name="LSORBIT"> F  </i>
    <v name="SAXIS">      0.00000000      0.00000000      1.00000000</v>
    <i type="logical" name="LSPIRAL"> F  </i>
    <v name="QSPIRAL">      0.00000000      0.00000000      0.00000000</v>
    <i type="logical" name="LZEROZ"> F  </i>
   </separator>
   <separator name="electronic exchange-correlation" >
    <i type="logical" name="LASPH"> F  </i>
    <i type="logical" name="LMETAGGA"> F  </i>
   </separator>
   <separator name="electronic convergence" >
    <i type="int" name="NELM">    60</i>
    <i type="int" name="NELMDL">    -5</i>
    <i type="int" name="NELMIN">     2</i>
    <i name="ENINI">    400.00000000</i>
    <separator name="electronic convergence detail" >
     <i type="logical" name="LDIAG"> T  </i>
     <i type="logical" name="LSUBROT"> F  </i>
     <i name="WEIMIN">      0.00100000</i>
     <i name="EBREAK">      0.00000022</i>
     <i name="DEPER">      0.30000000</i>
     <i type="int" name="NRMM">     4</i>
     <i name="TIME">      0.40000000</i>
    </separator>
   </separator>
   <separator name="electronic mixer" >
    <i name="AMIX">      0.40000000</i>
    <i name="BMIX">      1.00000000</i>
    <i name="AMIN">      0.10000000</i>
    <i name="AMIX_MAG">      1.60000000</i>
    <i name="BMIX_MAG">      1.00000000</i>
    <separator name="electronic mixer details" >
     <i type="int" name="IMIX">     4</i>
     <i type="logical" name="MIXFIRST"> F  </i>
     <i type="int" name="MAXMIX">   -45</i>
     <i name="WC">    100.00000000</i>
     <i type="int" name="INIMIX">     1</i>
     <i type="int" name="MIXPRE">     1</i>
     <i type="int" name="MREMOVE">     5</i>
    </separator>
   </separator>
   <separator name="electronic dipolcorrection" >
    <i type="logical" name="LDIPOL"> F  </i>
    <i type="logical" name="LMONO"> F  </i>
    <i type="int" name="IDIPOL">     0</i>
    <i name="EPSILON">      1.00000000</i>
    <v name="DIPOL">   -100.00000000   -100.00000000   -100.00000000</v>
    <i name="EFIELD">      0.00000000</i>
   </separator>
  </separator>
  <separator name="grids" >
   <i type="int" name="NGX">    28</i>
   <i type="int" name="NGY">    28</i>
   <i type="int" name="NGZ">   150</i>
   <i type="int" name="NGXF">    56</i>
   <i type="int" name="NGYF">    56</i>
   <i type="int" name="NGZF">   300</i>
   <i type="logical" name="ADDGRID"> F  </i>
  </separator>
  <separator name="ionic" >
   <i type="int" name="NSW">   800</i>
   <i type="int" name="IBRION">     2</i>
   <i type="int" name="MDALGO">     0</i>
   <i type="int" name="ISIF">     2</i>
   <i name="PSTRESS">      0.00000000</i>
   <i name="EDIFFG">     -0.03000000</i>
   <i type="int" name="NFREE">     1</i>
   <i name="POTIM">      0.50000000</i>
   <i name="SMASS">     -3.00000000</i>
   <i name="SCALEE">      1.00000000</i>
  </separator>
  <separator name="ionic md" >
   <i name="TEBEG">      0.00010000</i>
   <i name="TEEND">      0.00010000</i>
   <i type="int" name="NBLOCK">     1</i>
   <i type="int" name="KBLOCK">   800</i>
   <i type="int" name="NPACO">   256</i>
   <i name="APACO">     10.00000000</i>
  </separator>
  <separator name="symmetry" >
   <i type="int" name="ISYM">     1</i>
   <i name="SYMPREC">      0.00001000</i>
  </separator>
  <separator name="dos" >
   <i type="int" name="LORBIT">     0</i>
   <v name="RWIGS">     -1.00000000     -1.00000000</v>
   <i type="int" name="NEDOS">   301</i>
   <i name="EMIN">     10.00000000</i>
   <i name="EMAX">    -10.00000000</i>
   <i name="EFERMI">      0.00000000</i>
  </separator>
  <separator name="writing" >
   <i type="int" name="NWRITE">     2</i>
   <i type="logical" name="LWAVE"> F  </i>
   <i type="logical" name="LDOWNSAMPLE"> F  </i>
   <i type="logical" name="LCHARG"> F  </i>
   <i type="logical" name="LPARD"> F  </i>
   <i type="logical" name="LVTOT"> F  </i>
   <i type="logical" name="LVHAR"> F  </i>
   <i type="logical" name="LELF"> F  </i>
   <i type="logical" name="LOPTICS"> F  </i>
   <v name="STM">      0.00000000      0.00000000      0.00000000      0.00000000      0.00000000      0.00000000      0.00000000</v>
  </separator>
  <separator name="performance" >
   <i type="int" name="NPAR">     4</i>
   <i type="int" name="NSIM">     4</i>
   <i type="int" name="NBLK">    -1</i>
   <i type="logical" name="LPLANE"> T  </i>
   <i type="logical" name="LSCALAPACK"> T  </i>
   <i type="logical" name="LSCAAWARE"> F  </i>
   <i type="logical" name="LSCALU"> F  </i>
   <i type="logical" name="LASYNC"> F  </i>
   <i type="logical" name="LORBITALREAL"> F  </i>
  </separator>
  <separator name="miscellaneous" >
   <i type="int" name="IDIOT">     3</i>
   <i type="int" name="PHON_NSTRUCT">    -1</i>
   <i type="logical" name="LMUSIC"> F  </i>
   <v name="POMASS">     63.54600000      1.00000000</v>
   <v name="DARWINR">      0.00000000      0.00000000</v>
   <v name="DARWINV">      1.00000000      1.00000000</v>
   <i type="logical" name="LCORR"> T  </i>
  </separator>
  <i type="logical" name="GGA_COMPAT"> T  </i>
  <i type="logical" name="LBERRY"> F  </i>
  <i type="int" name="ICORELEVEL">     0</i>
  <i type="logical" name="LDAU"> F  </i>
  <i type="int" name="I_CONSTRAINED_M">     0</i>
  <separator name="electronic exchange-correlation" >
   <i type="string" name="GGA">PE</i>
   <i type="int" name="VOSKOWN">     0</i>
   <i type="logical" name="LHFCALC"> F  </i>
   <i type="string" name="PRECFOCK"></i>
   <i type="logical" name="LSYMGRAD"> F  </i>
   <i type="logical" name="LHFONE"> F  </i>
   <i type="logical" name="LRHFCALC"> F  </i>
   <i type="logical" name="LTHOMAS"> F  </i>
   <i type="logical" name="LMODELHF"> F  </i>
   <i type="logical" name="LFOCKACE"> F  </i>
   <i name="ENCUT4O">     -1.00000000</i>
   <i type="int" name="EXXOEP">     0</i>
   <i type="int" name="FOURORBIT">     0</i>
   <i name="AEXX">      0.00000000</i>
   <i name="HFALPHA">      0.00000000</i>
   <i name="MCALPHA">      0.00000000</i>
   <i name="ALDAX">      1.00000000</i>
   <i name="AGGAX">      1.00000000</i>
   <i name="ALDAC">      1.00000000</i>
   <i name="AGGAC">      1.00000000</i>
   <i type="int" name="NKREDX">     1</i>
   <i type="int" name="NKREDY">     1</i>
   <i type="int" name="NKREDZ">     1</i>
   <i type="logical" name="SHIFTRED"> F  </i>
   <i type="logical" name="ODDONLY"> F  </i>
   <i type="logical" name="EVENONLY"> F  </i>
   <i type="int" name="LMAXFOCK">     0</i>
   <i type="int" name="NMAXFOCKAE">     0</i>
   <i type="logical" name="LFOCKAEDFT"> F  </i>
   <i name="HFSCREEN">      0.00000000</i>
   <i name="HFSCREENC">      0.00000000</i>
   <i type="int" name="NBANDSGWLOW">     0</i>
  </separator>
  <separator name="vdW DFT" >
   <i type="logical" name="LUSE_VDW"> F  </i>
   <i name="Zab_VDW">     -0.84910000</i>
   <i name="PARAM1">      0.12340000</i>
   <i name="PARAM2">      1.00000000</i>
   <i name="PARAM3">      0.00000000</i>
  </separator>
  <separator name="model GW" >
   <i type="int" name="MODEL_GW">     0</i>
   <i name="MODEL_EPS0">     11.95007673</i>
   <i name="MODEL_ALPHA">      1.00000000</i>
  </separator>
  <separator name="linear response parameters" >
   <i type="logical" name="LEPSILON"> F  </i>
   <i type="logical" name="LRPA"> F  </i>
   <i type="logical" name="LNABLA"> F  </i>
   <i type="logical" name="LVEL"> F  </i>
   <i name="CSHIFT">      0.10000000</i>
   <i name="OMEGAMAX">     -1.00000000</i>
   <i name="DEG_THRESHOLD">      0.00200000</i>
   <i name="RTIME">     -0.10000000</i>
   <i name="WPLASMAI">      0.00000000</i>
   <v name="DFIELD">      0.00000000      0.00000000      0.00000000</v>
   <v name="WPLASMA">      0.00000000      0.00000000      0.00000000      0.00000000      0.00000000      0.00000000      0.00000000      0.00000000      0.00000000</v>
  </separator>
  <separator name="orbital magnetization" >
   <i type="logical" name="NUCIND"> F  </i>
   <v name="MAGPOS">      0.00000000      0.00000000      0.00000000</v>
   <i type="logical" name="LNICSALL"> T  </i>
   <i type="logical" name="ORBITALMAG"> F  </i>
   <i type="logical" name="LMAGBLOCH"> F  </i>
   <i type="logical" name="LCHIMAG"> F  </i>
   <i type="logical" name="LGAUGE"> T  </i>
   <i type="int" name="MAGATOM">     0</i>
   <v name="MAGDIPOL">      0.00000000      0.00000000      0.00000000</v>
   <v name="AVECCONST">      0.00000000      0.00000000      0.00000000</v>
  </separator>
  <separator name="response functions" >
   <i type="logical" name="LFINITE_TEMPERATURE"> F  </i>
   <i type="logical" name="LADDER"> F  </i>
   <i type="logical" name="LRPAFORCE"> F  </i>
   <i type="logical" name="LFXC"> F  </i>
   <i type="logical" name="LHARTREE"> T  </i>
   <i type="int" name="IBSE">     0</i>
   <v type="int" name="KPOINT">    -1     0     0     0</v>
   <i type="logical" name="LTCTC"> F  </i>
   <i type="logical" name="LTCTE"> F  </i>
   <i type="logical" name="LTETE"> F  </i>
   <i type="logical" name="LTRIPLET"> F  </i>
   <i type="logical" name="LFXCEPS"> F  </i>
   <i type="logical" name="LFXHEG"> F  </i>
   <i type="int" name="NATURALO">     2</i>
   <i type="logical" name="LHOLEGF"> F  </i>
   <i type="logical" name="L2ORDER"> F  </i>
   <i type="logical" name="LDMP1"> F  </i>
   <i type="logical" name="LMP2LT"> F  </i>
   <i type="logical" name="LSMP2LT"> F  </i>
   <i type="logical" name="LGWLF"> F  </i>
   <i name="ENCUTGW">     -2.00000000</i>
   <i name="ENCUTGWSOFT">     -2.00000000</i>
   <i name="ENCUTLF">     -1.00000000</i>
   <i type="logical" name="LESF_SPLINES"> F  </i>
   <i type="int" name="LMAXMP2">    -1</i>
   <i name="SCISSOR">      0.00000000</i>
   <i type="int" name="NOMEGA">     0</i>
   <i type="int" name="NOMEGAR">     0</i>
   <i type="int" name="NBANDSGW">    -1</i>
   <i type="int" name="NBANDSO">    -1</i>
   <i type="int" name="NBANDSV">    -1</i>
   <i type="int" name="NELMGW">     1</i>
   <i type="int" name="NELMHF">     1</i>
   <i type="int" name="DIM">     3</i>
   <i type="int" name="IESPILON">     4</i>
   <i type="int" name="ANTIRES">     0</i>
   <i name="OMEGAMAX">    -30.00000000</i>
   <i name="OMEGAMIN">    -30.00000000</i>
   <i name="OMEGATL">   -200.00000000</i>
   <i type="int" name="OMEGAGRID">     0</i>
   <i name="CSHIFT">     -0.10000000</i>
   <i type="logical" name="LSELFENERGY"> F  </i>
   <i type="logical" name="LSPECTRAL"> F  </i>
   <i type="logical" name="LSPECTRALGW"> F  </i>
   <i type="logical" name="LSINGLES"> F  </i>
   <i type="logical" name="LFERMIGW"> F  </i>
   <i type="logical" name="ODDONLYGW"> F  </i>
   <i type="logical" name="EVENONLYGW"> F  </i>
   <i type="int" name="NKREDLFX">     1</i>
   <i type="int" name="NKREDLFY">     1</i>
   <i type="int" name="NKREDLFZ">     1</i>
   <i type="int" name="MAXMEM">  2800</i>
   <i type="int" name="TELESCOPE">     0</i>
   <i type="int" name="NTAUPAR">    -1</i>
   <i type="int" name="NOMEGAPAR">    -1</i>
   <i name="DAMP_NEWTON">      0.80000001</i>
   <i name="LAMBDA">      1.00000000</i>
  </separator>
  <separator name="External order field" >
   <i name="OFIELD_KAPPA">      0.00000000</i>
   <v name="OFIELD_K">      0.00000000      0.00000000      0.00000000</v>
   <i name="OFIELD_Q6_NEAR">      0.00000000</i>
   <i name="OFIELD_Q6_FAR">      0.00000000</i>
   <i name="OFIELD_A">      0.00000000</i>
  </separator>
  <separator name="optional k-points parameters" >
   <i type="int" name="KPOINTS_OPT_MODE">     1</i>
   <i type="logical" name="LKPOINTS_OPT"> F  </i>
  </separator>
 </parameters>
 <atominfo>
  <atoms>      34 </atoms>
  <types>       2 </types>
  <array name="atoms" >
   <dimension dim="1">ion</dimension>
   <field type="string">element</field>
   <field type="int">atomtype</field>
   <set>
    <rc><c>Cu</c><c>   1</c></rc>
    <rc><c>Cu</c><c>   1</c></rc>
    <rc><c>Cu</c><c>   1</c></rc>
    <rc><c>Cu</c><c>   1</c></rc>
    <rc><c>Cu</c><c>   1</c></rc>
    <rc><c>Cu</c><c>   1</c></rc>
    <rc><c>Cu</c><c>   1</c></rc>
    <rc><c>Cu</c><c>   1</c></rc>
    <rc><c>Cu</c><c>   1</c></rc>
    <rc><c>Cu</c><c>   1</c></rc>
    <rc><c>Cu</c><c>   1</c></rc>
    <rc><c>Cu</c><c>   1</c></rc>
    <rc><c>Cu</c><c>   1</c></rc>
    <rc><c>Cu</c><c>   1</c></rc>
    <rc><c>Cu</c><c>   1</c></rc>
    <rc><c>Cu</c><c>   1</c></rc>
    <rc><c>Cu</c><c>   1</c></rc>
    <rc><c>Cu</c><c>   1</c></rc>
    <rc><c>Cu</c><c>   1</c></rc>
    <rc><c>Cu</c><c>   1</c></rc>
    <rc><c>Cu</c><c>   1</c></rc>
    <rc><c>Cu</c><c>   1</c></rc>
    <rc><c>Cu</c><c>   1</c></rc>
    <rc><c>Cu</c><c>   1</c></rc>
    <rc><c>Cu</c><c>   1</c></rc>
    <rc><c>Cu</c><c>   1</c></rc>
    <rc><c>Cu</c><c>   1</c></rc>
    <rc><c>Cu</c><c>   1</c></rc>
    <rc><c>Cu</c><c>   1</c></rc>
    <rc><c>Cu</c><c>   1</c></rc>
    <rc><c>Cu</c><c>   1</c></rc>
    <rc><c>Cu</c><c>   1</c></rc>
    <rc><c>H </c><c>   2</c></rc>
    <rc><c>H </c><c>   2</c></rc>
   </set>
  </array>
  <array name="atomtypes" >
   <dimension dim="1">type</dimension>
   <field type="int">atomspertype</field>
   <field type="string">element</field>
   <field>mass</field>
   <field>valence</field>
   <field type="string">pseudopotential</field>
   <set>
    <rc><c>  32</c><c>Cu</c><c>     63.54600000</c><c>     11.00000000</c><c>  PAW_PBE Cu 22Jun2005                  </c></rc>
    <rc><c>   2</c><c>H </c><c>      1.00000000</c><c>      1.00000000</c><c>  PAW_PBE H 15Jun2001                   </c></rc>
   </set>
  </array>
 </atominfo>
 <structure name="initialpos" >
  <crystal>
   <varray name="basis" >
    <v>       5.13359547       0.00000000       0.00000000 </v>
    <v>       2.56679773       4.44582409       0.00000000 </v>
    <v>       0.00000000       0.00000000      29.67047119 </v>
   </varray>
   <i name="volume">    677.17101477 </i>
   <varray name="rec_basis" >
    <v>       0.19479525      -0.11246509       0.00000000 </v>
    <v>       0.00000000       0.22493018       0.00000000 </v>
    <v>       0.00000000       0.00000000       0.03370354 </v>
   </varray>
  </crystal>
  <varray name="positions" >
   <v>       0.00000000       0.00000000       0.00000000 </v>
   <v>       1.00000000       0.50000000       0.00000000 </v>
   <v>       0.50000000       0.00000000       0.00000000 </v>
   <v>       0.50000000       0.50000000       0.00000000 </v>
   <v>       0.16666667       0.16666667       0.07063526 </v>
   <v>       0.16666667       0.66666667       0.07063526 </v>
   <v>       0.66666667       0.16666667       0.07063526 </v>
   <v>       0.66666667       0.66666667       0.07063526 </v>
   <v>       0.33333333       0.33333333       0.13847021 </v>
   <v>       0.33333333       0.83333333       0.13847021 </v>
   <v>       0.83333333       0.33333333       0.13847021 </v>
   <v>       0.83333333       0.83333333       0.13847021 </v>
   <v>       0.00000000       0.00000000       0.20667428 </v>
   <v>       1.00000000       0.50000000       0.20667428 </v>
   <v>       0.50000000       0.00000000       0.20667428 </v>
   <v>       0.50000000       0.50000000       0.20667428 </v>
   <v>       0.16666667       0.16666667       0.27488859 </v>
   <v>       0.16666667       0.66666667       0.27488859 </v>
   <v>       0.66666667       0.16666667       0.27488859 </v>
   <v>       0.66666667       0.66666667       0.27488859 </v>
   <v>       0.33333333       0.33333333       0.34319917 </v>
   <v>       0.33333333       0.83333333       0.34319917 </v>
   <v>       0.83333333       0.33333333       0.34319917 </v>
   <v>       0.83333333       0.83333333       0.34319917 </v>
   <v>       0.00000000       0.00000000       0.41105828 </v>
   <v>       1.00000000       0.50000000       0.41105828 </v>
   <v>       0.50000000       0.00000000       0.41105828 </v>
   <v>       0.50000000       0.50000000       0.41105828 </v>
   <v>       0.16666667       0.16666667       0.48054462 </v>
   <v>       0.16666667       0.66666667       0.48054462 </v>
   <v>       0.66666667       0.16666667       0.48054462 </v>
   <v>       0.66666667       0.66666667       0.48054462 </v>
   <v>       0.00000000       0.50000000       0.53425930 </v>
   <v>       0.94067448       0.61865104       0.55203798 </v>
  </varray>
 </structure>
 <calculation>
  <scstep>
   <time name="dav">    6.10    6.15</time>
   <time name="total">    6.18    6.24</time>
   <energy>
    <i name="alphaZ">   1114.72537883 </i>
    <i name="ewald"> 216277.83156730 </i>
    <i name="hartreedc">-260309.40855853 </i>
    <i name="XCdc">   1471.93523389 </i>
    <i name="pawpsdc">  39302.70853331 </i>
    <i name="pawaedc"> -42689.07521165 </i>
    <i name="eentropy">     -0.01054753 </i>
    <i name="bandstr">   3743.70849188 </i>
    <i name="atom">  44535.60175172 </i>
    <i name="e_fr_energy">   3448.01663922 </i>
    <i name="e_wo_entrp">   3448.02718676 </i>
    <i name="e_0_energy">   3448.02015507 </i>
   </energy>
  </scstep>
  <scstep>
   <time name="dav">    6.01    6.06</time>
   <time name="total">    6.02    6.07</time>
   <energy>
    <i name="e_fr_energy">    486.36919325 </i>
    <i name="e_wo_entrp">    486.38098311 </i>
    <i name="e_0_energy">    486.37312320 </i>
   </energy>
  </scstep>
  <scstep>
   <time name="dav">    6.03    6.08</time>
   <time name="total">    6.03    6.08</time>
   <energy>
    <i name="e_fr_energy">    -92.37289899 </i>
    <i name="e_wo_entrp">    -92.37806349 </i>
    <i name="e_0_energy">    -92.37462049 </i>
   </energy>
  </scstep>
  <scstep>
   <time name="dav">    6.48    6.53</time>
   <time name="total">    6.48    6.53</time>
   <energy>
    <i name="e_fr_energy">   -138.03343245 </i>
    <i name="e_wo_entrp">   -138.05936128 </i>
    <i name="e_0_energy">   -138.04207539 </i>
   </energy>
  </scstep>
  <scstep>
   <time name="dav">    6.47    6.53</time>
   <time name="total">    6.87    6.93</time>
   <energy>
    <i name="e_fr_energy">   -139.13810670 </i>
    <i name="e_wo_entrp">   -139.16584905 </i>
    <i name="e_0_energy">   -139.14735415 </i>
   </energy>
  </scstep>
  <scstep>
   <time name="dav">    6.60    6.66</time>
   <time name="total">    7.07    7.13</time>
   <energy>
    <i name="e_fr_energy">   -115.15896019 </i>
    <i name="e_wo_entrp">   -115.11538855 </i>
    <i name="e_0_energy">   -115.14443631 </i>
   </energy>
  </scstep>
  <scstep>
   <time name="dav">    6.72    6.78</time>
   <time name="total">    7.19    7.24</time>
   <energy>
    <i name="e_fr_energy">   -102.83753396 </i>
    <i name="e_wo_entrp">   -102.82498418 </i>
    <i name="e_0_energy">   -102.83335070 </i>
   </energy>
  </scstep>
  <scstep>
   <time name="dav">    7.34    7.40</time>
   <time name="total">    7.80    7.86</time>
   <energy>
    <i name="e_fr_energy">   -108.94238769 </i>
    <i name="e_wo_entrp">   -108.98196987 </i>
    <i name="e_0_energy">   -108.95558175 </i>
   </energy>
  </scstep>
  <scstep>
   <time name="dav">    7.90    7.96</time>
   <time name="total">    8.35    8.42</time>
   <energy>
    <i name="e_fr_energy">    -99.25341896 </i>
    <i name="e_wo_entrp">    -99.20143999 </i>
    <i name="e_0_energy">    -99.23609264 </i>
   </energy>
  </scstep>
  <scstep>
   <time name="dav">    7.64    7.70</time>
   <time name="total">    8.08    8.15</time>
   <energy>
    <i name="e_fr_energy">   -100.24084766 </i>
    <i name="e_wo_entrp">   -100.27047608 </i>
    <i name="e_0_energy">   -100.25072380 </i>
   </energy>
  </scstep>
  <scstep>
   <time name="dav">    7.24    7.30</time>
   <time name="total">    7.70    7.76</time>
   <energy>
    <i name="e_fr_energy">   -102.45333907 </i>
    <i name="e_wo_entrp">   -102.52022855 </i>
    <i name="e_0_energy">   -102.47563556 </i>
   </energy>
  </scstep>
  <scstep>
   <time name="dav">    7.02    7.08</time>
   <time name="total">    7.48    7.54</time>
   <energy>
    <i name="e_fr_energy">   -101.29313187 </i>
    <i name="e_wo_entrp">   -101.31495572 </i>
    <i name="e_0_energy">   -101.30040649 </i>
   </energy>
  </scstep>
  <scstep>
   <time name="dav">    8.65    8.73</time>
   <time name="total">    9.11    9.18</time>
   <energy>
    <i name="e_fr_energy">   -102.63025431 </i>
    <i name="e_wo_entrp">   -102.66931134 </i>
    <i name="e_0_energy">   -102.64327332 </i>
   </energy>
  </scstep>
  <scstep>
   <time name="dav">    8.31    8.38</time>
   <time name="total">    8.77    8.84</time>
   <energy>
    <i name="e_fr_energy">   -105.39349988 </i>
    <i name="e_wo_entrp">   -105.39847102 </i>
    <i name="e_0_energy">   -105.39515693 </i>
   </energy>
  </scstep>
  <scstep>
   <time name="dav">    7.56    7.62</time>
   <time name="total">    8.01    8.07</time>
   <energy>
    <i name="e_fr_energy">   -109.27955818 </i>
    <i name="e_wo_entrp">   -109.28466698 </i>
    <i name="e_0_energy">   -109.28126111 </i>
   </energy>
  </scstep>
  <scstep>
   <time name="dav">    7.07    7.13</time>
   <time name="total">    7.53    7.59</time>
   <energy>
    <i name="e_fr_energy">   -112.17957404 </i>
    <i name="e_wo_entrp">   -112.17622556 </i>
    <i name="e_0_energy">   -112.17845788 </i>
   </energy>
  </scstep>
  <scstep>
   <time name="dav">    7.27    7.33</time>
   <time name="total">    7.73    7.79</time>
   <energy>
    <i name="e_fr_energy">   -113.86808397 </i>
    <i name="e_wo_entrp">   -113.84874178 </i>
    <i name="e_0_energy">   -113.86163657 </i>
   </energy>
  </scstep>
  <scstep>
   <time name="dav">    6.85    6.90</time>
   <time name="total">    7.31    7.37</time>
   <energy>
    <i name="e_fr_energy">   -114.81439438 </i>
    <i name="e_wo_entrp">   -114.79376010 </i>
    <i name="e_0_energy">   -114.80751628 </i>
   </energy>
  </scstep>
  <scstep>
   <time name="dav">    6.80    6.86</time>
   <time name="total">    7.26    7.32</time>
   <energy>
    <i name="e_fr_energy">   -115.62612707 </i>
    <i name="e_wo_entrp">   -115.60099688 </i>
    <i name="e_0_energy">   -115.61775034 </i>
   </energy>
  </scstep>
  <scstep>
   <time name="dav">    7.36    7.42</time>
   <time name="total">    7.81    7.87</time>
   <energy>
    <i name="e_fr_energy">   -116.46253757 </i>
    <i name="e_wo_entrp">   -116.43646548 </i>
    <i name="e_0_energy">   -116.45384687 </i>
   </energy>
  </scstep>
  <scstep>
   <time name="dav">    7.66    7.72</time>
   <time name="total">    8.11    8.17</time>
   <energy>
    <i name="e_fr_energy">   -117.33468780 </i>
    <i name="e_wo_entrp">   -117.31573580 </i>
    <i name="e_0_energy">   -117.32837047 </i>
   </energy>
  </scstep>
  <scstep>
   <time name="dav">    7.39    7.45</time>
   <time name="total">    7.83    7.90</time>
   <energy>
    <i name="e_fr_energy">   -117.64058989 </i>
    <i name="e_wo_entrp">   -117.61954572 </i>
    <i name="e_0_energy">   -117.63357517 </i>
   </energy>
  </scstep>
  <scstep>
   <time name="dav">    7.17    7.23</time>
   <time name="total">    7.62    7.68</time>
   <energy>
    <i name="e_fr_energy">   -118.10000356 </i>
    <i name="e_wo_entrp">   -118.08619626 </i>
    <i name="e_0_energy">   -118.09540113 </i>
   </energy>
  </scstep>
  <scstep>
   <time name="dav">    7.03    7.09</time>
   <time name="total">    7.48    7.54</time>
   <energy>
    <i name="e_fr_energy">   -118.68895882 </i>
    <i name="e_wo_entrp">   -118.67467115 </i>
    <i name="e_0_energy">   -118.68419627 </i>
   </energy>
  </scstep>
  <scstep>
   <time name="dav">    7.51    7.57</time>
   <time name="total">    7.96    8.02</time>
   <energy>
    <i name="e_fr_energy">   -119.75500999 </i>
    <i name="e_wo_entrp">   -119.74233037 </i>
    <i name="e_0_energy">   -119.75078345 </i>
   </energy>
  </scstep>
  <scstep>
   <time name="dav">    6.95    7.01</time>
   <time name="total">    7.40    7.47</time>
   <energy>
    <i name="e_fr_energy">   -120.48137356 </i>
    <i name="e_wo_entrp">   -120.46865681 </i>
    <i name="e_0_energy">   -120.47713464 </i>
   </energy>
  </scstep>
  <scstep>
   <time name="dav">    6.47    6.52</time>
   <time name="total">    6.91    6.98</time>
   <energy>
    <i name="e_fr_energy">   -120.71628151 </i>
    <i name="e_wo_entrp">   -120.70378135 </i>
    <i name="e_0_energy">   -120.71211479 </i>
   </energy>
  </scstep>
  <scstep>
   <time name="dav">    6.51    6.57</time>
   <time name="total">    6.96    7.02</time>
   <energy>
    <i name="e_fr_energy">   -120.76687506 </i>
    <i name="e_wo_entrp">   -120.75392787 </i>
    <i name="e_0_energy">   -120.76255933 </i>
   </energy>
  </scstep>
  <scstep>
   <time name="dav">    6.48    6.53</time>
   <time name="total">    6.91    6.97</time>
   <energy>
    <i name="e_fr_energy">   -120.77510200 </i>
    <i name="e_wo_entrp">   -120.76326709 </i>
    <i name="e_0_energy">   -120.77115703 </i>
   </energy>
  </scstep>
  <scstep>
   <time name="dav">    6.16    6.21</time>
   <time name="total">    6.61    6.66</time>
   <energy>
    <i name="e_fr_energy">   -120.78207112 </i>
    <i name="e_wo_entrp">   -120.77025425 </i>
    <i name="e_0_energy">   -120.77813216 </i>
   </energy>
  </scstep>
  <scstep>
   <time name="dav">    5.31    5.35</time>
   <time name="total">    5.76    5.81</time>
   <energy>
    <i name="e_fr_energy">   -120.78647939 </i>
    <i name="e_wo_entrp">   -120.77438344 </i>
    <i name="e_0_energy">   -120.78244741 </i>
   </energy>
  </scstep>
  <scstep>
   <time name="dav">    4.57    4.61</time>
   <time name="total">    5.03    5.07</time>
   <energy>
    <i name="e_fr_energy">   -120.78602364 </i>
    <i name="e_wo_entrp">   -120.77400007 </i>
    <i name="e_0_energy">   -120.78201578 </i>
   </energy>
  </scstep>
  <scstep>
   <time name="dav">    4.56    4.60</time>
   <time name="total">    4.63    4.67</time>
   <energy>
    <i name="alphaZ">   1114.72537883 </i>
    <i name="ewald"> 216277.83156730 </i>
    <i name="hartreedc">-259808.79868283 </i>
    <i name="XCdc">   1433.80429199 </i>
    <i name="pawpsdc">  42127.71446501 </i>
    <i name="pawaedc"> -45579.52623695 </i>
    <i name="eentropy">     -0.01201259 </i>
    <i name="bandstr">   -222.12659737 </i>
    <i name="atom">  44535.60175172 </i>
    <i name="e_fr_energy">   -120.78607489 </i>
    <i name="e_wo_entrp">   -120.77406230 </i>
    <i name="e_0_energy">   -120.78207069 </i>
   </energy>
  </scstep>
  <structure>
   <crystal>
    <varray name="basis" >
     <v>       5.13359547       0.00000000       0.00000000 </v>
     <v>       2.56679773       4.44582409       0.00000000 </v>
     <v>       0.00000000       0.00000000      29.67047119 </v>
    </varray>
    <i name="volume">    677.17101477 </i>
    <varray name="rec_basis" >
     <v>       0.19479525      -0.11246509       0.00000000 </v>
     <v>       0.00000000       0.22493018       0.00000000 </v>
     <v>       0.00000000       0.00000000       0.03370354 </v>
    </varray>
   </crystal>
   <varray name="positions" >
    <v>       0.00000000       0.00000000       0.00000000 </v>
    <v>       1.00000000       0.50000000       0.00000000 </v>
    <v>       0.50000000       0.00000000       0.00000000 </v>
    <v>       0.50000000       0.50000000       0.00000000 </v>
    <v>       0.16666667       0.16666667       0.07063526 </v>
    <v>       0.16666667       0.66666667       0.07063526 </v>
    <v>       0.66666667       0.16666667       0.07063526 </v>
    <v>       0.66666667       0.66666667       0.07063526 </v>
    <v>       0.33333333       0.33333333       0.13847021 </v>
    <v>       0.33333333       0.83333333       0.13847021 </v>
    <v>       0.83333333       0.33333333       0.13847021 </v>
    <v>       0.83333333       0.83333333       0.13847021 </v>
    <v>       0.00000000       0.00000000       0.20667428 </v>
    <v>       1.00000000       0.50000000       0.20667428 </v>
    <v>       0.50000000       0.00000000       0.20667428 </v>
    <v>       0.50000000       0.50000000       0.20667428 </v>
    <v>       0.16666667       0.16666667       0.27488859 </v>
    <v>       0.16666667       0.66666667       0.27488859 </v>
    <v>       0.66666667       0.16666667       0.27488859 </v>
    <v>       0.66666667       0.66666667       0.27488859 </v>
    <v>       0.33333333       0.33333333       0.34319917 </v>
    <v>       0.33333333       0.83333333       0.34319917 </v>
    <v>       0.83333333       0.33333333       0.34319917 </v>
    <v>       0.83333333       0.83333333       0.34319917 </v>
    <v>       0.00000000       0.00000000       0.41105828 </v>
    <v>       1.00000000       0.50000000       0.41105828 </v>
    <v>       0.50000000       0.00000000       0.41105828 </v>
    <v>       0.50000000       0.50000000       0.41105828 </v>
    <v>       0.16666667       0.16666667       0.48054462 </v>
    <v>       0.16666667       0.66666667       0.48054462 </v>
    <v>       0.66666667       0.16666667       0.48054462 </v>
    <v>       0.66666667       0.66666667       0.48054462 </v>
    <v>       0.00000000       0.50000000       0.53425930 </v>
    <v>       0.94067448       0.61865104       0.55203798 </v>
   </varray>
  </structure>
  <varray name="forces" >
   <v>       0.01776941      -0.00378542       0.14457911 </v>
   <v>       0.00000000      -0.00455049       0.15736589 </v>
   <v>      -0.01776941      -0.00378542       0.14457911 </v>
   <v>       0.00000000       0.01371344       0.14070345 </v>
   <v>       0.00000000       0.00410922      -0.13226092 </v>
   <v>      -0.00137991      -0.00310050      -0.12556430 </v>
   <v>       0.00000000       0.00180087      -0.15406184 </v>
   <v>       0.00137991      -0.00310050      -0.12556430 </v>
   <v>       0.01114850      -0.01381108      -0.00972485 </v>
   <v>       0.00000000       0.00510527      -0.01236429 </v>
   <v>      -0.01114850      -0.01381108      -0.00972485 </v>
   <v>       0.00000000       0.02119426      -0.01933685 </v>
   <v>       0.00969919       0.00215051       0.00697637 </v>
   <v>       0.00000000      -0.00511635       0.02401118 </v>
   <v>      -0.00969919       0.00215051       0.00697637 </v>
   <v>       0.00000000      -0.00063123      -0.01181948 </v>
   <v>       0.00000000      -0.02615108      -0.00973755 </v>
   <v>       0.03382239       0.00576320       0.01593204 </v>
   <v>       0.00000000       0.01403814      -0.00231530 </v>
   <v>      -0.03382239       0.00576320       0.01593204 </v>
   <v>       0.02379856      -0.02565041       0.01755241 </v>
   <v>       0.00000000       0.00628000       0.04060166 </v>
   <v>      -0.02379856      -0.02565041       0.01755241 </v>
   <v>       0.00000000       0.04829595      -0.01630042 </v>
   <v>      -0.01833171      -0.00601542       0.08491896 </v>
   <v>       0.00000000       0.02233614      -0.00198068 </v>
   <v>       0.01833171      -0.00601542       0.08491896 </v>
   <v>       0.00000000      -0.00589127       0.09892362 </v>
   <v>       0.00000000      -0.31854788      -0.27074859 </v>
   <v>       0.24155218       0.09440257      -0.22003376 </v>
   <v>       0.00000000       0.06370241      -0.24009848 </v>
   <v>      -0.24155218       0.09440257      -0.22003376 </v>
   <v>       0.00000000      -0.73890728      -0.43663205 </v>
   <v>       0.00000000       0.79931302       1.01677869 </v>
  </varray>
  <varray name="stress" >
   <v>     -32.99337472       0.00000000       0.00000000 </v>
   <v>       0.00000000     -31.22729311       1.15201245 </v>
   <v>       0.00000000       1.15201817      -7.41678670 </v>
  </varray>
  <energy>
   <i name="e_fr_energy">   -134.79951810 </i>
   <i name="e_wo_entrp">   -134.78750550 </i>
   <i name="e_0_energy">   -134.79551390 </i>
  </energy>
  <time name="totalsc">  249.56  251.60</time>
 </calculation>
 <calculation>
  <scstep>
   <time name="dav">    6.12    6.18</time>
   <time name="total">    6.58    6.64</time>
   <energy>
    <i name="alphaZ">   1114.72537883 </i>
    <i name="ewald"> 216524.29373912 </i>
    <i name="hartreedc">-260055.32573743 </i>
    <i name="XCdc">   1433.79731756 </i>
    <i name="pawpsdc">  42127.92516250 </i>
    <i name="pawaedc"> -45579.80520540 </i>
    <i name="eentropy">     -0.01446479 </i>
    <i name="bandstr">   -221.95623595 </i>
    <i name="atom">  44535.60175172 </i>
    <i name="e_fr_energy">   -120.75829384 </i>
    <i name="e_wo_entrp">   -120.74382905 </i>
    <i name="e_0_energy">   -120.75347224 </i>
   </energy>
  </scstep>
  <scstep>
   <time name="dav">    7.90    7.97</time>
   <time name="total">    8.35    8.43</time>
   <energy>
    <i name="e_fr_energy">   -120.78051444 </i>
    <i name="e_wo_entrp">   -120.76622549 </i>
    <i name="e_0_energy">   -120.77575145 </i>
   </energy>
  </scstep>
  <scstep>
   <time name="dav">    7.00    7.06</time>
   <time name="total">    7.44    7.51</time>
   <energy>
    <i name="e_fr_energy">   -120.81820042 </i>
    <i name="e_wo_entrp">   -120.80284518 </i>
    <i name="e_0_energy">   -120.81308201 </i>
   </energy>
  </scstep>
  <scstep>
   <time name="dav">    7.07    7.13</time>
   <time name="total">    7.51    7.58</time>
   <energy>
    <i name="e_fr_energy">   -120.78241578 </i>
    <i name="e_wo_entrp">   -120.76915389 </i>
    <i name="e_0_energy">   -120.77799515 </i>
   </energy>
  </scstep>
  <scstep>
   <time name="dav">    9.11    9.19</time>
   <time name="total">    9.55    9.63</time>
   <energy>
    <i name="e_fr_energy">   -120.78174216 </i>
    <i name="e_wo_entrp">   -120.76681313 </i>
    <i name="e_0_energy">   -120.77676581 </i>
   </energy>
  </scstep>
  <scstep>
   <time name="dav">    8.54    8.62</time>
   <time name="total">    8.99    9.07</time>
   <energy>
    <i name="e_fr_energy">   -120.77899395 </i>
    <i name="e_wo_entrp">   -120.76562337 </i>
    <i name="e_0_energy">   -120.77453709 </i>
   </energy>
  </scstep>
  <scstep>
   <time name="dav">    8.59    8.66</time>
   <time name="total">    9.03    9.11</time>
   <energy>
    <i name="e_fr_energy">   -120.77685446 </i>
    <i name="e_wo_entrp">   -120.76280523 </i>
    <i name="e_0_energy">   -120.77217138 </i>
   </energy>
  </scstep>
  <scstep>
   <time name="dav">    6.57    6.63</time>
   <time name="total">    7.01    7.07</time>
   <energy>
    <i name="e_fr_energy">   -120.77689041 </i>
    <i name="e_wo_entrp">   -120.76273552 </i>
    <i name="e_0_energy">   -120.77217212 </i>
   </energy>
  </scstep>
  <scstep>
   <time name="dav">    5.94    5.99</time>
   <time name="total">    6.02    6.07</time>
   <energy>
    <i name="alphaZ">   1114.72537883 </i>
    <i name="ewald"> 216524.29373912 </i>
    <i name="hartreedc">-260050.16693691 </i>
    <i name="XCdc">   1433.64619064 </i>
    <i name="pawpsdc">  42132.07447877 </i>
    <i name="pawaedc"> -45584.11257468 </i>
    <i name="eentropy">     -0.01420622 </i>
    <i name="bandstr">   -226.82485407 </i>
    <i name="atom">  44535.60175172 </i>
    <i name="e_fr_energy">   -120.77703282 </i>
    <i name="e_wo_entrp">   -120.76282660 </i>
    <i name="e_0_energy">   -120.77229741 </i>
   </energy>
  </scstep>
  <structure>
   <crystal>
    <varray name="basis" >
     <v>       5.13359547       0.00000000       0.00000000 </v>
     <v>       2.56679773       4.44582409       0.00000000 </v>
     <v>       0.00000000       0.00000000      29.67047119 </v>
    </varray>
    <i name="volume">    677.17101477 </i>
    <varray name="rec_basis" >
     <v>       0.19479525      -0.11246509       0.00000000 </v>
     <v>       0.00000000       0.22493018       0.00000000 </v>
     <v>       0.00000000       0.00000000       0.03370354 </v>
    </varray>
   </crystal>
   <varray name="positions" >
    <v>       0.00018753      -0.00004108       0.00023508 </v>
    <v>       0.00002469       0.49995062       0.00025587 </v>
    <v>       0.49985355      -0.00004108       0.00023508 </v>
    <v>       0.49992560       0.50014881       0.00022878 </v>
    <v>       0.16664437       0.16671126       0.07042021 </v>
    <v>       0.16667052       0.66663302       0.07043110 </v>
    <v>       0.66665690       0.16668621       0.07038477 </v>
    <v>       0.66669646       0.66663302       0.07043110 </v>
    <v>       0.33351303       0.33318347       0.13845440 </v>
    <v>       0.33330563       0.83338873       0.13845011 </v>
    <v>       0.83330350       0.33318347       0.13845440 </v>
    <v>       0.83321834       0.83356332       0.13843877 </v>
    <v>       0.00007948       0.00002334       0.20668562 </v>
    <v>       0.00002776       0.49994448       0.20671332 </v>
    <v>       0.49989718       0.00002334       0.20668562 </v>
    <v>       0.50000342       0.49999315       0.20665506 </v>
    <v>       0.16680855       0.16638290       0.27487276 </v>
    <v>       0.16695324       0.66672920       0.27491449 </v>
    <v>       0.66659050       0.16681900       0.27488482 </v>
    <v>       0.66631755       0.66672920       0.27491449 </v>
    <v>       0.33369615       0.33305499       0.34322771 </v>
    <v>       0.33329926       0.83340148       0.34326519 </v>
    <v>       0.83324886       0.33305499       0.34322771 </v>
    <v>       0.83307130       0.83385740       0.34317267 </v>
    <v>      -0.00013963      -0.00006527       0.41119635 </v>
    <v>       0.99987881       0.50024237       0.41105506 </v>
    <v>       0.50020491      -0.00006527       0.41119635 </v>
    <v>       0.50003196       0.49993607       0.41121912 </v>
    <v>       0.16839498       0.16321003       0.48010440 </v>
    <v>       0.16842445       0.66769105       0.48018685 </v>
    <v>       0.66632104       0.16735792       0.48015423 </v>
    <v>       0.66388450       0.66769105       0.48018685 </v>
    <v>       0.00400903       0.49198195       0.53354936 </v>
    <v>       0.93633772       0.62732457       0.55369121 </v>
   </varray>
  </structure>
  <varray name="forces" >
   <v>       0.01145220      -0.00233531       0.08895767 </v>
   <v>      -0.00000000      -0.00222808       0.10153875 </v>
   <v>      -0.01145220      -0.00233531       0.08895767 </v>
   <v>      -0.00000000       0.00859133       0.08552381 </v>
   <v>      -0.00000000       0.00319542      -0.05559990 </v>
   <v>      -0.00138494      -0.00219857      -0.05047822 </v>
   <v>      -0.00000000       0.00118480      -0.07508759 </v>
   <v>       0.00138494      -0.00219857      -0.05047822 </v>
   <v>       0.00130669      -0.00584136      -0.03148643 </v>
   <v>      -0.00000000       0.00305838      -0.03425524 </v>
   <v>      -0.00130669      -0.00584136      -0.03148643 </v>
   <v>      -0.00000000       0.00807904      -0.03492382 </v>
   <v>       0.00405421      -0.00054843       0.00289910 </v>
   <v>      -0.00000000       0.00082226       0.01305209 </v>
   <v>      -0.00405421      -0.00054843       0.00289910 </v>
   <v>      -0.00000000      -0.00120935      -0.01076020 </v>
   <v>      -0.00000000      -0.01095337      -0.00058829 </v>
   <v>       0.01588838      -0.00004427       0.01356395 </v>
   <v>      -0.00000000       0.00957481      -0.01268576 </v>
   <v>      -0.01588838      -0.00004427       0.01356395 </v>
   <v>       0.00927905      -0.01328396       0.02621820 </v>
   <v>      -0.00000000       0.00190524       0.04577293 </v>
   <v>      -0.00927905      -0.01328396       0.02621820 </v>
   <v>      -0.00000000       0.02772263      -0.00094383 </v>
   <v>      -0.01778747      -0.00293559       0.00428963 </v>
   <v>      -0.00000000       0.01773462      -0.02424024 </v>
   <v>       0.01778747      -0.00293559       0.00428963 </v>
   <v>      -0.00000000      -0.00789133       0.01196551 </v>
   <v>      -0.00000000      -0.12837847      -0.15150346 </v>
   <v>       0.06542526       0.01604889      -0.09896828 </v>
   <v>      -0.00000000       0.03228659      -0.16062493 </v>
   <v>      -0.06542526       0.01604889      -0.09896828 </v>
   <v>      -0.00000000       0.59065285       0.77088994 </v>
   <v>       0.00000000      -0.53187017      -0.37752102 </v>
  </varray>
  <varray name="stress" >
   <v>     -32.02525900       0.00000000       0.00000000 </v>
   <v>       0.00000000     -31.93436661      -0.57951457 </v>
   <v>       0.00000000      -0.57950881      -8.42399343 </v>
  </varray>
  <energy>
   <i name="e_fr_energy">   -134.81919609 </i>
   <i name="e_wo_entrp">   -134.80498987 </i>
   <i name="e_0_energy">   -134.81446069 </i>
  </energy>
  <time name="totalsc">   82.04   82.75</time>
 </calculation>
 <calculation>
  <scstep>
   <time name="dav">    6.03    6.08</time>
   <time name="total">    6.47    6.53</time>
   <energy>
    <i name="alphaZ">   1114.72537883 </i>
    <i name="ewald"> 216410.22964183 </i>
    <i name="hartreedc">-259935.61094949 </i>
    <i name="XCdc">   1433.64627839 </i>
    <i name="pawpsdc">  42132.21240956 </i>
    <i name="pawaedc"> -45584.24965616 </i>
    <i name="eentropy">     -0.01280443 </i>
    <i name="bandstr">   -227.35161986 </i>
    <i name="atom">  44535.60175172 </i>
    <i name="e_fr_energy">   -120.80956961 </i>
    <i name="e_wo_entrp">   -120.79676518 </i>
    <i name="e_0_energy">   -120.80530147 </i>
   </energy>
  </scstep>
  <scstep>
   <time name="dav">    7.98    8.05</time>
   <time name="total">    8.42    8.49</time>
   <energy>
    <i name="e_fr_energy">   -120.81510664 </i>
    <i name="e_wo_entrp">   -120.80151693 </i>
    <i name="e_0_energy">   -120.81057674 </i>
   </energy>
  </scstep>
  <scstep>
   <time name="dav">    6.94    7.00</time>
   <time name="total">    7.39    7.45</time>
   <energy>
    <i name="e_fr_energy">   -120.81970320 </i>
    <i name="e_wo_entrp">   -120.80592876 </i>
    <i name="e_0_energy">   -120.81511172 </i>
   </energy>
  </scstep>
  <scstep>
   <time name="dav">    6.74    6.80</time>
   <time name="total">    7.20    7.26</time>
   <energy>
    <i name="e_fr_energy">   -120.81456086 </i>
    <i name="e_wo_entrp">   -120.80204725 </i>
    <i name="e_0_energy">   -120.81038966 </i>
   </energy>
  </scstep>
  <scstep>
   <time name="dav">    6.52    6.58</time>
   <time name="total">    6.96    7.02</time>
   <energy>
    <i name="e_fr_energy">   -120.81638630 </i>
    <i name="e_wo_entrp">   -120.80401508 </i>
    <i name="e_0_energy">   -120.81226256 </i>
   </energy>
  </scstep>
  <scstep>
   <time name="dav">    6.88    6.94</time>
   <time name="total">    7.33    7.39</time>
   <energy>
    <i name="e_fr_energy">   -120.81436759 </i>
    <i name="e_wo_entrp">   -120.80041130 </i>
    <i name="e_0_energy">   -120.80971550 </i>
   </energy>
  </scstep>
  <scstep>
   <time name="dav">    6.52    6.58</time>
   <time name="total">    6.60    6.66</time>
   <energy>
    <i name="alphaZ">   1114.72537883 </i>
    <i name="ewald"> 216410.22964183 </i>
    <i name="hartreedc">-259935.67528978 </i>
    <i name="XCdc">   1433.70775499 </i>
    <i name="pawpsdc">  42130.26497414 </i>
    <i name="pawaedc"> -45582.22324020 </i>
    <i name="eentropy">     -0.01293122 </i>
    <i name="bandstr">   -227.43232388 </i>
    <i name="atom">  44535.60175172 </i>
    <i name="e_fr_energy">   -120.81428355 </i>
    <i name="e_wo_entrp">   -120.80135234 </i>
    <i name="e_0_energy">   -120.80997315 </i>
   </energy>
  </scstep>
  <structure>
   <crystal>
    <varray name="basis" >
     <v>       5.13359547       0.00000000       0.00000000 </v>
     <v>       2.56679773       4.44582409       0.00000000 </v>
     <v>       0.00000000       0.00000000      29.67047119 </v>
    </varray>
    <i name="volume">    677.17101477 </i>
    <varray name="rec_basis" >
     <v>       0.19479525      -0.11246509       0.00000000 </v>
     <v>       0.00000000       0.22493018       0.00000000 </v>
     <v>       0.00000000       0.00000000       0.03370354 </v>
    </varray>
   </crystal>
   <varray name="positions" >
    <v>       0.00010097      -0.00002212       0.00012658 </v>
    <v>       0.00001329       0.49997341       0.00013777 </v>
    <v>       0.49992115      -0.00002212       0.00012658 </v>
    <v>       0.49995994       0.50008012       0.00012318 </v>
    <v>       0.16665466       0.16669068       0.07051947 </v>
    <v>       0.16666874       0.66664855       0.07052533 </v>
    <v>       0.66666141       0.16667719       0.07050039 </v>
    <v>       0.66668271       0.66664855       0.07052533 </v>
    <v>       0.33343009       0.33325264       0.13846170 </v>
    <v>       0.33331842       0.83336316       0.13845939 </v>
    <v>       0.83331727       0.33325264       0.13846170 </v>
    <v>       0.83327142       0.83345717       0.13845328 </v>
    <v>       0.00004280       0.00001256       0.20668039 </v>
    <v>       0.00001495       0.49997011       0.20669530 </v>
    <v>       0.49994464       0.00001256       0.20668039 </v>
    <v>       0.50000184       0.49999631       0.20666393 </v>
    <v>       0.16674306       0.16651387       0.27488006 </v>
    <v>       0.16682097       0.66670034       0.27490254 </v>
    <v>       0.66662566       0.16674869       0.27488656 </v>
    <v>       0.66647869       0.66670034       0.27490254 </v>
    <v>       0.33352869       0.33318346       0.34321454 </v>
    <v>       0.33331499       0.83337003       0.34323472 </v>
    <v>       0.83328785       0.33318346       0.34321454 </v>
    <v>       0.83319224       0.83361552       0.34318490 </v>
    <v>      -0.00007519      -0.00003515       0.41113262 </v>
    <v>       0.99993475       0.50013051       0.41105654 </v>
    <v>       0.50011033      -0.00003515       0.41113262 </v>
    <v>       0.50001721       0.49996558       0.41114488 </v>
    <v>       0.16759727       0.16480546       0.48030758 </v>
    <v>       0.16761313       0.66721824       0.48035198 </v>
    <v>       0.66648057       0.16703887       0.48033442 </v>
    <v>       0.66516862       0.66721824       0.48035198 </v>
    <v>       0.00215864       0.49568272       0.53387704 </v>
    <v>       0.93833937       0.62332126       0.55292815 </v>
   </varray>
  </structure>
  <varray name="forces" >
   <v>       0.01557329      -0.00318257       0.12204063 </v>
   <v>       0.00000000      -0.00352194       0.13601626 </v>
   <v>      -0.01557329      -0.00318257       0.12204063 </v>
   <v>       0.00000000       0.01186381       0.11812823 </v>
   <v>       0.00000000       0.00407927      -0.10460907 </v>
   <v>      -0.00146697      -0.00288896      -0.09812498 </v>
   <v>       0.00000000       0.00169144      -0.12641465 </v>
   <v>       0.00146697      -0.00288896      -0.09812498 </v>
   <v>       0.00735018      -0.01114585      -0.02087147 </v>
   <v>       0.00000000       0.00454737      -0.02365339 </v>
   <v>      -0.00735018      -0.01114585      -0.02087147 </v>
   <v>       0.00000000       0.01673416      -0.02833653 </v>
   <v>       0.00769362       0.00103599       0.00723685 </v>
   <v>       0.00000000      -0.00239250       0.02246463 </v>
   <v>      -0.00769362       0.00103599       0.00723685 </v>
   <v>       0.00000000      -0.00103582      -0.01066585 </v>
   <v>       0.00000000      -0.02112429      -0.00743214 </v>
   <v>       0.02810302       0.00356363       0.01506574 </v>
   <v>      -0.00000000       0.01316408      -0.00892283 </v>
   <v>      -0.02810302       0.00356363       0.01506574 </v>
   <v>       0.01872590      -0.02152635       0.02604226 </v>
   <v>       0.00000000       0.00451809       0.04950303 </v>
   <v>      -0.01872590      -0.02152635       0.02604226 </v>
   <v>       0.00000000       0.04206226      -0.00731877 </v>
   <v>      -0.01941361      -0.00501815       0.05340946 </v>
   <v>       0.00000000       0.02209220      -0.01139313 </v>
   <v>       0.01941361      -0.00501815       0.05340946 </v>
   <v>       0.00000000      -0.00715394       0.06531761 </v>
   <v>       0.00000000      -0.23286533      -0.21700802 </v>
   <v>       0.15870188       0.05701447      -0.15963152 </v>
   <v>       0.00000000       0.05142348      -0.21067401 </v>
   <v>      -0.15870188       0.05701447      -0.15963152 </v>
   <v>       0.00000000       0.22930198       0.46225941 </v>
   <v>      -0.00000000      -0.16908875       0.01240527 </v>
  </varray>
  <varray name="stress" >
   <v>     -31.64505419       0.00000000       0.00000000 </v>
   <v>       0.00000000     -31.04644696      -0.06075202 </v>
   <v>       0.00000000      -0.06074619      -7.28466330 </v>
  </varray>
  <energy>
   <i name="e_fr_energy">   -134.83574525 </i>
   <i name="e_wo_entrp">   -134.82281404 </i>
   <i name="e_0_energy">   -134.83143485 </i>
  </energy>
  <time name="totalsc">   61.90   62.50</time>
 </calculation>
 <calculation>
  <scstep>
   <time name="dav">    6.34    6.40</time>
   <time name="total">    6.79    6.85</time>
   <energy>
    <i name="alphaZ">   1114.72537883 </i>
    <i name="ewald"> 216642.49529849 </i>
    <i name="hartreedc">-260167.62589953 </i>
    <i name="XCdc">   1433.78627600 </i>
    <i name="pawpsdc">  42130.29563570 </i>
    <i name="pawaedc"> -45582.25925267 </i>
    <i name="eentropy">     -0.01503921 </i>
    <i name="bandstr">   -227.82351273 </i>
    <i name="atom">  44535.60175172 </i>
    <i name="e_fr_energy">   -120.81936340 </i>
    <i name="e_wo_entrp">   -120.80432419 </i>
    <i name="e_0_energy">   -120.81435033 </i>
   </energy>
  </scstep>
  <scstep>
   <time name="dav">    7.82    7.88</time>
   <time name="total">    8.26    8.33</time>
   <energy>
    <i name="e_fr_energy">   -120.83325094 </i>
    <i name="e_wo_entrp">   -120.81785741 </i>
    <i name="e_0_energy">   -120.82811976 </i>
   </energy>
  </scstep>
  <scstep>
   <time name="dav">    6.62    6.68</time>
   <time name="total">    7.08    7.14</time>
   <energy>
    <i name="e_fr_energy">   -120.83394840 </i>
    <i name="e_wo_entrp">   -120.81942356 </i>
    <i name="e_0_energy">   -120.82910678 </i>
   </energy>
  </scstep>
  <scstep>
   <time name="dav">    6.45    6.51</time>
   <time name="total">    6.89    6.95</time>
   <energy>
    <i name="e_fr_energy">   -120.83348257 </i>
    <i name="e_wo_entrp">   -120.81889479 </i>
    <i name="e_0_energy">   -120.82861998 </i>
   </energy>
  </scstep>
  <scstep>
   <time name="dav">    5.15    5.19</time>
   <time name="total">    5.60    5.64</time>
   <energy>
    <i name="e_fr_energy">   -120.83283773 </i>
    <i name="e_wo_entrp">   -120.81789930 </i>
    <i name="e_0_energy">   -120.82785826 </i>
   </energy>
  </scstep>
  <scstep>
   <time name="dav">    4.94    4.98</time>
   <time name="total">    5.38    5.42</time>
   <energy>
    <i name="e_fr_energy">   -120.83248548 </i>
    <i name="e_wo_entrp">   -120.81777280 </i>
    <i name="e_0_energy">   -120.82758125 </i>
   </energy>
  </scstep>
  <scstep>
   <time name="dav">    7.07    7.13</time>
   <time name="total">    7.52    7.58</time>
   <energy>
    <i name="e_fr_energy">   -120.83248194 </i>
    <i name="e_wo_entrp">   -120.81793296 </i>
    <i name="e_0_energy">   -120.82763228 </i>
   </energy>
  </scstep>
  <scstep>
   <time name="dav">    5.70    5.75</time>
   <time name="total">    5.78    5.83</time>
   <energy>
    <i name="alphaZ">   1114.72537883 </i>
    <i name="ewald"> 216642.49529849 </i>
    <i name="hartreedc">-260166.27068452 </i>
    <i name="XCdc">   1433.77746206 </i>
    <i name="pawpsdc">  42140.41498537 </i>
    <i name="pawaedc"> -45592.64464859 </i>
    <i name="eentropy">     -0.01500524 </i>
    <i name="bandstr">   -228.91703868 </i>
    <i name="atom">  44535.60175172 </i>
    <i name="e_fr_energy">   -120.83250055 </i>
    <i name="e_wo_entrp">   -120.81749531 </i>
    <i name="e_0_energy">   -120.82749881 </i>
   </energy>
  </scstep>
  <structure>
   <crystal>
    <varray name="basis" >
     <v>       5.13359547       0.00000000       0.00000000 </v>
     <v>       2.56679773       4.44582409       0.00000000 </v>
     <v>       0.00000000       0.00000000      29.67047119 </v>
    </varray>
    <i name="volume">    677.17101477 </i>
    <varray name="rec_basis" >
     <v>       0.19479525      -0.11246509       0.00000000 </v>
     <v>       0.00000000       0.22493018       0.00000000 </v>
     <v>       0.00000000       0.00000000       0.03370354 </v>
    </varray>
   </crystal>
   <varray name="positions" >
    <v>       0.00028670      -0.00006162       0.00035334 </v>
    <v>       0.00003554       0.49992892       0.00038928 </v>
    <v>       0.49977492      -0.00006162       0.00035334 </v>
    <v>       0.49988675       0.50022651       0.00034292 </v>
    <v>       0.16663015       0.16673970       0.07032241 </v>
    <v>       0.16667122       0.66661342       0.07034000 </v>
    <v>       0.66665114       0.16669773       0.07026411 </v>
    <v>       0.66671536       0.66661342       0.07034000 </v>
    <v>       0.33358334       0.33311312       0.13842776 </v>
    <v>       0.33329053       0.83341894       0.13842049 </v>
    <v>       0.83330354       0.33311312       0.13842776 </v>
    <v>       0.83316619       0.83366763       0.13840522 </v>
    <v>       0.00011909       0.00002740       0.20669332 </v>
    <v>       0.00003224       0.49993552       0.20673620 </v>
    <v>       0.49985351       0.00002740       0.20669332 </v>
    <v>       0.50000762       0.49998475       0.20664438 </v>
    <v>       0.16687525       0.16624950       0.27486595 </v>
    <v>       0.16710000       0.66674785       0.27492991 </v>
    <v>       0.66654571       0.16690858       0.27487265 </v>
    <v>       0.66615215       0.66674785       0.27492991 </v>
    <v>       0.33386643       0.33291621       0.34325864 </v>
    <v>       0.33328598       0.83342805       0.34332088 </v>
    <v>       0.83321737       0.33291621       0.34325864 </v>
    <v>       0.83293310       0.83413380       0.34316884 </v>
    <v>      -0.00024378      -0.00009753       0.41123885 </v>
    <v>       0.99980190       0.50039620       0.41103909 </v>
    <v>       0.50034130      -0.00009753       0.41123885 </v>
    <v>       0.50005878       0.49988243       0.41127320 </v>
    <v>       0.16908703       0.16182594       0.47989996 </v>
    <v>       0.16903487       0.66798308       0.48004540 </v>
    <v>       0.66615874       0.16768253       0.47994603 </v>
    <v>       0.66298205       0.66798308       0.48004540 </v>
    <v>       0.00182490       0.49635021       0.53441839 </v>
    <v>       0.93831154       0.62337691       0.55327451 </v>
   </varray>
  </structure>
  <varray name="forces" >
   <v>       0.00672574      -0.00188537       0.06721028 </v>
   <v>       0.00000000      -0.00031854       0.07756312 </v>
   <v>      -0.00672574      -0.00188537       0.06721028 </v>
   <v>      -0.00000000       0.00567622       0.06486472 </v>
   <v>       0.00000000       0.00186635      -0.02321591 </v>
   <v>      -0.00080316      -0.00131498      -0.02059163 </v>
   <v>       0.00000000       0.00057528      -0.04146309 </v>
   <v>       0.00080316      -0.00131498      -0.02059163 </v>
   <v>      -0.00109522      -0.00188550      -0.03923448 </v>
   <v>       0.00000000       0.00083421      -0.03982547 </v>
   <v>       0.00109522      -0.00188550      -0.03923448 </v>
   <v>       0.00000000       0.00229253      -0.03866611 </v>
   <v>       0.00101465      -0.00273208      -0.00155209 </v>
   <v>       0.00000000       0.00392975       0.00817792 </v>
   <v>      -0.00101465      -0.00273208      -0.00155209 </v>
   <v>       0.00000000       0.00016000      -0.01006404 </v>
   <v>      -0.00000000      -0.00388813       0.01184039 </v>
   <v>       0.00636651      -0.00084529       0.01589868 </v>
   <v>       0.00000000       0.00493731      -0.00538808 </v>
   <v>      -0.00636651      -0.00084529       0.01589868 </v>
   <v>       0.00301873      -0.00461175       0.01851787 </v>
   <v>       0.00000000      -0.00044360       0.04070713 </v>
   <v>      -0.00301873      -0.00461175       0.01851787 </v>
   <v>      -0.00000000       0.01302712       0.00007986 </v>
   <v>      -0.01657176      -0.00061266      -0.03471697 </v>
   <v>      -0.00000000       0.00963412      -0.02213756 </v>
   <v>       0.01657176      -0.00061266      -0.03471697 </v>
   <v>       0.00000000      -0.00960630      -0.03404031 </v>
   <v>      -0.00000000      -0.07180524      -0.13382745 </v>
   <v>       0.02582850       0.00121898      -0.09625123 </v>
   <v>       0.00000000       0.01796665      -0.12740086 </v>
   <v>      -0.02582850       0.00121898      -0.09625123 </v>
   <v>       0.00000000       0.18985064       0.40918564 </v>
   <v>       0.00000000      -0.13935110       0.04504925 </v>
  </varray>
  <varray name="stress" >
   <v>     -31.58385574       0.00000000       0.00000000 </v>
   <v>       0.00000000     -31.02247053      -0.02816941 </v>
   <v>       0.00000000      -0.02816353      -6.72174119 </v>
  </varray>
  <energy>
   <i name="e_fr_energy">   -134.85927849 </i>
   <i name="e_wo_entrp">   -134.84427324 </i>
   <i name="e_0_energy">   -134.85427674 </i>
  </energy>
  <time name="totalsc">   64.86   65.42</time>
 </calculation>
 <calculation>
  <scstep>
   <time name="dav">    6.33    6.38</time>
   <time name="total">    6.78    6.84</time>
   <energy>
    <i name="alphaZ">   1114.72537883 </i>
    <i name="ewald"> 216929.98901326 </i>
    <i name="hartreedc">-260453.15129803 </i>
    <i name="XCdc">   1433.88248865 </i>
    <i name="pawpsdc">  42140.74671258 </i>
    <i name="pawaedc"> -45592.98047296 </i>
    <i name="eentropy">     -0.01693681 </i>
    <i name="bandstr">   -229.61482412 </i>
    <i name="atom">  44535.60175172 </i>
    <i name="e_fr_energy">   -120.81818688 </i>
    <i name="e_wo_entrp">   -120.80125007 </i>
    <i name="e_0_energy">   -120.81254128 </i>
   </energy>
  </scstep>
  <scstep>
   <time name="dav">    7.88    7.95</time>
   <time name="total">    8.32    8.39</time>
   <energy>
    <i name="e_fr_energy">   -120.84014779 </i>
    <i name="e_wo_entrp">   -120.82369063 </i>
    <i name="e_0_energy">   -120.83466207 </i>
   </energy>
  </scstep>
  <scstep>
   <time name="dav">    6.67    6.73</time>
   <time name="total">    7.12    7.18</time>
   <energy>
    <i name="e_fr_energy">   -120.84505799 </i>
    <i name="e_wo_entrp">   -120.82776708 </i>
    <i name="e_0_energy">   -120.83929435 </i>
   </energy>
  </scstep>
  <scstep>
   <time name="dav">    6.57    6.63</time>
   <time name="total">    7.01    7.07</time>
   <energy>
    <i name="e_fr_energy">   -120.83942264 </i>
    <i name="e_wo_entrp">   -120.82312878 </i>
    <i name="e_0_energy">   -120.83399135 </i>
   </energy>
  </scstep>
  <scstep>
   <time name="dav">    7.04    7.10</time>
   <time name="total">    7.48    7.54</time>
   <energy>
    <i name="e_fr_energy">   -120.83949934 </i>
    <i name="e_wo_entrp">   -120.82271919 </i>
    <i name="e_0_energy">   -120.83390596 </i>
   </energy>
  </scstep>
  <scstep>
   <time name="dav">    6.98    7.04</time>
   <time name="total">    7.43    7.49</time>
   <energy>
    <i name="e_fr_energy">   -120.83913857 </i>
    <i name="e_wo_entrp">   -120.82301628 </i>
    <i name="e_0_energy">   -120.83376447 </i>
   </energy>
  </scstep>
  <scstep>
   <time name="dav">    6.31    6.36</time>
   <time name="total">    6.75    6.81</time>
   <energy>
    <i name="e_fr_energy">   -120.83898502 </i>
    <i name="e_wo_entrp">   -120.82231737 </i>
    <i name="e_0_energy">   -120.83342913 </i>
   </energy>
  </scstep>
  <scstep>
   <time name="dav">    6.20    6.25</time>
   <time name="total">    6.28    6.33</time>
   <energy>
    <i name="alphaZ">   1114.72537883 </i>
    <i name="ewald"> 216929.98901326 </i>
    <i name="hartreedc">-260452.17782303 </i>
    <i name="XCdc">   1433.86327333 </i>
    <i name="pawpsdc">  42155.78319905 </i>
    <i name="pawaedc"> -45608.27185654 </i>
    <i name="eentropy">     -0.01665095 </i>
    <i name="bandstr">   -230.33528161 </i>
    <i name="atom">  44535.60175172 </i>
    <i name="e_fr_energy">   -120.83899594 </i>
    <i name="e_wo_entrp">   -120.82234499 </i>
    <i name="e_0_energy">   -120.83344562 </i>
   </energy>
  </scstep>
  <structure>
   <crystal>
    <varray name="basis" >
     <v>       5.13359547       0.00000000       0.00000000 </v>
     <v>       2.56679773       4.44582409       0.00000000 </v>
     <v>       0.00000000       0.00000000      29.67047119 </v>
    </varray>
    <i name="volume">    677.17101477 </i>
    <varray name="rec_basis" >
     <v>       0.19479525      -0.11246509       0.00000000 </v>
     <v>       0.00000000       0.22493018       0.00000000 </v>
     <v>       0.00000000       0.00000000       0.03370354 </v>
    </varray>
   </crystal>
   <varray name="positions" >
    <v>       0.00051516      -0.00011020       0.00063228 </v>
    <v>       0.00006290       0.49987420       0.00069867 </v>
    <v>       0.49959505      -0.00011020       0.00063228 </v>
    <v>       0.49979671       0.50040657       0.00061322 </v>
    <v>       0.16659999       0.16680001       0.07008001 </v>
    <v>       0.16667427       0.66657021       0.07011203 </v>
    <v>       0.66663851       0.16672299       0.06997346 </v>
    <v>       0.66675552       0.66657021       0.07011203 </v>
    <v>       0.33377185       0.33294149       0.13838601 </v>
    <v>       0.33325622       0.83348756       0.13837264 </v>
    <v>       0.83328666       0.33294149       0.13838601 </v>
    <v>       0.83303674       0.83392651       0.13834611 </v>
    <v>       0.00021294       0.00004565       0.20670922 </v>
    <v>       0.00005351       0.49989299       0.20678651 </v>
    <v>       0.49974141       0.00004565       0.20670922 </v>
    <v>       0.50001474       0.49997053       0.20662032 </v>
    <v>       0.16703786       0.16592429       0.27484859 </v>
    <v>       0.16744325       0.66680629       0.27496359 </v>
    <v>       0.66644737       0.16710525       0.27485553 </v>
    <v>       0.66575046       0.66680629       0.27496359 </v>
    <v>       0.33428188       0.33258745       0.34331288 </v>
    <v>       0.33325029       0.83349942       0.34342686 </v>
    <v>       0.83313067       0.33258745       0.34331288 </v>
    <v>       0.83261432       0.83477135       0.34314908 </v>
    <v>      -0.00045116      -0.00017426       0.41136951 </v>
    <v>       0.99963849       0.50072303       0.41101762 </v>
    <v>       0.50062542      -0.00017426       0.41136951 </v>
    <v>       0.50010993       0.49978015       0.41143104 </v>
    <v>       0.17091960       0.15816080       0.47939853 </v>
    <v>       0.17078376       0.66892391       0.47966827 </v>
    <v>       0.66576285       0.16847431       0.47946827 </v>
    <v>       0.66029233       0.66892391       0.47966827 </v>
    <v>       0.00141436       0.49717129       0.53508432 </v>
    <v>       0.93827731       0.62344537       0.55370057 </v>
   </varray>
  </structure>
  <varray name="forces" >
   <v>      -0.00260532      -0.00061223       0.00844821 </v>
   <v>       0.00000000       0.00350660       0.01574747 </v>
   <v>       0.00260532      -0.00061223       0.00844821 </v>
   <v>       0.00000000      -0.00062945       0.00775388 </v>
   <v>       0.00000000      -0.00065401       0.06569974 </v>
   <v>       0.00030324       0.00060080       0.06412828 </v>
   <v>       0.00000000      -0.00040355       0.04909750 </v>
   <v>      -0.00030324       0.00060080       0.06412828 </v>
   <v>      -0.00978215       0.00763677      -0.06163968 </v>
   <v>       0.00000000      -0.00307408      -0.06022421 </v>
   <v>       0.00978215       0.00763677      -0.06163968 </v>
   <v>       0.00000000      -0.01244234      -0.05276108 </v>
   <v>      -0.00582124      -0.00697380      -0.01077877 </v>
   <v>       0.00000000       0.01115959      -0.00506327 </v>
   <v>       0.00582124      -0.00697380      -0.01077877 </v>
   <v>       0.00000000       0.00148521      -0.01058217 </v>
   <v>       0.00000000       0.01304697       0.03023167 </v>
   <v>      -0.01477261      -0.00523700       0.01602797 </v>
   <v>       0.00000000      -0.00279128      -0.00400126 </v>
   <v>       0.01477261      -0.00523700       0.01602797 </v>
   <v>      -0.01235308       0.01208836       0.01581621 </v>
   <v>       0.00000000      -0.00582433       0.04034065 </v>
   <v>       0.01235308       0.01208836       0.01581621 </v>
   <v>       0.00000000      -0.01459021       0.00940996 </v>
   <v>      -0.01731358       0.00321566      -0.12854042 </v>
   <v>       0.00000000      -0.00131082      -0.02688360 </v>
   <v>       0.01731358       0.00321566      -0.12854042 </v>
   <v>       0.00000000      -0.01297755      -0.14045906 </v>
   <v>       0.00000000       0.09346437      -0.05110747 </v>
   <v>      -0.11487059      -0.05812330      -0.03198486 </v>
   <v>       0.00000000      -0.01603221      -0.04392176 </v>
   <v>       0.11487059      -0.05812330      -0.03198486 </v>
   <v>      -0.00000000       0.12670611       0.33362273 </v>
   <v>       0.00000000      -0.08382954       0.10014643 </v>
  </varray>
  <varray name="stress" >
   <v>     -30.03691019       0.00000000       0.00000000 </v>
   <v>       0.00000000     -29.46366067       0.04658936 </v>
   <v>       0.00000000       0.04659527      -4.77979046 </v>
  </varray>
  <energy>
   <i name="e_fr_energy">   -134.87258521 </i>
   <i name="e_wo_entrp">   -134.85593426 </i>
   <i name="e_0_energy">   -134.86703490 </i>
  </energy>
  <time name="totalsc">   68.73   69.28</time>
 </calculation>
 <calculation>
  <scstep>
   <time name="dav">    6.03    6.08</time>
   <time name="total">    6.47    6.53</time>
   <energy>
    <i name="alphaZ">   1114.72537883 </i>
    <i name="ewald"> 217156.77377526 </i>
    <i name="hartreedc">-260679.05453045 </i>
    <i name="XCdc">   1433.90784586 </i>
    <i name="pawpsdc">  42156.09403048 </i>
    <i name="pawaedc"> -45608.59788147 </i>
    <i name="eentropy">     -0.01580530 </i>
    <i name="bandstr">   -230.27554550 </i>
    <i name="atom">  44535.60175172 </i>
    <i name="e_fr_energy">   -120.84098057 </i>
    <i name="e_wo_entrp">   -120.82517527 </i>
    <i name="e_0_energy">   -120.83571214 </i>
   </energy>
  </scstep>
  <scstep>
   <time name="dav">    9.51    9.60</time>
   <time name="total">    9.96   10.05</time>
   <energy>
    <i name="e_fr_energy">   -120.85120988 </i>
    <i name="e_wo_entrp">   -120.83319765 </i>
    <i name="e_0_energy">   -120.84520580 </i>
   </energy>
  </scstep>
  <scstep>
   <time name="dav">    9.33    9.41</time>
   <time name="total">    9.77    9.85</time>
   <energy>
    <i name="e_fr_energy">   -120.84638119 </i>
    <i name="e_wo_entrp">   -120.82967560 </i>
    <i name="e_0_energy">   -120.84081266 </i>
   </energy>
  </scstep>
  <scstep>
   <time name="dav">    6.48    6.53</time>
   <time name="total">    6.92    6.98</time>
   <energy>
    <i name="e_fr_energy">   -120.84618471 </i>
    <i name="e_wo_entrp">   -120.83033436 </i>
    <i name="e_0_energy">   -120.84090126 </i>
   </energy>
  </scstep>
  <scstep>
   <time name="dav">    6.32    6.38</time>
   <time name="total">    6.77    6.83</time>
   <energy>
    <i name="e_fr_energy">   -120.84607460 </i>
    <i name="e_wo_entrp">   -120.82952629 </i>
    <i name="e_0_energy">   -120.84055850 </i>
   </energy>
  </scstep>
  <scstep>
   <time name="dav">    6.38    6.43</time>
   <time name="total">    6.83    6.89</time>
   <energy>
    <i name="e_fr_energy">   -120.84604878 </i>
    <i name="e_wo_entrp">   -120.82868356 </i>
    <i name="e_0_energy">   -120.84026038 </i>
   </energy>
  </scstep>
  <scstep>
   <time name="dav">    5.86    5.91</time>
   <time name="total">    6.30    6.36</time>
   <energy>
    <i name="e_fr_energy">   -120.84581342 </i>
    <i name="e_wo_entrp">   -120.82946979 </i>
    <i name="e_0_energy">   -120.84036554 </i>
   </energy>
  </scstep>
  <scstep>
   <time name="dav">    4.45    4.48</time>
   <time name="total">    4.52    4.56</time>
   <energy>
    <i name="alphaZ">   1114.72537883 </i>
    <i name="ewald"> 217156.77377526 </i>
    <i name="hartreedc">-260678.64733758 </i>
    <i name="XCdc">   1433.92268645 </i>
    <i name="pawpsdc">  42162.40760246 </i>
    <i name="pawaedc"> -45614.90733228 </i>
    <i name="eentropy">     -0.01646722 </i>
    <i name="bandstr">   -230.70588420 </i>
    <i name="atom">  44535.60175172 </i>
    <i name="e_fr_energy">   -120.84582657 </i>
    <i name="e_wo_entrp">   -120.82935934 </i>
    <i name="e_0_energy">   -120.84033749 </i>
   </energy>
  </scstep>
  <structure>
   <crystal>
    <varray name="basis" >
     <v>       5.13359547       0.00000000       0.00000000 </v>
     <v>       2.56679773       4.44582409       0.00000000 </v>
     <v>       0.00000000       0.00000000      29.67047119 </v>
    </varray>
    <i name="volume">    677.17101477 </i>
    <varray name="rec_basis" >
     <v>       0.19479525      -0.11246509       0.00000000 </v>
     <v>       0.00000000       0.22493018       0.00000000 </v>
     <v>       0.00000000       0.00000000       0.03370354 </v>
    </varray>
   </crystal>
   <varray name="positions" >
    <v>       0.00054430      -0.00012900       0.00071262 </v>
    <v>       0.00004774       0.49990452       0.00079951 </v>
    <v>       0.49958470      -0.00012900       0.00071262 </v>
    <v>       0.49977966       0.50044068       0.00069027 </v>
    <v>       0.16659700       0.16680600       0.07014451 </v>
    <v>       0.16667452       0.66656754       0.07017699 </v>
    <v>       0.66663805       0.16672391       0.06999623 </v>
    <v>       0.66675795       0.66656754       0.07017699 </v>
    <v>       0.33366481       0.33299535       0.13826296 </v>
    <v>       0.33326711       0.83346578       0.13825078 </v>
    <v>       0.83333984       0.33299535       0.13826296 </v>
    <v>       0.83308302       0.83383396       0.13823535 </v>
    <v>       0.00021567      -0.00003570       0.20669310 </v>
    <v>      -0.00001003       0.50002006       0.20678889 </v>
    <v>       0.49982003      -0.00003570       0.20669310 </v>
    <v>       0.50000727       0.49998545       0.20659527 </v>
    <v>       0.16699557       0.16600886       0.27490016 </v>
    <v>       0.16739811       0.66675560       0.27500088 </v>
    <v>       0.66644165       0.16711669       0.27484419 </v>
    <v>       0.66584629       0.66675560       0.27500088 </v>
    <v>       0.33417292       0.33265944       0.34335457 </v>
    <v>       0.33327774       0.83344453       0.34352567 </v>
    <v>       0.83316764       0.33265944       0.34335457 </v>
    <v>       0.83262980       0.83474040       0.34316180 </v>
    <v>      -0.00070309      -0.00015262       0.41116349 </v>
    <v>       0.99960856       0.50078287       0.41096320 </v>
    <v>       0.50085571      -0.00015262       0.41116349 </v>
    <v>       0.50020144       0.49959712       0.41120942 </v>
    <v>       0.17077181       0.15845638       0.47918806 </v>
    <v>       0.17032582       0.66842915       0.47952183 </v>
    <v>       0.66576925       0.16846149       0.47927650 </v>
    <v>       0.66124503       0.66842915       0.47952183 </v>
    <v>       0.00054146       0.49891707       0.53585254 </v>
    <v>       0.93878377       0.62243246       0.55398372 </v>
   </varray>
  </structure>
  <varray name="forces" >
   <v>      -0.00228363      -0.00033109       0.01486560 </v>
[...]
       <r>    11.0747     7.8392   223.5424 </r>
       <r>    11.1546     6.8736   224.0913 </r>
       <r>    11.2344     7.6838   224.7049 </r>
       <r>    11.3143    10.2720   225.5252 </r>
       <r>    11.3942    12.0629   226.4886 </r>
       <r>    11.4740    10.8969   227.3588 </r>
       <r>    11.5539     7.7044   227.9741 </r>
       <r>    11.6337     5.2824   228.3959 </r>
       <r>    11.7136     5.1767   228.8094 </r>
       <r>    11.7935     6.5131   229.3295 </r>
       <r>    11.8733     7.2055   229.9049 </r>
       <r>    11.9532     5.9893   230.3832 </r>
       <r>    12.0330     3.5907   230.6700 </r>
       <r>    12.1129     1.6266   230.7999 </r>
       <r>    12.1928     0.7027   230.8560 </r>
       <r>    12.2726     0.4706   230.8936 </r>
       <r>    12.3525     0.6866   230.9484 </r>
       <r>    12.4323     1.2002   231.0443 </r>
       <r>    12.5122     1.6534   231.1763 </r>
       <r>    12.5921     1.8237   231.3219 </r>
       <r>    12.6719     1.8852   231.4725 </r>
       <r>    12.7518     2.0546   231.6366 </r>
       <r>    12.8316     2.1195   231.8058 </r>
       <r>    12.9115     1.6714   231.9393 </r>
       <r>    12.9914     0.8255   232.0052 </r>
       <r>    13.0712     0.1483   232.0171 </r>
       <r>    13.1511    -0.0938   232.0096 </r>
       <r>    13.2309    -0.0812   232.0031 </r>
       <r>    13.3108    -0.0306   232.0007 </r>
       <r>    13.3907    -0.0071   232.0001 </r>
       <r>    13.4705    -0.0011   232.0000 </r>
       <r>    13.5504    -0.0001   232.0000 </r>
       <r>    13.6302    -0.0000   232.0000 </r>
       <r>    13.7101    -0.0000   232.0000 </r>
       <r>    13.7900    -0.0000   232.0000 </r>
       <r>    13.8698    -0.0000   232.0000 </r>
       <r>    13.9497    -0.0000   232.0000 </r>
       <r>    14.0295    -0.0000   232.0000 </r>
       <r>    14.1094    -0.0000   232.0000 </r>
       <r>    14.1893     0.0000   232.0000 </r>
       <r>    14.2691     0.0000   232.0000 </r>
       <r>    14.3490     0.0000   232.0000 </r>
       <r>    14.4288     0.0000   232.0000 </r>
       <r>    14.5087     0.0000   232.0000 </r>
       <r>    14.5886     0.0000   232.0000 </r>
       <r>    14.6684     0.0000   232.0000 </r>
       <r>    14.7483     0.0000   232.0000 </r>
       <r>    14.8282     0.0000   232.0000 </r>
      </set>
      <set comment="spin 2">
       <r>    -9.1299     0.0000     0.0000 </r>
       <r>    -9.0501     0.0000     0.0000 </r>
       <r>    -8.9702     0.0000     0.0000 </r>
       <r>    -8.8903     0.0000     0.0000 </r>
       <r>    -8.8105     0.0000     0.0000 </r>
       <r>    -8.7306    -0.0000    -0.0000 </r>
       <r>    -8.6508    -0.0000    -0.0000 </r>
       <r>    -8.5709    -0.0000    -0.0000 </r>
       <r>    -8.4910    -0.0000    -0.0000 </r>
       <r>    -8.4112    -0.0000    -0.0000 </r>
       <r>    -8.3313    -0.0000    -0.0000 </r>
       <r>    -8.2515    -0.0000    -0.0000 </r>
       <r>    -8.1716    -0.0000    -0.0000 </r>
       <r>    -8.0917    -0.0000    -0.0000 </r>
       <r>    -8.0119    -0.0000    -0.0000 </r>
       <r>    -7.9320    -0.0000    -0.0000 </r>
       <r>    -7.8522    -0.0000    -0.0000 </r>
       <r>    -7.7723    -0.0000    -0.0000 </r>
       <r>    -7.6924    -0.0003    -0.0000 </r>
       <r>    -7.6126    -0.0020    -0.0002 </r>
       <r>    -7.5327    -0.0083    -0.0008 </r>
       <r>    -7.4529    -0.0205    -0.0025 </r>
       <r>    -7.3730    -0.0182    -0.0039 </r>
       <r>    -7.2931     0.0573     0.0006 </r>
       <r>    -7.2133     0.2388     0.0197 </r>
       <r>    -7.1334     0.4181     0.0531 </r>
       <r>    -7.0536     0.4157     0.0863 </r>
       <r>    -6.9737     0.2406     0.1055 </r>
       <r>    -6.8938     0.1232     0.1153 </r>
       <r>    -6.8140     0.2166     0.1326 </r>
       <r>    -6.7341     0.3867     0.1635 </r>
       <r>    -6.6543     0.3731     0.1933 </r>
       <r>    -6.5744     0.1313     0.2038 </r>
       <r>    -6.4945    -0.0242     0.2019 </r>
       <r>    -6.4147     0.3962     0.2335 </r>
       <r>    -6.3348     1.5241     0.3552 </r>
       <r>    -6.2550     2.6092     0.5636 </r>
       <r>    -6.1751     2.6446     0.7748 </r>
       <r>    -6.0952     1.8017     0.9187 </r>
       <r>    -6.0154     1.3574     1.0271 </r>
       <r>    -5.9355     1.9434     1.1823 </r>
       <r>    -5.8557     2.6539     1.3942 </r>
       <r>    -5.7758     2.3285     1.5802 </r>
       <r>    -5.6959     1.1336     1.6707 </r>
       <r>    -5.6161     0.0859     1.6776 </r>
       <r>    -5.5362    -0.3005     1.6536 </r>
       <r>    -5.4563     0.0179     1.6550 </r>
       <r>    -5.3765     1.1245     1.7448 </r>
       <r>    -5.2966     2.5943     1.9520 </r>
       <r>    -5.2168     3.2043     2.2079 </r>
       <r>    -5.1369     2.3231     2.3934 </r>
       <r>    -5.0570     0.8349     2.4601 </r>
       <r>    -4.9772    -0.1245     2.4501 </r>
       <r>    -4.8973    -0.2763     2.4281 </r>
       <r>    -4.8175     0.2921     2.4514 </r>
       <r>    -4.7376     1.4497     2.5672 </r>
       <r>    -4.6577     2.6625     2.7798 </r>
       <r>    -4.5779     3.4502     3.0553 </r>
       <r>    -4.4980     4.0771     3.3809 </r>
       <r>    -4.4182     4.7248     3.7583 </r>
       <r>    -4.3383     4.6782     4.1319 </r>
       <r>    -4.2584     3.4740     4.4093 </r>
       <r>    -4.1786     2.0828     4.5756 </r>
       <r>    -4.0987     1.7853     4.7182 </r>
       <r>    -4.0189     2.5295     4.9202 </r>
       <r>    -3.9390     3.6069     5.2083 </r>
       <r>    -3.8591     4.8648     5.5968 </r>
       <r>    -3.7793     6.0113     6.0768 </r>
       <r>    -3.6994     6.3056     6.5804 </r>
       <r>    -3.6196     5.8571     7.0481 </r>
       <r>    -3.5397     5.7547     7.5077 </r>
       <r>    -3.4598     6.3456     8.0145 </r>
       <r>    -3.3800     6.5558     8.5380 </r>
       <r>    -3.3001     5.5796     8.9836 </r>
       <r>    -3.2203     4.0223     9.3048 </r>
       <r>    -3.1404     2.9392     9.5396 </r>
       <r>    -3.0605     3.0546     9.7835 </r>
       <r>    -2.9807     4.4269    10.1370 </r>
       <r>    -2.9008     6.2174    10.6335 </r>
       <r>    -2.8210     8.0277    11.2746 </r>
       <r>    -2.7411    10.8614    12.1420 </r>
       <r>    -2.6612    15.3925    13.3713 </r>
       <r>    -2.5814    20.6402    15.0196 </r>
       <r>    -2.5015    24.8359    17.0030 </r>
       <r>    -2.4217    26.1590    19.0921 </r>
       <r>    -2.3418    23.7834    20.9914 </r>
       <r>    -2.2619    19.7371    22.5676 </r>
       <r>    -2.1821    17.9451    24.0007 </r>
       <r>    -2.1022    20.5042    25.6382 </r>
       <r>    -2.0224    26.3482    27.7424 </r>
       <r>    -1.9425    32.8528    30.3660 </r>
       <r>    -1.8626    37.2808    33.3433 </r>
       <r>    -1.7828    38.2566    36.3985 </r>
       <r>    -1.7029    36.2800    39.2958 </r>
       <r>    -1.6231    32.6306    41.9017 </r>
       <r>    -1.5432    29.3037    44.2419 </r>
       <r>    -1.4633    28.1593    46.4907 </r>
       <r>    -1.3835    29.5819    48.8531 </r>
       <r>    -1.3036    33.7970    51.5521 </r>
       <r>    -1.2238    40.6042    54.7948 </r>
       <r>    -1.1439    46.8779    58.5385 </r>
       <r>    -1.0640    49.1375    62.4626 </r>
       <r>    -0.9842    49.5121    66.4167 </r>
       <r>    -0.9043    53.2957    70.6729 </r>
       <r>    -0.8245    59.9121    75.4575 </r>
       <r>    -0.7446    63.6212    80.5383 </r>
       <r>    -0.6647    62.4439    85.5251 </r>
       <r>    -0.5849    59.3688    90.2663 </r>
       <r>    -0.5050    56.9318    94.8129 </r>
       <r>    -0.4252    55.4553    99.2415 </r>
       <r>    -0.3453    54.8152   103.6191 </r>
       <r>    -0.2654    54.3392   107.9586 </r>
       <r>    -0.1856    52.5750   112.1573 </r>
       <r>    -0.1057    50.1325   116.1609 </r>
       <r>    -0.0259    48.9748   120.0720 </r>
       <r>     0.0540    49.4782   124.0234 </r>
       <r>     0.1339    53.0220   128.2577 </r>
       <r>     0.2137    61.3099   133.1539 </r>
       <r>     0.2936    70.3358   138.7710 </r>
       <r>     0.3734    74.1513   144.6927 </r>
       <r>     0.4533    73.8600   150.5912 </r>
       <r>     0.5332    73.7430   156.4803 </r>
       <r>     0.6130    70.9731   162.1482 </r>
       <r>     0.6929    58.1531   166.7924 </r>
       <r>     0.7727    35.5855   169.6342 </r>
       <r>     0.8526    13.5242   170.7143 </r>
       <r>     0.9325     1.1567   170.8066 </r>
       <r>     1.0123    -1.3407   170.6996 </r>
       <r>     1.0922     0.5538   170.7438 </r>
       <r>     1.1720     2.3841   170.9342 </r>
       <r>     1.2519     3.1848   171.1885 </r>
       <r>     1.3318     3.8627   171.4970 </r>
       <r>     1.4116     4.7692   171.8779 </r>
       <r>     1.4915     5.0611   172.2821 </r>
       <r>     1.5714     3.9451   172.5971 </r>
       <r>     1.6512     2.2435   172.7763 </r>
       <r>     1.7311     2.1538   172.9483 </r>
       <r>     1.8109     4.8752   173.3376 </r>
       <r>     1.8908     8.9511   174.0525 </r>
       <r>     1.9707    11.5280   174.9731 </r>
       <r>     2.0505    11.2794   175.8739 </r>
       <r>     2.1304     9.7810   176.6550 </r>
       <r>     2.2102     9.0232   177.3756 </r>
       <r>     2.2901     8.2074   178.0310 </r>
       <r>     2.3700     5.6683   178.4837 </r>
       <r>     2.4498     2.6870   178.6983 </r>
       <r>     2.5297     1.9361   178.8529 </r>
       <r>     2.6095     3.6818   179.1469 </r>
       <r>     2.6894     5.9742   179.6240 </r>
       <r>     2.7693     6.9848   180.1818 </r>
       <r>     2.8491     6.1423   180.6724 </r>
       <r>     2.9290     4.5281   181.0340 </r>
       <r>     3.0088     3.7740   181.3354 </r>
       <r>     3.0887     3.7444   181.6344 </r>
       <r>     3.1686     3.1718   181.8877 </r>
       <r>     3.2484     2.2715   182.0691 </r>
       <r>     3.3283     2.3939   182.2603 </r>
       <r>     3.4081     4.0413   182.5830 </r>
       <r>     3.4880     6.6447   183.1137 </r>
       <r>     3.5679     9.1414   183.8437 </r>
       <r>     3.6477    10.1808   184.6567 </r>
       <r>     3.7276     8.8961   185.3672 </r>
       <r>     3.8074     6.0629   185.8514 </r>
       <r>     3.8873     3.6814   186.1454 </r>
       <r>     3.9672     2.7431   186.3644 </r>
       <r>     4.0470     2.3023   186.5483 </r>
       <r>     4.1269     1.3812   186.6586 </r>
       <r>     4.2067     0.3099   186.6833 </r>
       <r>     4.2866    -0.3244   186.6574 </r>
       <r>     4.3665    -0.4048   186.6251 </r>
       <r>     4.4463     0.3711   186.6548 </r>
       <r>     4.5262     2.3908   186.8457 </r>
       <r>     4.6060     4.7764   187.2271 </r>
       <r>     4.6859     5.6935   187.6818 </r>
       <r>     4.7658     4.8233   188.0670 </r>
       <r>     4.8456     3.5320   188.3491 </r>
       <r>     4.9255     2.4661   188.5460 </r>
       <r>     5.0053     1.3149   188.6510 </r>
       <r>     5.0852     0.2118   188.6679 </r>
       <r>     5.1651    -0.3213   188.6423 </r>
       <r>     5.2449     0.1082   188.6509 </r>
       <r>     5.3248     1.7112   188.7876 </r>
       <r>     5.4046     4.0232   189.1089 </r>
       <r>     5.4845     5.8122   189.5730 </r>
       <r>     5.5644     6.4990   190.0920 </r>
       <r>     5.6442     6.8936   190.6426 </r>
       <r>     5.7241     7.4458   191.2372 </r>
       <r>     5.8039     7.2633   191.8172 </r>
       <r>     5.8838     5.9238   192.2903 </r>
       <r>     5.9637     4.2454   192.6293 </r>
       <r>     6.0435     2.8587   192.8576 </r>
       <r>     6.1234     1.8575   193.0060 </r>
       <r>     6.2032     1.7712   193.1474 </r>
       <r>     6.2831     3.4796   193.4253 </r>
       <r>     6.3630     6.3887   193.9355 </r>
       <r>     6.4428     7.9994   194.5743 </r>
       <r>     6.5227     7.0252   195.1354 </r>
       <r>     6.6025     5.0463   195.5384 </r>
       <r>     6.6824     3.7481   195.8377 </r>
       <r>     6.7623     3.3466   196.1050 </r>
       <r>     6.8421     3.8869   196.4154 </r>
       <r>     6.9220     5.0624   196.8197 </r>
       <r>     7.0018     5.7793   197.2812 </r>
       <r>     7.0817     6.0010   197.7604 </r>
       <r>     7.1616     6.8144   198.3046 </r>
       <r>     7.2414     8.1374   198.9545 </r>
       <r>     7.3213     8.9445   199.6688 </r>
       <r>     7.4011     8.7014   200.3637 </r>
       <r>     7.4810     7.0691   200.9282 </r>
       <r>     7.5609     4.4267   201.2817 </r>
       <r>     7.6407     2.5677   201.4868 </r>
       <r>     7.7206     2.8605   201.7152 </r>
       <r>     7.8004     4.8974   202.1063 </r>
       <r>     7.8803     7.3952   202.6969 </r>
       <r>     7.9602     8.9074   203.4083 </r>
       <r>     8.0400     8.2724   204.0689 </r>
       <r>     8.1199     5.8615   204.5370 </r>
       <r>     8.1998     3.7006   204.8325 </r>
       <r>     8.2796     3.2504   205.0921 </r>
       <r>     8.3595     4.2366   205.4305 </r>
       <r>     8.4393     6.1488   205.9215 </r>
       <r>     8.5192     8.7104   206.6171 </r>
       <r>     8.5991    10.4694   207.4532 </r>
       <r>     8.6789     9.4626   208.2089 </r>
       <r>     8.7588     6.0821   208.6946 </r>
       <r>     8.8386     3.2723   208.9559 </r>
       <r>     8.9185     3.1097   209.2043 </r>
       <r>     8.9984     4.5235   209.5655 </r>
       <r>     9.0782     5.0579   209.9694 </r>
       <r>     9.1581     4.2374   210.3078 </r>
       <r>     9.2379     4.0266   210.6294 </r>
       <r>     9.3178     5.7847   211.0914 </r>
       <r>     9.3977     8.2421   211.7496 </r>
       <r>     9.4775     9.0622   212.4733 </r>
       <r>     9.5574     7.4885   213.0713 </r>
       <r>     9.6372     5.0825   213.4772 </r>
       <r>     9.7171     3.8892   213.7878 </r>
       <r>     9.7970     4.2218   214.1250 </r>
       <r>     9.8768     5.1084   214.5329 </r>
       <r>     9.9567     6.3332   215.0387 </r>
       <r>    10.0365     8.1336   215.6882 </r>
       <r>    10.1164     9.3385   216.4340 </r>
       <r>    10.1963     8.4383   217.1079 </r>
       <r>    10.2761     6.2161   217.6043 </r>
       <r>    10.3560     4.7781   217.9859 </r>
       <r>    10.4358     4.8497   218.3732 </r>
       <r>    10.5157     5.9302   218.8468 </r>
       <r>    10.5956     7.5275   219.4479 </r>
       <r>    10.6754     8.8686   220.1562 </r>
       <r>    10.7553     9.0440   220.8785 </r>
       <r>    10.8351     8.4775   221.5555 </r>
       <r>    10.9150     8.4310   222.2288 </r>
       <r>    10.9949     8.6090   222.9163 </r>
       <r>    11.0747     7.8393   223.5423 </r>
       <r>    11.1546     6.8736   224.0913 </r>
       <r>    11.2344     7.6837   224.7049 </r>
       <r>    11.3143    10.2718   225.5252 </r>
       <r>    11.3942    12.0627   226.4885 </r>
       <r>    11.4740    10.8969   227.3588 </r>
       <r>    11.5539     7.7046   227.9741 </r>
       <r>    11.6337     5.2827   228.3959 </r>
       <r>    11.7136     5.1767   228.8093 </r>
       <r>    11.7935     6.5130   229.3295 </r>
       <r>    11.8733     7.2055   229.9049 </r>
       <r>    11.9532     5.9893   230.3832 </r>
       <r>    12.0330     3.5907   230.6700 </r>
       <r>    12.1129     1.6266   230.7999 </r>
       <r>    12.1928     0.7027   230.8560 </r>
       <r>    12.2726     0.4706   230.8936 </r>
       <r>    12.3525     0.6864   230.9484 </r>
       <r>    12.4323     1.1999   231.0442 </r>
       <r>    12.5122     1.6530   231.1762 </r>
       <r>    12.5921     1.8249   231.3220 </r>
       <r>    12.6719     1.8903   231.4729 </r>
       <r>    12.7518     2.0623   231.6376 </r>
       <r>    12.8316     2.1232   231.8072 </r>
       <r>    12.9115     1.6670   231.9403 </r>
       <r>    12.9914     0.8178   232.0056 </r>
       <r>    13.0712     0.1436   232.0171 </r>
       <r>    13.1511    -0.0947   232.0095 </r>
       <r>    13.2309    -0.0807   232.0031 </r>
       <r>    13.3108    -0.0302   232.0007 </r>
       <r>    13.3907    -0.0070   232.0001 </r>
       <r>    13.4705    -0.0011   232.0000 </r>
       <r>    13.5504    -0.0001   232.0000 </r>
       <r>    13.6302    -0.0000   232.0000 </r>
       <r>    13.7101    -0.0000   232.0000 </r>
       <r>    13.7900    -0.0000   232.0000 </r>
       <r>    13.8698    -0.0000   232.0000 </r>
       <r>    13.9497    -0.0000   232.0000 </r>
       <r>    14.0295    -0.0000   232.0000 </r>
       <r>    14.1094    -0.0000   232.0000 </r>
       <r>    14.1893     0.0000   232.0000 </r>
       <r>    14.2691     0.0000   232.0000 </r>
       <r>    14.3490     0.0000   232.0000 </r>
       <r>    14.4288     0.0000   232.0000 </r>
       <r>    14.5087     0.0000   232.0000 </r>
       <r>    14.5886     0.0000   232.0000 </r>
       <r>    14.6684     0.0000   232.0000 </r>
       <r>    14.7483     0.0000   232.0000 </r>
       <r>    14.8282     0.0000   232.0000 </r>
      </set>
     </set>
    </array>
   </total>
  </dos>
 </calculation>
 <structure name="finalpos" >
  <crystal>
   <varray name="basis" >
    <v>       5.13359547       0.00000000       0.00000000 </v>
    <v>       2.56679773       4.44582409       0.00000000 </v>
    <v>       0.00000000       0.00000000      29.67047119 </v>
   </varray>
   <i name="volume">    677.17101477 </i>
   <varray name="rec_basis" >
    <v>       0.19479525      -0.11246509       0.00000000 </v>
    <v>       0.00000000       0.22493018       0.00000000 </v>
    <v>       0.00000000       0.00000000       0.03370354 </v>
   </varray>
  </crystal>
  <varray name="positions" >
   <v>      -0.00020875       0.00058427      -0.00094615 </v>
   <v>      -0.00032145       0.50064291      -0.00094388 </v>
   <v>       0.49962448       0.00058427      -0.00094615 </v>
   <v>       0.49965753       0.50068495      -0.00096440 </v>
   <v>       0.16650717       0.16698567       0.06827683 </v>
   <v>       0.16647191       0.66701152       0.06827688 </v>
   <v>       0.66646509       0.16706982       0.06819967 </v>
   <v>       0.66651657       0.66701152       0.06827688 </v>
   <v>       0.33335489       0.33329890       0.13608371 </v>
   <v>       0.33329235       0.83341529       0.13609479 </v>
   <v>       0.83334621       0.33329890       0.13608371 </v>
   <v>       0.83324393       0.83351213       0.13609739 </v>
   <v>       0.00020487      -0.00056607       0.20434484 </v>
   <v>       0.00033024       0.49933952       0.20433101 </v>
   <v>       0.50036120      -0.00056607       0.20434484 </v>
   <v>       0.50035310       0.49929380       0.20428990 </v>
   <v>       0.16732029       0.16535942       0.27255720 </v>
   <v>       0.16753273       0.66518209       0.27252539 </v>
   <v>       0.66728279       0.16543442       0.27252909 </v>
   <v>       0.66728518       0.66518209       0.27252539 </v>
   <v>       0.33440402       0.33128894       0.34069816 </v>
   <v>       0.33433013       0.83133974       0.34070335 </v>
   <v>       0.83430705       0.33128894       0.34069816 </v>
   <v>       0.83445392       0.83109217       0.34058169 </v>
   <v>       0.00113434      -0.00298185       0.40840910 </v>
   <v>       0.00136616       0.49726768       0.40852336 </v>
   <v>       0.50184751      -0.00298185       0.40840910 </v>
   <v>       0.50137028       0.49725945       0.40844763 </v>
   <v>       0.16839677       0.16320645       0.47748650 </v>
   <v>       0.16836659       0.66388259       0.47767644 </v>
   <v>       0.66796850       0.16406300       0.47762278 </v>
   <v>       0.66775083       0.66388259       0.47767644 </v>
   <v>      -0.01542036       0.53084073       0.56943017 </v>
   <v>       0.93844509       0.62310982       0.59077911 </v>
  </varray>
 </structure>
</modeling>
