unknown system                          
           1
     5.133595    0.000000    0.000000
     2.566798    4.445824    0.000000
     0.000000    0.000000   29.670471
   Cu   H 
    32     2
Direct configuration=     1
   0.00000000  0.00000000  0.00000000
   1.00000000  0.50000000  0.00000000
   0.50000000  0.00000000  0.00000000
   0.50000000  0.50000000  0.00000000
   0.16666667  0.16666667  0.07063526
   0.16666667  0.66666667  0.07063526
   0.66666667  0.16666667  0.07063526
   0.66666667  0.66666667  0.07063526
   0.33333333  0.33333333  0.13847021
   0.33333333  0.83333333  0.13847021
   0.83333333  0.33333333  0.13847021
   0.83333333  0.83333333  0.13847021
   0.00000000  0.00000000  0.20667428
   1.00000000  0.50000000  0.20667428
   0.50000000  0.00000000  0.20667428
   0.50000000  0.50000000  0.20667428
   0.16666667  0.16666667  0.27488859
   0.16666667  0.66666667  0.27488859
   0.66666667  0.16666667  0.27488859
   0.66666667  0.66666667  0.27488859
   0.33333333  0.33333333  0.34319917
   0.33333333  0.83333333  0.34319917
   0.83333333  0.33333333  0.34319917
   0.83333333  0.83333333  0.34319917
   0.00000000  0.00000000  0.41105828
   1.00000000  0.50000000  0.41105828
   0.50000000  0.00000000  0.41105828
   0.50000000  0.50000000  0.41105828
   0.16666667  0.16666667  0.48054462
   0.16666667  0.66666667  0.48054462
   0.66666667  0.16666667  0.48054462
   0.66666667  0.66666667  0.48054462
   0.00000000  0.50000000  0.53425930
   0.94067448  0.61865104  0.55203798
Direct configuration=     2
   0.00018753 -0.00004108  0.00023508
   0.00002469  0.49995062  0.00025587
   0.49985355 -0.00004108  0.00023508
   0.49992560  0.50014881  0.00022878
   0.16664437  0.16671126  0.07042021
   0.16667052  0.66663302  0.07043110
   0.66665690  0.16668621  0.07038477
   0.66669646  0.66663302  0.07043110
   0.33351303  0.33318347  0.13845440
   0.33330563  0.83338873  0.13845011
   0.83330350  0.33318347  0.13845440
   0.83321834  0.83356332  0.13843877
   0.00007948  0.00002334  0.20668562
   0.00002776  0.49994448  0.20671332
   0.49989718  0.00002334  0.20668562
   0.50000342  0.49999315  0.20665506
   0.16680855  0.16638290  0.27487276
   0.16695324  0.66672920  0.27491449
   0.66659050  0.16681900  0.27488482
   0.66631755  0.66672920  0.27491449
   0.33369615  0.33305499  0.34322771
   0.33329926  0.83340148  0.34326519
   0.83324886  0.33305499  0.34322771
   0.83307130  0.83385740  0.34317267
  -0.00013963 -0.00006527  0.41119635
   0.99987881  0.50024237  0.41105506
   0.50020491 -0.00006527  0.41119635
   0.50003196  0.49993607  0.41121912
   0.16839498  0.16321003  0.48010440
   0.16842445  0.66769105  0.48018685
   0.66632104  0.16735792  0.48015423
   0.66388450  0.66769105  0.48018685
   0.00400903  0.49198195  0.53354936
   0.93633772  0.62732457  0.55369121
Direct configuration=     3
   0.00010097 -0.00002212  0.00012658
   0.00001329  0.49997341  0.00013777
   0.49992115 -0.00002212  0.00012658
   0.49995994  0.50008012  0.00012318
   0.16665466  0.16669068  0.07051947
   0.16666874  0.66664855  0.07052533
   0.66666141  0.16667719  0.07050039
   0.66668271  0.66664855  0.07052533
   0.33343009  0.33325264  0.13846170
   0.33331842  0.83336316  0.13845939
   0.83331727  0.33325264  0.13846170
   0.83327142  0.83345717  0.13845328
   0.00004280  0.00001256  0.20668039
   0.00001495  0.49997011  0.20669530
   0.49994464  0.00001256  0.20668039
   0.50000184  0.49999631  0.20666393
   0.16674306  0.16651387  0.27488006
   0.16682097  0.66670034  0.27490254
   0.66662566  0.16674869  0.27488656
   0.66647869  0.66670034  0.27490254
   0.33352869  0.33318346  0.34321454
   0.33331499  0.83337003  0.34323472
   0.83328785  0.33318346  0.34321454
   0.83319224  0.83361552  0.34318490
  -0.00007519 -0.00003515  0.41113262
   0.99993475  0.50013051  0.41105654
   0.50011033 -0.00003515  0.41113262
   0.50001721  0.49996558  0.41114488
   0.16759727  0.16480546  0.48030758
   0.16761313  0.66721824  0.48035198
   0.66648057  0.16703887  0.48033442
   0.66516862  0.66721824  0.48035198
   0.00215864  0.49568272  0.53387704
   0.93833937  0.62332126  0.55292815
Direct configuration=     4
   0.00028670 -0.00006162  0.00035334
   0.00003554  0.49992892  0.00038928
   0.49977492 -0.00006162  0.00035334
   0.49988675  0.50022651  0.00034292
   0.16663015  0.16673970  0.07032241
   0.16667122  0.66661342  0.07034000
   0.66665114  0.16669773  0.07026411
   0.66671536  0.66661342  0.07034000
   0.33358334  0.33311312  0.13842776
   0.33329053  0.83341894  0.13842049
   0.83330354  0.33311312  0.13842776
   0.83316619  0.83366763  0.13840522
   0.00011909  0.00002740  0.20669332
   0.00003224  0.49993552  0.20673620
   0.49985351  0.00002740  0.20669332
   0.50000762  0.49998475  0.20664438
   0.16687525  0.16624950  0.27486595
   0.16710000  0.66674785  0.27492991
   0.66654571  0.16690858  0.27487265
   0.66615215  0.66674785  0.27492991
   0.33386643  0.33291621  0.34325864
   0.33328598  0.83342805  0.34332088
   0.83321737  0.33291621  0.34325864
   0.83293310  0.83413380  0.34316884
  -0.00024378 -0.00009753  0.41123885
   0.99980190  0.50039620  0.41103909
   0.50034130 -0.00009753  0.41123885
   0.50005878  0.49988243  0.41127320
   0.16908703  0.16182594  0.47989996
   0.16903487  0.66798308  0.48004540
   0.66615874  0.16768253  0.47994603
   0.66298205  0.66798308  0.48004540
   0.00182490  0.49635021  0.53441839
   0.93831154  0.62337691  0.55327451
Direct configuration=     5
   0.00051516 -0.00011020  0.00063228
   0.00006290  0.49987420  0.00069867
   0.49959505 -0.00011020  0.00063228
   0.49979671  0.50040657  0.00061322
   0.16659999  0.16680001  0.07008001
   0.16667427  0.66657021  0.07011203
   0.66663851  0.16672299  0.06997346
   0.66675552  0.66657021  0.07011203
   0.33377185  0.33294149  0.13838601
   0.33325622  0.83348756  0.13837264
   0.83328666  0.33294149  0.13838601
   0.83303674  0.83392651  0.13834611
   0.00021294  0.00004565  0.20670922
   0.00005351  0.49989299  0.20678651
   0.49974141  0.00004565  0.20670922
   0.50001474  0.49997053  0.20662032
   0.16703786  0.16592429  0.27484859
   0.16744325  0.66680629  0.27496359
   0.66644737  0.16710525  0.27485553
   0.66575046  0.66680629  0.27496359
   0.33428188  0.33258745  0.34331288
   0.33325029  0.83349942  0.34342686
   0.83313067  0.33258745  0.34331288
   0.83261432  0.83477135  0.34314908
  -0.00045116 -0.00017426  0.41136951
   0.99963849  0.50072303  0.41101762
   0.50062542 -0.00017426  0.41136951
   0.50010993  0.49978015  0.41143104
   0.17091960  0.15816080  0.47939853
   0.17078376  0.66892391  0.47966827
   0.66576285  0.16847431  0.47946827
   0.66029233  0.66892391  0.47966827
   0.00141436  0.49717129  0.53508432
   0.93827731  0.62344537  0.55370057
Direct configuration=     6
   0.00054430 -0.00012900  0.00071262
   0.00004774  0.49990452  0.00079951
   0.49958470 -0.00012900  0.00071262
   0.49977966  0.50044068  0.00069027
   0.16659700  0.16680600  0.07014451
   0.16667452  0.66656754  0.07017699
   0.66663805  0.16672391  0.06999623
   0.66675795  0.66656754  0.07017699
   0.33366481  0.33299535  0.13826296
   0.33326711  0.83346578  0.13825078
   0.83333984  0.33299535  0.13826296
   0.83308302  0.83383396  0.13823535
   0.00021567 -0.00003570  0.20669310
  -0.00001003  0.50002006  0.20678889
   0.49982003 -0.00003570  0.20669310
   0.50000727  0.49998545  0.20659527
   0.16699557  0.16600886  0.27490016
   0.16739811  0.66675560  0.27500088
   0.66644165  0.16711669  0.27484419
   0.66584629  0.66675560  0.27500088
   0.33417292  0.33265944  0.34335457
   0.33327774  0.83344453  0.34352567
   0.83316764  0.33265944  0.34335457
   0.83262980  0.83474040  0.34316180
  -0.00070309 -0.00015262  0.41116349
   0.99960856  0.50078287  0.41096320
   0.50085571 -0.00015262  0.41116349
   0.50020144  0.49959712  0.41120942
   0.17077181  0.15845638  0.47918806
   0.17032582  0.66842915  0.47952183
   0.66576925  0.16846149  0.47927650
   0.66124503  0.66842915  0.47952183
   0.00054146  0.49891707  0.53585254
   0.93878377  0.62243246  0.55398372
Direct configuration=     7
   0.00056764 -0.00014406  0.00077696
   0.00003560  0.49992880  0.00088026
   0.49957642 -0.00014406  0.00077696
   0.49976600  0.50046799  0.00075198
   0.16659461  0.16681079  0.07019616
   0.16667471  0.66656540  0.07022902
   0.66663768  0.16672464  0.07001446
   0.66675988  0.66656540  0.07022902
   0.33357909  0.33303847  0.13816441
   0.33327584  0.83344833  0.13815318
   0.83338244  0.33303847  0.13816441
   0.83312008  0.83375984  0.13814665
   0.00021785 -0.00010085  0.20668018
  -0.00006091  0.50012183  0.20679080
   0.49988299 -0.00010085  0.20668018
   0.50000130  0.49999740  0.20657521
   0.16696171  0.16607658  0.27494145
   0.16736197  0.66671500  0.27503075
   0.66643708  0.16712585  0.27483511
   0.66592303  0.66671500  0.27503075
   0.33408567  0.33271708  0.34338795
   0.33329972  0.83340056  0.34360479
   0.83319725  0.33271708  0.34338795
   0.83264219  0.83471562  0.34317198
  -0.00090484 -0.00013529  0.41099850
   0.99958460  0.50083079  0.41091961
   0.50104013 -0.00013529  0.41099850
   0.50027473  0.49945054  0.41103193
   0.17065345  0.15869309  0.47901950
   0.16995910  0.66803294  0.47940457
   0.66577439  0.16845123  0.47912293
   0.66200796  0.66803294  0.47940457
  -0.00015756  0.50031513  0.53646774
   0.93918935  0.62162130  0.55421047
Direct configuration=     8
   0.00057338 -0.00014952  0.00080031
   0.00003031  0.49993938  0.00090962
   0.49957614 -0.00014952  0.00080031
   0.49976207  0.50047587  0.00077440
   0.16659563  0.16680874  0.07021621
   0.16667542  0.66656659  0.07024896
   0.66663821  0.16672358  0.07002383
   0.66675800  0.66656659  0.07024896
   0.33355038  0.33305272  0.13813303
   0.33327947  0.83344107  0.13812255
   0.83339691  0.33305272  0.13813303
   0.83313270  0.83373461  0.13811862
   0.00022189 -0.00012326  0.20667245
  -0.00007681  0.50015361  0.20678858
   0.49990138 -0.00012326  0.20667245
   0.49999901  0.50000198  0.20656535
   0.16695081  0.16609838  0.27495656
   0.16734924  0.66670157  0.27504093
   0.66643569  0.16712863  0.27483198
   0.66594918  0.66670157  0.27504093
   0.33403931  0.33274655  0.34339284
   0.33330794  0.83338413  0.34362492
   0.83321413  0.33274655  0.34339284
   0.83265500  0.83468999  0.34316898
  -0.00096438 -0.00013617  0.41093296
   0.99958126  0.50083748  0.41089983
   0.50110055 -0.00013617  0.41093296
   0.50029518  0.49940964  0.41096259
   0.17060022  0.15879956  0.47895221
   0.16981814  0.66787690  0.47935386
   0.66578365  0.16843271  0.47906332
   0.66230496  0.66787690  0.47935386
  -0.00019391  0.50038782  0.53665849
   0.93910011  0.62179978  0.55439019
Direct configuration=     9
   0.00059061 -0.00016589  0.00087037
   0.00001445  0.49997111  0.00099772
   0.49957528 -0.00016589  0.00087037
   0.49975026  0.50049949  0.00084164
   0.16659871  0.16680259  0.07027636
   0.16667753  0.66657013  0.07030877
   0.66663980  0.16672041  0.07005194
   0.66675234  0.66657013  0.07030877
   0.33346423  0.33309545  0.13803889
   0.33329036  0.83341928  0.13803065
   0.83344032  0.33309545  0.13803889
   0.83317054  0.83365893  0.13803455
   0.00023399 -0.00019052  0.20664926
  -0.00012449  0.50024898  0.20678195
   0.49995653 -0.00019052  0.20664926
   0.49999214  0.50001573  0.20653576
   0.16691812  0.16616375  0.27500191
   0.16731107  0.66666130  0.27507147
   0.66643151  0.16713697  0.27482257
   0.66602763  0.66666130  0.27507147
   0.33390024  0.33283497  0.34340751
   0.33333258  0.83333483  0.34368530
   0.83326478  0.33283497  0.34340751
   0.83269345  0.83461310  0.34315996
  -0.00114299 -0.00013882  0.41073633
   0.99957123  0.50085754  0.41084048
   0.50128181 -0.00013882  0.41073633
   0.50035654  0.49928692  0.41075457
   0.17044052  0.15911896  0.47875034
   0.16939526  0.66740879  0.47920175
   0.66581143  0.16837714  0.47888449
   0.66319595  0.66740879  0.47920175
  -0.00030295  0.50060590  0.53723072
   0.93883238  0.62233525  0.55492934
Direct configuration=    10
   0.00062507 -0.00019863  0.00101050
  -0.00001728  0.50003456  0.00117391
   0.49957356 -0.00019863  0.00101050
   0.49972664  0.50054673  0.00097613
   0.16660486  0.16679029  0.07039665
   0.16668176  0.66657722  0.07042839
   0.66664297  0.16671405  0.07010817
   0.66674101  0.66657722  0.07042839
   0.33329193  0.33318093  0.13785061
   0.33331215  0.83337571  0.13784684
   0.83352714  0.33318093  0.13785061
   0.83324622  0.83350756  0.13786639
   0.00025819 -0.00032503  0.20660286
  -0.00021985  0.50043970  0.20676867
   0.50006684 -0.00032503  0.20660286
   0.49997839  0.50004322  0.20647658
   0.16685275  0.16629450  0.27509260
   0.16723472  0.66658074  0.27513254
   0.66642317  0.16715366  0.27480375
   0.66618454  0.66658074  0.27513254
   0.33362211  0.33301181  0.34343684
   0.33338188  0.83323623  0.34380607
   0.83336608  0.33301181  0.34343684
   0.83277033  0.83445933  0.34314193
  -0.00150021 -0.00014412  0.41034306
   0.99955116  0.50089767  0.41072180
   0.50164432 -0.00014412  0.41034306
   0.50047926  0.49904148  0.41033853
   0.17012112  0.15975776  0.47834660
   0.16854950  0.66647258  0.47889752
   0.66586700  0.16826600  0.47852683
   0.66497792  0.66647258  0.47889752
  -0.00052103  0.50104206  0.53837519
   0.93829691  0.62340617  0.55600766
Direct configuration=    11
   0.00069399 -0.00026411  0.00129076
  -0.00008073  0.50016146  0.00152628
   0.49957013 -0.00026411  0.00129076
   0.49967939  0.50064122  0.00124510
   0.16661716  0.16676569  0.07063723
   0.16669022  0.66659141  0.07066762
   0.66664933  0.16670135  0.07022062
   0.66671837  0.66659141  0.07066762
   0.33294734  0.33335187  0.13747405
   0.33335572  0.83328856  0.13747923
   0.83370079  0.33335187  0.13747405
   0.83339758  0.83320483  0.13753009
   0.00030660 -0.00059406  0.20651008
  -0.00041058  0.50082115  0.20674212
   0.50028746 -0.00059406  0.20651008
   0.49995090  0.50009820  0.20635822
   0.16672200  0.16655600  0.27527399
   0.16708203  0.66641963  0.27525468
   0.66640648  0.16718704  0.27476610
   0.66649834  0.66641963  0.27525468
   0.33306583  0.33336549  0.34349550
   0.33348048  0.83303904  0.34404759
   0.83356868  0.33336549  0.34349550
   0.83292411  0.83415178  0.34310586
  -0.00221465 -0.00015470  0.40955653
   0.99951104  0.50097792  0.41048442
   0.50236935 -0.00015470  0.40955653
   0.50072470  0.49855061  0.40950645
   0.16948232  0.16103537  0.47753913
   0.16685799  0.66460015  0.47828906
   0.66597813  0.16804373  0.47781151
   0.66854186  0.66460015  0.47828906
  -0.00095719  0.50191438  0.54066412
   0.93722599  0.62554802  0.55816428
Direct configuration=    12
   0.00069490 -0.00026584  0.00137170
  -0.00009338  0.50018676  0.00162039
   0.49957094 -0.00026584  0.00137170
   0.49967444  0.50065112  0.00132467
   0.16664471  0.16671058  0.07059719
   0.16669897  0.66662591  0.07062813
   0.66665447  0.16669107  0.07020355
   0.66667512  0.66662591  0.07062813
   0.33303156  0.33329264  0.13754446
   0.33335473  0.83329055  0.13755566
   0.83367581  0.33329264  0.13754446
   0.83334860  0.83330281  0.13759234
   0.00038574 -0.00056312  0.20645344
  -0.00036129  0.50072258  0.20669261
   0.50017739 -0.00056312  0.20645344
   0.49995175  0.50009650  0.20630001
   0.16678110  0.16643781  0.27526726
   0.16716123  0.66645840  0.27524193
   0.66638656  0.16722689  0.27475550
   0.66638038  0.66645840  0.27524193
   0.33285021  0.33346560  0.34334033
   0.33346595  0.83306810  0.34385506
   0.83368419  0.33346560  0.34334033
   0.83301943  0.83396114  0.34294863
  -0.00201845 -0.00030280  0.40948994
   0.99958160  0.50083679  0.41035236
   0.50232125 -0.00030280  0.40948994
   0.50063934  0.49872132  0.40947059
   0.16964569  0.16070862  0.47730337
   0.16699142  0.66444546  0.47806539
   0.66605034  0.16789932  0.47759547
   0.66856312  0.66444546  0.47806539
  -0.00043941  0.50087881  0.54130634
   0.93619277  0.62761446  0.55916731
Direct configuration=    13
   0.00069582 -0.00026758  0.00145321
  -0.00010613  0.50021225  0.00171517
   0.49957176 -0.00026758  0.00145321
   0.49966945  0.50066109  0.00140480
   0.16667246  0.16665508  0.07055687
   0.16670777  0.66666066  0.07058836
   0.66665964  0.16668072  0.07018636
   0.66663157  0.66666066  0.07058836
   0.33311637  0.33323298  0.13761537
   0.33335373  0.83329255  0.13763263
   0.83365065  0.33323298  0.13761537
   0.83329926  0.83340148  0.13765503
   0.00046544 -0.00053197  0.20639640
  -0.00031165  0.50062330  0.20664275
   0.50006653 -0.00053197  0.20639640
   0.49995260  0.50009480  0.20624137
   0.16684061  0.16631877  0.27526048
   0.16724099  0.66649743  0.27522908
   0.66636649  0.16726701  0.27474482
   0.66626158  0.66649743  0.27522908
   0.33263306  0.33356641  0.34318405
   0.33345132  0.83309736  0.34366117
   0.83380053  0.33356641  0.34318405
   0.83311543  0.83376914  0.34279028
  -0.00182087 -0.00045194  0.40942287
   0.99965267  0.50069466  0.41021936
   0.50227281 -0.00045194  0.40942287
   0.50055338  0.49889325  0.40943448
   0.16981022  0.16037955  0.47706594
   0.16712580  0.66428967  0.47784013
   0.66612306  0.16775389  0.47737789
   0.66858453  0.66428967  0.47784013
   0.00008205  0.49983591  0.54195311
   0.93515223  0.62969554  0.56017746
Direct configuration=    14
   0.00065853 -0.00023668  0.00148795
  -0.00010428  0.50020855  0.00174664
   0.49957815 -0.00023668  0.00148795
   0.49968493  0.50063014  0.00144202
   0.16670617  0.16658766  0.07045027
   0.16672368  0.66669810  0.07048323
   0.66665964  0.16668072  0.07015496
   0.66657822  0.66669810  0.07048323
   0.33331689  0.33311082  0.13782167
   0.33334265  0.83331470  0.13784225
   0.83357229  0.33311082  0.13782167
   0.83319762  0.83360475  0.13783947
   0.00054709 -0.00040106  0.20635904
  -0.00018060  0.50036119  0.20659142
   0.49985396 -0.00040106  0.20635904
   0.49997264  0.50005472  0.20620911
   0.16696027  0.16607946  0.27513065
   0.16738773  0.66659862  0.27510722
   0.66634596  0.16730808  0.27469314
   0.66601365  0.66659862  0.27510722
   0.33260664  0.33356096  0.34292087
   0.33340777  0.83318446  0.34327556
   0.83383241  0.33356096  0.34292087
   0.83316640  0.83366719  0.34255420
  -0.00129920 -0.00069763  0.40949533
   0.99979339  0.50041322  0.41002190
   0.50199683 -0.00069763  0.40949533
   0.50035988  0.49928024  0.40956654
   0.17023529  0.15952943  0.47694637
   0.16783803  0.66456558  0.47767122
   0.66624398  0.16751205  0.47725025
   0.66759639  0.66456558  0.47767122
  -0.00078490  0.50156981  0.54295905
   0.93553304  0.62893391  0.56081208
Direct configuration=    15
   0.00062542 -0.00020925  0.00151880
  -0.00010263  0.50020527  0.00177458
   0.49958383 -0.00020925  0.00151880
   0.49969867  0.50060265  0.00147507
   0.16673610  0.16652780  0.07035562
   0.16673780  0.66673134  0.07038988
   0.66665964  0.16668072  0.07012709
   0.66653085  0.66673134  0.07038988
   0.33349493  0.33300235  0.13800484
   0.33333282  0.83333436  0.13802837
   0.83350272  0.33300235  0.13800484
   0.83310738  0.83378524  0.13800323
   0.00061960 -0.00028483  0.20632587
  -0.00006424  0.50012847  0.20654584
   0.49966523 -0.00028483  0.20632587
   0.49999043  0.50001914  0.20618047
   0.16706651  0.16586698  0.27501538
   0.16751802  0.66668847  0.27499902
   0.66632773  0.16734455  0.27464726
   0.66579352  0.66668847  0.27499902
   0.33258318  0.33355611  0.34268719
   0.33336910  0.83326179  0.34293318
   0.83386071  0.33355611  0.34268719
   0.83321167  0.83357667  0.34234459
  -0.00083602 -0.00091576  0.40955966
   0.99991833  0.50016334  0.40984659
   0.50175179 -0.00091576  0.40955966
   0.50018808  0.49962383  0.40968379
   0.17061269  0.15877463  0.47684020
   0.16847040  0.66481055  0.47752126
   0.66635134  0.16729732  0.47713691
   0.66671905  0.66481055  0.47752126
  -0.00155465  0.50310930  0.54385221
   0.93587116  0.62825768  0.56137554
Direct configuration=    16
   0.00055921 -0.00015438  0.00158049
  -0.00009935  0.50019870  0.00183046
   0.49959517 -0.00015438  0.00158049
   0.49972616  0.50054769  0.00154117
   0.16679596  0.16640809  0.07016632
   0.16676605  0.66679783  0.07020319
   0.66665964  0.16668072  0.07007134
   0.66643612  0.66679783  0.07020319
   0.33385100  0.33278542  0.13837118
   0.33331315  0.83337370  0.13840059
   0.83336358  0.33278542  0.13837118
   0.83292690  0.83414620  0.13833074
   0.00076460 -0.00005237  0.20625953
   0.00016848  0.49966303  0.20645468
   0.49928777 -0.00005237  0.20625953
   0.50002601  0.49994797  0.20612317
   0.16727899  0.16544202  0.27478484
   0.16777860  0.66686815  0.27478262
   0.66629126  0.16741748  0.27455550
   0.66535325  0.66686815  0.27478262
   0.33253626  0.33354642  0.34221983
   0.33329177  0.83341646  0.34224843
   0.83391732  0.33354642  0.34221983
   0.83330219  0.83339563  0.34192537
   0.00009033 -0.00135204  0.40968832
   0.00016821  0.49966357  0.40949595
   0.50126171 -0.00135204  0.40968832
   0.49984449  0.50031103  0.40991830
   0.17136749  0.15726502  0.47662787
   0.16973514  0.66530050  0.47722133
   0.66656606  0.16686787  0.47691023
   0.66496437  0.66530050  0.47722133
  -0.00309414  0.50618828  0.54563852
   0.93654740  0.62690520  0.56250247
Direct configuration=    17
   0.00060365 -0.00019121  0.00153908
  -0.00010155  0.50020311  0.00179296
   0.49958756 -0.00019121  0.00153908
   0.49970771  0.50058458  0.00149681
   0.16675578  0.16648844  0.07029337
   0.16674709  0.66675321  0.07032849
   0.66665964  0.16668072  0.07010875
   0.66649970  0.66675321  0.07032849
   0.33361201  0.33293102  0.13812530
   0.33332635  0.83334730  0.13815076
   0.83345697  0.33293102  0.13812530
   0.83304803  0.83390393  0.13811093
   0.00066728 -0.00020839  0.20630406
   0.00001229  0.49997542  0.20651586
   0.49954111 -0.00020839  0.20630406
   0.50000213  0.49999574  0.20616163
   0.16713638  0.16572724  0.27493957
   0.16760370  0.66674755  0.27492786
   0.66631574  0.16736853  0.27461709
   0.66564875  0.66674755  0.27492786
   0.33256775  0.33355292  0.34253351
   0.33334367  0.83331265  0.34270801
   0.83387932  0.33355292  0.34253351
   0.83324143  0.83351714  0.34220674
  -0.00053141 -0.00105922  0.40960197
   0.00000050  0.49999900  0.40973129
   0.50159064 -0.00105922  0.40960197
   0.50007510  0.49984980  0.40976091
   0.17086089  0.15827822  0.47677038
   0.16888628  0.66497166  0.47742263
   0.66642195  0.16715611  0.47706237
   0.66614206  0.66497166  0.47742263
  -0.00206088  0.50412175  0.54443960
   0.93609353  0.62781295  0.56174611
Direct configuration=    18
   0.00048709 -0.00011261  0.00150021
  -0.00008972  0.50017943  0.00172865
   0.49962552 -0.00011261  0.00150021
   0.49975910  0.50048181  0.00146550
   0.16676691  0.16646617  0.07027884
   0.16676480  0.66675581  0.07031313
   0.66664439  0.16671121  0.07017310
   0.66647940  0.66675581  0.07031313
   0.33370131  0.33289337  0.13830028
   0.33332674  0.83334652  0.13831876
   0.83340532  0.33289337  0.13830028
   0.83301808  0.83396384  0.13827655
   0.00062561 -0.00007494  0.20634778
   0.00012075  0.49975851  0.20652087
   0.49944933 -0.00007494  0.20634778
   0.50004799  0.49990401  0.20621764
   0.16717349  0.16565302  0.27462850
   0.16761332  0.66680560  0.27462403
   0.66633110  0.16733781  0.27444673
   0.66558108  0.66680560  0.27462403
   0.33298261  0.33337810  0.34229109
   0.33332495  0.83335011  0.34234352
   0.83363928  0.33337810  0.34229109
   0.83315667  0.83368665  0.34201182
  -0.00004615 -0.00128431  0.40956099
   0.00018949  0.49962102  0.40946070
   0.50133046 -0.00128431  0.40956099
   0.49995829  0.50008342  0.40975414
   0.17110523  0.15778954  0.47680764
   0.16960470  0.66528170  0.47733850
   0.66665793  0.16668413  0.47707969
   0.66511360  0.66528170  0.47733850
  -0.00194070  0.50388140  0.54529202
   0.93543317  0.62913366  0.56282225
Direct configuration=    19
   0.00037679 -0.00003823  0.00146343
  -0.00007852  0.50015703  0.00166779
   0.49966143 -0.00003823  0.00146343
   0.49980772  0.50038456  0.00143587
   0.16677745  0.16644510  0.07026509
   0.16678156  0.66675826  0.07029860
   0.66662997  0.16674006  0.07023399
   0.66646018  0.66675826  0.07029860
   0.33378580  0.33285775  0.13846585
   0.33332711  0.83334578  0.13847772
   0.83335644  0.33285775  0.13846585
   0.83298974  0.83402053  0.13843328
   0.00058619  0.00005133  0.20638915
   0.00022337  0.49955326  0.20652561
   0.49936248  0.00005133  0.20638915
   0.50009139  0.49981722  0.20627064
   0.16720861  0.16558279  0.27433414
   0.16762243  0.66686052  0.27433653
   0.66634563  0.16730874  0.27428553
   0.66551706  0.66686052  0.27433653
   0.33337517  0.33321268  0.34206169
   0.33330722  0.83338555  0.34199861
   0.83341215  0.33321268  0.34206169
   0.83307647  0.83384705  0.34182737
   0.00041302 -0.00149730  0.40952222
   0.00036832  0.49926335  0.40920466
   0.50108428 -0.00149730  0.40952222
   0.49984776  0.50030448  0.40974774
   0.17133644  0.15732712  0.47684289
   0.17028449  0.66557508  0.47725889
   0.66688123  0.16623753  0.47709608
   0.66414042  0.66557508  0.47725889
  -0.00182698  0.50365396  0.54609862
   0.93480831  0.63038338  0.56384054
Direct configuration=    20
   0.00020501  0.00006340  0.00136044
  -0.00006642  0.50013284  0.00151907
   0.49973159  0.00006340  0.00136044
   0.49987805  0.50024391  0.00134305
   0.16674457  0.16651086  0.07041415
   0.16677086  0.66671526  0.07044282
   0.66660802  0.16678396  0.07041221
   0.66651388  0.66671526  0.07044282
   0.33362461  0.33298585  0.13846787
   0.33334544  0.83330911  0.13846611
   0.83338954  0.33298585  0.13846787
   0.83310355  0.83379289  0.13845490
   0.00034476  0.00007728  0.20644964
   0.00020399  0.49959202  0.20653097
   0.49957796  0.00007728  0.20644964
   0.50015043  0.49969913  0.20634836
   0.16705001  0.16589997  0.27398144
   0.16736111  0.66677914  0.27397845
   0.66641726  0.16716549  0.27404448
   0.66585975  0.66677914  0.27397845
   0.33400469  0.33296551  0.34190136
   0.33333243  0.83333514  0.34180344
   0.83302980  0.33296551  0.34190136
   0.83295254  0.83409492  0.34171350
   0.00045274 -0.00153197  0.40926148
   0.00054117  0.49891766  0.40896684
   0.50107923 -0.00153197  0.40926148
   0.50002081  0.49995839  0.40944146
   0.17092139  0.15815723  0.47703346
   0.17029745  0.66544439  0.47729455
   0.66721399  0.16557202  0.47725512
   0.66425816  0.66544439  0.47729455
  -0.00258393  0.50516786  0.54730400
   0.93500671  0.62998658  0.56483313
Direct configuration=    21
   0.00001344  0.00017674  0.00124557
  -0.00005293  0.50010585  0.00135321
   0.49980982  0.00017674  0.00124557
   0.49995648  0.50008705  0.00123953
   0.16670791  0.16658418  0.07058039
   0.16675893  0.66666730  0.07060367
   0.66658354  0.16683291  0.07061097
   0.66657377  0.66666730  0.07060367
   0.33344484  0.33312870  0.13847013
   0.33336589  0.83326822  0.13845315
   0.83342646  0.33312870  0.13847013
   0.83323049  0.83353903  0.13847901
   0.00007551  0.00010622  0.20651710
   0.00018237  0.49963525  0.20653695
   0.49981827  0.00010622  0.20651710
   0.50021628  0.49956744  0.20643504
   0.16687315  0.16625371  0.27358810
   0.16706968  0.66668839  0.27357911
   0.66649713  0.16700573  0.27377565
   0.66624193  0.66668839  0.27357911
   0.33470676  0.33268986  0.34172256
   0.33336054  0.83327892  0.34158578
   0.83260339  0.33268986  0.34172256
   0.83281433  0.83437135  0.34158650
   0.00049704 -0.00157063  0.40897068
   0.00073393  0.49853213  0.40870161
   0.50107359 -0.00157063  0.40897068
   0.50021379  0.49957242  0.40909988
   0.17045850  0.15908299  0.47724600
   0.17031191  0.66529864  0.47733433
   0.66758510  0.16482981  0.47743249
   0.66438945  0.66529864  0.47733433
  -0.00342811  0.50685623  0.54864828
   0.93522797  0.62954406  0.56594012
Direct configuration=    22
  -0.00010169  0.00023707  0.00117505
  -0.00004927  0.50009855  0.00123584
   0.49986461  0.00023707  0.00117505
   0.49999284  0.50001431  0.00117598
   0.16667212  0.16665577  0.07070545
   0.16671684  0.66664172  0.07072295
   0.66658065  0.16683870  0.07073729
   0.66664145  0.66664172  0.07072295
   0.33329128  0.33324367  0.13842137
   0.33337460  0.83325080  0.13840076
   0.83346505  0.33324367  0.13842137
   0.83333802  0.83332395  0.13844824
  -0.00014664  0.00007540  0.20644393
   0.00012473  0.49975053  0.20641852
   0.50007124  0.00007540  0.20644393
   0.50024741  0.49950518  0.20637897
   0.16669109  0.16661782  0.27343211
   0.16680718  0.66657469  0.27341602
   0.66657011  0.16685978  0.27363662
   0.66661813  0.66657469  0.27341602
   0.33488118  0.33259750  0.34154625
   0.33338159  0.83323682  0.34143367
   0.83252131  0.33259750  0.34154625
   0.83288727  0.83422546  0.34144369
   0.00037806 -0.00152778  0.40873717
   0.00085629  0.49828741  0.40858783
   0.50114972 -0.00152778  0.40873717
   0.50048708  0.49902584  0.40879156
   0.16982251  0.16035498  0.47739816
   0.16997916  0.66494300  0.47736094
   0.66784824  0.16430351  0.47756581
   0.66507784  0.66494300  0.47736094
  -0.00325928  0.50651856  0.54956575
   0.93456043  0.63087914  0.56717529
Direct configuration=    23
  -0.00019082  0.00028379  0.00112045
  -0.00004645  0.50009289  0.00114497
   0.49990703  0.00028379  0.00112045
   0.50002100  0.49995800  0.00112678
   0.16664440  0.16671119  0.07080227
   0.16668424  0.66662191  0.07081531
   0.66657841  0.16684319  0.07083509
   0.66669384  0.66662191  0.07081531
   0.33317238  0.33333269  0.13838363
   0.33338134  0.83323732  0.13836019
   0.83349493  0.33333269  0.13838363
   0.83342128  0.83315743  0.13842442
  -0.00031863  0.00005154  0.20638728
   0.00008010  0.49983979  0.20632682
   0.50026710  0.00005154  0.20638728
   0.50027151  0.49945697  0.20633556
   0.16655013  0.16689974  0.27331134
   0.16660393  0.66648666  0.27328975
   0.66662662  0.16674677  0.27352897