 144 144   0   0
  0.2281663E+02  0.1089000E-08  0.1089000E-08  0.2770500E-08  0.5000000E-15
  1.000000000000000E-004
  CAR 
 unknown system                          
     13.08410061     -9.56950807  301      1.72671906      1.00000000
     -9.570  0.0000E+00  0.0000E+00  0.0000E+00  0.0000E+00
     -9.494  0.0000E+00  0.0000E+00  0.0000E+00  0.0000E+00
     -9.418  0.0000E+00  0.0000E+00  0.0000E+00  0.0000E+00
     -9.343  0.0000E+00  0.0000E+00  0.0000E+00  0.0000E+00
     -9.267  0.0000E+00  0.0000E+00  0.0000E+00  0.0000E+00
     -9.192 -0.1107E-30 -0.1107E-30 -0.8361E-32 -0.8361E-32
     -9.116 -0.4177E-28 -0.4177E-28 -0.3162E-29 -0.3162E-29
     -9.041 -0.1184E-25 -0.1184E-25 -0.8972E-27 -0.8972E-27
     -8.965 -0.2516E-23 -0.2516E-23 -0.1909E-24 -0.1909E-24
     -8.890 -0.4008E-21 -0.4008E-21 -0.3046E-22 -0.3046E-22
     -8.814 -0.4783E-19 -0.4783E-19 -0.3642E-20 -0.3642E-20
     -8.739 -0.4171E-17 -0.4171E-17 -0.3186E-18 -0.3186E-18
     -8.663 -0.2762E-15 -0.2762E-15 -0.2118E-16 -0.2118E-16
     -8.588 -0.1373E-13 -0.1373E-13 -0.1058E-14 -0.1058E-14
     -8.512 -0.5090E-12 -0.5090E-12 -0.3950E-13 -0.3950E-13
     -8.437 -0.1405E-10 -0.1405E-10 -0.1101E-11 -0.1101E-11
     -8.361 -0.2883E-09 -0.2883E-09 -0.2287E-10 -0.2287E-10
     -8.286 -0.4382E-08 -0.4382E-08 -0.3537E-09 -0.3537E-09
     -8.210 -0.4918E-07 -0.4918E-07 -0.4067E-08 -0.4067E-08
     -8.135 -0.4056E-06 -0.4056E-06 -0.3469E-07 -0.3469E-07
     -8.059 -0.2443E-05 -0.2443E-05 -0.2191E-06 -0.2191E-06
     -7.984 -0.1063E-04 -0.1063E-04 -0.1022E-05 -0.1022E-05
     -7.908 -0.3280E-04 -0.3280E-04 -0.3499E-05 -0.3499E-05
     -7.833 -0.6796E-04 -0.6796E-04 -0.8631E-05 -0.8631E-05
     -7.757 -0.7425E-04 -0.7425E-04 -0.1424E-04 -0.1424E-04
     -7.682  0.6131E-04  0.6131E-04 -0.9608E-05 -0.9608E-05
     -7.606  0.5040E-03  0.5040E-03  0.2845E-04  0.2845E-04
     -7.531  0.1359E-02  0.1359E-02  0.1311E-03  0.1311E-03
     -7.455  0.2479E-02  0.2479E-02  0.3183E-03  0.3183E-03
     -7.380  0.3390E-02  0.3390E-02  0.5743E-03  0.5743E-03
     -7.304  0.3537E-02  0.3537E-02  0.8413E-03  0.8413E-03
     -7.229  0.2776E-02  0.2776E-02  0.1051E-02  0.1051E-02
     -7.153  0.1764E-02  0.1764E-02  0.1184E-02  0.1184E-02
     -7.078  0.1727E-02  0.1727E-02  0.1315E-02  0.1315E-02
     -7.002  0.3442E-02  0.3442E-02  0.1574E-02  0.1574E-02
     -6.927  0.6330E-02  0.6330E-02  0.2052E-02  0.2052E-02
     -6.851  0.8607E-02  0.8607E-02  0.2702E-02  0.2702E-02
     -6.776  0.8575E-02  0.8575E-02  0.3350E-02  0.3350E-02
     -6.700  0.6183E-02  0.6183E-02  0.3817E-02  0.3817E-02
     -6.625  0.3249E-02  0.3249E-02  0.4062E-02  0.4062E-02
     -6.549  0.1987E-02  0.1987E-02  0.4212E-02  0.4212E-02
     -6.474  0.3338E-02  0.3338E-02  0.4464E-02  0.4464E-02
     -6.398  0.6432E-02  0.6432E-02  0.4950E-02  0.4950E-02
     -6.322  0.9428E-02  0.9428E-02  0.5662E-02  0.5662E-02
     -6.247  0.1084E-01  0.1084E-01  0.6480E-02  0.6480E-02
     -6.171  0.1026E-01  0.1026E-01  0.7255E-02  0.7255E-02
     -6.096  0.8358E-02  0.8358E-02  0.7886E-02  0.7886E-02
     -6.020  0.6544E-02  0.6544E-02  0.8380E-02  0.8380E-02
     -5.945  0.6132E-02  0.6132E-02  0.8843E-02  0.8843E-02
     -5.869  0.7435E-02  0.7435E-02  0.9405E-02  0.9405E-02
     -5.794  0.9615E-02  0.9615E-02  0.1013E-01  0.1013E-01
     -5.718  0.1145E-01  0.1145E-01  0.1100E-01  0.1100E-01
     -5.643  0.1213E-01  0.1213E-01  0.1191E-01  0.1191E-01
     -5.567  0.1144E-01  0.1144E-01  0.1277E-01  0.1277E-01
     -5.492  0.9867E-02  0.9867E-02  0.1352E-01  0.1352E-01
     -5.416  0.8674E-02  0.8674E-02  0.1417E-01  0.1418E-01
     -5.341  0.9163E-02  0.9163E-02  0.1487E-01  0.1487E-01
     -5.265  0.1101E-01  0.1101E-01  0.1570E-01  0.1570E-01
     -5.190  0.1205E-01  0.1205E-01  0.1661E-01  0.1661E-01
     -5.114  0.1109E-01  0.1109E-01  0.1745E-01  0.1745E-01
     -5.039  0.1021E-01  0.1021E-01  0.1822E-01  0.1822E-01
     -4.963  0.1234E-01  0.1234E-01  0.1915E-01  0.1915E-01
     -4.888  0.1674E-01  0.1674E-01  0.2041E-01  0.2041E-01
     -4.812  0.1919E-01  0.1919E-01  0.2186E-01  0.2186E-01
     -4.737  0.1730E-01  0.1730E-01  0.2317E-01  0.2317E-01
     -4.661  0.1370E-01  0.1370E-01  0.2420E-01  0.2420E-01
     -4.586  0.1251E-01  0.1251E-01  0.2515E-01  0.2515E-01
     -4.510  0.1442E-01  0.1442E-01  0.2624E-01  0.2624E-01
     -4.435  0.1668E-01  0.1668E-01  0.2750E-01  0.2750E-01
     -4.359  0.1692E-01  0.1692E-01  0.2877E-01  0.2877E-01
     -4.284  0.1556E-01  0.1556E-01  0.2995E-01  0.2995E-01
     -4.208  0.1479E-01  0.1479E-01  0.3106E-01  0.3106E-01
     -4.133  0.1649E-01  0.1649E-01  0.3231E-01  0.3231E-01
     -4.057  0.2084E-01  0.2084E-01  0.3388E-01  0.3388E-01
     -3.982  0.2597E-01  0.2597E-01  0.3584E-01  0.3584E-01
     -3.906  0.2888E-01  0.2888E-01  0.3802E-01  0.3802E-01
     -3.831  0.2801E-01  0.2801E-01  0.4014E-01  0.4014E-01
     -3.755  0.2518E-01  0.2518E-01  0.4204E-01  0.4204E-01
     -3.680  0.2381E-01  0.2381E-01  0.4384E-01  0.4384E-01
     -3.604  0.2552E-01  0.2552E-01  0.4577E-01  0.4577E-01
     -3.529  0.2971E-01  0.2971E-01  0.4801E-01  0.4801E-01
     -3.453  0.3649E-01  0.3649E-01  0.5076E-01  0.5076E-01
     -3.378  0.4671E-01  0.4671E-01  0.5429E-01  0.5429E-01
     -3.302  0.5828E-01  0.5828E-01  0.5869E-01  0.5869E-01
     -3.226  0.6712E-01  0.6712E-01  0.6376E-01  0.6376E-01
     -3.151  0.7282E-01  0.7282E-01  0.6926E-01  0.6926E-01
     -3.075  0.7802E-01  0.7802E-01  0.7515E-01  0.7515E-01
     -3.000  0.8329E-01  0.8329E-01  0.8144E-01  0.8144E-01
     -2.924  0.8767E-01  0.8767E-01  0.8806E-01  0.8806E-01
     -2.849  0.9303E-01  0.9303E-01  0.9509E-01  0.9509E-01
     -2.773  0.1030E+00  0.1030E+00  0.1029E+00  0.1029E+00
     -2.698  0.1172E+00  0.1172E+00  0.1117E+00  0.1117E+00
     -2.622  0.1323E+00  0.1323E+00  0.1217E+00  0.1217E+00
     -2.547  0.1498E+00  0.1498E+00  0.1330E+00  0.1330E+00
     -2.471  0.1730E+00  0.1730E+00  0.1461E+00  0.1461E+00
     -2.396  0.1967E+00  0.1967E+00  0.1609E+00  0.1609E+00
     -2.320  0.2100E+00  0.2100E+00  0.1768E+00  0.1768E+00
     -2.245  0.2058E+00  0.2058E+00  0.1923E+00  0.1923E+00
     -2.169  0.1862E+00  0.1862E+00  0.2064E+00  0.2064E+00
     -2.094  0.1635E+00  0.1635E+00  0.2188E+00  0.2188E+00
     -2.018  0.1525E+00  0.1525E+00  0.2303E+00  0.2303E+00
     -1.943  0.1584E+00  0.1584E+00  0.2422E+00  0.2422E+00
     -1.867  0.1763E+00  0.1763E+00  0.2555E+00  0.2555E+00
     -1.792  0.1975E+00  0.1975E+00  0.2705E+00  0.2705E+00
     -1.716  0.2144E+00  0.2144E+00  0.2866E+00  0.2866E+00
     -1.641  0.2243E+00  0.2243E+00  0.3036E+00  0.3036E+00
     -1.565  0.2344E+00  0.2344E+00  0.3213E+00  0.3213E+00
     -1.490  0.2532E+00  0.2532E+00  0.3404E+00  0.3404E+00
     -1.414  0.2784E+00  0.2784E+00  0.3614E+00  0.3614E+00
     -1.339  0.2996E+00  0.2996E+00  0.3840E+00  0.3840E+00
     -1.263  0.3124E+00  0.3124E+00  0.4076E+00  0.4076E+00
     -1.188  0.3181E+00  0.3181E+00  0.4317E+00  0.4317E+00
     -1.112  0.3146E+00  0.3146E+00  0.4554E+00  0.4554E+00
     -1.037  0.3002E+00  0.3002E+00  0.4781E+00  0.4781E+00
     -0.961  0.2803E+00  0.2803E+00  0.4992E+00  0.4992E+00
     -0.886  0.2639E+00  0.2639E+00  0.5192E+00  0.5192E+00
     -0.810  0.2582E+00  0.2582E+00  0.5387E+00  0.5387E+00
     -0.735  0.2686E+00  0.2686E+00  0.5590E+00  0.5590E+00
     -0.659  0.2947E+00  0.2947E+00  0.5812E+00  0.5812E+00
     -0.584  0.3242E+00  0.3242E+00  0.6057E+00  0.6057E+00
     -0.508  0.3399E+00  0.3399E+00  0.6314E+00  0.6314E+00
     -0.433  0.3366E+00  0.3366E+00  0.6568E+00  0.6568E+00
     -0.357  0.3253E+00  0.3253E+00  0.6813E+00  0.6813E+00
     -0.282  0.3196E+00  0.3196E+00  0.7055E+00  0.7055E+00
     -0.206  0.3256E+00  0.3256E+00  0.7301E+00  0.7301E+00
     -0.131  0.3460E+00  0.3460E+00  0.7562E+00  0.7562E+00
     -0.055  0.3821E+00  0.3821E+00  0.7850E+00  0.7850E+00
      0.021  0.4252E+00  0.4252E+00  0.8172E+00  0.8172E+00
      0.096  0.4518E+00  0.4518E+00  0.8513E+00  0.8513E+00
      0.172  0.4356E+00  0.4356E+00  0.8842E+00  0.8842E+00
      0.247  0.3670E+00  0.3670E+00  0.9119E+00  0.9119E+00
      0.323  0.2618E+00  0.2618E+00  0.9316E+00  0.9316E+00
      0.398  0.1533E+00  0.1533E+00  0.9432E+00  0.9432E+00
      0.474  0.7417E-01  0.7417E-01  0.9488E+00  0.9488E+00
      0.549  0.3608E-01  0.3608E-01  0.9516E+00  0.9516E+00
      0.625  0.2859E-01  0.2859E-01  0.9537E+00  0.9537E+00
      0.700  0.3477E-01  0.3477E-01  0.9563E+00  0.9563E+00
      0.776  0.4183E-01  0.4183E-01  0.9595E+00  0.9595E+00
      0.851  0.4254E-01  0.4254E-01  0.9627E+00  0.9627E+00
      0.927  0.3682E-01  0.3682E-01  0.9655E+00  0.9655E+00
      1.002  0.2919E-01  0.2919E-01  0.9677E+00  0.9677E+00
      1.078  0.2208E-01  0.2208E-01  0.9694E+00  0.9694E+00
      1.153  0.1580E-01  0.1580E-01  0.9706E+00  0.9706E+00
      1.229  0.1410E-01  0.1410E-01  0.9716E+00  0.9716E+00
      1.304  0.2258E-01  0.2258E-01  0.9733E+00  0.9733E+00
      1.380  0.3941E-01  0.3941E-01  0.9763E+00  0.9763E+00
      1.455  0.5233E-01  0.5233E-01  0.9802E+00  0.9802E+00
      1.531  0.5086E-01  0.5086E-01  0.9841E+00  0.9841E+00
      1.606  0.3859E-01  0.3859E-01  0.9870E+00  0.9870E+00
      1.682  0.2685E-01  0.2685E-01  0.9890E+00  0.9890E+00
      1.757  0.2095E-01  0.2095E-01  0.9906E+00  0.9906E+00
      1.833  0.1922E-01  0.1922E-01  0.9921E+00  0.9921E+00
      1.908  0.1904E-01  0.1904E-01  0.9935E+00  0.9935E+00
      1.984  0.1853E-01  0.1853E-01  0.9949E+00  0.9949E+00
      2.059  0.1756E-01  0.1756E-01  0.9962E+00  0.9962E+00
      2.135  0.1880E-01  0.1880E-01  0.9976E+00  0.9976E+00
      2.210  0.2377E-01  0.2377E-01  0.9994E+00  0.9994E+00
      2.286  0.2994E-01  0.2994E-01  0.1002E+01  0.1002E+01
      2.361  0.3357E-01  0.3357E-01  0.1004E+01  0.1004E+01
      2.437  0.3321E-01  0.3321E-01  0.1007E+01  0.1007E+01
      2.512  0.3078E-01  0.3078E-01  0.1009E+01  0.1009E+01
      2.588  0.3023E-01  0.3023E-01  0.1011E+01  0.1011E+01
      2.663  0.3347E-01  0.3347E-01  0.1014E+01  0.1014E+01
      2.739  0.3728E-01  0.3728E-01  0.1017E+01  0.1017E+01
      2.814  0.3629E-01  0.3629E-01  0.1019E+01  0.1019E+01
      2.890  0.2990E-01  0.2990E-01  0.1022E+01  0.1022E+01
      2.965  0.2332E-01  0.2332E-01  0.1023E+01  0.1023E+01
      3.041  0.1998E-01  0.1998E-01  0.1025E+01  0.1025E+01
      3.117  0.1716E-01  0.1716E-01  0.1026E+01  0.1026E+01
      3.192  0.1166E-01  0.1166E-01  0.1027E+01  0.1027E+01
      3.268  0.6111E-02  0.6111E-02  0.1028E+01  0.1028E+01
      3.343  0.6615E-02  0.6615E-02  0.1028E+01  0.1028E+01
      3.419  0.1539E-01  0.1539E-01  0.1029E+01  0.1029E+01
      3.494  0.2817E-01  0.2817E-01  0.1031E+01  0.1031E+01
      3.570  0.3924E-01  0.3924E-01  0.1034E+01  0.1034E+01
      3.645  0.4538E-01  0.4538E-01  0.1038E+01  0.1038E+01
      3.721  0.4415E-01  0.4415E-01  0.1041E+01  0.1041E+01
      3.796  0.3454E-01  0.3454E-01  0.1044E+01  0.1044E+01
      3.872  0.2193E-01  0.2193E-01  0.1045E+01  0.1045E+01
      3.947  0.1526E-01  0.1526E-01  0.1047E+01  0.1047E+01
      4.023  0.1727E-01  0.1727E-01  0.1048E+01  0.1048E+01
      4.098  0.2259E-01  0.2259E-01  0.1050E+01  0.1050E+01
      4.174  0.2519E-01  0.2519E-01  0.1051E+01  0.1051E+01
      4.249  0.2362E-01  0.2362E-01  0.1053E+01  0.1053E+01
      4.325  0.1999E-01  0.1999E-01  0.1055E+01  0.1055E+01
      4.400  0.1671E-01  0.1671E-01  0.1056E+01  0.1056E+01
      4.476  0.1491E-01  0.1491E-01  0.1057E+01  0.1057E+01
      4.551  0.1504E-01  0.1504E-01  0.1058E+01  0.1058E+01
      4.627  0.1713E-01  0.1713E-01  0.1060E+01  0.1060E+01
      4.702  0.1964E-01  0.1964E-01  0.1061E+01  0.1061E+01
      4.778  0.1997E-01  0.1997E-01  0.1063E+01  0.1063E+01
      4.853  0.1763E-01  0.1763E-01  0.1064E+01  0.1064E+01
      4.929  0.1583E-01  0.1583E-01  0.1065E+01  0.1065E+01
      5.004  0.1749E-01  0.1749E-01  0.1066E+01  0.1066E+01
      5.080  0.2156E-01  0.2156E-01  0.1068E+01  0.1068E+01
      5.155  0.2585E-01  0.2585E-01  0.1070E+01  0.1070E+01
      5.231  0.3076E-01  0.3076E-01  0.1072E+01  0.1072E+01
      5.306  0.3618E-01  0.3618E-01  0.1075E+01  0.1075E+01
      5.382  0.3858E-01  0.3858E-01  0.1078E+01  0.1078E+01
      5.457  0.3484E-01  0.3484E-01  0.1081E+01  0.1081E+01
      5.533  0.2642E-01  0.2642E-01  0.1083E+01  0.1083E+01
      5.608  0.1826E-01  0.1826E-01  0.1084E+01  0.1084E+01
      5.684  0.1593E-01  0.1593E-01  0.1085E+01  0.1085E+01
      5.759  0.2194E-01  0.2194E-01  0.1087E+01  0.1087E+01
      5.835  0.3184E-01  0.3184E-01  0.1089E+01  0.1089E+01
      5.910  0.3677E-01  0.3677E-01  0.1092E+01  0.1092E+01
      5.986  0.3304E-01  0.3304E-01  0.1094E+01  0.1094E+01
      6.061  0.2556E-01  0.2556E-01  0.1096E+01  0.1096E+01
      6.137  0.2016E-01  0.2017E-01  0.1098E+01  0.1098E+01
      6.213  0.1768E-01  0.1768E-01  0.1099E+01  0.1099E+01
      6.288  0.1674E-01  0.1674E-01  0.1101E+01  0.1101E+01
      6.364  0.1754E-01  0.1754E-01  0.1102E+01  0.1102E+01
      6.439  0.2084E-01  0.2084E-01  0.1103E+01  0.1103E+01
      6.515  0.2609E-01  0.2609E-01  0.1105E+01  0.1105E+01
      6.590  0.3197E-01  0.3197E-01  0.1108E+01  0.1108E+01
      6.666  0.3788E-01  0.3788E-01  0.1111E+01  0.1111E+01
      6.741  0.4377E-01  0.4377E-01  0.1114E+01  0.1114E+01
      6.817  0.4871E-01  0.4871E-01  0.1118E+01  0.1118E+01
      6.892  0.5038E-01  0.5038E-01  0.1121E+01  0.1121E+01
      6.968  0.4655E-01  0.4655E-01  0.1125E+01  0.1125E+01
      7.043  0.3733E-01  0.3733E-01  0.1128E+01  0.1128E+01
      7.119  0.2661E-01  0.2661E-01  0.1130E+01  0.1130E+01
      7.194  0.1986E-01  0.1986E-01  0.1131E+01  0.1131E+01
      7.270  0.1976E-01  0.1976E-01  0.1133E+01  0.1133E+01
      7.345  0.2522E-01  0.2522E-01  0.1135E+01  0.1135E+01
      7.421  0.3346E-01  0.3346E-01  0.1137E+01  0.1137E+01
      7.496  0.4059E-01  0.4059E-01  0.1140E+01  0.1140E+01
      7.572  0.4223E-01  0.4223E-01  0.1143E+01  0.1143E+01
      7.647  0.3698E-01  0.3698E-01  0.1146E+01  0.1146E+01
      7.723  0.2898E-01  0.2898E-01  0.1148E+01  0.1148E+01
      7.798  0.2493E-01  0.2493E-01  0.1150E+01  0.1150E+01
      7.874  0.2726E-01  0.2726E-01  0.1152E+01  0.1152E+01
      7.949  0.3188E-01  0.3188E-01  0.1155E+01  0.1155E+01
      8.025  0.3376E-01  0.3376E-01  0.1157E+01  0.1157E+01
      8.100  0.3270E-01  0.3270E-01  0.1160E+01  0.1160E+01
      8.176  0.3243E-01  0.3243E-01  0.1162E+01  0.1162E+01
      8.251  0.3520E-01  0.3520E-01  0.1165E+01  0.1165E+01
      8.327  0.3830E-01  0.3830E-01  0.1168E+01  0.1168E+01
      8.402  0.3734E-01  0.3734E-01  0.1171E+01  0.1171E+01
      8.478  0.3289E-01  0.3290E-01  0.1173E+01  0.1173E+01
      8.553  0.3030E-01  0.3030E-01  0.1175E+01  0.1175E+01
      8.629  0.3297E-01  0.3297E-01  0.1178E+01  0.1178E+01
      8.704  0.3859E-01  0.3859E-01  0.1181E+01  0.1181E+01
      8.780  0.4232E-01  0.4232E-01  0.1184E+01  0.1184E+01
      8.855  0.4297E-01  0.4297E-01  0.1187E+01  0.1187E+01
      8.931  0.4381E-01  0.4381E-01  0.1191E+01  0.1191E+01
      9.006  0.4579E-01  0.4579E-01  0.1194E+01  0.1194E+01
      9.082  0.4500E-01  0.4500E-01  0.1197E+01  0.1197E+01
      9.157  0.3945E-01  0.3945E-01  0.1200E+01  0.1200E+01
      9.233  0.3285E-01  0.3285E-01  0.1203E+01  0.1203E+01
      9.308  0.2948E-01  0.2948E-01  0.1205E+01  0.1205E+01
      9.384  0.3020E-01  0.3020E-01  0.1207E+01  0.1207E+01
      9.460  0.3317E-01  0.3317E-01  0.1210E+01  0.1210E+01
      9.535  0.3548E-01  0.3548E-01  0.1213E+01  0.1213E+01
      9.611  0.3600E-01  0.3601E-01  0.1215E+01  0.1215E+01
      9.686  0.3746E-01  0.3746E-01  0.1218E+01  0.1218E+01
      9.762  0.4260E-01  0.4261E-01  0.1221E+01  0.1221E+01
      9.837  0.4911E-01  0.4911E-01  0.1225E+01  0.1225E+01
      9.913  0.5104E-01  0.5104E-01  0.1229E+01  0.1229E+01
      9.988  0.4570E-01  0.4570E-01  0.1232E+01  0.1232E+01
     10.064  0.3776E-01  0.3776E-01  0.1235E+01  0.1235E+01
     10.139  0.3512E-01  0.3512E-01  0.1238E+01  0.1238E+01
     10.215  0.4081E-01  0.4082E-01  0.1241E+01  0.1241E+01
     10.290  0.5029E-01  0.5029E-01  0.1245E+01  0.1245E+01
     10.366  0.5567E-01  0.5566E-01  0.1249E+01  0.1249E+01
     10.441  0.5226E-01  0.5226E-01  0.1253E+01  0.1253E+01
     10.517  0.4330E-01  0.4329E-01  0.1256E+01  0.1256E+01
     10.592  0.3773E-01  0.3769E-01  0.1259E+01  0.1259E+01
     10.668  0.4113E-01  0.4108E-01  0.1262E+01  0.1262E+01
     10.743  0.4948E-01  0.4957E-01  0.1266E+01  0.1266E+01
     10.819  0.5367E-01  0.5415E-01  0.1270E+01  0.1270E+01
     10.894  0.4901E-01  0.4989E-01  0.1274E+01  0.1274E+01
     10.970  0.3814E-01  0.3886E-01  0.1276E+01  0.1277E+01
     11.045  0.2598E-01  0.2587E-01  0.1278E+01  0.1279E+01
     11.121  0.1513E-01  0.1430E-01  0.1280E+01  0.1280E+01
     11.196  0.6570E-02  0.5746E-02  0.1280E+01  0.1280E+01
     11.272  0.1219E-02  0.8521E-03  0.1280E+01  0.1280E+01
     11.347 -0.8245E-03 -0.8530E-03  0.1280E+01  0.1280E+01
     11.423 -0.8749E-03 -0.8184E-03  0.1280E+01  0.1280E+01
     11.498 -0.4244E-03 -0.3897E-03  0.1280E+01  0.1280E+01
     11.574 -0.1329E-03 -0.1219E-03  0.1280E+01  0.1280E+01
     11.649 -0.2903E-04 -0.2680E-04  0.1280E+01  0.1280E+01
     11.725 -0.4566E-05 -0.4252E-05  0.1280E+01  0.1280E+01
     11.800 -0.5248E-06 -0.4933E-06  0.1280E+01  0.1280E+01
     11.876 -0.4447E-07 -0.4218E-07  0.1280E+01  0.1280E+01
     11.951 -0.2793E-08 -0.2672E-08  0.1280E+01  0.1280E+01
     12.027 -0.1305E-09 -0.1257E-09  0.1280E+01  0.1280E+01
     12.102 -0.4546E-11 -0.4409E-11  0.1280E+01  0.1280E+01
     12.178 -0.1183E-12 -0.1154E-12  0.1280E+01  0.1280E+01
     12.253 -0.2305E-14 -0.2256E-14  0.1280E+01  0.1280E+01
     12.329 -0.3308E-16 -0.3308E-16  0.1280E+01  0.1280E+01
     12.404  0.0000E+00  0.0000E+00  0.1280E+01  0.1280E+01
     12.480  0.0000E+00  0.0000E+00  0.1280E+01  0.1280E+01
     12.556  0.0000E+00  0.0000E+00  0.1280E+01  0.1280E+01
     12.631  0.0000E+00  0.0000E+00  0.1280E+01  0.1280E+01
     12.707  0.0000E+00  0.0000E+00  0.1280E+01  0.1280E+01
     12.782  0.0000E+00  0.0000E+00  0.1280E+01  0.1280E+01
     12.858  0.0000E+00  0.0000E+00  0.1280E+01  0.1280E+01
     12.933  0.0000E+00  0.0000E+00  0.1280E+01  0.1280E+01
     13.009  0.0000E+00  0.0000E+00  0.1280E+01  0.1280E+01
     13.084  0.0000E+00  0.0000E+00  0.1280E+01  0.1280E+01
