  144  144  800    2
  0.2281663E+02  0.1089000E-08  0.1089000E-08  0.2770500E-08  0.5000000E-15
  1.000000000000000E-004
  CAR 
 unknown system                          
   1584      3   1024
 
  0.0000000E+00  0.0000000E+00  0.0000000E+00  0.1111111E+00
      1         -7.569508       -7.569508   1.000000   1.000000
      2         -6.990860       -6.990860   1.000000   1.000000
      3         -6.279289       -6.279289   1.000000   1.000000
      4         -6.279289       -6.279289   1.000000   1.000000
      5         -6.279289       -6.279289   1.000000   1.000000
      6         -6.279289       -6.279289   1.000000   1.000000
      7         -6.141762       -6.141762   1.000000   1.000000
      8         -5.736780       -5.736780   1.000000   1.000000
      9         -5.736780       -5.736780   1.000000   1.000000
     10         -5.736780       -5.736780   1.000000   1.000000
     11         -5.736780       -5.736780   1.000000   1.000000
     12         -5.120500       -5.120500   1.000000   1.000000
     13         -5.120500       -5.120500   1.000000   1.000000
     14         -5.120500       -5.120500   1.000000   1.000000
     15         -5.120500       -5.120500   1.000000   1.000000
     16         -5.062179       -5.062179   1.000000   1.000000
     17         -4.957065       -4.957065   1.000000   1.000000
     18         -4.957065       -4.957065   1.000000   1.000000
     19         -4.957065       -4.957065   1.000000   1.000000
     20         -4.957065       -4.957065   1.000000   1.000000
     21         -4.683779       -4.683779   1.000000   1.000000
     22         -4.683779       -4.683779   1.000000   1.000000
     23         -4.683779       -4.683779   1.000000   1.000000
     24         -4.683779       -4.683779   1.000000   1.000000
     25         -4.121610       -4.121611   1.000000   1.000000
     26         -4.121610       -4.121611   1.000000   1.000000
     27         -4.121610       -4.121611   1.000000   1.000000
     28         -4.121610       -4.121611   1.000000   1.000000
     29         -4.001689       -4.001689   1.000000   1.000000
     30         -4.001689       -4.001689   1.000000   1.000000
     31         -4.001689       -4.001689   1.000000   1.000000
     32         -4.001689       -4.001689   1.000000   1.000000
     33         -3.970581       -3.970581   1.000000   1.000000
     34         -3.565575       -3.565575   1.000000   1.000000
     35         -3.565575       -3.565575   1.000000   1.000000
     36         -3.565575       -3.565575   1.000000   1.000000
     37         -3.565575       -3.565575   1.000000   1.000000
     38         -3.539032       -3.539032   1.000000   1.000000
     39         -3.539032       -3.539032   1.000000   1.000000
     40         -3.539032       -3.539032   1.000000   1.000000
     41         -3.539032       -3.539032   1.000000   1.000000
     42         -3.306552       -3.306552   1.000000   1.000000
     43         -3.175916       -3.175915   1.000000   1.000000
     44         -3.175916       -3.175915   1.000000   1.000000
     45         -3.175916       -3.175915   1.000000   1.000000
     46         -3.175916       -3.175915   1.000000   1.000000
     47         -3.171220       -3.171220   1.000000   1.000000
     48         -3.155463       -3.155463   1.000000   1.000000
     49         -3.098799       -3.098799   1.000000   1.000000
     50         -3.098799       -3.098799   1.000000   1.000000
     51         -3.098799       -3.098799   1.000000   1.000000
     52         -3.098799       -3.098799   1.000000   1.000000
     53         -3.078270       -3.078270   1.000000   1.000000
     54         -3.050143       -3.050142   1.000000   1.000000
     55         -3.050143       -3.050142   1.000000   1.000000
     56         -3.050143       -3.050142   1.000000   1.000000
     57         -3.050143       -3.050142   1.000000   1.000000
     58         -3.025568       -3.025568   1.000000   1.000000
     59         -3.025568       -3.025568   1.000000   1.000000
     60         -3.025568       -3.025568   1.000000   1.000000
     61         -3.025568       -3.025568   1.000000   1.000000
     62         -3.024899       -3.024899   1.000000   1.000000
     63         -3.024899       -3.024899   1.000000   1.000000
     64         -3.024899       -3.024899   1.000000   1.000000
     65         -3.024899       -3.024899   1.000000   1.000000
     66         -2.996453       -2.996453   1.000000   1.000000
     67         -2.965723       -2.965723   1.000000   1.000000
     68         -2.965723       -2.965723   1.000000   1.000000
     69         -2.965723       -2.965723   1.000000   1.000000
     70         -2.965723       -2.965723   1.000000   1.000000
     71         -2.935866       -2.935866   1.000000   1.000000
     72         -2.935866       -2.935866   1.000000   1.000000
     73         -2.935866       -2.935866   1.000000   1.000000
     74         -2.935866       -2.935866   1.000000   1.000000
     75         -2.901219       -2.901219   1.000000   1.000000
     76         -2.879076       -2.879077   1.000000   1.000000
     77         -2.879076       -2.879077   1.000000   1.000000
     78         -2.879076       -2.879077   1.000000   1.000000
     79         -2.879076       -2.879077   1.000000   1.000000
     80         -2.866608       -2.866608   1.000000   1.000000
     81         -2.774088       -2.774087   1.000000   1.000000
     82         -2.774088       -2.774087   1.000000   1.000000
     83         -2.774088       -2.774087   1.000000   1.000000
     84         -2.774088       -2.774087   1.000000   1.000000
     85         -2.728327       -2.728327   1.000000   1.000000
     86         -2.707540       -2.707540   1.000000   1.000000
     87         -2.707540       -2.707540   1.000000   1.000000
     88         -2.707540       -2.707540   1.000000   1.000000
     89         -2.707540       -2.707540   1.000000   1.000000
     90         -2.703539       -2.703539   1.000000   1.000000
     91         -2.703539       -2.703539   1.000000   1.000000
     92         -2.703539       -2.703539   1.000000   1.000000
     93         -2.703539       -2.703539   1.000000   1.000000
     94         -2.700505       -2.700505   1.000000   1.000000
     95         -2.700505       -2.700505   1.000000   1.000000
     96         -2.670534       -2.670534   1.000000   1.000000
     97         -2.670534       -2.670534   1.000000   1.000000
     98         -2.670534       -2.670534   1.000000   1.000000
     99         -2.670534       -2.670534   1.000000   1.000000
    100         -2.654913       -2.654913   1.000000   1.000000
    101         -2.654913       -2.654913   1.000000   1.000000
    102         -2.654913       -2.654913   1.000000   1.000000
    103         -2.654913       -2.654913   1.000000   1.000000
    104         -2.606387       -2.606387   1.000000   1.000000
    105         -2.564853       -2.564853   1.000000   1.000000
    106         -2.539203       -2.539203   1.000000   1.000000
    107         -2.507040       -2.507040   1.000000   1.000000
    108         -2.507040       -2.507040   1.000000   1.000000
    109         -2.450929       -2.450928   1.000000   1.000000
    110         -2.450929       -2.450928   1.000000   1.000000
    111         -2.450929       -2.450928   1.000000   1.000000
    112         -2.450929       -2.450928   1.000000   1.000000
    113         -2.443706       -2.443706   1.000000   1.000000
    114         -2.443706       -2.443706   1.000000   1.000000
    115         -2.443706       -2.443706   1.000000   1.000000
    116         -2.443706       -2.443706   1.000000   1.000000
    117         -2.434062       -2.434062   1.000000   1.000000
    118         -2.434062       -2.434062   1.000000   1.000000
    119         -2.434062       -2.434062   1.000000   1.000000
    120         -2.434062       -2.434062   1.000000   1.000000
    121         -2.386773       -2.386773   1.000000   1.000000
    122         -2.386773       -2.386773   1.000000   1.000000
    123         -2.386773       -2.386773   1.000000   1.000000
    124         -2.386773       -2.386773   1.000000   1.000000
    125         -2.367534       -2.367534   1.000000   1.000000
    126         -2.367534       -2.367534   1.000000   1.000000
    127         -2.367534       -2.367534   1.000000   1.000000
    128         -2.367534       -2.367534   1.000000   1.000000
    129         -2.357430       -2.357430   1.000000   1.000000
    130         -2.357430       -2.357430   1.000000   1.000000
    131         -2.357430       -2.357430   1.000000   1.000000
    132         -2.357430       -2.357430   1.000000   1.000000
    133         -2.356377       -2.356377   1.000000   1.000000
    134         -2.356377       -2.356377   1.000000   1.000000
    135         -2.356377       -2.356377   1.000000   1.000000
    136         -2.356377       -2.356377   1.000000   1.000000
    137         -2.352051       -2.352051   1.000000   1.000000
    138         -2.352051       -2.352051   1.000000   1.000000
    139         -2.352051       -2.352051   1.000000   1.000000
    140         -2.352051       -2.352051   1.000000   1.000000
    141         -2.316844       -2.316844   1.000000   1.000000
    142         -2.316844       -2.316844   1.000000   1.000000
    143         -2.316844       -2.316844   1.000000   1.000000
    144         -2.316844       -2.316844   1.000000   1.000000
    145         -2.314440       -2.314440   1.000000   1.000000
    146         -2.314440       -2.314440   1.000000   1.000000
    147         -2.314440       -2.314440   1.000000   1.000000
    148         -2.314440       -2.314440   1.000000   1.000000
    149         -2.297733       -2.297733   1.000000   1.000000
    150         -2.297733       -2.297733   1.000000   1.000000
    151         -2.297733       -2.297733   1.000000   1.000000
    152         -2.297733       -2.297733   1.000000   1.000000
    153         -2.292977       -2.292977   1.000000   1.000000
    154         -2.245824       -2.245824   1.000000   1.000000
    155         -2.245824       -2.245824   1.000000   1.000000
    156         -2.245824       -2.245824   1.000000   1.000000
    157         -2.245824       -2.245824   1.000000   1.000000
    158         -2.239289       -2.239289   1.000000   1.000000
    159         -2.239289       -2.239289   1.000000   1.000000
    160         -2.239289       -2.239289   1.000000   1.000000
    161         -2.239289       -2.239289   1.000000   1.000000
    162         -2.229993       -2.229993   1.000000   1.000000
    163         -2.229993       -2.229993   1.000000   1.000000
    164         -2.229993       -2.229993   1.000000   1.000000
    165         -2.229993       -2.229993   1.000000   1.000000
    166         -2.219976       -2.219976   1.000000   1.000000
    167         -2.219976       -2.219976   1.000000   1.000000
    168         -2.219674       -2.219674   1.000000   1.000000
    169         -2.219674       -2.219674   1.000000   1.000000
    170         -2.219674       -2.219674   1.000000   1.000000
    171         -2.219674       -2.219674   1.000000   1.000000
    172         -2.168086       -2.168086   1.000000   1.000000
    173         -2.168086       -2.168086   1.000000   1.000000
    174         -2.168086       -2.168086   1.000000   1.000000
    175         -2.168085       -2.168086   1.000000   1.000000
    176         -2.076876       -2.076876   1.000000   1.000000
    177         -2.076876       -2.076876   1.000000   1.000000
    178         -2.076876       -2.076876   1.000000   1.000000
    179         -2.076876       -2.076876   1.000000   1.000000
    180         -2.073368       -2.073368   1.000000   1.000000
    181         -2.057126       -2.057126   1.000000   1.000000
    182         -2.057126       -2.057126   1.000000   1.000000
    183         -2.057126       -2.057126   1.000000   1.000000
    184         -2.057126       -2.057126   1.000000   1.000000
    185         -2.034262       -2.034262   1.000000   1.000000
    186         -2.034262       -2.034262   1.000000   1.000000
    187         -2.034262       -2.034262   1.000000   1.000000
    188         -2.034262       -2.034262   1.000000   1.000000
    189         -1.983975       -1.983975   1.000000   1.000000
    190         -1.978411       -1.978411   1.000000   1.000000
    191         -1.978411       -1.978411   1.000000   1.000000
    192         -1.978411       -1.978411   1.000000   1.000000
    193         -1.978411       -1.978411   1.000000   1.000000
    194         -1.969576       -1.969576   1.000000   1.000000
    195         -1.969576       -1.969576   1.000000   1.000000
    196         -1.969576       -1.969576   1.000000   1.000000
    197         -1.969576       -1.969576   1.000000   1.000000
    198         -1.952696       -1.952696   1.000000   1.000000
    199         -1.908828       -1.908828   1.000000   1.000000
    200         -1.908828       -1.908828   1.000000   1.000000
    201         -1.908828       -1.908828   1.000000   1.000000
    202         -1.908828       -1.908828   1.000000   1.000000
    203         -1.875086       -1.875086   1.000000   1.000000
    204         -1.875086       -1.875086   1.000000   1.000000
    205         -1.875086       -1.875086   1.000000   1.000000
    206         -1.875086       -1.875086   1.000000   1.000000
    207         -1.819127       -1.819127   1.000000   1.000000
    208         -1.819127       -1.819127   1.000000   1.000000
    209         -1.805371       -1.805371   1.000000   1.000000
    210         -1.805371       -1.805371   1.000000   1.000000
    211         -1.805371       -1.805371   1.000000   1.000000
    212         -1.805371       -1.805371   1.000000   1.000000
    213         -1.800471       -1.800471   1.000000   1.000000
    214         -1.800471       -1.800471   1.000000   1.000000
    215         -1.800471       -1.800471   1.000000   1.000000
    216         -1.800471       -1.800471   1.000000   1.000000
    217         -1.773038       -1.773038   1.000000   1.000000
    218         -1.773038       -1.773038   1.000000   1.000000
    219         -1.773038       -1.773038   1.000000   1.000000
    220         -1.773038       -1.773038   1.000000   1.000000
    221         -1.772360       -1.772360   1.000000   1.000000
    222         -1.772360       -1.772360   1.000000   1.000000
    223         -1.772360       -1.772360   1.000000   1.000000
    224         -1.772360       -1.772360   1.000000   1.000000
    225         -1.756395       -1.756395   1.000000   1.000000
    226         -1.756395       -1.756395   1.000000   1.000000
    227         -1.756395       -1.756395   1.000000   1.000000
    228         -1.756395       -1.756395   1.000000   1.000000
    229         -1.699301       -1.699301   1.000000   1.000000
    230         -1.699301       -1.699301   1.000000   1.000000
    231         -1.699301       -1.699301   1.000000   1.000000
    232         -1.699301       -1.699301   1.000000   1.000000
    233         -1.695387       -1.695387   1.000000   1.000000
    234         -1.695387       -1.695387   1.000000   1.000000
    235         -1.695387       -1.695387   1.000000   1.000000
    236         -1.695387       -1.695387   1.000000   1.000000
    237         -1.671809       -1.671809   1.000000   1.000000
    238         -1.671809       -1.671809   1.000000   1.000000
    239         -1.671809       -1.671809   1.000000   1.000000
    240         -1.671809       -1.671809   1.000000   1.000000
    241         -1.671705       -1.671705   1.000000   1.000000
    242         -1.671705       -1.671705   1.000000   1.000000
    243         -1.671705       -1.671705   1.000000   1.000000
    244         -1.671705       -1.671705   1.000000   1.000000
    245         -1.669725       -1.669726   1.000000   1.000000
    246         -1.630751       -1.630751   1.000000   1.000000
    247         -1.630751       -1.630751   1.000000   1.000000
    248         -1.630751       -1.630751   1.000000   1.000000
    249         -1.630751       -1.630751   1.000000   1.000000
    250         -1.596160       -1.596160   1.000000   1.000000
    251         -1.596160       -1.596160   1.000000   1.000000
    252         -1.596160       -1.596160   1.000000   1.000000
    253         -1.596160       -1.596160   1.000000   1.000000
    254         -1.589406       -1.589406   1.000000   1.000000
    255         -1.589406       -1.589406   1.000000   1.000000
    256         -1.589406       -1.589406   1.000000   1.000000
    257         -1.589406       -1.589406   1.000000   1.000000
    258         -1.507869       -1.507869   1.000000   1.000000
    259         -1.507869       -1.507869   1.000000   1.000000
    260         -1.507869       -1.507869   1.000000   1.000000
    261         -1.507869       -1.507869   1.000000   1.000000
    262         -1.507026       -1.507026   1.000000   1.000000
    263         -1.507026       -1.507026   1.000000   1.000000
    264         -1.507026       -1.507026   1.000000   1.000000
    265         -1.507026       -1.507026   1.000000   1.000000
    266         -1.503676       -1.503676   1.000000   1.000000
    267         -1.503676       -1.503676   1.000000   1.000000
    268         -1.503676       -1.503676   1.000000   1.000000
    269         -1.503676       -1.503676   1.000000   1.000000
    270         -1.468470       -1.468470   1.000000   1.000000
    271         -1.468470       -1.468470   1.000000   1.000000
    272         -1.468470       -1.468470   1.000000   1.000000
    273         -1.468470       -1.468470   1.000000   1.000000
    274         -1.461451       -1.461451   1.000000   1.000000
    275         -1.461451       -1.461451   1.000000   1.000000
    276         -1.461451       -1.461451   1.000000   1.000000
    277         -1.461451       -1.461451   1.000000   1.000000
    278         -1.439084       -1.439084   1.000000   1.000000
    279         -1.439084       -1.439084   1.000000   1.000000
    280         -1.439084       -1.439084   1.000000   1.000000
    281         -1.439084       -1.439084   1.000000   1.000000
    282         -1.410953       -1.410952   1.000000   1.000000
    283         -1.410953       -1.410952   1.000000   1.000000
    284         -1.410953       -1.410952   1.000000   1.000000
    285         -1.410953       -1.410952   1.000000   1.000000
    286         -1.409398       -1.409398   1.000000   1.000000
    287         -1.400069       -1.400069   1.000000   1.000000
    288         -1.400069       -1.400069   1.000000   1.000000
    289         -1.400069       -1.400069   1.000000   1.000000
    290         -1.400069       -1.400069   1.000000   1.000000
    291         -1.365640       -1.365640   1.000000   1.000000
    292         -1.365640       -1.365640   1.000000   1.000000
    293         -1.365640       -1.365640   1.000000   1.000000
    294         -1.365640       -1.365640   1.000000   1.000000
    295         -1.328722       -1.328722   1.000000   1.000000
    296         -1.328722       -1.328722   1.000000   1.000000
    297         -1.322243       -1.322243   1.000000   1.000000
    298         -1.322243       -1.322243   1.000000   1.000000
    299         -1.304803       -1.304803   1.000000   1.000000
    300         -1.304803       -1.304803   1.000000   1.000000
    301         -1.304803       -1.304803   1.000000   1.000000
    302         -1.304803       -1.304803   1.000000   1.000000
    303         -1.294395       -1.294395   1.000000   1.000000
    304         -1.294395       -1.294395   1.000000   1.000000
    305         -1.294395       -1.294395   1.000000   1.000000
    306         -1.294395       -1.294395   1.000000   1.000000
    307         -1.294351       -1.294351   1.000000   1.000000
    308         -1.294351       -1.294351   1.000000   1.000000
    309         -1.294351       -1.294351   1.000000   1.000000
    310         -1.294351       -1.294351   1.000000   1.000000
    311         -1.290024       -1.290024   1.000000   1.000000
    312         -1.290024       -1.290024   1.000000   1.000000
    313         -1.290024       -1.290024   1.000000   1.000000
    314         -1.290024       -1.290024   1.000000   1.000000
    315         -1.285483       -1.285483   1.000000   1.000000
    316         -1.285483       -1.285483   1.000000   1.000000
    317         -1.285483       -1.285483   1.000000   1.000000
    318         -1.285483       -1.285483   1.000000   1.000000
    319         -1.285033       -1.285033   1.000000   1.000000
    320         -1.285033       -1.285033   1.000000   1.000000
    321         -1.285033       -1.285033   1.000000   1.000000
    322         -1.285033       -1.285033   1.000000   1.000000
    323         -1.284099       -1.284099   1.000000   1.000000
    324         -1.284099       -1.284099   1.000000   1.000000
    325         -1.284099       -1.284099   1.000000   1.000000
    326         -1.284099       -1.284099   1.000000   1.000000
    327         -1.237498       -1.237499   1.000000   1.000000
    328         -1.231440       -1.231440   1.000000   1.000000
    329         -1.231440       -1.231440   1.000000   1.000000
    330         -1.231440       -1.231440   1.000000   1.000000
    331         -1.231440       -1.231440   1.000000   1.000000
    332         -1.225529       -1.225529   1.000000   1.000000
    333         -1.225529       -1.225529   1.000000   1.000000
    334         -1.225529       -1.225529   1.000000   1.000000
    335         -1.225529       -1.225529   1.000000   1.000000
    336         -1.217536       -1.217536   1.000000   1.000000
    337         -1.217536       -1.217536   1.000000   1.000000
    338         -1.217536       -1.217536   1.000000   1.000000
    339         -1.217536       -1.217536   1.000000   1.000000
    340         -1.204184       -1.204184   1.000000   1.000000
    341         -1.204184       -1.204184   1.000000   1.000000
    342         -1.204184       -1.204184   1.000000   1.000000
    343         -1.204184       -1.204184   1.000000   1.000000
    344         -1.187646       -1.187646   1.000000   1.000000
    345         -1.187646       -1.187646   1.000000   1.000000
    346         -1.187646       -1.187646   1.000000   1.000000
    347         -1.187646       -1.187646   1.000000   1.000000
    348         -1.183091       -1.183091   1.000000   1.000000
    349         -1.174949       -1.174949   1.000000   1.000000
    350         -1.174949       -1.174949   1.000000   1.000000
    351         -1.174949       -1.174949   1.000000   1.000000
    352         -1.174949       -1.174949   1.000000   1.000000
    353         -1.160482       -1.160482   1.000000   1.000000
    354         -1.160482       -1.160482   1.000000   1.000000
    355         -1.147146       -1.147146   1.000000   1.000000
    356         -1.147146       -1.147146   1.000000   1.000000
    357         -1.147146       -1.147146   1.000000   1.000000
    358         -1.147146       -1.147146   1.000000   1.000000
    359         -1.133087       -1.133088   1.000000   1.000000
    360         -1.133087       -1.133088   1.000000   1.000000
    361         -1.133087       -1.133088   1.000000   1.000000
    362         -1.133087       -1.133088   1.000000   1.000000
    363         -1.128288       -1.128287   1.000000   1.000000
    364         -1.128288       -1.128287   1.000000   1.000000
    365         -1.128288       -1.128287   1.000000   1.000000
    366         -1.128288       -1.128287   1.000000   1.000000
    367         -1.115965       -1.115965   1.000000   1.000000
    368         -1.115965       -1.115965   1.000000   1.000000
    369         -1.115965       -1.115965   1.000000   1.000000
    370         -1.115965       -1.115965   1.000000   1.000000
    371         -1.115949       -1.115949   1.000000   1.000000
    372         -1.115949       -1.115949   1.000000   1.000000
    373         -1.115949       -1.115949   1.000000   1.000000
    374         -1.115949       -1.115949   1.000000   1.000000
    375         -1.111032       -1.111032   1.000000   1.000000
    376         -1.111032       -1.111032   1.000000   1.000000
    377         -1.111032       -1.111032   1.000000   1.000000
    378         -1.111032       -1.111032   1.000000   1.000000
    379         -1.106657       -1.106657   1.000000   1.000000
    380         -1.106657       -1.106657   1.000000   1.000000
    381         -1.106657       -1.106657   1.000000   1.000000
    382         -1.106657       -1.106657   1.000000   1.000000
    383         -1.098102       -1.098102   1.000000   1.000000
    384         -1.098102       -1.098102   1.000000   1.000000
    385         -1.098102       -1.098102   1.000000   1.000000
    386         -1.098102       -1.098102   1.000000   1.000000
    387         -1.059771       -1.059771   1.000000   1.000000
    388         -1.059771       -1.059771   1.000000   1.000000
    389         -1.059771       -1.059771   1.000000   1.000000
    390         -1.059771       -1.059771   1.000000   1.000000
    391         -0.946982       -0.946982   1.000000   1.000000
    392         -0.946982       -0.946982   1.000000   1.000000
    393         -0.946982       -0.946982   1.000000   1.000000
    394         -0.946982       -0.946982   1.000000   1.000000
    395         -0.946609       -0.946609   1.000000   1.000000
    396         -0.946609       -0.946609   1.000000   1.000000
    397         -0.946609       -0.946609   1.000000   1.000000
    398         -0.946609       -0.946609   1.000000   1.000000
    399         -0.926400       -0.926400   1.000000   1.000000
    400         -0.926400       -0.926400   1.000000   1.000000
    401         -0.918805       -0.918805   1.000000   1.000000
    402         -0.918805       -0.918805   1.000000   1.000000
    403         -0.918805       -0.918805   1.000000   1.000000
    404         -0.918805       -0.918805   1.000000   1.000000
    405         -0.918432       -0.918432   1.000000   1.000000
    406         -0.918432       -0.918432   1.000000   1.000000
    407         -0.918432       -0.918432   1.000000   1.000000
    408         -0.918432       -0.918432   1.000000   1.000000
    409         -0.903014       -0.903014   1.000000   1.000000
    410         -0.903014       -0.903014   1.000000   1.000000
    411         -0.903014       -0.903014   1.000000   1.000000
    412         -0.903014       -0.903014   1.000000   1.000000
    413         -0.898306       -0.898306   1.000000   1.000000
    414         -0.898306       -0.898306   1.000000   1.000000
    415         -0.898306       -0.898306   1.000000   1.000000
    416         -0.898306       -0.898306   1.000000   1.000000
    417         -0.891542       -0.891542   1.000000   1.000000
    418         -0.891542       -0.891542   1.000000   1.000000
    419         -0.891542       -0.891542   1.000000   1.000000
    420         -0.891542       -0.891542   1.000000   1.000000
    421         -0.888156       -0.888156   1.000000   1.000000
    422         -0.888156       -0.888156   1.000000   1.000000
    423         -0.888156       -0.888156   1.000000   1.000000
    424         -0.888156       -0.888156   1.000000   1.000000
    425         -0.865537       -0.865537   1.000000   1.000000
    426         -0.865537       -0.865537   1.000000   1.000000
    427         -0.865537       -0.865537   1.000000   1.000000
    428         -0.865537       -0.865537   1.000000   1.000000
    429         -0.861022       -0.861022   1.000000   1.000000
    430         -0.861022       -0.861022   1.000000   1.000000
    431         -0.861022       -0.861022   1.000000   1.000000
    432         -0.861022       -0.861021   1.000000   1.000000
    433         -0.837694       -0.837694   1.000000   1.000000
    434         -0.837694       -0.837694   1.000000   1.000000
    435         -0.837694       -0.837694   1.000000   1.000000
    436         -0.837694       -0.837694   1.000000   1.000000
    437         -0.817043       -0.817043   1.000000   1.000000
    438         -0.817043       -0.817043   1.000000   1.000000
    439         -0.817043       -0.817043   1.000000   1.000000
    440         -0.817043       -0.817043   1.000000   1.000000
    441         -0.790828       -0.790829   1.000000   1.000000
    442         -0.790828       -0.790829   1.000000   1.000000
    443         -0.790828       -0.790829   1.000000   1.000000
    444         -0.790828       -0.790829   1.000000   1.000000
    445         -0.784559       -0.784559   1.000000   1.000000
    446         -0.784559       -0.784559   1.000000   1.000000
    447         -0.784559       -0.784559   1.000000   1.000000
    448         -0.784559       -0.784559   1.000000   1.000000
    449         -0.757520       -0.757520   1.000000   1.000000
    450         -0.757520       -0.757520   1.000000   1.000000
    451         -0.754537       -0.754537   1.000000   1.000000
    452         -0.754537       -0.754537   1.000000   1.000000
    453         -0.754537       -0.754537   1.000000   1.000000
    454         -0.754537       -0.754537   1.000000   1.000000
    455         -0.712199       -0.712199   1.000000   1.000000
    456         -0.701636       -0.701636   1.000000   1.000000
    457         -0.701636       -0.701636   1.000000   1.000000
    458         -0.701636       -0.701636   1.000000   1.000000
    459         -0.701636       -0.701636   1.000000   1.000000
    460         -0.694251       -0.694251   1.000000   1.000000
    461         -0.682633       -0.682633   1.000000   1.000000
    462         -0.682633       -0.682633   1.000000   1.000000
    463         -0.682633       -0.682633   1.000000   1.000000
    464         -0.682633       -0.682633   1.000000   1.000000