       N       E                     dE             d eps       ncg     rms          rms(c)
DAV:   1     0.154250776330E+05    0.15425E+05   -0.55932E+05 12304   0.189E+03
DAV:   2     0.222093990594E+04   -0.13204E+05   -0.12639E+05 12288   0.450E+02
DAV:   3    -0.389617381102E+03   -0.26106E+04   -0.23580E+04 12288   0.231E+02
DAV:   4    -0.606423647790E+03   -0.21681E+03   -0.20553E+03 13376   0.937E+01
DAV:   5    -0.612184335000E+03   -0.57607E+01   -0.57295E+01 13544   0.155E+01    0.111E+02
DAV:   6    -0.506187933185E+03    0.10600E+03   -0.13950E+03 13560   0.122E+02    0.568E+01
DAV:   7    -0.440119999570E+03    0.66068E+02   -0.31020E+02 13448   0.775E+01    0.293E+01
DAV:   8    -0.438868505933E+03    0.12515E+01   -0.92920E+01 14328   0.925E+01    0.304E+01
DAV:   9    -0.427977558377E+03    0.10891E+02   -0.26716E+01 17464   0.438E+01    0.225E+01
DAV:  10    -0.430296368548E+03   -0.23188E+01   -0.20926E+01 18280   0.344E+01    0.205E+01
DAV:  11    -0.437262047157E+03   -0.69657E+01   -0.26423E+01 14496   0.507E+01    0.191E+01
DAV:  12    -0.440653014798E+03   -0.33910E+01   -0.19179E+01 15784   0.540E+01    0.175E+01
DAV:  13    -0.446201401914E+03   -0.55484E+01   -0.10256E+01 19176   0.323E+01    0.131E+01
DAV:  14    -0.465731075980E+03   -0.19530E+02   -0.24103E+01 15448   0.263E+01    0.614E+00
DAV:  15    -0.476636840122E+03   -0.10906E+02   -0.11960E+01 15840   0.164E+01    0.623E+00
DAV:  16    -0.487450933836E+03   -0.10814E+02   -0.10108E+01 14984   0.119E+01    0.380E+00
DAV:  17    -0.496071690839E+03   -0.86208E+01   -0.77596E+00 13928   0.650E+00    0.286E+00
DAV:  18    -0.499121076098E+03   -0.30494E+01   -0.14747E+00 14024   0.312E+00    0.265E+00
DAV:  19    -0.502809410850E+03   -0.36883E+01   -0.15669E+00 15656   0.346E+00    0.235E+00
DAV:  20    -0.507536338482E+03   -0.47269E+01   -0.26736E+00 16672   0.366E+00    0.188E+00
DAV:  21    -0.510127842803E+03   -0.25915E+01   -0.95186E-01 16408   0.300E+00    0.172E+00
DAV:  22    -0.512351159739E+03   -0.22233E+01   -0.14426E+00 15848   0.224E+00    0.148E+00
DAV:  23    -0.513135957936E+03   -0.78480E+00   -0.21050E-01 15048   0.210E+00    0.791E-01
DAV:  24    -0.514104670516E+03   -0.96871E+00   -0.10159E-01 15528   0.167E+00    0.721E-01
DAV:  25    -0.514803049093E+03   -0.69838E+00   -0.50412E-02 14392   0.137E+00    0.540E-01
DAV:  26    -0.515493928131E+03   -0.69088E+00   -0.26513E-02 17248   0.725E-01    0.224E-01
DAV:  27    -0.515767833176E+03   -0.27391E+00   -0.75580E-03 14328   0.472E-01    0.130E-01
DAV:  28    -0.515842299084E+03   -0.74466E-01   -0.23626E-03 13904   0.354E-01    0.948E-02
DAV:  29    -0.515872932723E+03   -0.30634E-01   -0.12905E-03 12200   0.223E-01    0.587E-02
DAV:  30    -0.515874884546E+03   -0.19518E-02   -0.70602E-04 10840   0.103E-01    0.306E-02
DAV:  31    -0.515875370340E+03   -0.48579E-03   -0.23004E-04  8536   0.506E-02    0.173E-02
DAV:  32    -0.515875293675E+03    0.76665E-04   -0.77362E-05  8048   0.338E-02
   1 F= -.57450457E+03 E0= -.57453733E+03  d E =-.574505E+03  mag=     0.0063
       N       E                     dE             d eps       ncg     rms          rms(c)
DAV:   1    -0.515879837304E+03   -0.44670E-02   -0.27217E+01 13504   0.500E+00    0.449E-01
DAV:   2    -0.515929525555E+03   -0.49688E-01   -0.50431E-01 19032   0.244E+00    0.644E-01
DAV:   3    -0.515927708187E+03    0.18174E-02   -0.51468E-02 13968   0.234E+00    0.352E-01
DAV:   4    -0.515925528167E+03    0.21800E-02   -0.15699E-02 14168   0.122E+00    0.275E-01
DAV:   5    -0.515925765799E+03   -0.23763E-03   -0.77689E-03 13544   0.526E-01    0.249E-01
DAV:   6    -0.515925555976E+03    0.20982E-03   -0.45734E-03 13128   0.467E-01    0.192E-01
DAV:   7    -0.515925311909E+03    0.24407E-03   -0.34881E-03 15088   0.430E-01    0.712E-02
DAV:   8    -0.515925132874E+03    0.17904E-03   -0.12436E-03 11160   0.417E-01
   2 F= -.57459088E+03 E0= -.57462359E+03  d E =-.863170E-01  mag=     0.0041
       N       E                     dE             d eps       ncg     rms          rms(c)
DAV:   1    -0.515875728713E+03    0.49583E-01   -0.42561E+01 13536   0.621E+00    0.583E-01
DAV:   2    -0.515956339387E+03   -0.80611E-01   -0.82856E-01 18904   0.302E+00    0.802E-01
DAV:   3    -0.515952446708E+03    0.38927E-02   -0.64455E-02 13784   0.275E+00    0.424E-01
DAV:   4    -0.515949837974E+03    0.26087E-02   -0.20749E-02 14432   0.151E+00    0.338E-01
DAV:   5    -0.515949964207E+03   -0.12623E-03   -0.10456E-02 13848   0.732E-01    0.304E-01
DAV:   6    -0.515949640925E+03    0.32328E-03   -0.65016E-03 13224   0.605E-01    0.241E-01
DAV:   7    -0.515949168417E+03    0.47251E-03   -0.56818E-03 14736   0.533E-01    0.772E-02
DAV:   8    -0.515948988120E+03    0.18030E-03   -0.14320E-03 14104   0.442E-01
   3 F= -.57466042E+03 E0= -.57469297E+03  d E =-.155851E+00  mag=     0.0025
       N       E                     dE             d eps       ncg     rms          rms(c)
DAV:   1    -0.515529780959E+03    0.41939E+00   -0.17160E+02 13568   0.126E+01    0.125E+00
DAV:   2    -0.515890127286E+03   -0.36035E+00   -0.37307E+00 19176   0.650E+00    0.170E+00
DAV:   3    -0.515862807160E+03    0.27320E-01   -0.20984E-01 14536   0.547E+00    0.853E-01
DAV:   4    -0.515852265731E+03    0.10541E-01   -0.67004E-02 15184   0.290E+00    0.722E-01
DAV:   5    -0.515852057544E+03    0.20819E-03   -0.38441E-02 14296   0.151E+00    0.639E-01
DAV:   6    -0.515850187248E+03    0.18703E-02   -0.25043E-02 13512   0.123E+00    0.510E-01
DAV:   7    -0.515847668335E+03    0.25189E-02   -0.24665E-02 15960   0.112E+00    0.160E-01
DAV:   8    -0.515846906134E+03    0.76220E-03   -0.71242E-03 19312   0.847E-01    0.987E-02
DAV:   9    -0.515846944329E+03   -0.38195E-04   -0.24987E-03 13424   0.232E-01    0.747E-02
DAV:  10    -0.515846929096E+03    0.15232E-04   -0.87158E-04 11440   0.125E-01
   4 F= -.57465105E+03 E0= -.57468309E+03  d E =-.146486E+00  mag=     0.0014
       N       E                     dE             d eps       ncg     rms          rms(c)
DAV:   1    -0.515830173141E+03    0.16771E-01   -0.53753E+01 13536   0.695E+00    0.458E-01
DAV:   2    -0.515936439796E+03   -0.10627E+00   -0.10933E+00 17656   0.182E+00    0.618E-01
DAV:   3    -0.515932651516E+03    0.37883E-02   -0.14870E-02 14208   0.708E-01    0.445E-01
DAV:   4    -0.515932343984E+03    0.30753E-03   -0.42741E-03 14024   0.817E-01    0.389E-01
DAV:   5    -0.515932303840E+03    0.40144E-04   -0.28317E-03 13448   0.122E+00    0.381E-01
DAV:   6    -0.515929619753E+03    0.26841E-02   -0.23764E-03 13584   0.110E+00    0.194E-01
DAV:   7    -0.515929256461E+03    0.36329E-03   -0.59058E-03 22488   0.694E-01    0.122E-01
DAV:   8    -0.515928934587E+03    0.32187E-03   -0.19811E-03 16872   0.410E-01    0.549E-02
DAV:   9    -0.515928988378E+03   -0.53792E-04   -0.11211E-03 12312   0.898E-02
   5 F= -.57468081E+03 E0= -.57471321E+03  d E =-.176245E+00  mag=     0.0008
       N       E                     dE             d eps       ncg     rms          rms(c)
DAV:   1    -0.515855768098E+03    0.73166E-01   -0.40566E+01 13456   0.619E+00    0.444E-01
DAV:   2    -0.515928684169E+03   -0.72916E-01   -0.74281E-01 18272   0.247E+00    0.660E-01
DAV:   3    -0.515926099487E+03    0.25847E-02   -0.39849E-02 13800   0.188E+00    0.388E-01
DAV:   4    -0.515925644317E+03    0.45517E-03   -0.13022E-02 14232   0.106E+00    0.371E-01
DAV:   5    -0.515925383784E+03    0.26053E-03   -0.53593E-03 14072   0.809E-01    0.339E-01
DAV:   6    -0.515923557093E+03    0.18267E-02   -0.59623E-03 18616   0.716E-01    0.234E-01
DAV:   7    -0.515923032988E+03    0.52410E-03   -0.55893E-03 15928   0.660E-01    0.117E-01
DAV:   8    -0.515922822997E+03    0.20999E-03   -0.15106E-03 13136   0.326E-01    0.302E-02
DAV:   9    -0.515922881874E+03   -0.58878E-04   -0.79340E-04 10704   0.889E-02
   6 F= -.57474333E+03 E0= -.57477560E+03  d E =-.625213E-01  mag=     0.0005
       N       E                     dE             d eps       ncg     rms          rms(c)
DAV:   1    -0.515139927988E+03    0.78290E+00   -0.37037E+02 13584   0.192E+01    0.158E+00
DAV:   2    -0.515924548318E+03   -0.78462E+00   -0.79237E+00 19248   0.959E+00    0.238E+00
DAV:   3    -0.515863552894E+03    0.60995E-01   -0.37913E-01 17208   0.734E+00    0.127E+00
DAV:   4    -0.515847612163E+03    0.15941E-01   -0.14734E-01 15784   0.370E+00    0.117E+00
DAV:   5    -0.515845810789E+03    0.18014E-02   -0.65966E-02 14360   0.228E+00    0.106E+00
DAV:   6    -0.515833116874E+03    0.12694E-01   -0.51495E-02 13976   0.181E+00    0.789E-01
DAV:   7    -0.515825093295E+03    0.80236E-02   -0.66271E-02 17384   0.181E+00    0.285E-01
DAV:   8    -0.515823284651E+03    0.18086E-02   -0.16156E-02 19280   0.113E+00    0.120E-01
DAV:   9    -0.515823684654E+03   -0.40000E-03   -0.63496E-03 13432   0.271E-01    0.981E-02
DAV:  10    -0.515823712452E+03   -0.27798E-04   -0.14184E-03 12176   0.145E-01
   7 F= -.57485043E+03 E0= -.57488246E+03  d E =-.169622E+00  mag=     0.0003
       N       E                     dE             d eps       ncg     rms          rms(c)
DAV:   1    -0.515673373158E+03    0.15031E+00   -0.50146E+01 13464   0.689E+00    0.510E-01
DAV:   2    -0.515765241036E+03   -0.91868E-01   -0.93422E-01 18632   0.280E+00    0.737E-01
DAV:   3    -0.515761385029E+03    0.38560E-02   -0.49954E-02 14216   0.206E+00    0.414E-01
DAV:   4    -0.515761274473E+03    0.11056E-03   -0.15223E-02 14232   0.116E+00    0.407E-01
DAV:   5    -0.515760963304E+03    0.31117E-03   -0.61046E-03 14024   0.994E-01    0.365E-01
DAV:   6    -0.515758874563E+03    0.20887E-02   -0.59032E-03 18760   0.796E-01    0.261E-01
DAV:   7    -0.515758144457E+03    0.73011E-03   -0.68232E-03 15816   0.735E-01    0.134E-01
DAV:   8    -0.515757980936E+03    0.16352E-03   -0.25310E-03 13856   0.330E-01    0.389E-02
DAV:   9    -0.515757995154E+03   -0.14218E-04   -0.71108E-04 10024   0.967E-02
   8 F= -.57486141E+03 E0= -.57489335E+03  d E =-.180596E+00  mag=     0.0002
       N       E                     dE             d eps       ncg     rms          rms(c)
DAV:   1    -0.515667434190E+03    0.90547E-01   -0.45505E+01 13480   0.666E+00    0.453E-01
DAV:   2    -0.515748063878E+03   -0.80630E-01   -0.80621E-01 18856   0.252E+00    0.651E-01
DAV:   3    -0.515746647208E+03    0.14167E-02   -0.43438E-02 14392   0.229E+00    0.431E-01
DAV:   4    -0.515744852363E+03    0.17948E-02   -0.14581E-02 14240   0.129E+00    0.372E-01
DAV:   5    -0.515744693282E+03    0.15908E-03   -0.72561E-03 14432   0.777E-01    0.345E-01
DAV:   6    -0.515742563702E+03    0.21296E-02   -0.94407E-03 18304   0.690E-01    0.210E-01
DAV:   7    -0.515742287414E+03    0.27629E-03   -0.52378E-03 14184   0.607E-01    0.843E-02
DAV:   8    -0.515742148101E+03    0.13931E-03   -0.79371E-04 11104   0.298E-01
   9 F= -.57491564E+03 E0= -.57494749E+03  d E =-.542331E-01  mag=     0.0001
       N       E                     dE             d eps       ncg     rms          rms(c)
DAV:   1    -0.514888325667E+03    0.85396E+00   -0.41422E+02 13504   0.206E+01    0.158E+00
DAV:   2    -0.515736326814E+03   -0.84800E+00   -0.83768E+00 19528   0.983E+00    0.239E+00
DAV:   3    -0.515691417706E+03    0.44909E-01   -0.50630E-01 18640   0.870E+00    0.141E+00
DAV:   4    -0.515652043005E+03    0.39375E-01   -0.17522E-01 15576   0.436E+00    0.123E+00
DAV:   5    -0.515651329587E+03    0.71342E-03   -0.85857E-02 14184   0.218E+00    0.113E+00
DAV:   6    -0.515633972476E+03    0.17357E-01   -0.88649E-02 13648   0.192E+00    0.712E-01
DAV:   7    -0.515628313334E+03    0.56591E-02   -0.65207E-02 18064   0.176E+00    0.294E-01
DAV:   8    -0.515626362772E+03    0.19506E-02   -0.15198E-02 18584   0.129E+00    0.128E-01
DAV:   9    -0.515626383324E+03   -0.20552E-04   -0.55503E-03 14472   0.461E-01    0.857E-02
DAV:  10    -0.515626536337E+03   -0.15301E-03   -0.24085E-03 12696   0.185E-01    0.741E-02
DAV:  11    -0.515626528031E+03    0.83062E-05   -0.42337E-04  7648   0.130E-01
  10 F= -.57501130E+03 E0= -.57504303E+03  d E =-.149899E+00  mag=     0.0001
       N       E                     dE             d eps       ncg     rms          rms(c)
DAV:   1    -0.515405724867E+03    0.22081E+00   -0.81211E+01 13488   0.890E+00    0.630E-01
DAV:   2    -0.515554969453E+03   -0.14924E+00   -0.14894E+00 19104   0.368E+00    0.945E-01
DAV:   3    -0.515549787214E+03    0.51822E-02   -0.74109E-02 15144   0.327E+00    0.601E-01
DAV:   4    -0.515545716520E+03    0.40707E-02   -0.27829E-02 14432   0.173E+00    0.531E-01
DAV:   5    -0.515545455988E+03    0.26053E-03   -0.14530E-02 13976   0.101E+00    0.496E-01
DAV:   6    -0.515541215935E+03    0.42401E-02   -0.18891E-02 15864   0.982E-01    0.305E-01
DAV:   7    -0.515540838762E+03    0.37717E-03   -0.12083E-02 15704   0.837E-01    0.152E-01
DAV:   8    -0.515540366484E+03    0.47228E-03   -0.26045E-03 16264   0.542E-01    0.482E-02
DAV:   9    -0.515540408530E+03   -0.42046E-04   -0.11805E-03 11920   0.147E-01
  11 F= -.57501984E+03 E0= -.57505169E+03  d E =-.158432E+00  mag=     0.0000
       N       E                     dE             d eps       ncg     rms          rms(c)
DAV:   1    -0.515266118395E+03    0.27425E+00   -0.14083E+02 13472   0.119E+01    0.796E-01
DAV:   2    -0.515524381357E+03   -0.25826E+00   -0.25329E+00 19296   0.472E+00    0.120E+00
DAV:   3    -0.515515260511E+03    0.91208E-02   -0.12080E-01 15696   0.454E+00    0.791E-01
DAV:   4    -0.515506043706E+03    0.92168E-02   -0.44152E-02 14208   0.227E+00    0.693E-01
DAV:   5    -0.515505864157E+03    0.17955E-03   -0.26705E-02 14312   0.133E+00    0.646E-01
DAV:   6    -0.515497848585E+03    0.80156E-02   -0.45264E-02 16168   0.124E+00    0.333E-01
DAV:   7    -0.515497646982E+03    0.20160E-03   -0.14770E-02 15592   0.821E-01    0.201E-01
DAV:   8    -0.515496966382E+03    0.68060E-03   -0.47308E-03 13784   0.692E-01    0.609E-02
DAV:   9    -0.515497027263E+03   -0.60881E-04   -0.20500E-03 12832   0.244E-01    0.436E-02
DAV:  10    -0.515497060854E+03   -0.33591E-04   -0.58623E-04  9728   0.987E-02
  12 F= -.57508477E+03 E0= -.57511728E+03  d E =-.649285E-01  mag=     0.0000
       N       E                     dE             d eps       ncg     rms          rms(c)
DAV:   1    -0.515012712889E+03    0.48431E+00   -0.24136E+02 13472   0.157E+01    0.108E+00
DAV:   2    -0.515469771401E+03   -0.45706E+00   -0.44531E+00 19488   0.663E+00    0.165E+00
DAV:   3    -0.515449483423E+03    0.20288E-01   -0.22049E-01 17224   0.624E+00    0.105E+00
DAV:   4    -0.515430835790E+03    0.18648E-01   -0.75987E-02 14424   0.303E+00    0.926E-01
DAV:   5    -0.515430664793E+03    0.17100E-03   -0.49244E-02 14120   0.172E+00    0.864E-01
DAV:   6    -0.515416559850E+03    0.14105E-01   -0.76242E-02 15144   0.163E+00    0.435E-01
DAV:   7    -0.515416010433E+03    0.54942E-03   -0.29242E-02 17232   0.106E+00    0.261E-01
DAV:   8    -0.515414861638E+03    0.11488E-02   -0.77360E-03 14080   0.954E-01    0.962E-02
DAV:   9    -0.515414933707E+03   -0.72069E-04   -0.39209E-03 13400   0.377E-01    0.580E-02
DAV:  10    -0.515415005876E+03   -0.72168E-04   -0.11517E-03 12280   0.139E-01
  13 F= -.57514490E+03 E0= -.57517848E+03  d E =-.125063E+00  mag=     0.0000
       N       E                     dE             d eps       ncg     rms          rms(c)
DAV:   1    -0.513457056277E+03    0.19579E+01   -0.98312E+02 13600   0.330E+01    0.234E+00
DAV:   2    -0.515467950810E+03   -0.20109E+01   -0.19261E+01 20112   0.159E+01    0.385E+00
DAV:   3    -0.515329098522E+03    0.13885E+00   -0.16528E+00 19560   0.141E+01    0.216E+00
DAV:   4    -0.515222075996E+03    0.10702E+00   -0.33598E-01 15744   0.627E+00    0.191E+00
DAV:   5    -0.515227053833E+03   -0.49778E-02   -0.26624E-01 14072   0.340E+00    0.180E+00
DAV:   6    -0.515178884760E+03    0.48169E-01   -0.28291E-01 13720   0.294E+00    0.901E-01
DAV:   7    -0.515166910957E+03    0.11974E-01   -0.12021E-01 20888   0.202E+00    0.471E-01
DAV:   8    -0.515163262229E+03    0.36487E-02   -0.29062E-02 14440   0.190E+00    0.291E-01
DAV:   9    -0.515163320591E+03   -0.58363E-04   -0.20808E-02 13344   0.995E-01    0.110E-01
DAV:  10    -0.515163642610E+03   -0.32202E-03   -0.41446E-03 12960   0.252E-01    0.105E-01
DAV:  11    -0.515163625090E+03    0.17520E-04   -0.98251E-04 12200   0.193E-01
  14 F= -.57518033E+03 E0= -.57521689E+03  d E =-.160491E+00  mag=     0.0000
       N       E                     dE             d eps       ncg     rms          rms(c)
DAV:   1    -0.514940781391E+03    0.22286E+00   -0.11887E+02 13488   0.110E+01    0.708E-01
DAV:   2    -0.515153813101E+03   -0.21303E+00   -0.20855E+00 19440   0.414E+00    0.108E+00
DAV:   3    -0.515145982337E+03    0.78308E-02   -0.10504E-01 15648   0.396E+00    0.740E-01
DAV:   4    -0.515139443500E+03    0.65388E-02   -0.29145E-02 14224   0.189E+00    0.647E-01
DAV:   5    -0.515138796108E+03    0.64739E-03   -0.20780E-02 14504   0.124E+00    0.605E-01
DAV:   6    -0.515131408146E+03    0.73880E-02   -0.40554E-02 17336   0.133E+00    0.310E-01
DAV:   7    -0.515131321815E+03    0.86330E-04   -0.12316E-02 15696   0.809E-01    0.198E-01
DAV:   8    -0.515130793917E+03    0.52790E-03   -0.46174E-03 13400   0.562E-01    0.606E-02
DAV:   9    -0.515130807392E+03   -0.13475E-04   -0.15563E-03 12488   0.193E-01
  15 F= -.57523911E+03 E0= -.57527657E+03  d E =-.587845E-01  mag=     0.0000
       N       E                     dE             d eps       ncg     rms          rms(c)
DAV:   1    -0.513085325179E+03    0.20455E+01   -0.10902E+03 13600   0.351E+01    0.240E+00
DAV:   2    -0.515275543845E+03   -0.21902E+01   -0.21016E+01 20224   0.158E+01    0.389E+00
DAV:   3    -0.515139805008E+03    0.13574E+00   -0.17472E+00 19056   0.144E+01    0.227E+00
DAV:   4    -0.515027367858E+03    0.11244E+00   -0.37013E-01 15784   0.638E+00    0.198E+00
DAV:   5    -0.515029431432E+03   -0.20636E-02   -0.29367E-01 14104   0.352E+00    0.183E+00
DAV:   6    -0.514972891072E+03    0.56540E-01   -0.29404E-01 13992   0.365E+00    0.987E-01
DAV:   7    -0.514966099558E+03    0.67915E-02   -0.16307E-01 20080   0.256E+00    0.490E-01
DAV:   8    -0.514962353948E+03    0.37456E-02   -0.30754E-02 16120   0.200E+00    0.229E-01
DAV:   9    -0.514962000166E+03    0.35378E-03   -0.13882E-02 13384   0.876E-01    0.121E-01
DAV:  10    -0.514962418897E+03   -0.41873E-03   -0.55061E-03 13240   0.314E-01    0.110E-01
DAV:  11    -0.514962464137E+03   -0.45240E-04   -0.17556E-03 12536   0.241E-01
  16 F= -.57534692E+03 E0= -.57538707E+03  d E =-.166588E+00  mag=    -0.0000
       N       E                     dE             d eps       ncg     rms          rms(c)
DAV:   1    -0.512382730312E+03    0.25797E+01   -0.47254E+03 18016   0.833E+01    0.553E+00
DAV:   2    -0.515468423614E+03   -0.30857E+01   -0.31145E+01 17272   0.323E+01    0.851E+00
DAV:   3    -0.515006141637E+03    0.46228E+00   -0.85141E+00 17648   0.295E+01    0.359E+00
DAV:   4    -0.514336277829E+03    0.66986E+00   -0.18025E+00 18568   0.142E+01    0.314E+00
DAV:   5    -0.514330328940E+03    0.59489E-02   -0.21995E+00 13904   0.919E+00    0.282E+00
DAV:   6    -0.514345468750E+03   -0.15140E-01   -0.17653E+00 14112   0.992E+00    0.223E+00
DAV:   7    -0.514319934656E+03    0.25534E-01   -0.47146E-01 16024   0.455E+00    0.162E+00
DAV:   8    -0.514291213503E+03    0.28721E-01   -0.22466E-01 13200   0.311E+00    0.478E-01
DAV:   9    -0.514291294090E+03   -0.80587E-04   -0.54984E-02 14096   0.119E+00    0.208E-01
DAV:  10    -0.514292912397E+03   -0.16183E-02   -0.19087E-02 13032   0.553E-01    0.175E-01
DAV:  11    -0.514293080753E+03   -0.16836E-03   -0.41244E-03 12960   0.436E-01    0.112E-01
DAV:  12    -0.514292965516E+03    0.11524E-03   -0.99398E-04 12296   0.175E-01
  17 F= -.57523834E+03 E0= -.57528418E+03  d E =-.580140E-01  mag=    -0.0000
       N       E                     dE             d eps       ncg     rms          rms(c)
DAV:   1    -0.512062405095E+03    0.22307E+01   -0.24214E+03 15376   0.556E+01    0.309E+00
DAV:   2    -0.515118101223E+03   -0.30557E+01   -0.32268E+01 17728   0.135E+01    0.403E+00
DAV:   3    -0.515036242209E+03    0.81859E-01   -0.18420E+00 13536   0.911E+00    0.263E+00
DAV:   4    -0.514971903926E+03    0.64338E-01   -0.26241E-01 14632   0.423E+00    0.221E+00
DAV:   5    -0.514890153461E+03    0.81750E-01   -0.27512E-01 23008   0.480E+00    0.149E+00
DAV:   6    -0.514973964677E+03   -0.83811E-01   -0.55218E-01 15184   0.103E+01    0.174E+00
DAV:   7    -0.514830949689E+03    0.14301E+00   -0.22672E-01 19808   0.688E+00    0.623E-01
DAV:   8    -0.514828406359E+03    0.25433E-02   -0.83706E-02 18624   0.184E+00    0.247E-01
DAV:   9    -0.514832046522E+03   -0.36402E-02   -0.46808E-02 13472   0.610E-01    0.192E-01
DAV:  10    -0.514832110829E+03   -0.64308E-04   -0.54215E-03 12688   0.354E-01    0.133E-01
DAV:  11    -0.514831939931E+03    0.17090E-03   -0.73319E-04 10728   0.205E-01
  18 F= -.57536457E+03 E0= -.57540639E+03  d E =-.184241E+00  mag=    -0.0000
       N       E                     dE             d eps       ncg     rms          rms(c)
DAV:   1    -0.514728892231E+03    0.10322E+00   -0.78147E+01 13416   0.902E+00    0.569E-01
DAV:   2    -0.514868739248E+03   -0.13985E+00   -0.13700E+00 18848   0.310E+00    0.819E-01
DAV:   3    -0.514866323605E+03    0.24156E-02   -0.79406E-02 13672   0.321E+00    0.637E-01
DAV:   4    -0.514861473660E+03    0.48499E-02   -0.17244E-02 14096   0.168E+00    0.487E-01
DAV:   5    -0.514859999454E+03    0.14742E-02   -0.17014E-02 14456   0.725E-01    0.439E-01
DAV:   6    -0.514856789827E+03    0.32096E-02   -0.21700E-02 16856   0.108E+00    0.203E-01
DAV:   7    -0.514856555375E+03    0.23445E-03   -0.62493E-03 15168   0.728E-01    0.948E-02
DAV:   8    -0.514856514875E+03    0.40501E-04   -0.15416E-03 14120   0.253E-01
  19 F= -.57542490E+03 E0= -.57546628E+03  d E =-.603348E-01  mag=    -0.0000
       N       E                     dE             d eps       ncg     rms          rms(c)
DAV:   1    -0.514698737820E+03    0.15782E+00   -0.97473E+01 13424   0.101E+01    0.651E-01
DAV:   2    -0.514875040964E+03   -0.17630E+00   -0.17280E+00 18848   0.351E+00    0.925E-01
DAV:   3    -0.514872022852E+03    0.30181E-02   -0.98608E-02 13632   0.365E+00    0.726E-01
DAV:   4    -0.514865426099E+03    0.65968E-02   -0.22850E-02 14080   0.194E+00    0.545E-01
DAV:   5    -0.514863676034E+03    0.17501E-02   -0.23026E-02 14456   0.804E-01    0.493E-01
DAV:   6    -0.514859483655E+03    0.41924E-02   -0.28816E-02 16928   0.111E+00    0.203E-01
DAV:   7    -0.514859421908E+03    0.61747E-04   -0.70367E-03 14768   0.769E-01    0.112E-01
DAV:   8    -0.514859305438E+03    0.11647E-03   -0.16812E-03 14184   0.325E-01
  20 F= -.57546769E+03 E0= -.57550883E+03  d E =-.103125E+00  mag=    -0.0000
       N       E                     dE             d eps       ncg     rms          rms(c)
DAV:   1    -0.514101152891E+03    0.75827E+00   -0.39227E+02 13472   0.206E+01    0.138E+00
DAV:   2    -0.514847282575E+03   -0.74613E+00   -0.73215E+00 19336   0.768E+00    0.201E+00
DAV:   3    -0.514827260469E+03    0.20022E-01   -0.44527E-01 14176   0.769E+00    0.152E+00
DAV:   4    -0.514793460704E+03    0.33800E-01   -0.12578E-01 14512   0.423E+00    0.112E+00
DAV:   5    -0.514788713320E+03    0.47474E-02   -0.10911E-01 14024   0.153E+00    0.101E+00
DAV:   6    -0.514770433181E+03    0.18280E-01   -0.10765E-01 15952   0.229E+00    0.468E-01
DAV:   7    -0.514769223463E+03    0.12097E-02   -0.38630E-02 15600   0.186E+00    0.289E-01
DAV:   8    -0.514768947720E+03    0.27574E-03   -0.10708E-02 19296   0.849E-01    0.240E-01
DAV:   9    -0.514768148985E+03    0.79874E-03   -0.37856E-03 13376   0.546E-01    0.890E-02
DAV:  10    -0.514768212610E+03   -0.63625E-04   -0.15012E-03 12520   0.181E-01
  21 F= -.57545691E+03 E0= -.57549758E+03  d E =-.923437E-01  mag=    -0.0000
       N       E                     dE             d eps       ncg     rms          rms(c)
DAV:   1    -0.514596529582E+03    0.17162E+00   -0.14760E+02 13432   0.125E+01    0.776E-01
DAV:   2    -0.514865859972E+03   -0.26933E+00   -0.26494E+00 18952   0.413E+00    0.117E+00
DAV:   3    -0.514858862796E+03    0.69972E-02   -0.13616E-01 13800   0.431E+00    0.881E-01
DAV:   4    -0.514851399218E+03    0.74636E-02   -0.33599E-02 14104   0.200E+00    0.704E-01
DAV:   5    -0.514848787761E+03    0.26115E-02   -0.26753E-02 16040   0.117E+00    0.638E-01
DAV:   6    -0.514840898096E+03    0.78897E-02   -0.33989E-02 16576   0.170E+00    0.339E-01
DAV:   7    -0.514839963060E+03    0.93504E-03   -0.17074E-02 17328   0.109E+00    0.130E-01
DAV:   8    -0.514840109624E+03   -0.14656E-03   -0.49976E-03 14920   0.348E-01    0.704E-02
DAV:   9    -0.514840115002E+03   -0.53776E-05   -0.89996E-04 11360   0.146E-01
  22 F= -.57547938E+03 E0= -.57552042E+03  d E =-.114808E+00  mag=    -0.0000
       N       E                     dE             d eps       ncg     rms          rms(c)
DAV:   1    -0.514836210444E+03    0.38992E-02   -0.60455E-01 13472   0.797E-01    0.518E-02
DAV:   2    -0.514837196249E+03   -0.98581E-03   -0.10514E-02 17432   0.205E-01    0.751E-02
DAV:   3    -0.514837174342E+03    0.21907E-04   -0.25140E-04  7424   0.109E-01
  23 F= -.57547960E+03 E0= -.57552067E+03  d E =-.115030E+00  mag=    -0.0000
       N       E                     dE             d eps       ncg     rms          rms(c)
DAV:   1    -0.514829677257E+03    0.75190E-02   -0.12243E+01 13456   0.352E+00    0.234E-01
DAV:   2    -0.514851428548E+03   -0.21751E-01   -0.21908E-01 19000   0.120E+00    0.353E-01
DAV:   3    -0.514851251423E+03    0.17713E-03   -0.14873E-02 13560   0.111E+00    0.254E-01
DAV:   4    -0.514850940374E+03    0.31105E-03   -0.28528E-03 13192   0.606E-01    0.220E-01
DAV:   5    -0.514850542011E+03    0.39836E-03   -0.16791E-03 14352   0.419E-01    0.195E-01
DAV:   6    -0.514849955108E+03    0.58690E-03   -0.30758E-03 19720   0.537E-01    0.116E-01
DAV:   7    -0.514849765082E+03    0.19003E-03   -0.97451E-04 12184   0.335E-01
  24 F= -.57548746E+03 E0= -.57552839E+03  d E =-.786146E-02  mag=    -0.0000
