       N       E                     dE             d eps       ncg     rms          rms(c)
DAV:   1     0.747157180132E+03    0.74716E+03   -0.32996E+04   896   0.176E+03
DAV:   2     0.513478125861E+02   -0.69581E+03   -0.67260E+03   896   0.390E+02
DAV:   3    -0.305933848440E+02   -0.81941E+02   -0.76728E+02   960   0.186E+02
DAV:   4    -0.336035874884E+02   -0.30102E+01   -0.29963E+01  1008   0.487E+01
DAV:   5    -0.336737512176E+02   -0.70164E-01   -0.70151E-01  1056   0.592E+00    0.263E+01
DAV:   6    -0.267180889235E+02    0.69557E+01   -0.81601E+01   952   0.131E+02    0.129E+01
DAV:   7    -0.238981128201E+02    0.28200E+01   -0.22556E+01   992   0.904E+01    0.706E+00
DAV:   8    -0.230123141409E+02    0.88580E+00   -0.34465E+00  1216   0.580E+01    0.559E+00
DAV:   9    -0.224472346722E+02    0.56508E+00   -0.17666E+00  1296   0.228E+01    0.488E+00
DAV:  10    -0.220957674180E+02    0.35147E+00   -0.15348E+00  1192   0.341E+01    0.418E+00
DAV:  11    -0.221236576497E+02   -0.27890E-01   -0.15230E+00  1288   0.298E+01    0.302E+00
DAV:  12    -0.239580608697E+02   -0.18344E+01   -0.14660E+00  1016   0.135E+01    0.161E+00
DAV:  13    -0.259790556710E+02   -0.20210E+01   -0.15681E+00  1160   0.955E+00    0.104E+00
DAV:  14    -0.268605782528E+02   -0.88152E+00   -0.59978E-01  1120   0.125E+01    0.852E-01
DAV:  15    -0.274994707564E+02   -0.63889E+00   -0.50332E-01  1216   0.104E+01    0.730E-01
DAV:  16    -0.278615451556E+02   -0.36207E+00   -0.27066E-01  1240   0.738E+00    0.569E-01
DAV:  17    -0.280951342824E+02   -0.23359E+00   -0.26900E-01  1064   0.434E+00    0.446E-01
DAV:  18    -0.281985047018E+02   -0.10337E+00   -0.51659E-02  1048   0.273E+00    0.296E-01
DAV:  19    -0.282562102374E+02   -0.57706E-01   -0.26001E-02  1128   0.154E+00    0.219E-01
DAV:  20    -0.283518889620E+02   -0.95679E-01   -0.12269E-02  1088   0.167E+00    0.223E-01
DAV:  21    -0.284279297400E+02   -0.76041E-01   -0.11655E-02  1192   0.142E+00    0.176E-01
DAV:  22    -0.284700854271E+02   -0.42156E-01   -0.67797E-03  1072   0.681E-01    0.117E-01
DAV:  23    -0.285390212422E+02   -0.68936E-01   -0.37344E-03  1016   0.965E-01    0.107E-01
DAV:  24    -0.285628668341E+02   -0.23846E-01   -0.19949E-03  1024   0.529E-01    0.531E-02
DAV:  25    -0.285847713400E+02   -0.21905E-01   -0.67976E-04   720   0.271E-01    0.253E-02
DAV:  26    -0.285876777775E+02   -0.29064E-02   -0.35026E-04   688   0.158E-01    0.178E-02
DAV:  27    -0.285886420189E+02   -0.96424E-03   -0.11856E-04   616   0.227E-01    0.146E-02
DAV:  28    -0.285894042770E+02   -0.76226E-03   -0.54027E-05   608   0.127E-01    0.653E-03
DAV:  29    -0.285894814470E+02   -0.77170E-04   -0.31233E-05   624   0.611E-02
   1 F= -.31555080E+02 E0= -.31553859E+02  d E =-.315551E+02  mag=     0.0008
       N       E                     dE             d eps       ncg     rms          rms(c)
DAV:   1    -0.285975015772E+02   -0.80973E-02   -0.63864E+00   952   0.106E+01    0.259E-01
DAV:   2    -0.286094791566E+02   -0.11978E-01   -0.13331E-01  1376   0.527E+00    0.313E-01
DAV:   3    -0.286081187901E+02    0.13604E-02   -0.10566E-02  1136   0.342E+00    0.131E-01
DAV:   4    -0.286081094916E+02    0.92985E-05   -0.22127E-03   992   0.914E-01    0.121E-01
DAV:   5    -0.286080604542E+02    0.49037E-04   -0.91250E-04   928   0.862E-01
   2 F= -.31574985E+02 E0= -.31573872E+02  d E =-.199053E-01  mag=     0.0006
       N       E                     dE             d eps       ncg     rms          rms(c)
DAV:   1    -0.285599664746E+02    0.48143E-01   -0.35980E+01   960   0.260E+01    0.632E-01
DAV:   2    -0.286334541621E+02   -0.73488E-01   -0.81310E-01  1384   0.124E+01    0.716E-01
DAV:   3    -0.286258147942E+02    0.76394E-02   -0.55758E-02  1128   0.833E+00    0.322E-01
DAV:   4    -0.286257847540E+02    0.30040E-04   -0.13021E-02  1136   0.215E+00    0.288E-01
DAV:   5    -0.286254718061E+02    0.31295E-03   -0.55749E-03  1048   0.216E+00    0.245E-01
DAV:   6    -0.286245818262E+02    0.88998E-03   -0.51427E-03  1376   0.133E+00    0.736E-02
DAV:   7    -0.286245671272E+02    0.14699E-04   -0.50857E-04   656   0.642E-01
   3 F= -.31594701E+02 E0= -.31593809E+02  d E =-.396215E-01  mag=     0.0003
       N       E                     dE             d eps       ncg     rms          rms(c)
DAV:   1    -0.286214116939E+02    0.31701E-02   -0.16286E+00   968   0.548E+00    0.103E-01
DAV:   2    -0.286241115861E+02   -0.26999E-02   -0.29196E-02  1392   0.226E+00    0.120E-01
DAV:   3    -0.286239867511E+02    0.12483E-03   -0.28892E-03  1024   0.159E+00    0.668E-02
DAV:   4    -0.286239723527E+02    0.14398E-04   -0.52720E-04   704   0.560E-01
   4 F= -.31597755E+02 E0= -.31596907E+02  d E =-.305359E-02  mag=     0.0002
       N       E                     dE             d eps       ncg     rms          rms(c)
DAV:   1    -0.286162760749E+02    0.77107E-02   -0.34215E+00   960   0.787E+00    0.136E-01
DAV:   2    -0.286218194098E+02   -0.55433E-02   -0.59839E-02  1384   0.286E+00    0.171E-01
DAV:   3    -0.286216019196E+02    0.21749E-03   -0.50202E-03  1032   0.194E+00    0.116E-01
DAV:   4    -0.286215626757E+02    0.39244E-04   -0.86731E-04   832   0.641E-01
   5 F= -.31600642E+02 E0= -.31599852E+02  d E =-.594073E-02  mag=     0.0002
       N       E                     dE             d eps       ncg     rms          rms(c)
DAV:   1    -0.285873541509E+02    0.34248E-01   -0.13741E+01   960   0.160E+01    0.287E-01
DAV:   2    -0.286121149535E+02   -0.24761E-01   -0.26447E-01  1384   0.617E+00    0.369E-01
DAV:   3    -0.286106322699E+02    0.14827E-02   -0.19925E-02  1104   0.421E+00    0.222E-01
DAV:   4    -0.286104885965E+02    0.14367E-03   -0.38565E-03   952   0.134E+00    0.200E-01
DAV:   5    -0.286100272559E+02    0.46134E-03   -0.25682E-03  1080   0.145E+00    0.146E-01
DAV:   6    -0.286097734359E+02    0.25382E-03   -0.26251E-03  1264   0.140E+00    0.519E-02
DAV:   7    -0.286097640972E+02    0.93386E-05   -0.31086E-04   648   0.376E-01
   6 F= -.31599522E+02 E0= -.31598796E+02  d E =-.482122E-02  mag=     0.0001
       N       E                     dE             d eps       ncg     rms          rms(c)
DAV:   1    -0.286093451814E+02    0.42825E-03   -0.54468E+00   952   0.997E+00    0.144E-01
DAV:   2    -0.286188732612E+02   -0.95281E-02   -0.99139E-02  1296   0.244E+00    0.183E-01
DAV:   3    -0.286185796934E+02    0.29357E-03   -0.21759E-03  1024   0.958E-01    0.140E-01
DAV:   4    -0.286184587654E+02    0.12093E-03   -0.38241E-04   640   0.568E-01
   7 F= -.31601456E+02 E0= -.31600683E+02  d E =-.675532E-02  mag=     0.0001
       N       E                     dE             d eps       ncg     rms          rms(c)
DAV:   1    -0.286121098973E+02    0.64698E-02   -0.29737E+00   944   0.744E+00    0.111E-01
DAV:   2    -0.286172966995E+02   -0.51868E-02   -0.53087E-02  1304   0.208E+00    0.130E-01
DAV:   3    -0.286171686943E+02    0.12801E-03   -0.17642E-03   944   0.119E+00
   8 F= -.31604604E+02 E0= -.31603787E+02  d E =-.314756E-02  mag=     0.0001
       N       E                     dE             d eps       ncg     rms          rms(c)
DAV:   1    -0.285902311477E+02    0.27066E-01   -0.14038E+01   944   0.163E+01    0.275E-01
DAV:   2    -0.286149101960E+02   -0.24679E-01   -0.26436E-01  1408   0.532E+00    0.361E-01
DAV:   3    -0.286135943909E+02    0.13158E-02   -0.12338E-02  1176   0.324E+00    0.251E-01
DAV:   4    -0.286132730234E+02    0.32137E-03   -0.30309E-03  1024   0.142E+00    0.229E-01
DAV:   5    -0.286123630159E+02    0.91001E-03   -0.46620E-03  1528   0.194E+00    0.133E-01
DAV:   6    -0.286121116515E+02    0.25136E-03   -0.23156E-03  1152   0.168E+00    0.373E-02
DAV:   7    -0.286121109557E+02    0.69579E-06   -0.34497E-04   560   0.367E-01
   9 F= -.31609192E+02 E0= -.31608218E+02  d E =-.773591E-02  mag=     0.0000
       N       E                     dE             d eps       ncg     rms          rms(c)
DAV:   1    -0.284922937211E+02    0.11982E+00   -0.57362E+01   960   0.345E+01    0.563E-01
DAV:   2    -0.286027400662E+02   -0.11045E+00   -0.11742E+00  1408   0.133E+01    0.744E-01
DAV:   3    -0.285957033073E+02    0.70368E-02   -0.82958E-02  1304   0.880E+00    0.437E-01
DAV:   4    -0.285950366068E+02    0.66670E-03   -0.14461E-02  1240   0.281E+00    0.394E-01
DAV:   5    -0.285933223873E+02    0.17142E-02   -0.83965E-03  1024   0.274E+00    0.303E-01
DAV:   6    -0.285916811484E+02    0.16412E-02   -0.10723E-02  1560   0.254E+00    0.789E-02
DAV:   7    -0.285917189587E+02   -0.37810E-04   -0.13022E-03  1016   0.765E-01
  10 F= -.31608328E+02 E0= -.31606971E+02  d E =-.687128E-02  mag=     0.0000
       N       E                     dE             d eps       ncg     rms          rms(c)
DAV:   1    -0.285711607251E+02    0.20520E-01   -0.20556E+01   944   0.200E+01    0.302E-01
DAV:   2    -0.286093070231E+02   -0.38146E-01   -0.40051E-01  1344   0.505E+00    0.402E-01
DAV:   3    -0.286077375941E+02    0.15694E-02   -0.10447E-02   936   0.242E+00    0.280E-01
DAV:   4    -0.286071900769E+02    0.54752E-03   -0.17455E-03  1024   0.104E+00    0.249E-01
DAV:   5    -0.286058043272E+02    0.13857E-02   -0.29515E-03  1296   0.688E-01    0.772E-02
DAV:   6    -0.286057015159E+02    0.10281E-03   -0.39463E-04   592   0.656E-01
  11 F= -.31610454E+02 E0= -.31609335E+02  d E =-.899797E-02  mag=     0.0000
       N       E                     dE             d eps       ncg     rms          rms(c)
DAV:   1    -0.285968926393E+02    0.89117E-02   -0.55164E+00   960   0.103E+01    0.158E-01
DAV:   2    -0.286060453584E+02   -0.91527E-02   -0.96786E-02  1328   0.281E+00    0.198E-01
DAV:   3    -0.286056826212E+02    0.36274E-03   -0.27237E-03   960   0.137E+00    0.141E-01
DAV:   4    -0.286055596579E+02    0.12296E-03   -0.75685E-04   632   0.807E-01
  12 F= -.31613890E+02 E0= -.31612686E+02  d E =-.343610E-02  mag=     0.0000
       N       E                     dE             d eps       ncg     rms          rms(c)
DAV:   1    -0.285546757605E+02    0.51007E-01   -0.28450E+01   960   0.239E+01    0.388E-01
DAV:   2    -0.286053112091E+02   -0.50635E-01   -0.54197E-01  1360   0.803E+00    0.492E-01
DAV:   3    -0.286028804645E+02    0.24307E-02   -0.33442E-02  1176   0.526E+00    0.339E-01
DAV:   4    -0.286023133002E+02    0.56716E-03   -0.72277E-03  1040   0.221E+00    0.304E-01
DAV:   5    -0.286005586950E+02    0.17546E-02   -0.61483E-03  1432   0.175E+00    0.150E-01
DAV:   6    -0.286002475680E+02    0.31113E-03   -0.31291E-03  1224   0.193E+00    0.602E-02
DAV:   7    -0.286002364512E+02    0.11117E-04   -0.68754E-04   744   0.675E-01
  13 F= -.31616722E+02 E0= -.31615256E+02  d E =-.626749E-02  mag=     0.0000
       N       E                     dE             d eps       ncg     rms          rms(c)
DAV:   1    -0.285991001460E+02    0.11474E-02   -0.24698E-01   976   0.219E+00    0.386E-02
DAV:   2    -0.285995131286E+02   -0.41298E-03   -0.42615E-03  1368   0.606E-01    0.332E-02
DAV:   3    -0.285995081622E+02    0.49664E-05   -0.22633E-04   568   0.469E-01
  14 F= -.31616762E+02 E0= -.31615270E+02  d E =-.630798E-02  mag=     0.0000
       N       E                     dE             d eps       ncg     rms          rms(c)
DAV:   1    -0.285998034824E+02   -0.29035E-03   -0.92310E-02   960   0.137E+00    0.192E-02
DAV:   2    -0.285999644462E+02   -0.16096E-03   -0.16022E-03  1200   0.374E-01
  15 F= -.31616745E+02 E0= -.31615262E+02  d E =-.629101E-02  mag=     0.0000
       N       E                     dE             d eps       ncg     rms          rms(c)
DAV:   1    -0.285997001073E+02    0.10338E-03   -0.22913E-02   976   0.735E-01    0.160E-02
DAV:   2    -0.285997145598E+02   -0.14453E-04   -0.18178E-04   528   0.364E-01
  16 F= -.31616732E+02 E0= -.31615249E+02  d E =-.627759E-02  mag=     0.0000
       N       E                     dE             d eps       ncg     rms          rms(c)
DAV:   1    -0.285998537897E+02   -0.15368E-03   -0.60909E-03  1312   0.495E-01    0.806E-03
DAV:   2    -0.285998597942E+02   -0.60045E-05   -0.79287E-05   576   0.314E-01
  17 F= -.31616757E+02 E0= -.31615275E+02  d E =-.630245E-02  mag=     0.0000
       N       E                     dE             d eps       ncg     rms          rms(c)
DAV:   1    -0.285968213660E+02    0.30324E-02   -0.11958E+00   920   0.458E+00    0.684E-02
DAV:   2    -0.285988704493E+02   -0.20491E-02   -0.21313E-02  1344   0.124E+00    0.832E-02
DAV:   3    -0.285988298741E+02    0.40575E-04   -0.57433E-04   848   0.635E-01
  18 F= -.31617178E+02 E0= -.31615757E+02  d E =-.421084E-03  mag=     0.0000
       N       E                     dE             d eps       ncg     rms          rms(c)
DAV:   1    -0.285990264125E+02   -0.15596E-03   -0.22404E-01   944   0.204E+00    0.494E-02
DAV:   2    -0.285994233224E+02   -0.39691E-03   -0.42840E-03  1296   0.678E-01    0.155E-02
DAV:   3    -0.285994476878E+02   -0.24365E-04   -0.70998E-04   584   0.822E-01
  19 F= -.31617165E+02 E0= -.31615719E+02  d E =-.407893E-03  mag=     0.0000
       N       E                     dE             d eps       ncg     rms          rms(c)
DAV:   1    -0.285991424732E+02    0.28085E-03   -0.34234E-02   960   0.902E-01    0.158E-02
DAV:   2    -0.285991864581E+02   -0.43985E-04   -0.48599E-04   792   0.319E-01
  20 F= -.31617150E+02 E0= -.31615711E+02  d E =-.393024E-03  mag=     0.0000
