 vasp.6.3.2 27Jun22 (build Aug 17 2022 15:43:34) complex                        
  
 executed on           tv2STDVTST date 2025.01.21  16:01:48
 running   20 mpi-ranks, with    1 threads/rank
 distrk:  each k-point on   20 cores,    1 groups
 distr:  one band on NCORE=   5 cores,    4 groups


--------------------------------------------------------------------------------------------------------


 -----------------------------------------------------------------------------
|                                                                             |
|           W    W    AA    RRRRR   N    N  II  N    N   GGGG   !!!           |
|           W    W   A  A   R    R  NN   N  II  NN   N  G    G  !!!           |
|           W    W  A    A  R    R  N N  N  II  N N  N  G       !!!           |
|           W WW W  AAAAAA  RRRRR   N  N N  II  N  N N  G  GGG   !            |
|           WW  WW  A    A  R   R   N   NN  II  N   NN  G    G                |
|           W    W  A    A  R    R  N    N  II  N    N   GGGG   !!!           |
|                                                                             |
|     Found issues when parsing the INCAR file                                |
|     In line 64: Tagname --- R W I G S contains invalid characters.          |
|     Please check if the interpretation in the OUTCAR file is correct.       |
|                                                                             |
 -----------------------------------------------------------------------------

 INCAR:
    = \=\=\=\=\=\=\=\=\=\=\=\=\=\=\=\=\=\=\=\=\=\=\=\=\=\=\=\=\=\=\=\=\=\=\=\=\=\=\=\=\=\=\=\=\=\=\=\=\=\=\=\=\=\=\=\=\=\=\=\=\=\=\=\=\=\=\=\=\=\=\=\=
    = \=\=\=\=\=\=\=\=\=\=\=\=\=\=\=\=\=\=\=\=\=\=\=\=\=\=\=\=\=\=\=\=\=\=\=\=\=\=\=\=\=\=\=\=\=\=\=\=\=\=\=\=\=\=\=\=\=\=\=\=\=\=\=\=\=\=\=\=\=\=\=\=
   ISTART = 0
   ICHARG = 2
   IPIPOL = 3
   IVDW = 11
   IDIPOL = 3
   IVDW = 11
    = \=\=\=\=\=\=\=\=\=\=\=\=\=\=\=\=\=\=\=\=\=\=\=\=\=\=\=\=\=\=\=\=\=\=\=\=\=\=\=\=\=\=\=\=\=\=\=\=\=\=\=\=\=\=\=\=\=\=\=\=\=\=\=\=\=\=\=\=\=\=\=\=
    = \=\=\=\=\=\=\=\=\=\=\=\=\=\=\=\=\=\=\=\=\=\=\=\=\=\=\=\=\=\=\=\=\=\=\=\=\=\=\=\=\=\=\=\=\=\=\=\=\=\=\=\=\=\=\=\=\=\=\=\=\=\=\=\=\=\=\=\=\=\=\=\=
   ISPIN = 2
    = \=\=\=\=\=\=\=\=\=\=\=\=\=\=\=\=\=\=\=\=\=\=\=\=\=\=\=\=\=\=\=\=\=\=\=\=\=\=\=\=\=\=\=\=\=\=\=\=\=\=\=\=\=\=\=\=\=\=\=\=\=\=\=\=\=\=\=\=\=\=\=\=
    = \=\=\=\=\=\=\=\=\=\=\=\=\=\=\=\=\=\=\=\=\=\=\=\=\=\=\=\=\=\=\=\=\=\=\=\=\=\=\=\=\=\=\=\=\=\=\=\=\=\=\=\=\=\=\=\=\=\=\=\=\=\=\=\=\=\=\=\=\=\=\=\=
   ENCUT = 400
   PREC = Normal
   EDIFF = 2E-04
   GGA = PE
   ISMEAR = 1
   SIGMA = 0.2
   LREAL = .FALSE.
    = \=\=\=\=\=\=\=\=\=\=\=\=\=\=\=\=\=\=\=\=\=\=\=\=\=\=\=\=\=\=\=\=\=\=\=\=\=\=\=\=\=\=\=\=\=\=\=\=\=\=\=\=\=\=\=\=\=\=\=\=\=\=\=\=\=\=\=\=\=\=\=\=
    = \=\=\=\=\=\=\=\=\=\=\=\=\=\=\=\=\=\=\=\=\=\=\=\=\=\=\=\=\=\=\=\=\=\=\=\=\=\=\=\=\=\=\=\=\=\=\=\=\=\=\=\=\=\=\=\=\=\=\=\=\=\=\=\=\=\=\=\=\=\=\=\=
   ISYM = 1
   NSW = 800
   IBRION = 2
   POTIM = 0.5
   ISIF = 2
   EDIFFG = -.03
    = \=\=\=\=\=\=\=\=\=\=\=\=\=\=\=\=\=\=\=\=\=\=\=\=\=\=\=\=\=\=\=\=\=\=\=\=\=\=\=\=\=\=\=\=\=\=\=\=\=\=\=\=\=\=\=\=\=\=\=\=\=\=\=\=\=\=\=\=\=\=\=\=
    = \=\=\=\=\=\=\=\=\=\=\=\=\=\=\=\=\=\=\=\=\=\=\=\=\=\=\=\=\=\=\=\=\=\=\=\=\=\=\=\=\=\=\=\=\=\=\=\=\=\=\=\=\=\=\=\=\=\=\=\=\=\=\=\=\=\=\=\=\=\=\=\=
   NPAR = 4
   LWAVE = .FALSE.
   LCHARG = .FALSE.

 POTCAR:    PAW_PBE Cu 22Jun2005                  
 -----------------------------------------------------------------------------
|                                                                             |
|           W    W    AA    RRRRR   N    N  II  N    N   GGGG   !!!           |
|           W    W   A  A   R    R  NN   N  II  NN   N  G    G  !!!           |
|           W    W  A    A  R    R  N N  N  II  N N  N  G       !!!           |
|           W WW W  AAAAAA  RRRRR   N  N N  II  N  N N  G  GGG   !            |
|           WW  WW  A    A  R   R   N   NN  II  N   NN  G    G                |
|           W    W  A    A  R    R  N    N  II  N    N   GGGG   !!!           |
|                                                                             |
|     You use a magnetic or noncollinear calculation, but did not specify     |
|     the initial magnetic moment with the MAGMOM tag. Note that a            |
|     default of 1 will be used for all atoms. This ferromagnetic setup       |
|     may break the symmetry of the crystal, in particular it may rule        |
|     out finding an antiferromagnetic solution. Thence, we recommend         |
|     setting the initial magnetic moment manually or verifying carefully     |
|     that this magnetic setup is desired.                                    |
|                                                                             |
 -----------------------------------------------------------------------------

 POTCAR:    PAW_PBE Cu 22Jun2005                  
   SHA256 =  0e71e558f37a4e8407882b4609ceaae59938afaad9ced71dfe8490308a0ab630 Cu/POTCAR             
   COPYR  = (c) Copyright 22Jun2005 Georg Kresse                                                    
   COPYR  = This file is part of the software VASP. Any use, copying, and all other rights are regul
   COPYR  = If you do not have a valid VASP license, you may not use, copy or distribute this file. 
   VRHFIN =Cu: d10 p1                                                                               
   LEXCH  = PE                                                                                      
   EATOM  =  1390.9808 eV,  102.2342 Ry                                                             
                                                                                                    
   TITEL  = PAW_PBE Cu 22Jun2005                                                                    
   LULTRA =        F    use ultrasoft PP ?                                                          
   IUNSCR =        1    unscreen: 0-lin 1-nonlin 2-no                                               
   RPACOR =    2.000    partial core radius                                                         
   POMASS =   63.546; ZVAL   =   11.000    mass and valenz                                          
   RCORE  =    2.300    outmost cutoff radius                                                       
   RWIGS  =    2.200; RWIGS  =    1.164    wigner-seitz radius (au A)                               
   ENMAX  =  295.446; ENMIN  =  221.585 eV                                                          
   ICORE  =        3    local potential                                                             
   LCOR   =        T    correct aug charges                                                         
   LPAW   =        T    paw PP                                                                      
   EAUG   =  586.980                                                                                
   DEXC   =    0.000                                                                                
   RMAX   =    2.344    core radius for proj-oper                                                   
   RAUG   =    1.300    factor for augmentation sphere                                              
   RDEP   =    2.302    radius for radial grids                                                     
   RDEPT  =    1.771    core radius for aug-charge                                                  
                                                                                                    
   Atomic configuration                                                                             
    9 entries                                                                                       
     n  l   j            E        occ.                                                              
     1  0  0.50     -8850.2468   2.0000                                                             
     2  0  0.50     -1062.3498   2.0000                                                             
     2  1  1.50      -916.8226   6.0000                                                             
     3  0  0.50      -114.6929   2.0000                                                             
     3  1  1.50       -72.1325   6.0000                                                             
     3  2  2.50        -5.0394  10.0000                                                             
     4  0  0.50        -4.6097   1.0000                                                             
     4  1  0.50        -4.0817   0.0000                                                             
     4  3  2.50        -1.3606   0.0000                                                             
   Description                                                                                      
     l       E           TYP  RCUT    TYP  RCUT                                                     
     2     -5.0393973     23  2.200                                                                 
     2     10.8846608     23  2.200                                                                 
     0     -4.6097109     23  2.200                                                                 
     0      8.2520465     23  2.200                                                                 
     1     -2.7211652     23  2.200                                                                 
     1     21.7055443     23  2.200                                                                 
     3      2.7211652     23  2.300                                                                 
  local pseudopotential read in
  partial core-charges read in
  partial kinetic energy density read in
  atomic valenz-charges read in
  non local Contribution for L=           2  read in
    real space projection operators read in
  non local Contribution for L=           2  read in
    real space projection operators read in
  non local Contribution for L=           0  read in
    real space projection operators read in
  non local Contribution for L=           0  read in
    real space projection operators read in
  non local Contribution for L=           1  read in
    real space projection operators read in
  non local Contribution for L=           1  read in
    real space projection operators read in
    PAW grid and wavefunctions read in
 
   number of l-projection  operators is LMAX  =           6
   number of lm-projection operators is LMMAX =          18
 
  PAW_PBE Cu 22Jun2005                  :
 energy of atom  1       EATOM=-1390.9808
 kinetic energy error for atom=    0.0232 (will be added to EATOM!!)
 
 
 POSCAR: FCC Cu
  positions in cartesian coordinates
  velocities in cartesian coordinates
  No initial velocities read in
 exchange correlation table for  LEXCH =        8
   RHO(1)=    0.500       N(1)  =     2000
   RHO(2)=  100.500       N(2)  =     4000

 VTST: version 4.2, (08/11/21)

 CHAIN: initializing optimizer
 
 OPT: Using VASP Conjugate-Gradient optimizer
 CHAIN: Read ICHAIN            0
 
 POSCAR: FCC Cu
  positions in cartesian coordinates
  velocities in cartesian coordinates
  No initial velocities read in
 


--------------------------------------------------------------------------------------------------------


 ion  position               nearest neighbor table
   1  0.000  0.000  0.000-   2 2.57   2 2.57   2 2.57   2 2.57   3 2.57
   2  0.500  0.500  0.054-   3 2.57   3 2.57   3 2.57   1 2.57   3 2.57   1 2.57   1 2.57   1 2.57
                             4 2.57
   3  0.000  0.000  0.107-   2 2.57   2 2.57   2 2.57   4 2.57   2 2.57   4 2.57   4 2.57   4 2.57
                             1 2.57   5 2.57
   4  0.500  0.500  0.161-   3 2.57   5 2.57   3 2.57   5 2.57   3 2.57   5 2.57   3 2.57   5 2.57
                             2 2.57   6 2.57
   5  0.000  0.000  0.214-   6 2.57   6 2.57   6 2.57   4 2.57   6 2.57   4 2.57   4 2.57   4 2.57
                             7 2.57   3 2.57
   6  0.500  0.500  0.268-   5 2.57   5 2.57   5 2.57   7 2.57   5 2.57   7 2.57   7 2.57   7 2.57
                             4 2.57   8 2.57
   7  0.000  0.000  0.321-   6 2.57   8 2.57   6 2.57   8 2.57   6 2.57   8 2.57   6 2.57   8 2.57
                             5 2.57
   8  0.500  0.500  0.375-   7 2.57   7 2.57   7 2.57   7 2.57   6 2.57
 
  LATTYP: Found a simple orthorhombic cell.
 ALAT       =     2.5667977333
 B/A-ratio  =     1.4142135422
 C/A-ratio  =     9.3438574294
  
  Lattice vectors:
  
 A1 = (   0.0000000000,  -2.5667977333,   0.0000000000)
 A2 = (   3.6300001144,   0.0000000000,   0.0000000000)
 A3 = (   0.0000000000,   0.0000000000,  23.9837920700)


Analysis of symmetry for initial positions (statically):
=====================================================================
 Subroutine PRICEL returns:
 Original cell was already a primitive cell.
 

 Routine SETGRP: Setting up the symmetry group for a 
 simple orthorhombic supercell.


 Subroutine GETGRP returns: Found  8 space group operations
 (whereof  4 operations were pure point group operations)
 out of a pool of  8 trial point group operations.


The static configuration has the point symmetry C_2v.
 The point group associated with its full space group is D_2h.


Analysis of symmetry for dynamics (positions and initial velocities):
=====================================================================
 Subroutine PRICEL returns:
 Original cell was already a primitive cell.
 

 Routine SETGRP: Setting up the symmetry group for a 
 simple orthorhombic supercell.


 Subroutine GETGRP returns: Found  8 space group operations
 (whereof  4 operations were pure point group operations)
 out of a pool of  8 trial point group operations.


The dynamic configuration has the point symmetry C_2v.
 The point group associated with its full space group is D_2h.


Analysis of constrained symmetry for selective dynamics:
=====================================================================
 Subroutine PRICEL returns:
 Original cell was already a primitive cell.
 

 Routine SETGRP: Setting up the symmetry group for a 
 simple orthorhombic supercell.


 Subroutine GETGRP returns: Found  4 space group operations
 (whereof  4 operations were pure point group operations)
 out of a pool of  8 trial point group operations.


The constrained configuration has the point symmetry C_2v.


Analysis of structural, dynamic, and magnetic symmetry:
=====================================================================
 Subroutine PRICEL returns:
 Original cell was already a primitive cell.
 

 Routine SETGRP: Setting up the symmetry group for a 
 simple orthorhombic supercell.


 Subroutine GETGRP returns: Found  4 space group operations
 (whereof  4 operations were pure point group operations)
 out of a pool of  8 trial point group operations.


The overall configuration has the point symmetry C_2v.


 Subroutine INISYM returns: Found  4 space group operations
 (whereof  4 operations are pure point group operations),
 and found     1 'primitive' translations


----------------------------------------------------------------------------------------

                                     Primitive cell                                     

  volume of cell :     223.4684

  direct lattice vectors                    reciprocal lattice vectors
     3.630000114  0.000000000  0.000000000     0.275482085  0.000000000  0.000000000
     0.000000000  2.566797733  0.000000000     0.000000000  0.389590495  0.000000000
     0.000000000  0.000000000 23.983792070     0.000000000  0.000000000  0.041694824

  length of vectors
     3.630000114  2.566797733 23.983792070     0.275482085  0.389590495  0.041694824

  position of ions in fractional coordinates (direct lattice)
     0.000000000  0.000000000  0.000000000
     0.500000000  0.500000000  0.053511090
     0.000000000  0.000000000  0.107022181
     0.500000000  0.500000000  0.160533271
     0.000000000  0.000000000  0.214044362
     0.500000000  0.500000000  0.267555452
     0.000000000  0.000000000  0.321066543
     0.500000000  0.500000000  0.374577633

  ion indices of the primitive-cell ions
   primitive index   ion index
                 1           1
                 2           2
                 3           3
                 4           4
                 5           5
                 6           6
                 7           7
                 8           8

----------------------------------------------------------------------------------------

 
 
 KPOINTS: Auto-mesh                               

Automatic generation of k-mesh.
 Grid dimensions read from file:
 generate k-points for:    3    3    1

 Generating k-lattice:

  Cartesian coordinates                     Fractional coordinates (reciprocal lattice)
     0.091827362  0.000000000  0.000000000     0.333333333  0.000000000  0.000000000
     0.000000000  0.129863498  0.000000000     0.000000000  0.333333333  0.000000000
     0.000000000  0.000000000  0.041694824     0.000000000  0.000000000  1.000000000

  Length of vectors
     0.091827362  0.129863498  0.041694824

  Shift w.r.t. Gamma in fractional coordinates (k-lattice)
     0.000000000  0.000000000  0.000000000

 
 Subroutine IBZKPT returns following result:
 ===========================================
 
 Found      4 irreducible k-points:
 
 Following reciprocal coordinates:
            Coordinates               Weight
  0.000000  0.000000  0.000000      1.000000
  0.333333  0.000000  0.000000      2.000000
  0.000000  0.333333  0.000000      2.000000
  0.333333  0.333333  0.000000      4.000000
 
 Following cartesian coordinates:
            Coordinates               Weight
  0.000000  0.000000  0.000000      1.000000
  0.091827  0.000000  0.000000      2.000000
  0.000000  0.129863  0.000000      2.000000
  0.091827  0.129863  0.000000      4.000000
 


--------------------------------------------------------------------------------------------------------




 Dimension of arrays:
   k-points           NKPTS =      4   k-points in BZ     NKDIM =      4   number of bands    NBANDS=     56
   number of dos      NEDOS =    301   number of ions     NIONS =      8
   non local maximal  LDIM  =      6   non local SUM 2l+1 LMDIM =     18
   total plane-waves  NPLWV =  30240
   max r-space proj   IRMAX =      1   max aug-charges    IRDMAX=   4119
   dimension x,y,z NGX =    18 NGY =   14 NGZ =  120
   dimension x,y,z NGXF=    36 NGYF=   28 NGZF=  240
   support grid    NGXF=    36 NGYF=   28 NGZF=  240
   ions per type =               8
   NGX,Y,Z   is equivalent  to a cutoff of   8.24,  9.07,  8.32 a.u.
   NGXF,Y,Z  is equivalent  to a cutoff of  16.49, 18.13, 16.64 a.u.

 SYSTEM =  unknown system                          
 POSCAR =  FCC Cu                                  

 Startparameter for this run:
   NWRITE =      2    write-flag & timer
   PREC   = normal    normal or accurate (medium, high low for compatibility)
   ISTART =      0    job   : 0-new  1-cont  2-samecut
   ICHARG =      2    charge: 1-file 2-atom 10-const
   ISPIN  =      2    spin polarized calculation?
   LNONCOLLINEAR =      F non collinear calculations
   LSORBIT =      F    spin-orbit coupling
   INIWAV =      1    electr: 0-lowe 1-rand  2-diag
   LASPH  =      F    aspherical Exc in radial PAW
 Electronic Relaxation 1
   ENCUT  =  400.0 eV  29.40 Ry    5.42 a.u.   5.92  4.19 39.11*2*pi/ulx,y,z
   ENINI  =  400.0     initial cutoff
   ENAUG  =  587.0 eV  augmentation charge cutoff
   NELM   =     60;   NELMIN=  2; NELMDL= -5     # of ELM steps 
   EDIFF  = 0.2E-03   stopping-criterion for ELM
   LREAL  =      F    real-space projection
   NLSPLINE    = F    spline interpolate recip. space projectors
   LCOMPAT=      F    compatible to vasp.4.4
   GGA_COMPAT  = T    GGA compatible to vasp.4.4-vasp.4.6
   LMAXPAW     = -100 max onsite density
   LMAXMIX     =    2 max onsite mixed and CHGCAR
   VOSKOWN=      0    Vosko Wilk Nusair interpolation
   ROPT   =    0.00000
 Ionic relaxation
   EDIFFG = -.3E-01   stopping-criterion for IOM
   NSW    =    800    number of steps for IOM
   NBLOCK =      1;   KBLOCK =    800    inner block; outer block 
   IBRION =      2    ionic relax: 0-MD 1-quasi-New 2-CG
   NFREE  =      1    steps in history (QN), initial steepest desc. (CG)
   ISIF   =      2    stress and relaxation
   IWAVPR =     11    prediction:  0-non 1-charg 2-wave 3-comb
   ISYM   =      1    0-nonsym 1-usesym 2-fastsym
   LCORR  =      T    Harris-Foulkes like correction to forces

   POTIM  = 0.5000    time-step for ionic-motion
   TEIN   =    0.0    initial temperature
   TEBEG  =    0.0;   TEEND  =   0.0 temperature during run
   SMASS  =  -3.00    Nose mass-parameter (am)
   estimated Nose-frequenzy (Omega)   =  0.10E-29 period in steps = 0.13E+47 mass=  -0.301E-27a.u.
   SCALEE = 1.0000    scale energy and forces
   NPACO  =    256;   APACO  = 10.0  distance and # of slots for P.C.
   PSTRESS=    0.0 pullay stress

  Mass of Ions in am
   POMASS =  63.55
  Ionic Valenz
   ZVAL   =  11.00
  Atomic Wigner-Seitz radii
   RWIGS  =  -1.00
  virtual crystal weights 
   VCA    =   1.00
   NELECT =      88.0000    total number of electrons
   NUPDOWN=      -1.0000    fix difference up-down

 DOS related values:
   EMIN   =  10.00;   EMAX   =-10.00  energy-range for DOS
   EFERMI =   0.00
   ISMEAR =     1;   SIGMA  =   0.20  broadening in eV -4-tet -1-fermi 0-gaus

 Electronic relaxation 2 (details)
   IALGO  =     38    algorithm
   LDIAG  =      T    sub-space diagonalisation (order eigenvalues)
   LSUBROT=      F    optimize rotation matrix (better conditioning)
   TURBO    =      0    0=normal 1=particle mesh
   IRESTART =      0    0=no restart 2=restart with 2 vectors
   NREBOOT  =      0    no. of reboots
   NMIN     =      0    reboot dimension
   EREF     =   0.00    reference energy to select bands
   IMIX   =      4    mixing-type and parameters
     AMIX     =   0.40;   BMIX     =  1.00
     AMIX_MAG =   1.60;   BMIX_MAG =  1.00
     AMIN     =   0.10
     WC   =   100.;   INIMIX=   1;  MIXPRE=   1;  MAXMIX= -45

 Intra band minimization:
   WEIMIN = 0.0010     energy-eigenvalue tresh-hold
   EBREAK =  0.89E-06  absolut break condition
   DEPER  =   0.30     relativ break condition  

   TIME   =   0.40     timestep for ELM

  volume/ion in A,a.u.               =      27.93       188.50
  Fermi-wavevector in a.u.,A,eV,Ry     =   1.199951  2.267579 19.590804  1.439883
  Thomas-Fermi vector in A             =   2.335800
 
 Write flags
   LWAVE        =      F    write WAVECAR
   LDOWNSAMPLE  =      F    k-point downsampling of WAVECAR
   LCHARG       =      F    write CHGCAR
   LVTOT        =      F    write LOCPOT, total local potential
   LVHAR        =      F    write LOCPOT, Hartree potential only
   LELF         =      F    write electronic localiz. function (ELF)
   LORBIT       =      0    0 simple, 1 ext, 2 COOP (PROOUT), +10 PAW based schemes


 Dipole corrections
   LMONO  =      F    monopole corrections only (constant potential shift)
   LDIPOL =      F    correct potential (dipole corrections)
   IDIPOL =      3    1-x, 2-y, 3-z, 4-all directions 
   EPSILON=  1.0000000 bulk dielectric constant

 Exchange correlation treatment:
   GGA     =    PE    GGA type
   LEXCH   =     8    internal setting for exchange type
   LIBXC   =     F    Libxc                    
   VOSKOWN =     0    Vosko Wilk Nusair interpolation
   LHFCALC =     F    Hartree Fock is set to
   LHFONE  =     F    Hartree Fock one center treatment
   AEXX    =    0.0000 exact exchange contribution

 Linear response parameters
   LEPSILON=     F    determine dielectric tensor
   LRPA    =     F    only Hartree local field effects (RPA)
   LNABLA  =     F    use nabla operator in PAW spheres
   LVEL    =     F    velocity operator in full k-point grid
   CSHIFT  =0.1000    complex shift for real part using Kramers Kronig
   OMEGAMAX=  -1.0    maximum frequency
   DEG_THRESHOLD= 0.2000000E-02 threshold for treating states as degnerate
   RTIME   =   -0.100 relaxation time in fs
  (WPLASMAI=    0.000 imaginary part of plasma frequency in eV, 0.658/RTIME)
   DFIELD  = 0.0000000 0.0000000 0.0000000 field for delta impulse in time
 
  Optional k-point grid parameters
   LKPOINTS_OPT  =     F    use optional k-point grid
   KPOINTS_OPT_MODE=     1    mode for optional k-point grid
 
 Orbital magnetization related:
   ORBITALMAG=     F  switch on orbital magnetization
   LCHIMAG   =     F  perturbation theory with respect to B field
   DQ        =  0.001000  dq finite difference perturbation B field
   LLRAUG    =     F  two centre corrections for induced B field



--------------------------------------------------------------------------------------------------------


 conjugate gradient relaxation of ions
   using selective dynamics as specified on POSCAR
   WARNING: If single coordinates had been selected the selection of coordinates
            is made according to the corresponding   d i r e c t   coordinates!
            Don't support selection of single cartesian coordinates -- sorry ...
  !
 charge density and potential will be updated during run
 spin polarized calculation
 Variant of blocked Davidson
 Davidson routine will perform the subspace rotation
 perform sub-space diagonalisation
    after iterative eigenvector-optimisation
 modified Broyden-mixing scheme, WC =      100.0
 initial mixing is a Kerker type mixing with AMIX =  0.4000 and BMIX =      1.0000
 Hartree-type preconditioning will be used
 using additional bands           12
 reciprocal scheme for non local part
 use partial core corrections
 calculate Harris-corrections to forces 
   (improved forces if not selfconsistent)
 use gradient corrections 
 use of overlap-Matrix (Vanderbilt PP)
 Methfessel and Paxton  Order N= 1 SIGMA  =   0.20


--------------------------------------------------------------------------------------------------------


  energy-cutoff  :      400.00
  volume of cell :      223.47
      direct lattice vectors                 reciprocal lattice vectors
     3.630000114  0.000000000  0.000000000     0.275482085  0.000000000  0.000000000
     0.000000000  2.566797733  0.000000000     0.000000000  0.389590495  0.000000000
     0.000000000  0.000000000 23.983792070     0.000000000  0.000000000  0.041694824

  length of vectors
     3.630000114  2.566797733 23.983792070     0.275482085  0.389590495  0.041694824


 
 k-points in units of 2pi/SCALE and weight: Auto-mesh                               
   0.00000000  0.00000000  0.00000000       0.111
   0.09182736  0.00000000  0.00000000       0.222
   0.00000000  0.12986350  0.00000000       0.222
   0.09182736  0.12986350  0.00000000       0.444
 
 k-points in reciprocal lattice and weights: Auto-mesh                               
   0.00000000  0.00000000  0.00000000       0.111
   0.33333333  0.00000000  0.00000000       0.222
   0.00000000  0.33333333  0.00000000       0.222
   0.33333333  0.33333333  0.00000000       0.444
 
 position of ions in fractional coordinates (direct lattice) 
   0.00000000  0.00000000  0.00000000
   0.50000000  0.50000000  0.05351109
   0.00000000  0.00000000  0.10702218
   0.50000000  0.50000000  0.16053327
   0.00000000  0.00000000  0.21404436
   0.50000000  0.50000000  0.26755545
   0.00000000  0.00000000  0.32106654
   0.50000000  0.50000000  0.37457763
 
 position of ions in cartesian coordinates  (Angst):
   0.00000000  0.00000000  0.00000000
   1.81500006  1.28339887  1.28339887
   0.00000000  0.00000000  2.56679773
   1.81500006  1.28339887  3.85019660
   0.00000000  0.00000000  5.13359547
   1.81500006  1.28339887  6.41699433
   0.00000000  0.00000000  7.70039320
   1.81500006  1.28339887  8.98379207
 


--------------------------------------------------------------------------------------------------------


 k-point   1 :   0.0000 0.0000 0.0000  plane waves:    4037
 k-point   2 :   0.3333 0.0000 0.0000  plane waves:    4064
 k-point   3 :   0.0000 0.3333 0.0000  plane waves:    4032
 k-point   4 :   0.3333 0.3333 0.0000  plane waves:    4072

 maximum and minimum number of plane-waves per node :       827      778

 maximum number of plane-waves:      4072
 maximum index in each direction: 
   IXMAX=    5   IYMAX=    4   IZMAX=   39
   IXMIN=   -6   IYMIN=   -4   IZMIN=  -39


 parallel 3D FFT for wavefunctions:
    minimum data exchange during FFTs selected (reduces bandwidth)
 parallel 3D FFT for charge:
    minimum data exchange during FFTs selected (reduces bandwidth)


 total amount of memory used by VASP MPI-rank0    34347. kBytes
=======================================================================

   base      :      30000. kBytes
   nonl-proj :        582. kBytes
   fftplans  :        642. kBytes
   grid      :       1513. kBytes
   one-center:         62. kBytes
   wavefun   :       1548. kBytes
 
     INWAV:  cpu time      0.0000: real time      0.0004
 Broyden mixing: mesh for mixing (old mesh)
   NGX = 11   NGY =  9   NGZ = 79
  (NGX  = 36   NGY  = 28   NGZ  =240)
  gives a total of   7821 points

 initial charge density was supplied:
 charge density of overlapping atoms calculated
 number of electron      88.0000000 magnetization       8.0000000
 keeping initial charge density in first step


--------------------------------------------------------------------------------------------------------


 Maximum index for augmentation-charges          307 (set IRDMAX)


--------------------------------------------------------------------------------------------------------


 First call to EWALD:  gamma=   0.292
 Maximum number of real-space cells 4x 6x 1
 Maximum number of reciprocal cells 2x 1x 9

    FEWALD:  cpu time      0.0018: real time      0.0018


--------------------------------------- Iteration      1(   1)  ---------------------------------------


    POTLOK:  cpu time      0.0190: real time      0.0391
    SETDIJ:  cpu time      0.0064: real time      0.0065
     EDDAV:  cpu time      0.2842: real time      0.2864
       DOS:  cpu time      0.0012: real time      0.0012
    --------------------------------------------
      LOOP:  cpu time      0.3108: real time      0.3332

 eigenvalue-minimisations  :   896
 total energy-change (2. order) : 0.7471572E+03  (-0.3299647E+04)
 number of electron      88.0000000 magnetization       8.0000000
 augmentation part       88.0000000 magnetization       8.0000000

 Free energy of the ion-electron system (eV)
  ---------------------------------------------------
  alpha Z        PSCENC =       209.44792451
  Ewald energy   TEWEN  =     41050.08976242
  -Hartree energ DENC   =    -51831.74030107
  -exchange      EXHF   =         0.00000000
  -V(xc)+E(xc)   XCENC  =       365.06467073
  PAW double counting   =      9824.77996839   -10671.36745220
  entropy T*S    EENTRO =        -0.01556402
  eigenvalues    EBANDS =       673.23704977
  atomic energy  EATOM  =     11127.66112160
  Solvation  Ediel_sol  =         0.00000000
  ---------------------------------------------------
  free energy    TOTEN  =       747.15718013 eV

  energy without entropy =      747.17274415  energy(sigma->0) =      747.16236814


--------------------------------------------------------------------------------------------------------




--------------------------------------- Iteration      1(   2)  ---------------------------------------


     EDDAV:  cpu time      0.2757: real time      0.2787
       DOS:  cpu time      0.0009: real time      0.0009
    --------------------------------------------
      LOOP:  cpu time      0.2766: real time      0.2796

 eigenvalue-minimisations  :   896
 total energy-change (2. order) :-0.6958094E+03  (-0.6725980E+03)
 number of electron      88.0000000 magnetization       8.0000000
 augmentation part       88.0000000 magnetization       8.0000000

 Free energy of the ion-electron system (eV)
  ---------------------------------------------------
  alpha Z        PSCENC =       209.44792451
  Ewald energy   TEWEN  =     41050.08976242
  -Hartree energ DENC   =    -51831.74030107
  -exchange      EXHF   =         0.00000000
  -V(xc)+E(xc)   XCENC  =       365.06467073
  PAW double counting   =      9824.77996839   -10671.36745220
  entropy T*S    EENTRO =         0.00407447
  eigenvalues    EBANDS =       -22.59195626
  atomic energy  EATOM  =     11127.66112160
  Solvation  Ediel_sol  =         0.00000000
  ---------------------------------------------------
  free energy    TOTEN  =        51.34781259 eV

  energy without entropy =       51.34373812  energy(sigma->0) =       51.34645443


--------------------------------------------------------------------------------------------------------




--------------------------------------- Iteration      1(   3)  ---------------------------------------


     EDDAV:  cpu time      0.2859: real time      0.2886
       DOS:  cpu time      0.0009: real time      0.0009
    --------------------------------------------
      LOOP:  cpu time      0.2869: real time      0.2896

 eigenvalue-minimisations  :   960
 total energy-change (2. order) :-0.8194120E+02  (-0.7672828E+02)
 number of electron      88.0000000 magnetization       8.0000000
 augmentation part       88.0000000 magnetization       8.0000000

 Free energy of the ion-electron system (eV)
  ---------------------------------------------------
  alpha Z        PSCENC =       209.44792451
  Ewald energy   TEWEN  =     41050.08976242
  -Hartree energ DENC   =    -51831.74030107
  -exchange      EXHF   =         0.00000000
  -V(xc)+E(xc)   XCENC  =       365.06467073
  PAW double counting   =      9824.77996839   -10671.36745220
  entropy T*S    EENTRO =         0.02509115
  eigenvalues    EBANDS =      -104.55417037
  atomic energy  EATOM  =     11127.66112160
  Solvation  Ediel_sol  =         0.00000000
  ---------------------------------------------------
  free energy    TOTEN  =       -30.59338484 eV

  energy without entropy =      -30.61847600  energy(sigma->0) =      -30.60174856


--------------------------------------------------------------------------------------------------------




--------------------------------------- Iteration      1(   4)  ---------------------------------------


     EDDAV:  cpu time      0.3080: real time      0.3104
       DOS:  cpu time      0.0009: real time      0.0009
    --------------------------------------------
      LOOP:  cpu time      0.3089: real time      0.3114

 eigenvalue-minimisations  :  1008
 total energy-change (2. order) :-0.3010203E+01  (-0.2996276E+01)
 number of electron      88.0000000 magnetization       8.0000000
 augmentation part       88.0000000 magnetization       8.0000000

 Free energy of the ion-electron system (eV)
  ---------------------------------------------------
  alpha Z        PSCENC =       209.44792451
  Ewald energy   TEWEN  =     41050.08976242
  -Hartree energ DENC   =    -51831.74030107
  -exchange      EXHF   =         0.00000000
  -V(xc)+E(xc)   XCENC  =       365.06467073
  PAW double counting   =      9824.77996839   -10671.36745220
  entropy T*S    EENTRO =         0.02858142
  eigenvalues    EBANDS =      -107.56786328
  atomic energy  EATOM  =     11127.66112160
  Solvation  Ediel_sol  =         0.00000000
  ---------------------------------------------------
  free energy    TOTEN  =       -33.60358749 eV

  energy without entropy =      -33.63216891  energy(sigma->0) =      -33.61311463


--------------------------------------------------------------------------------------------------------




--------------------------------------- Iteration      1(   5)  ---------------------------------------


     EDDAV:  cpu time      0.3086: real time      0.3112
       DOS:  cpu time      0.0010: real time      0.0010
    CHARGE:  cpu time      0.0541: real time      0.0544
    MIXING:  cpu time      0.0007: real time      0.0007
    --------------------------------------------
      LOOP:  cpu time      0.3645: real time      0.3673

 eigenvalue-minimisations  :  1056
 total energy-change (2. order) :-0.7016373E-01  (-0.7015051E-01)
 number of electron      88.0000776 magnetization       7.2739462
 augmentation part       52.2551226 magnetization       7.3292950

 Broyden mixing:
  rms(total) = 0.26311E+01    rms(broyden)= 0.26309E+01
  rms(prec ) = 0.27131E+01
  weight for this iteration     100.00

 Free energy of the ion-electron system (eV)
  ---------------------------------------------------
  alpha Z        PSCENC =       209.44792451
  Ewald energy   TEWEN  =     41050.08976242
  -Hartree energ DENC   =    -51831.74030107
  -exchange      EXHF   =         0.00000000
  -V(xc)+E(xc)   XCENC  =       365.06467073
  PAW double counting   =      9824.77996839   -10671.36745220
  entropy T*S    EENTRO =         0.02864630
  eigenvalues    EBANDS =      -107.63809189
  atomic energy  EATOM  =     11127.66112160
  Solvation  Ediel_sol  =         0.00000000
  ---------------------------------------------------
  free energy    TOTEN  =       -33.67375122 eV

  energy without entropy =      -33.70239751  energy(sigma->0) =      -33.68329998


--------------------------------------------------------------------------------------------------------




--------------------------------------- Iteration      1(   6)  ---------------------------------------


    POTLOK:  cpu time      0.0172: real time      0.0174
    SETDIJ:  cpu time      0.0062: real time      0.0062
     EDDAV:  cpu time      0.2833: real time      0.2858
       DOS:  cpu time      0.0011: real time      0.0011
    CHARGE:  cpu time      0.0518: real time      0.0521
    MIXING:  cpu time      0.0007: real time      0.0007
    --------------------------------------------
      LOOP:  cpu time      0.3603: real time      0.3634

 eigenvalue-minimisations  :   952
 total energy-change (2. order) : 0.6955662E+01  (-0.8160090E+01)
 number of electron      88.0000861 magnetization       6.8366744
 augmentation part       58.5452186 magnetization       4.9207941

 Broyden mixing:
  rms(total) = 0.12931E+01    rms(broyden)= 0.12928E+01
  rms(prec ) = 0.13629E+01
  weight for this iteration     100.00

 eigenvalues of (default mixing * dielectric matrix)
  average eigenvalue GAMMA=   0.7924
  0.7924

 Free energy of the ion-electron system (eV)
  ---------------------------------------------------
  alpha Z        PSCENC =       209.44792451
  Ewald energy   TEWEN  =     41050.08976242
  -Hartree energ DENC   =    -51616.06336106
  -exchange      EXHF   =         0.00000000
  -V(xc)+E(xc)   XCENC  =       356.56147594
  PAW double counting   =      9928.23067053   -10732.39637595
  entropy T*S    EENTRO =        -0.01952167
  eigenvalues    EBANDS =      -350.22978525
  atomic energy  EATOM  =     11127.66112160
  Solvation  Ediel_sol  =         0.00000000
  ---------------------------------------------------
  free energy    TOTEN  =       -26.71808892 eV

  energy without entropy =      -26.69856726  energy(sigma->0) =      -26.71158170


--------------------------------------------------------------------------------------------------------




--------------------------------------- Iteration      1(   7)  ---------------------------------------


    POTLOK:  cpu time      0.0160: real time      0.0163
    SETDIJ:  cpu time      0.0056: real time      0.0056
     EDDAV:  cpu time      0.2917: real time      0.2939
       DOS:  cpu time      0.0009: real time      0.0009
    CHARGE:  cpu time      0.0496: real time      0.0498
    MIXING:  cpu time      0.0007: real time      0.0007
    --------------------------------------------
      LOOP:  cpu time      0.3645: real time      0.3671

 eigenvalue-minimisations  :   992
 total energy-change (2. order) : 0.2819976E+01  (-0.2255555E+01)
 number of electron      88.0000838 magnetization       6.4240415
 augmentation part       56.3770083 magnetization       4.6632846

 Broyden mixing:
  rms(total) = 0.70610E+00    rms(broyden)= 0.70598E+00
  rms(prec ) = 0.72370E+00
  weight for this iteration     100.00

 eigenvalues of (default mixing * dielectric matrix)
  average eigenvalue GAMMA=   0.7574
  0.9399  0.5750

 Free energy of the ion-electron system (eV)
  ---------------------------------------------------
  alpha Z        PSCENC =       209.44792451
  Ewald energy   TEWEN  =     41050.08976242
  -Hartree energ DENC   =    -51739.15829216
  -exchange      EXHF   =         0.00000000
  -V(xc)+E(xc)   XCENC  =       360.36837876
  PAW double counting   =     10136.49685982   -10978.78640439
  entropy T*S    EENTRO =        -0.00901463
  eigenvalues    EBANDS =      -190.00844875
  atomic energy  EATOM  =     11127.66112160
  Solvation  Ediel_sol  =         0.00000000
  ---------------------------------------------------
  free energy    TOTEN  =       -23.89811282 eV

  energy without entropy =      -23.88909819  energy(sigma->0) =      -23.89510794


--------------------------------------------------------------------------------------------------------




--------------------------------------- Iteration      1(   8)  ---------------------------------------


    POTLOK:  cpu time      0.0160: real time      0.0163
    SETDIJ:  cpu time      0.0056: real time      0.0056
     EDDAV:  cpu time      0.3433: real time      0.3461
       DOS:  cpu time      0.0009: real time      0.0009
    CHARGE:  cpu time      0.0498: real time      0.0500
    MIXING:  cpu time      0.0008: real time      0.0008
    --------------------------------------------
      LOOP:  cpu time      0.4163: real time      0.4196

 eigenvalue-minimisations  :  1216
 total energy-change (2. order) : 0.8857987E+00  (-0.3446452E+00)
 number of electron      88.0000831 magnetization       5.6491040
 augmentation part       56.2328987 magnetization       3.7796932

 Broyden mixing:
  rms(total) = 0.55887E+00    rms(broyden)= 0.55886E+00
  rms(prec ) = 0.56900E+00
  weight for this iteration     100.00

 eigenvalues of (default mixing * dielectric matrix)
  average eigenvalue GAMMA=   0.7796
  1.1518  0.6334  0.5535

 Free energy of the ion-electron system (eV)
  ---------------------------------------------------
  alpha Z        PSCENC =       209.44792451
  Ewald energy   TEWEN  =     41050.08976242
  -Hartree energ DENC   =    -51739.23401916
  -exchange      EXHF   =         0.00000000
  -V(xc)+E(xc)   XCENC  =       360.91928974
  PAW double counting   =     10236.24952776   -11086.44359527
  entropy T*S    EENTRO =        -0.00721248
  eigenvalues    EBANDS =      -181.69511327
  atomic energy  EATOM  =     11127.66112160
  Solvation  Ediel_sol  =         0.00000000
  ---------------------------------------------------
  free energy    TOTEN  =       -23.01231414 eV

  energy without entropy =      -23.00510166  energy(sigma->0) =      -23.00990998


--------------------------------------------------------------------------------------------------------




--------------------------------------- Iteration      1(   9)  ---------------------------------------


    POTLOK:  cpu time      0.0161: real time      0.0163
    SETDIJ:  cpu time      0.0055: real time      0.0055
     EDDAV:  cpu time      0.3612: real time      0.3643
       DOS:  cpu time      0.0009: real time      0.0009
    CHARGE:  cpu time      0.0496: real time      0.0498
    MIXING:  cpu time      0.0009: real time      0.0009
    --------------------------------------------
      LOOP:  cpu time      0.4341: real time      0.4377

 eigenvalue-minimisations  :  1296
 total energy-change (2. order) : 0.5650795E+00  (-0.1766614E+00)
 number of electron      88.0000831 magnetization       4.4528084
 augmentation part       56.0888170 magnetization       2.5682116

 Broyden mixing:
  rms(total) = 0.48821E+00    rms(broyden)= 0.48820E+00
  rms(prec ) = 0.49120E+00
  weight for this iteration     100.00

 eigenvalues of (default mixing * dielectric matrix)
  average eigenvalue GAMMA=   0.9475
  1.2814  1.2814  0.7620  0.4653

 Free energy of the ion-electron system (eV)
  ---------------------------------------------------
  alpha Z        PSCENC =       209.44792451
  Ewald energy   TEWEN  =     41050.08976242
  -Hartree energ DENC   =    -51764.90673949
  -exchange      EXHF   =         0.00000000
  -V(xc)+E(xc)   XCENC  =       361.01762378
  PAW double counting   =     10378.10498623   -11237.27098271
  entropy T*S    EENTRO =        -0.00425935
  eigenvalues    EBANDS =      -146.58667166
  atomic energy  EATOM  =     11127.66112160
  Solvation  Ediel_sol  =         0.00000000
  ---------------------------------------------------
  free energy    TOTEN  =       -22.44723467 eV

  energy without entropy =      -22.44297532  energy(sigma->0) =      -22.44581489


--------------------------------------------------------------------------------------------------------




--------------------------------------- Iteration      1(  10)  ---------------------------------------


    POTLOK:  cpu time      0.0166: real time      0.0169
    SETDIJ:  cpu time      0.0057: real time      0.0057
     EDDAV:  cpu time      0.3362: real time      0.3387
       DOS:  cpu time      0.0022: real time      0.0023
    CHARGE:  cpu time      0.0555: real time      0.0558
    MIXING:  cpu time      0.0010: real time      0.0010
    --------------------------------------------
      LOOP:  cpu time      0.4172: real time      0.4203

 eigenvalue-minimisations  :  1192
 total energy-change (2. order) : 0.3514673E+00  (-0.1534821E+00)
 number of electron      88.0000832 magnetization       2.4178561
 augmentation part       56.2969233 magnetization       0.6743245

 Broyden mixing:
  rms(total) = 0.41833E+00    rms(broyden)= 0.41831E+00
  rms(prec ) = 0.42678E+00
  weight for this iteration     100.00

 eigenvalues of (default mixing * dielectric matrix)
  average eigenvalue GAMMA=   1.4193
  4.2737  1.1787  0.6871  0.5400  0.4170

 Free energy of the ion-electron system (eV)
  ---------------------------------------------------
  alpha Z        PSCENC =       209.44792451
  Ewald energy   TEWEN  =     41050.08976242
  -Hartree energ DENC   =    -51766.13242308
  -exchange      EXHF   =         0.00000000
  -V(xc)+E(xc)   XCENC  =       360.52722464
  PAW double counting   =     10481.58128917   -11344.42845990
  entropy T*S    EENTRO =        -0.00870971
  eigenvalues    EBANDS =      -140.83349706
  atomic energy  EATOM  =     11127.66112160
  Solvation  Ediel_sol  =         0.00000000
  ---------------------------------------------------
  free energy    TOTEN  =       -22.09576742 eV

  energy without entropy =      -22.08705771  energy(sigma->0) =      -22.09286418


--------------------------------------------------------------------------------------------------------




--------------------------------------- Iteration      1(  11)  ---------------------------------------


    POTLOK:  cpu time      0.0167: real time      0.0169
    SETDIJ:  cpu time      0.0058: real time      0.0058
     EDDAV:  cpu time      0.3607: real time      0.3639
       DOS:  cpu time      0.0009: real time      0.0009
    CHARGE:  cpu time      0.0510: real time      0.0513
    MIXING:  cpu time      0.0010: real time      0.0010
    --------------------------------------------
      LOOP:  cpu time      0.4362: real time      0.4398

 eigenvalue-minimisations  :  1288
 total energy-change (2. order) :-0.2789023E-01  (-0.1522955E+00)
 number of electron      88.0000835 magnetization       1.3363030
 augmentation part       56.5676093 magnetization       0.0025698

 Broyden mixing:
  rms(total) = 0.30179E+00    rms(broyden)= 0.30175E+00
  rms(prec ) = 0.31220E+00
  weight for this iteration     100.00

 eigenvalues of (default mixing * dielectric matrix)
  average eigenvalue GAMMA=   1.4944
  5.3313  1.1200  0.8115  0.8115  0.4482  0.4441

 Free energy of the ion-electron system (eV)
  ---------------------------------------------------
  alpha Z        PSCENC =       209.44792451
  Ewald energy   TEWEN  =     41050.08976242
  -Hartree energ DENC   =    -51781.10941436
  -exchange      EXHF   =         0.00000000
  -V(xc)+E(xc)   XCENC  =       359.82934487
  PAW double counting   =     10603.20922123   -11470.89414232
  entropy T*S    EENTRO =        -0.01158987
  eigenvalues    EBANDS =      -120.34588574
  atomic energy  EATOM  =     11127.66112160
  Solvation  Ediel_sol  =         0.00000000
  ---------------------------------------------------
  free energy    TOTEN  =       -22.12365765 eV

  energy without entropy =      -22.11206778  energy(sigma->0) =      -22.11979436


--------------------------------------------------------------------------------------------------------




--------------------------------------- Iteration      1(  12)  ---------------------------------------


    POTLOK:  cpu time      0.0157: real time      0.0160
    SETDIJ:  cpu time      0.0056: real time      0.0056
     EDDAV:  cpu time      0.2962: real time      0.2984
       DOS:  cpu time      0.0009: real time      0.0009
    CHARGE:  cpu time      0.0509: real time      0.0511
    MIXING:  cpu time      0.0011: real time      0.0011
    --------------------------------------------
      LOOP:  cpu time      0.3703: real time      0.3731

 eigenvalue-minimisations  :  1016
 total energy-change (2. order) :-0.1834403E+01  (-0.1465994E+00)
 number of electron      88.0000830 magnetization       0.8694121
 augmentation part       56.1430507 magnetization      -0.2145495

 Broyden mixing:
  rms(total) = 0.16061E+00    rms(broyden)= 0.16057E+00
  rms(prec ) = 0.17025E+00
  weight for this iteration     100.00

 eigenvalues of (default mixing * dielectric matrix)
  average eigenvalue GAMMA=   1.8417
  7.7355  1.8795  0.8498  0.8498  0.6724  0.4886  0.4165

 Free energy of the ion-electron system (eV)
  ---------------------------------------------------
  alpha Z        PSCENC =       209.44792451
  Ewald energy   TEWEN  =     41050.08976242
  -Hartree energ DENC   =    -51799.64137893
  -exchange      EXHF   =         0.00000000
  -V(xc)+E(xc)   XCENC  =       359.48023073
  PAW double counting   =     10573.96337149   -11443.86156578
  entropy T*S    EENTRO =        -0.01230521
  eigenvalues    EBANDS =      -101.08522170
  atomic energy  EATOM  =     11127.66112160
  Solvation  Ediel_sol  =         0.00000000
  ---------------------------------------------------
  free energy    TOTEN  =       -23.95806087 eV

  energy without entropy =      -23.94575566  energy(sigma->0) =      -23.95395913


--------------------------------------------------------------------------------------------------------




--------------------------------------- Iteration      1(  13)  ---------------------------------------


    POTLOK:  cpu time      0.0158: real time      0.0160
    SETDIJ:  cpu time      0.0056: real time      0.0056
     EDDAV:  cpu time      0.3289: real time      0.3316
       DOS:  cpu time      0.0009: real time      0.0009
    CHARGE:  cpu time      0.0515: real time      0.0517
    MIXING:  cpu time      0.0010: real time      0.0010
    --------------------------------------------
      LOOP:  cpu time      0.4036: real time      0.4068

 eigenvalue-minimisations  :  1160
 total energy-change (2. order) :-0.2020995E+01  (-0.1568106E+00)
 number of electron      88.0000830 magnetization       0.9781471
 augmentation part       56.0931698 magnetization       0.1521025

 Broyden mixing:
  rms(total) = 0.10364E+00    rms(broyden)= 0.10358E+00
  rms(prec ) = 0.11083E+00
  weight for this iteration     100.00

 eigenvalues of (default mixing * dielectric matrix)
  average eigenvalue GAMMA=   1.8188
  8.0806  2.3455  0.9224  0.9224  0.7364  0.6366  0.4915  0.4152

 Free energy of the ion-electron system (eV)
  ---------------------------------------------------
  alpha Z        PSCENC =       209.44792451
  Ewald energy   TEWEN  =     41050.08976242
  -Hartree energ DENC   =    -51784.87457635
  -exchange      EXHF   =         0.00000000
  -V(xc)+E(xc)   XCENC  =       358.29238268
  PAW double counting   =     10455.92861895   -11318.77069389
  entropy T*S    EENTRO =        -0.00008181
  eigenvalues    EBANDS =      -123.75351379
  atomic energy  EATOM  =     11127.66112160
  Solvation  Ediel_sol  =         0.00000000
  ---------------------------------------------------
  free energy    TOTEN  =       -25.97905567 eV

  energy without entropy =      -25.97897387  energy(sigma->0) =      -25.97902840


--------------------------------------------------------------------------------------------------------




--------------------------------------- Iteration      1(  14)  ---------------------------------------


    POTLOK:  cpu time      0.0158: real time      0.0160
    SETDIJ:  cpu time      0.0055: real time      0.0055
     EDDAV:  cpu time      0.3199: real time      0.3227
       DOS:  cpu time      0.0010: real time      0.0010
    CHARGE:  cpu time      0.0503: real time      0.0505
    MIXING:  cpu time      0.0011: real time      0.0012
    --------------------------------------------
      LOOP:  cpu time      0.3935: real time      0.3968

 eigenvalue-minimisations  :  1120
 total energy-change (2. order) :-0.8815226E+00  (-0.5997768E-01)
 number of electron      88.0000831 magnetization       1.0057590
 augmentation part       56.1922110 magnetization       0.3110340

 Broyden mixing:
  rms(total) = 0.85170E-01    rms(broyden)= 0.85146E-01
  rms(prec ) = 0.97123E-01
  weight for this iteration     100.00

 eigenvalues of (default mixing * dielectric matrix)
  average eigenvalue GAMMA=   1.7609
  8.2628  2.8762  0.9787  0.9787  0.7726  0.6658  0.5045  0.4045  0.4045

 Free energy of the ion-electron system (eV)
  ---------------------------------------------------
  alpha Z        PSCENC =       209.44792451
  Ewald energy   TEWEN  =     41050.08976242
  -Hartree energ DENC   =    -51772.57377697
  -exchange      EXHF   =         0.00000000
  -V(xc)+E(xc)   XCENC  =       357.51199771
  PAW double counting   =     10419.22336114   -11278.78252484
  entropy T*S    EENTRO =        -0.00334260
  eigenvalues    EBANDS =      -139.43510122
  atomic energy  EATOM  =     11127.66112160
  Solvation  Ediel_sol  =         0.00000000
  ---------------------------------------------------
  free energy    TOTEN  =       -26.86057825 eV

  energy without entropy =      -26.85723565  energy(sigma->0) =      -26.85946405


--------------------------------------------------------------------------------------------------------




--------------------------------------- Iteration      1(  15)  ---------------------------------------


    POTLOK:  cpu time      0.0158: real time      0.0160
    SETDIJ:  cpu time      0.0056: real time      0.0056
     EDDAV:  cpu time      0.3411: real time      0.3438
       DOS:  cpu time      0.0009: real time      0.0009
    CHARGE:  cpu time      0.0509: real time      0.0511
    MIXING:  cpu time      0.0013: real time      0.0013
    --------------------------------------------
      LOOP:  cpu time      0.4156: real time      0.4188

 eigenvalue-minimisations  :  1216
 total energy-change (2. order) :-0.6388925E+00  (-0.5033242E-01)
 number of electron      88.0000832 magnetization       0.8677500
 augmentation part       56.2653004 magnetization       0.3448096

 Broyden mixing:
  rms(total) = 0.72970E-01    rms(broyden)= 0.72939E-01
  rms(prec ) = 0.77996E-01
  weight for this iteration     100.00

 eigenvalues of (default mixing * dielectric matrix)
  average eigenvalue GAMMA=   1.7677
  8.7710  3.3293  1.2161  0.8757  0.8757  0.7032  0.6615  0.4811  0.4173  0.3467

 Free energy of the ion-electron system (eV)
  ---------------------------------------------------
  alpha Z        PSCENC =       209.44792451
  Ewald energy   TEWEN  =     41050.08976242
  -Hartree energ DENC   =    -51762.86471044
  -exchange      EXHF   =         0.00000000
  -V(xc)+E(xc)   XCENC  =       357.00059156
  PAW double counting   =     10394.26783146   -11252.08202767
  entropy T*S    EENTRO =        -0.00708014
  eigenvalues    EBANDS =      -151.01288405
  atomic energy  EATOM  =     11127.66112160
  Solvation  Ediel_sol  =         0.00000000
  ---------------------------------------------------
  free energy    TOTEN  =       -27.49947076 eV

  energy without entropy =      -27.49239062  energy(sigma->0) =      -27.49711071


--------------------------------------------------------------------------------------------------------




--------------------------------------- Iteration      1(  16)  ---------------------------------------


    POTLOK:  cpu time      0.0163: real time      0.0165
    SETDIJ:  cpu time      0.0055: real time      0.0055
     EDDAV:  cpu time      0.3484: real time      0.3514
       DOS:  cpu time      0.0009: real time      0.0009
    CHARGE:  cpu time      0.0528: real time      0.0530
    MIXING:  cpu time      0.0014: real time      0.0014
    --------------------------------------------
      LOOP:  cpu time      0.4253: real time      0.4288

 eigenvalue-minimisations  :  1240
 total energy-change (2. order) :-0.3620744E+00  (-0.2706608E-01)
 number of electron      88.0000831 magnetization       0.5288460
 augmentation part       56.2445603 magnetization       0.1528836

 Broyden mixing:
  rms(total) = 0.56889E-01    rms(broyden)= 0.56863E-01
  rms(prec ) = 0.59602E-01
  weight for this iteration     100.00

 eigenvalues of (default mixing * dielectric matrix)
  average eigenvalue GAMMA=   1.8845
 10.1422  3.7682  1.7489  0.9979  0.9979  0.6925  0.6925  0.4193  0.5068  0.4695
  0.2937

 Free energy of the ion-electron system (eV)
  ---------------------------------------------------
  alpha Z        PSCENC =       209.44792451
  Ewald energy   TEWEN  =     41050.08976242
  -Hartree energ DENC   =    -51759.38610537
  -exchange      EXHF   =         0.00000000
  -V(xc)+E(xc)   XCENC  =       356.81476868
  PAW double counting   =     10389.69835039   -11247.89063229
  entropy T*S    EENTRO =        -0.01144533
  eigenvalues    EBANDS =      -154.28528976
  atomic energy  EATOM  =     11127.66112160
  Solvation  Ediel_sol  =         0.00000000
  ---------------------------------------------------
  free energy    TOTEN  =       -27.86154516 eV

  energy without entropy =      -27.85009983  energy(sigma->0) =      -27.85773005


--------------------------------------------------------------------------------------------------------




--------------------------------------- Iteration      1(  17)  ---------------------------------------


    POTLOK:  cpu time      0.0164: real time      0.0167
    SETDIJ:  cpu time      0.0057: real time      0.0057
     EDDAV:  cpu time      0.3066: real time      0.3089
       DOS:  cpu time      0.0009: real time      0.0009
    CHARGE:  cpu time      0.0516: real time      0.0518
    MIXING:  cpu time      0.0013: real time      0.0013
    --------------------------------------------
      LOOP:  cpu time      0.3826: real time      0.3854

 eigenvalue-minimisations  :  1064
 total energy-change (2. order) :-0.2335891E+00  (-0.2690014E-01)
 number of electron      88.0000830 magnetization       0.3596508
 augmentation part       56.1756417 magnetization       0.2060997

 Broyden mixing:
  rms(total) = 0.44645E-01    rms(broyden)= 0.44605E-01
  rms(prec ) = 0.46123E-01
  weight for this iteration     100.00

 eigenvalues of (default mixing * dielectric matrix)
  average eigenvalue GAMMA=   1.8879
 11.0915  3.4420  2.2196  1.0494  1.0494  0.7758  0.7758  0.6280  0.4933  0.4162
  0.4278  0.2859

 Free energy of the ion-electron system (eV)
  ---------------------------------------------------
  alpha Z        PSCENC =       209.44792451
  Ewald energy   TEWEN  =     41050.08976242
  -Hartree energ DENC   =    -51756.10239031
  -exchange      EXHF   =         0.00000000
  -V(xc)+E(xc)   XCENC  =       356.77105023
  PAW double counting   =     10397.79554790   -11257.72585630
  entropy T*S    EENTRO =        -0.01246724
  eigenvalues    EBANDS =      -156.01982709
  atomic energy  EATOM  =     11127.66112160
  Solvation  Ediel_sol  =         0.00000000
  ---------------------------------------------------
  free energy    TOTEN  =       -28.09513428 eV

  energy without entropy =      -28.08266704  energy(sigma->0) =      -28.09097853


--------------------------------------------------------------------------------------------------------




--------------------------------------- Iteration      1(  18)  ---------------------------------------


    POTLOK:  cpu time      0.0157: real time      0.0159
    SETDIJ:  cpu time      0.0055: real time      0.0055
     EDDAV:  cpu time      0.3163: real time      0.3187
       DOS:  cpu time      0.0010: real time      0.0010
    CHARGE:  cpu time      0.0530: real time      0.0533
    MIXING:  cpu time      0.0015: real time      0.0016
    --------------------------------------------
      LOOP:  cpu time      0.3931: real time      0.3959

 eigenvalue-minimisations  :  1048
 total energy-change (2. order) :-0.1033704E+00  (-0.5165948E-02)
 number of electron      88.0000830 magnetization       0.2519019
 augmentation part       56.1798439 magnetization       0.1578008

 Broyden mixing:
  rms(total) = 0.29576E-01    rms(broyden)= 0.29557E-01
  rms(prec ) = 0.31605E-01
  weight for this iteration     100.00

 eigenvalues of (default mixing * dielectric matrix)
  average eigenvalue GAMMA=   1.9273
 11.9877  3.9734  2.3393  1.0718  1.0718  0.8189  0.8189  0.6802  0.6802  0.4819
  0.4212  0.4212  0.2883

 Free energy of the ion-electron system (eV)
  ---------------------------------------------------
  alpha Z        PSCENC =       209.44792451
  Ewald energy   TEWEN  =     41050.08976242
  -Hartree energ DENC   =    -51754.27121360
  -exchange      EXHF   =         0.00000000
  -V(xc)+E(xc)   XCENC  =       356.63270617
  PAW double counting   =     10408.88836783   -11269.35180688
  entropy T*S    EENTRO =        -0.00925978
  eigenvalues    EBANDS =      -157.28610697
  atomic energy  EATOM  =     11127.66112160
  Solvation  Ediel_sol  =         0.00000000
  ---------------------------------------------------
  free energy    TOTEN  =       -28.19850470 eV

  energy without entropy =      -28.18924493  energy(sigma->0) =      -28.19541811


--------------------------------------------------------------------------------------------------------




--------------------------------------- Iteration      1(  19)  ---------------------------------------


    POTLOK:  cpu time      0.0165: real time      0.0167
    SETDIJ:  cpu time      0.0056: real time      0.0059
     EDDAV:  cpu time      0.3213: real time      0.3237
       DOS:  cpu time      0.0009: real time      0.0009
    CHARGE:  cpu time      0.0516: real time      0.0519
    MIXING:  cpu time      0.0015: real time      0.0015
    --------------------------------------------
      LOOP:  cpu time      0.3974: real time      0.4006

 eigenvalue-minimisations  :  1128
 total energy-change (2. order) :-0.5770554E-01  (-0.2600127E-02)
 number of electron      88.0000830 magnetization       0.2627267
 augmentation part       56.2046043 magnetization       0.2180958

 Broyden mixing:
  rms(total) = 0.21875E-01    rms(broyden)= 0.21864E-01
  rms(prec ) = 0.22703E-01
  weight for this iteration     100.00

 eigenvalues of (default mixing * dielectric matrix)
  average eigenvalue GAMMA=   1.8344
 11.7367  3.7726  2.3983  1.2308  1.0104  1.0104  0.8209  0.8209  0.6307  0.6307
  0.4803  0.4157  0.4345  0.2893

 Free energy of the ion-electron system (eV)
  ---------------------------------------------------
  alpha Z        PSCENC =       209.44792451
  Ewald energy   TEWEN  =     41050.08976242
  -Hartree energ DENC   =    -51749.64195361
  -exchange      EXHF   =         0.00000000
  -V(xc)+E(xc)   XCENC  =       356.55112452
  PAW double counting   =     10408.63503748   -11268.92557285
  entropy T*S    EENTRO =        -0.00560452
  eigenvalues    EBANDS =      -162.06804979
  atomic energy  EATOM  =     11127.66112160
  Solvation  Ediel_sol  =         0.00000000
  ---------------------------------------------------
  free energy    TOTEN  =       -28.25621024 eV

  energy without entropy =      -28.25060572  energy(sigma->0) =      -28.25434207


--------------------------------------------------------------------------------------------------------




--------------------------------------- Iteration      1(  20)  ---------------------------------------


    POTLOK:  cpu time      0.0159: real time      0.0161
    SETDIJ:  cpu time      0.0056: real time      0.0056
     EDDAV:  cpu time      0.3122: real time      0.3148
       DOS:  cpu time      0.0010: real time      0.0010
    CHARGE:  cpu time      0.0516: real time      0.0518
    MIXING:  cpu time      0.0016: real time      0.0017
    --------------------------------------------
      LOOP:  cpu time      0.3879: real time      0.3909

 eigenvalue-minimisations  :  1088
 total energy-change (2. order) :-0.9567872E-01  (-0.1226920E-02)
 number of electron      88.0000831 magnetization       0.2106005
 augmentation part       56.2171052 magnetization       0.1576187

 Broyden mixing:
  rms(total) = 0.22266E-01    rms(broyden)= 0.22265E-01
  rms(prec ) = 0.24397E-01
  weight for this iteration     100.00

 eigenvalues of (default mixing * dielectric matrix)
  average eigenvalue GAMMA=   1.8557
 11.7668  4.0942  2.3919  2.3919  1.0411  1.0411  0.8381  0.8381  0.6854  0.6854
  0.4917  0.4342  0.4342  0.4117  0.2891

 Free energy of the ion-electron system (eV)
  ---------------------------------------------------
  alpha Z        PSCENC =       209.44792451
  Ewald energy   TEWEN  =     41050.08976242
  -Hartree energ DENC   =    -51748.08673563
  -exchange      EXHF   =         0.00000000
  -V(xc)+E(xc)   XCENC  =       356.43000268
  PAW double counting   =     10413.11887723   -11273.31896554
  entropy T*S    EENTRO =        -0.00567655
  eigenvalues    EBANDS =      -163.68819967
  atomic energy  EATOM  =     11127.66112160
  Solvation  Ediel_sol  =         0.00000000
  ---------------------------------------------------
  free energy    TOTEN  =       -28.35188896 eV

  energy without entropy =      -28.34621241  energy(sigma->0) =      -28.34999678


--------------------------------------------------------------------------------------------------------




--------------------------------------- Iteration      1(  21)  ---------------------------------------


    POTLOK:  cpu time      0.0159: real time      0.0162
    SETDIJ:  cpu time      0.0055: real time      0.0056
     EDDAV:  cpu time      0.3344: real time      0.3373
       DOS:  cpu time      0.0010: real time      0.0010
    CHARGE:  cpu time      0.0533: real time      0.0536
    MIXING:  cpu time      0.0016: real time      0.0016
    --------------------------------------------
      LOOP:  cpu time      0.4117: real time      0.4152

 eigenvalue-minimisations  :  1192
 total energy-change (2. order) :-0.7604078E-01  (-0.1165491E-02)
 number of electron      88.0000831 magnetization       0.1106550
 augmentation part       56.2242099 magnetization       0.0749820

 Broyden mixing:
  rms(total) = 0.17589E-01    rms(broyden)= 0.17587E-01
  rms(prec ) = 0.18487E-01
  weight for this iteration     100.00

 eigenvalues of (default mixing * dielectric matrix)
  average eigenvalue GAMMA=   1.8680
 11.9620  4.3537  3.2792  2.2736  1.0687  1.0687  0.8751  0.8751  0.7177  0.7177
  0.6323  0.4950  0.4338  0.4338  0.4131  0.2889

 Free energy of the ion-electron system (eV)
  ---------------------------------------------------
  alpha Z        PSCENC =       209.44792451
  Ewald energy   TEWEN  =     41050.08976242
  -Hartree energ DENC   =    -51743.44949696
  -exchange      EXHF   =         0.00000000
  -V(xc)+E(xc)   XCENC  =       356.35729066
  PAW double counting   =     10412.26730817   -11272.28877289
  entropy T*S    EENTRO =        -0.00437103
  eigenvalues    EBANDS =      -168.50869622
  atomic energy  EATOM  =     11127.66112160
  Solvation  Ediel_sol  =         0.00000000
  ---------------------------------------------------
  free energy    TOTEN  =       -28.42792974 eV

  energy without entropy =      -28.42355871  energy(sigma->0) =      -28.42647273


--------------------------------------------------------------------------------------------------------




--------------------------------------- Iteration      1(  22)  ---------------------------------------


    POTLOK:  cpu time      0.0158: real time      0.0160
    SETDIJ:  cpu time      0.0055: real time      0.0055
     EDDAV:  cpu time      0.3083: real time      0.3107
       DOS:  cpu time      0.0009: real time      0.0009
    CHARGE:  cpu time      0.0521: real time      0.0523
    MIXING:  cpu time      0.0018: real time      0.0018
    --------------------------------------------
      LOOP:  cpu time      0.3844: real time      0.3873

 eigenvalue-minimisations  :  1072
 total energy-change (2. order) :-0.4215569E-01  (-0.6779658E-03)
 number of electron      88.0000831 magnetization       0.0752425
 augmentation part       56.2187341 magnetization       0.0645141

 Broyden mixing:
  rms(total) = 0.11669E-01    rms(broyden)= 0.11663E-01
  rms(prec ) = 0.12191E-01
  weight for this iteration     100.00

 eigenvalues of (default mixing * dielectric matrix)
  average eigenvalue GAMMA=   1.8816
 11.8769  4.5222  4.5222  1.9958  1.1926  1.1926  0.9457  0.9457  0.7360  0.7040
  0.7040  0.6089  0.2889  0.4874  0.4282  0.4282  0.4084

 Free energy of the ion-electron system (eV)
  ---------------------------------------------------
  alpha Z        PSCENC =       209.44792451
  Ewald energy   TEWEN  =     41050.08976242
  -Hartree energ DENC   =    -51739.48015224
  -exchange      EXHF   =         0.00000000
  -V(xc)+E(xc)   XCENC  =       356.32743103
  PAW double counting   =     10412.16871436   -11272.33954777
  entropy T*S    EENTRO =        -0.00363944
  eigenvalues    EBANDS =      -172.34169990
  atomic energy  EATOM  =     11127.66112160
  Solvation  Ediel_sol  =         0.00000000
  ---------------------------------------------------
  free energy    TOTEN  =       -28.47008543 eV

  energy without entropy =      -28.46644598  energy(sigma->0) =      -28.46887228


--------------------------------------------------------------------------------------------------------




--------------------------------------- Iteration      1(  23)  ---------------------------------------


    POTLOK:  cpu time      0.0159: real time      0.0161
    SETDIJ:  cpu time      0.0056: real time      0.0056
     EDDAV:  cpu time      0.2983: real time      0.3007
       DOS:  cpu time      0.0010: real time      0.0010
    CHARGE:  cpu time      0.0519: real time      0.0521
    MIXING:  cpu time      0.0019: real time      0.0019
    --------------------------------------------
      LOOP:  cpu time      0.3745: real time      0.3774

 eigenvalue-minimisations  :  1016
 total energy-change (2. order) :-0.6893582E-01  (-0.3734422E-03)
 number of electron      88.0000831 magnetization       0.0308966
 augmentation part       56.2081585 magnetization       0.0140623

 Broyden mixing:
  rms(total) = 0.10663E-01    rms(broyden)= 0.10662E-01
  rms(prec ) = 0.12439E-01
  weight for this iteration     100.00

 eigenvalues of (default mixing * dielectric matrix)
  average eigenvalue GAMMA=   1.8778
 12.1063  5.3433  4.3501  1.8227  1.8227  0.9528  0.9528  0.8238  0.8238  0.8283
  0.8283  0.6397  0.2889  0.4953  0.4399  0.4399  0.4135  0.4280

 Free energy of the ion-electron system (eV)
  ---------------------------------------------------
  alpha Z        PSCENC =       209.44792451
  Ewald energy   TEWEN  =     41050.08976242
  -Hartree energ DENC   =    -51739.14240308
  -exchange      EXHF   =         0.00000000
  -V(xc)+E(xc)   XCENC  =       356.25268750
  PAW double counting   =     10417.90406057   -11278.48822504
  entropy T*S    EENTRO =        -0.00415254
  eigenvalues    EBANDS =      -172.25979718
  atomic energy  EATOM  =     11127.66112160
  Solvation  Ediel_sol  =         0.00000000
  ---------------------------------------------------
  free energy    TOTEN  =       -28.53902124 eV

  energy without entropy =      -28.53486870  energy(sigma->0) =      -28.53763706


--------------------------------------------------------------------------------------------------------




--------------------------------------- Iteration      1(  24)  ---------------------------------------


    POTLOK:  cpu time      0.0156: real time      0.0158
    SETDIJ:  cpu time      0.0055: real time      0.0055
     EDDAV:  cpu time      0.2987: real time      0.3014
       DOS:  cpu time      0.0009: real time      0.0009
    CHARGE:  cpu time      0.0517: real time      0.0520
    MIXING:  cpu time      0.0019: real time      0.0020
    --------------------------------------------
      LOOP:  cpu time      0.3745: real time      0.3776

 eigenvalue-minimisations  :  1024
 total energy-change (2. order) :-0.2384559E-01  (-0.1994876E-03)
 number of electron      88.0000830 magnetization       0.0230573
 augmentation part       56.2049797 magnetization       0.0180249

 Broyden mixing:
  rms(total) = 0.53069E-02    rms(broyden)= 0.53049E-02
  rms(prec ) = 0.58577E-02
  weight for this iteration     100.00

 eigenvalues of (default mixing * dielectric matrix)
  average eigenvalue GAMMA=   2.0062
 11.8925  7.9266  4.3632  2.2851  2.2851  1.0751  0.9733  0.9733  0.8231  0.8231
  0.8331  0.7075  0.6437  0.2889  0.4973  0.4474  0.4474  0.4107  0.4206

 Free energy of the ion-electron system (eV)
  ---------------------------------------------------
  alpha Z        PSCENC =       209.44792451
  Ewald energy   TEWEN  =     41050.08976242
  -Hartree energ DENC   =    -51736.82255454
  -exchange      EXHF   =         0.00000000
  -V(xc)+E(xc)   XCENC  =       356.23800087
  PAW double counting   =     10415.49132488   -11276.05741929
  entropy T*S    EENTRO =        -0.00384076
  eigenvalues    EBANDS =      -174.60718652
  atomic energy  EATOM  =     11127.66112160
  Solvation  Ediel_sol  =         0.00000000
  ---------------------------------------------------
  free energy    TOTEN  =       -28.56286683 eV

  energy without entropy =      -28.55902608  energy(sigma->0) =      -28.56158658


--------------------------------------------------------------------------------------------------------




--------------------------------------- Iteration      1(  25)  ---------------------------------------


    POTLOK:  cpu time      0.0157: real time      0.0159
    SETDIJ:  cpu time      0.0055: real time      0.0055
     EDDAV:  cpu time      0.2382: real time      0.2399
       DOS:  cpu time      0.0010: real time      0.0010
    CHARGE:  cpu time      0.0535: real time      0.0538
    MIXING:  cpu time      0.0022: real time      0.0022
    --------------------------------------------
      LOOP:  cpu time      0.3160: real time      0.3183

 eigenvalue-minimisations  :   720
 total energy-change (2. order) :-0.2190451E-01  (-0.6797646E-04)
 number of electron      88.0000831 magnetization       0.0050290
 augmentation part       56.2103860 magnetization       0.0008351

 Broyden mixing:
  rms(total) = 0.25278E-02    rms(broyden)= 0.25270E-02
  rms(prec ) = 0.27324E-02
  weight for this iteration     100.00

 eigenvalues of (default mixing * dielectric matrix)
  average eigenvalue GAMMA=   2.0098
 11.8948  9.0076  4.2104  2.3481  2.3481  1.1339  1.1339  0.9327  0.9327  0.8213
  0.8213  0.7878  0.6857  0.6395  0.2889  0.4956  0.4422  0.4422  0.4107  0.4190

 Free energy of the ion-electron system (eV)
  ---------------------------------------------------
  alpha Z        PSCENC =       209.44792451
  Ewald energy   TEWEN  =     41050.08976242
  -Hartree energ DENC   =    -51735.38431688
  -exchange      EXHF   =         0.00000000
  -V(xc)+E(xc)   XCENC  =       356.20885052
  PAW double counting   =     10413.14406740   -11273.55313763
  entropy T*S    EENTRO =        -0.00368739
  eigenvalues    EBANDS =      -176.19535590
  atomic energy  EATOM  =     11127.66112160
  Solvation  Ediel_sol  =         0.00000000
  ---------------------------------------------------
  free energy    TOTEN  =       -28.58477134 eV

  energy without entropy =      -28.58108395  energy(sigma->0) =      -28.58354221


--------------------------------------------------------------------------------------------------------




--------------------------------------- Iteration      1(  26)  ---------------------------------------


    POTLOK:  cpu time      0.0157: real time      0.0160
    SETDIJ:  cpu time      0.0055: real time      0.0055
     EDDAV:  cpu time      0.2324: real time      0.2342
       DOS:  cpu time      0.0010: real time      0.0010
    CHARGE:  cpu time      0.0530: real time      0.0532
    MIXING:  cpu time      0.0025: real time      0.0025
    --------------------------------------------
      LOOP:  cpu time      0.3101: real time      0.3124

 eigenvalue-minimisations  :   688
 total energy-change (2. order) :-0.2906438E-02  (-0.3502568E-04)
 number of electron      88.0000831 magnetization      -0.0010454
 augmentation part       56.2113561 magnetization      -0.0012572

 Broyden mixing:
  rms(total) = 0.17794E-02    rms(broyden)= 0.17784E-02
  rms(prec ) = 0.21589E-02
  weight for this iteration     100.00

 eigenvalues of (default mixing * dielectric matrix)
  average eigenvalue GAMMA=   1.9928
 11.9935  9.4423  4.1849  2.6234  2.0819  1.5753  1.1644  0.9658  0.9658  0.8087
  0.8087  0.8222  0.6755  0.6755  0.2889  0.5620  0.4939  0.4425  0.4425  0.4204
  0.4106

 Free energy of the ion-electron system (eV)
  ---------------------------------------------------
  alpha Z        PSCENC =       209.44792451
  Ewald energy   TEWEN  =     41050.08976242
  -Hartree energ DENC   =    -51734.65563387
  -exchange      EXHF   =         0.00000000
  -V(xc)+E(xc)   XCENC  =       356.20803865
  PAW double counting   =     10412.16668085   -11272.52430376
  entropy T*S    EENTRO =        -0.00361961
  eigenvalues    EBANDS =      -176.97764857
  atomic energy  EATOM  =     11127.66112160
  Solvation  Ediel_sol  =         0.00000000
  ---------------------------------------------------
  free energy    TOTEN  =       -28.58767778 eV

  energy without entropy =      -28.58405817  energy(sigma->0) =      -28.58647124


--------------------------------------------------------------------------------------------------------




--------------------------------------- Iteration      1(  27)  ---------------------------------------


    POTLOK:  cpu time      0.0164: real time      0.0167
    SETDIJ:  cpu time      0.0055: real time      0.0055
     EDDAV:  cpu time      0.2190: real time      0.2210
       DOS:  cpu time      0.0010: real time      0.0010
    CHARGE:  cpu time      0.0518: real time      0.0521
    MIXING:  cpu time      0.0023: real time      0.0023
    --------------------------------------------
      LOOP:  cpu time      0.2960: real time      0.2985

 eigenvalue-minimisations  :   616
 total energy-change (2. order) :-0.9642414E-03  (-0.1185618E-04)
 number of electron      88.0000831 magnetization      -0.0014600
 augmentation part       56.2101209 magnetization      -0.0008614

 Broyden mixing:
  rms(total) = 0.14586E-02    rms(broyden)= 0.14582E-02
  rms(prec ) = 0.17284E-02
  weight for this iteration     100.00

 eigenvalues of (default mixing * dielectric matrix)
  average eigenvalue GAMMA=   1.9622
 12.0372  9.6871  4.1904  2.8420  1.9778  1.9778  0.9878  0.9878  0.9938  0.8203
  0.8203  0.9057  0.7384  0.7201  0.6234  0.2889  0.4938  0.4408  0.4408  0.4179
  0.4107  0.3662

 Free energy of the ion-electron system (eV)
[...]
     53       6.4887      0.00000
     54       6.5388      0.00000
     55       7.4898      0.00000
     56       8.2758      0.00000

 k-point     3 :       0.0000    0.3333    0.0000
  band No.  band energies     occupation 
      1      -5.8841      1.00000
      2      -5.0991      1.00000
      3      -4.3241      1.00000
      4      -3.8773      1.00000
      5      -3.5603      1.00000
      6      -3.4538      1.00000
      7      -3.4144      1.00000
      8      -3.3155      1.00000
      9      -3.1515      1.00000
     10      -3.1313      1.00000
     11      -3.0997      1.00000
     12      -2.8507      1.00000
     13      -2.8250      1.00000
     14      -2.7280      1.00000
     15      -2.6965      1.00000
     16      -2.5286      1.00000
     17      -2.2520      1.00000
     18      -2.1335      1.00000
     19      -2.0923      1.00000
     20      -1.9492      1.00000
     21      -1.8696      1.00000
     22      -1.6332      1.00000
     23      -1.5432      1.00000
     24      -1.5136      1.00000
     25      -1.4446      1.00000
     26      -1.3750      1.00000
     27      -1.3149      1.00000
     28      -1.3004      1.00000
     29      -1.2837      1.00000
     30      -1.2304      1.00000
     31      -1.1647      1.00000
     32      -1.0727      1.00000
     33      -1.0461      1.00000
     34      -1.0111      1.00000
     35      -0.9794      1.00000
     36      -0.9467      1.00000
     37      -0.8789      1.00000
     38      -0.7915      1.00000
     39      -0.7638      1.00000
     40      -0.7282      1.00000
     41      -0.7025      1.00000
     42      -0.6855      1.00000
     43      -0.6779      1.00000
     44       0.2149      1.02550
     45       2.1022     -0.00000
     46       3.9555     -0.00000
     47       4.1549     -0.00000
     48       4.7558     -0.00000
     49       6.2524      0.00000
     50       6.4166      0.00000
     51       6.8654      0.00000
     52       7.5999      0.00000
     53       7.8115      0.00000
     54       7.8651      0.00000
     55       8.7976      0.00000
     56       9.2715      0.00000

 k-point     4 :       0.3333    0.3333    0.0000
  band No.  band energies     occupation 
      1      -5.0382      1.00000
      2      -4.2986      1.00000
      3      -3.7663      1.00000
      4      -3.6463      1.00000
      5      -3.4014      1.00000
      6      -3.3538      1.00000
      7      -3.2242      1.00000
      8      -3.1724      1.00000
      9      -3.0661      1.00000
     10      -3.0097      1.00000
     11      -2.7995      1.00000
     12      -2.7140      1.00000
     13      -2.5839      1.00000
     14      -2.5347      1.00000
     15      -2.4795      1.00000
     16      -2.4222      1.00000
     17      -2.3788      1.00000
     18      -2.2526      1.00000
     19      -2.1856      1.00000
     20      -2.1450      1.00000
     21      -2.1234      1.00000
     22      -2.0119      1.00000
     23      -1.9364      1.00000
     24      -1.8622      1.00000
     25      -1.7555      1.00000
     26      -1.7330      1.00000
     27      -1.4885      1.00000
     28      -1.4427      1.00000
     29      -1.3459      1.00000
     30      -1.3097      1.00000
     31      -1.2749      1.00000
     32      -1.1884      1.00000
     33      -1.1721      1.00000
     34      -1.0624      1.00000
     35      -0.9809      1.00000
     36      -0.9623      1.00000
     37      -0.9019      1.00000
     38      -0.8808      1.00000
     39      -0.8170      1.00000
     40      -0.7727      1.00000
     41      -0.7483      1.00000
     42      -0.3978      1.00000
     43       0.4622      0.74979
     44       1.4875     -0.00000
     45       1.8803     -0.00000
     46       2.4686     -0.00000
     47       3.7187     -0.00000
     48       3.9159     -0.00000
     49       5.3979     -0.00000
     50       5.5001     -0.00000
     51       5.8639     -0.00000
     52       6.6083      0.00000
     53       7.6203      0.00000
     54       7.7870      0.00000
     55       7.9668      0.00000
     56       8.8457      0.00000


--------------------------------------------------------------------------------------------------------


 soft charge-density along one line, spin component           1
         0         1         2         3         4         5         6         7         8         9
 total charge-density along one line
 
 soft charge-density along one line, spin component           2
         0         1         2         3         4         5         6         7         8         9
 total charge-density along one line
 
 pseudopotential strength for first ion, spin component:           1
 -7.363  -0.000  -0.000   0.000   0.000  -1.361   0.000   0.000
 -0.000  -7.352   0.000   0.000  -0.000   0.000  -1.371  -0.000
 -0.000   0.000  -7.368  -0.000   0.000   0.000  -0.000  -1.361
  0.000   0.000  -0.000  -7.361  -0.000  -0.000  -0.000   0.000
  0.000  -0.000   0.000  -0.000  -7.361  -0.000   0.000   0.001
 -1.361   0.000   0.000  -0.000  -0.000   7.951  -0.000  -0.000
  0.000  -1.371  -0.000  -0.000   0.000  -0.000   7.960   0.000
  0.000  -0.000  -1.361   0.000   0.001  -0.000   0.000   7.954
 -0.000  -0.000   0.000  -1.366   0.000   0.000   0.000  -0.000
 -0.000   0.000   0.001   0.000  -1.363   0.000  -0.000  -0.001
 -0.000  -0.000  -0.003   0.000  -0.001  -0.000  -0.000   0.004
 -0.000  -0.000  -0.006   0.000  -0.002  -0.000  -0.000   0.007
  0.000  -0.019   0.000   0.000   0.000  -0.000   0.013  -0.000
  0.000  -0.000  -0.019   0.000   0.001   0.000   0.000   0.013
 -0.000   0.000  -0.000  -0.017   0.000  -0.000   0.000   0.000
  0.000  -0.021   0.000  -0.000   0.000   0.000   0.014  -0.000
 -0.000  -0.000  -0.021   0.000   0.001   0.000  -0.000   0.013
 -0.000  -0.000  -0.000  -0.018   0.000  -0.000   0.000  -0.000
 pseudopotential strength for first ion, spin component:           2
 -7.363  -0.000  -0.000   0.000   0.000  -1.361   0.000   0.000
 -0.000  -7.352   0.000   0.000  -0.000   0.000  -1.371  -0.000
 -0.000   0.000  -7.368  -0.000   0.000   0.000  -0.000  -1.361
  0.000   0.000  -0.000  -7.361  -0.000  -0.000  -0.000   0.000
  0.000  -0.000   0.000  -0.000  -7.361  -0.000   0.000   0.001
 -1.361   0.000   0.000  -0.000  -0.000   7.951  -0.000  -0.000
  0.000  -1.371  -0.000  -0.000   0.000  -0.000   7.960   0.000
  0.000  -0.000  -1.361   0.000   0.001  -0.000   0.000   7.954
 -0.000  -0.000   0.000  -1.366   0.000   0.000   0.000  -0.000
 -0.000   0.000   0.001   0.000  -1.363   0.000  -0.000  -0.001
 -0.000  -0.000  -0.003   0.000  -0.001  -0.000  -0.000   0.004
 -0.000  -0.000  -0.006   0.000  -0.002  -0.000  -0.000   0.007
  0.000  -0.019   0.000   0.000   0.000  -0.000   0.013  -0.000
  0.000  -0.000  -0.019   0.000   0.001   0.000   0.000   0.013
 -0.000   0.000  -0.000  -0.017   0.000  -0.000   0.000   0.000
  0.000  -0.021   0.000  -0.000   0.000   0.000   0.014  -0.000
 -0.000  -0.000  -0.021   0.000   0.001   0.000  -0.000   0.013
 -0.000  -0.000  -0.000  -0.018   0.000  -0.000   0.000  -0.000
 total augmentation occupancy for first ion, spin component:           1
  1.921   0.000   0.000   0.000   0.000  -0.017   0.000   0.000   0.000   0.000   0.000   0.000   0.000   0.000   0.000   0.000
  0.000   1.945   0.000   0.000   0.000   0.000  -0.028   0.000   0.000   0.000   0.000   0.000   0.019   0.000   0.000  -0.023
  0.000   0.000   1.929   0.000   0.001   0.000   0.000  -0.017   0.000   0.007  -0.018   0.013   0.000   0.064   0.000   0.000
  0.000   0.000   0.000   1.940   0.000   0.000   0.000   0.000  -0.026   0.000   0.000   0.000   0.000   0.000   0.065   0.000
  0.000   0.000   0.001   0.000   1.927   0.000   0.000   0.007   0.000  -0.018  -0.057   0.012   0.000   0.022   0.000   0.000
 -0.017   0.000   0.000   0.000   0.000   0.009   0.000   0.000   0.000   0.000   0.000   0.000   0.000   0.000   0.000   0.000
  0.000  -0.028   0.000   0.000   0.000   0.000   0.009   0.000   0.000   0.000   0.000   0.000   0.019   0.000   0.000  -0.001
  0.000   0.000  -0.017   0.000   0.007   0.000   0.000   0.009   0.000   0.002  -0.011  -0.001   0.000   0.018   0.000   0.000
  0.000   0.000   0.000  -0.026   0.000   0.000   0.000   0.000   0.010   0.000   0.000   0.000   0.000   0.000   0.026   0.000
  0.000   0.000   0.007   0.000  -0.018   0.000   0.000   0.002   0.000   0.009  -0.011   0.001   0.000   0.002   0.000   0.000
  0.000   0.000  -0.018   0.000  -0.057   0.000   0.000  -0.011   0.000  -0.011   1.605  -0.117   0.000   0.206   0.000   0.000
  0.000   0.000   0.013   0.000   0.012   0.000   0.000  -0.001   0.000   0.001  -0.117   0.014   0.000  -0.026   0.000   0.000
  0.000   0.019   0.000   0.000   0.000   0.000   0.019   0.000   0.000   0.000   0.000   0.000   0.198   0.000   0.000  -0.011
  0.000   0.000   0.064   0.000   0.022   0.000   0.000   0.018   0.000   0.002   0.206  -0.026   0.000   0.100   0.000   0.000
  0.000   0.000   0.000   0.065   0.000   0.000   0.000   0.000   0.026   0.000   0.000   0.000   0.000   0.000   0.125   0.000
  0.000  -0.023   0.000   0.000   0.000   0.000  -0.001   0.000   0.000   0.000   0.000   0.000  -0.011   0.000   0.000   0.001
  0.000   0.000  -0.028   0.000  -0.001   0.000   0.000  -0.001   0.000  -0.000  -0.027   0.003   0.000  -0.009   0.000   0.000
  0.000   0.000   0.000  -0.026   0.000   0.000   0.000   0.000  -0.001   0.000   0.000   0.000   0.000   0.000  -0.008   0.000
 total augmentation occupancy for first ion, spin component:           2
 -0.000   0.000   0.000   0.000   0.000  -0.000   0.000   0.000   0.000   0.000   0.000   0.000   0.000   0.000   0.000   0.000
  0.000  -0.000   0.000   0.000   0.000   0.000  -0.000   0.000   0.000   0.000   0.000   0.000   0.000   0.000   0.000  -0.000
  0.000   0.000  -0.000   0.000  -0.000   0.000   0.000  -0.000   0.000  -0.000   0.000  -0.000   0.000   0.000   0.000   0.000
  0.000   0.000   0.000  -0.000   0.000   0.000   0.000   0.000  -0.000   0.000   0.000   0.000   0.000   0.000  -0.000   0.000
  0.000   0.000  -0.000   0.000  -0.000   0.000   0.000   0.000   0.000  -0.000  -0.000   0.000   0.000   0.000   0.000   0.000
 -0.000   0.000   0.000   0.000   0.000   0.000   0.000   0.000   0.000   0.000   0.000   0.000   0.000   0.000   0.000   0.000
  0.000  -0.000   0.000   0.000   0.000   0.000  -0.000   0.000   0.000   0.000   0.000   0.000  -0.000   0.000   0.000  -0.000
  0.000   0.000  -0.000   0.000   0.000   0.000   0.000   0.000   0.000  -0.000   0.000  -0.000   0.000   0.000   0.000   0.000
  0.000   0.000   0.000  -0.000   0.000   0.000   0.000   0.000   0.000   0.000   0.000   0.000   0.000   0.000  -0.000   0.000
  0.000   0.000  -0.000   0.000  -0.000   0.000   0.000  -0.000   0.000  -0.000  -0.000   0.000   0.000  -0.000   0.000   0.000
  0.000   0.000   0.000   0.000  -0.000   0.000   0.000   0.000   0.000  -0.000   0.000  -0.000   0.000   0.000   0.000   0.000
  0.000   0.000  -0.000   0.000   0.000   0.000   0.000  -0.000   0.000   0.000  -0.000   0.000   0.000  -0.000   0.000   0.000
  0.000   0.000   0.000   0.000   0.000   0.000  -0.000   0.000   0.000   0.000   0.000   0.000   0.000   0.000   0.000  -0.000
  0.000   0.000   0.000   0.000   0.000   0.000   0.000   0.000   0.000  -0.000   0.000  -0.000   0.000   0.000   0.000   0.000
  0.000   0.000   0.000  -0.000   0.000   0.000   0.000   0.000  -0.000   0.000   0.000   0.000   0.000   0.000  -0.000   0.000
  0.000  -0.000   0.000   0.000   0.000   0.000  -0.000   0.000   0.000   0.000   0.000   0.000  -0.000   0.000   0.000   0.000
  0.000   0.000  -0.000   0.000  -0.000   0.000   0.000  -0.000   0.000   0.000  -0.000   0.000   0.000  -0.000   0.000   0.000
  0.000   0.000   0.000   0.000   0.000   0.000   0.000   0.000   0.000   0.000   0.000   0.000   0.000   0.000   0.000   0.000


------------------------ aborting loop because EDIFF is reached ----------------------------------------



 DIPCOR: dipole corrections for dipol
 direction  3 min pos   168,
 dipolmoment           0.000000      0.000000      0.002329 electrons x Angstroem
 Tr[quadrupol]      -216.717568

 energy correction for charged system         0.000000 eV
 dipol+quadrupol energy correction            0.000002 eV
 added-field ion interaction          0.000000 eV  (added to PSCEN)

 
  *************** adding dipol energy to TOTEN NOW **************** 
    CHARGE:  cpu time      0.0516: real time      0.0519
    FORLOC:  cpu time      0.0008: real time      0.0008
    FORNL :  cpu time      0.1241: real time      0.1246
    STRESS:  cpu time      0.1343: real time      0.1351
    FORCOR:  cpu time      0.0158: real time      0.0159
    FORHAR:  cpu time      0.0024: real time      0.0024
    MIXING:  cpu time      0.0004: real time      0.0005
    OFIELD:  cpu time      0.0000: real time      0.0000

 ---------------------------------------------------------------------------------------------

         DFTD3 V3.0 Rev 1        
 Edisp (eV)   -3.01797

 E6    (eV) :    -1.2100
 E8    (eV) :    -1.8080
 % E8        : 59.91
    FORVDW:  cpu time      0.0338: real time      0.0340

  FORCE on cell =-STRESS in cart. coord.  units (eV):
  Direction    XX          YY          ZZ          XY          YZ          ZX
  --------------------------------------------------------------------------------------
  Alpha Z   209.44792   209.44792   209.44792
  Ewald   48245.06772 48410.28252-54083.00786     0.00000    -0.00000     0.00000
  Hartree 51288.52768 51409.39987-49449.56516    -0.00000    -0.00000    -0.00000
  E(xc)    -514.20142  -514.04681  -514.73526     0.00000     0.00000    -0.00000
  Local  ************************102536.48452     0.00000     0.00000    -0.00000
  n-local  -176.09219  -171.34704  -175.91886     6.43685    -0.00000     0.00000
  augment   755.07370   757.92100   757.62694     0.00000    -0.00000    -0.00000
  Kinetic   717.11693   718.10233   720.90885     6.28262     0.00000    -0.00000
  Fock        0.00000     0.00000     0.00000     0.00000     0.00000     0.00000
  vdW        -3.67415    -3.70793    -2.57389    -0.00000     0.00000    -0.00000
  -------------------------------------------------------------------------------------
  Total      -5.79983    -5.20110    -1.33279     0.00000     0.00000     0.00000
  in kB     -41.58243   -37.28975    -9.55556     0.00000     0.00000     0.00000
  external pressure =      -29.48 kB  Pullay stress =        0.00 kB


 VOLUME and BASIS-vectors are now :
 -----------------------------------------------------------------------------
  energy-cutoff  :      400.00
  volume of cell :      223.47
      direct lattice vectors                 reciprocal lattice vectors
     3.630000114  0.000000000  0.000000000     0.275482085  0.000000000  0.000000000
     0.000000000  2.566797733  0.000000000     0.000000000  0.389590495  0.000000000
     0.000000000  0.000000000 23.983792070     0.000000000  0.000000000  0.041694824

  length of vectors
     3.630000114  2.566797733 23.983792070     0.275482085  0.389590495  0.041694824


 FORCES acting on ions
    electron-ion (+dipol)            ewald-force                    non-local-force                 convergence-correction
 -----------------------------------------------------------------------------------------------
   -.376E-13 0.310E-11 0.456E+04   -.622E-07 0.258E-07 -.455E+04   0.000E+00 0.000E+00 -.610E+01   0.961E-12 -.162E-12 0.169E-02
   0.744E-06 -.131E-05 0.344E+04   0.128E-06 -.537E-07 -.344E+04   0.000E+00 0.000E+00 0.458E+00   -.488E-10 0.829E-10 0.779E-01
   -.640E-13 0.304E-12 0.205E+04   -.128E-06 0.539E-07 -.205E+04   0.000E+00 0.000E+00 -.768E+00   0.198E-10 -.635E-11 0.135E+00
   0.757E-06 -.132E-05 0.681E+03   0.126E-06 -.525E-07 -.681E+03   0.000E+00 0.000E+00 0.147E+00   -.724E-10 0.690E-10 0.181E+00
   -.509E-13 -.680E-12 -.679E+03   -.128E-06 0.536E-07 0.679E+03   0.000E+00 0.000E+00 -.163E+00   0.130E-09 -.576E-10 0.190E+00
   0.759E-06 -.132E-05 -.201E+04   0.124E-06 -.520E-07 0.201E+04   0.000E+00 0.000E+00 0.122E+01   0.718E-10 -.125E-09 0.770E-01
   -.639E-13 -.172E-11 -.347E+04   -.133E-06 0.567E-07 0.347E+04   0.000E+00 0.000E+00 -.119E+01   -.130E-09 0.571E-10 0.495E-01
   0.803E-06 -.134E-05 -.457E+04   0.739E-07 -.318E-07 0.456E+04   0.000E+00 0.000E+00 0.602E+01   0.119E-09 -.151E-09 -.251E-01
 -----------------------------------------------------------------------------------------------
   0.306E-05 -.530E-05 -.263E+00   0.159E-13 -.225E-14 -.182E-11   0.000E+00 0.000E+00 -.363E+00   0.906E-10 -.131E-09 0.687E+00
 
 
 POSITION                                       TOTAL-FORCE (eV/Angst)
 -----------------------------------------------------------------------------------
      0.00000      0.00000      0.00000         0.000000      0.000000      0.487027
      1.81500      1.28340      1.28340         0.000000      0.000000     -0.498606
      0.00000      0.00000      2.51066         0.000000      0.000000      0.018709
      1.81500      1.28340      3.78776         0.000000      0.000000     -0.017283
      0.00000      0.00000      5.05360         0.000000      0.000000     -0.006148
      1.81500      1.28340      6.30511         0.000000      0.000000      0.028193
      0.00000      0.00000      7.60564         0.000000      0.000000      0.000511
      1.81500      1.28340      8.74631         0.000000      0.000000     -0.012403
 -----------------------------------------------------------------------------------
    total drift:                                0.000003     -0.000005      0.060922


--------------------------------------------------------------------------------------------------------



  FREE ENERGIE OF THE ION-ELECTRON SYSTEM (eV)
  ---------------------------------------------------
  free  energy   TOTEN  =       -31.61714981 eV

  energy  without entropy=      -31.61283334  energy(sigma->0) =      -31.61571099
 
 d Force = 0.1156075E-04[-0.759E-04, 0.990E-04]  d Energy =-0.1486913E-04 0.264E-04
 d Force =-0.4682220E+01[-0.468E+01,-0.468E+01]  d Ewald  =-0.4682220E+01 0.429E-06


--------------------------------------------------------------------------------------------------------


    POTLOK:  cpu time      0.0217: real time      0.0219


--------------------------------------------------------------------------------------------------------


 stress matrix after NEB project (eV)
     -5.79983      0.00000      0.00000
      0.00000     -5.20110      0.00000
      0.00000      0.00000     -1.33279
  FORCES: max atom, RMS     0.028193    0.014298
  FORCE total and by dimension    0.040441    0.028193
  Stress total and by dimension    7.903532    5.799833


--------------------------------------------------------------------------------------------------------


  
 reached required accuracy - stopping structural energy minimisation
     LOOP+:  cpu time      1.0259: real time      1.0448
    4ORBIT:  cpu time      0.0000: real time      0.0000

 total amount of memory used by VASP MPI-rank0    34347. kBytes
=======================================================================

   base      :      30000. kBytes
   nonl-proj :        582. kBytes
   fftplans  :        642. kBytes
   grid      :       1513. kBytes
   one-center:         62. kBytes
   wavefun   :       1548. kBytes
 
  
  
 General timing and accounting informations for this job:
 ========================================================
  
                  Total CPU time used (sec):       49.811
                            User time (sec):       49.513
                          System time (sec):        0.298
                         Elapsed time (sec):       51.594
  
                   Maximum memory used (kb):      225756.
                   Average memory used (kb):          N/A
  
                          Minor page faults:        81350
                          Major page faults:         6599
                 Voluntary context switches:         2296
