unknown system                          
           1
     3.630000    0.000000    0.000000
     0.000000    2.566798    0.000000
     0.000000    0.000000   23.983792
   Cu
     8
Direct configuration=     1
   0.00000000  0.00000000  0.00000000
   0.50000000  0.50000000  0.05351109
   0.00000000  0.00000000  0.10702218
   0.50000000  0.50000000  0.16053327
   0.00000000  0.00000000  0.21404436
   0.50000000  0.50000000  0.26755545
   0.00000000  0.00000000  0.32106654
   0.50000000  0.50000000  0.37457763
Direct configuration=     2
   0.00000000  0.00000000  0.00000000
   0.50000000  0.50000000  0.05351109
   0.00000000  0.00000000  0.10682548
   0.50000000  0.50000000  0.16039235
   0.00000000  0.00000000  0.21417634
   0.50000000  0.50000000  0.26774915
   0.00000000  0.00000000  0.32157809
   0.50000000  0.50000000  0.37333306
Direct configuration=     3
   0.00000000  0.00000000  0.00000000
   0.50000000  0.50000000  0.05351109
   0.00000000  0.00000000  0.10636591
   0.50000000  0.50000000  0.16006309
   0.00000000  0.00000000  0.21448469
   0.50000000  0.50000000  0.26820172
   0.00000000  0.00000000  0.32277327
   0.50000000  0.50000000  0.37042525
Direct configuration=     4
   0.00000000  0.00000000  0.00000000
   0.50000000  0.50000000  0.05351109
   0.00000000  0.00000000  0.10639864
   0.50000000  0.50000000  0.16017572
   0.00000000  0.00000000  0.21449555
   0.50000000  0.50000000  0.26769255
   0.00000000  0.00000000  0.32256436
   0.50000000  0.50000000  0.36999584
Direct configuration=     5
   0.00000000  0.00000000  0.00000000
   0.50000000  0.50000000  0.05351109
   0.00000000  0.00000000  0.10644594
   0.50000000  0.50000000  0.16033855
   0.00000000  0.00000000  0.21451124
   0.50000000  0.50000000  0.26695647
   0.00000000  0.00000000  0.32226236
   0.50000000  0.50000000  0.36937507
Direct configuration=     6
   0.00000000  0.00000000  0.00000000
   0.50000000  0.50000000  0.05351109
   0.00000000  0.00000000  0.10654054
   0.50000000  0.50000000  0.16066421
   0.00000000  0.00000000  0.21454263
   0.50000000  0.50000000  0.26548431
   0.00000000  0.00000000  0.32165834
   0.50000000  0.50000000  0.36813352
Direct configuration=     7
   0.00000000  0.00000000  0.00000000
   0.50000000  0.50000000  0.05351109
   0.00000000  0.00000000  0.10648082
   0.50000000  0.50000000  0.16045861
   0.00000000  0.00000000  0.21452281
   0.50000000  0.50000000  0.26641374
   0.00000000  0.00000000  0.32203968
   0.50000000  0.50000000  0.36891736
Direct configuration=     8
   0.00000000  0.00000000  0.00000000
   0.50000000  0.50000000  0.05351109
   0.00000000  0.00000000  0.10651356
   0.50000000  0.50000000  0.16019990
   0.00000000  0.00000000  0.21419360
   0.50000000  0.50000000  0.26612952
   0.00000000  0.00000000  0.32136257
   0.50000000  0.50000000  0.36846670
Direct configuration=     9
   0.00000000  0.00000000  0.00000000
   0.50000000  0.50000000  0.05351109
   0.00000000  0.00000000  0.10658436
   0.50000000  0.50000000  0.15964050
   0.00000000  0.00000000  0.21348175
   0.50000000  0.50000000  0.26551494
   0.00000000  0.00000000  0.31989848
   0.50000000  0.50000000  0.36749225
Direct configuration=    10
   0.00000000  0.00000000  0.00000000
   0.50000000  0.50000000  0.05351109
   0.00000000  0.00000000  0.10672597
   0.50000000  0.50000000  0.15852171
   0.00000000  0.00000000  0.21205806
   0.50000000  0.50000000  0.26428579
   0.00000000  0.00000000  0.31697030
   0.50000000  0.50000000  0.36554335
Direct configuration=    11
   0.00000000  0.00000000  0.00000000
   0.50000000  0.50000000  0.05351109
   0.00000000  0.00000000  0.10664028
   0.50000000  0.50000000  0.15919873
   0.00000000  0.00000000  0.21291959
   0.50000000  0.50000000  0.26502959
   0.00000000  0.00000000  0.31874225
   0.50000000  0.50000000  0.36672270
Direct configuration=    12
   0.00000000  0.00000000  0.00000000
   0.50000000  0.50000000  0.05351109
   0.00000000  0.00000000  0.10609846
   0.50000000  0.50000000  0.15883334
   0.00000000  0.00000000  0.21225368
   0.50000000  0.50000000  0.26452010
   0.00000000  0.00000000  0.31827899
   0.50000000  0.50000000  0.36612312
Direct configuration=    13
   0.00000000  0.00000000  0.00000000
   0.50000000  0.50000000  0.05351109
   0.00000000  0.00000000  0.10487172
   0.50000000  0.50000000  0.15800603
   0.00000000  0.00000000  0.21074596
   0.50000000  0.50000000  0.26336653
   0.00000000  0.00000000  0.31723013
   0.50000000  0.50000000  0.36476560
Direct configuration=    14
   0.00000000  0.00000000  0.00000000
   0.50000000  0.50000000  0.05351109
   0.00000000  0.00000000  0.10475670
   0.50000000  0.50000000  0.15792847
   0.00000000  0.00000000  0.21060461
   0.50000000  0.50000000  0.26325838
   0.00000000  0.00000000  0.31713179
   0.50000000  0.50000000  0.36463833
Direct configuration=    15
   0.00000000  0.00000000  0.00000000
   0.50000000  0.50000000  0.05351109
   0.00000000  0.00000000  0.10482737
   0.50000000  0.50000000  0.15797612
   0.00000000  0.00000000  0.21069146
   0.50000000  0.50000000  0.26332483
   0.00000000  0.00000000  0.31719221
   0.50000000  0.50000000  0.36471653
Direct configuration=    16
   0.00000000  0.00000000  0.00000000
   0.50000000  0.50000000  0.05351109
   0.00000000  0.00000000  0.10479204
   0.50000000  0.50000000  0.15795230
   0.00000000  0.00000000  0.21064804
   0.50000000  0.50000000  0.26329161
   0.00000000  0.00000000  0.31716200
   0.50000000  0.50000000  0.36467743
Direct configuration=    17
   0.00000000  0.00000000  0.00000000
   0.50000000  0.50000000  0.05351109
   0.00000000  0.00000000  0.10481001
   0.50000000  0.50000000  0.15796442
   0.00000000  0.00000000  0.21067012
   0.50000000  0.50000000  0.26330851
   0.00000000  0.00000000  0.31717736
   0.50000000  0.50000000  0.36469732
Direct configuration=    18
   0.00000000  0.00000000  0.00000000
   0.50000000  0.50000000  0.05351109
   0.00000000  0.00000000  0.10463507
   0.50000000  0.50000000  0.15791751
   0.00000000  0.00000000  0.21072302
   0.50000000  0.50000000  0.26273956
   0.00000000  0.00000000  0.31709373
   0.50000000  0.50000000  0.36466817
Direct configuration=    19
   0.00000000  0.00000000  0.00000000
   0.50000000  0.50000000  0.05351109
   0.00000000  0.00000000  0.10471138
   0.50000000  0.50000000  0.15793797
   0.00000000  0.00000000  0.21069995
   0.50000000  0.50000000  0.26298775
   0.00000000  0.00000000  0.31713021
   0.50000000  0.50000000  0.36468088
Direct configuration=    20
   0.00000000  0.00000000  0.00000000
   0.50000000  0.50000000  0.05351109
   0.00000000  0.00000000  0.10468148
   0.50000000  0.50000000  0.15792996
   0.00000000  0.00000000  0.21070899
   0.50000000  0.50000000  0.26289048
   0.00000000  0.00000000  0.31711592
   0.50000000  0.50000000  0.36467590
