  16  16   0   0
  0.2281663E+02  0.3630000E-09  0.3630000E-09  0.2770500E-08  0.5000000E-15
  1.000000000000000E-004
  CAR 
 unknown system                          
     13.41158003     -9.55357974  301      1.82040529      1.00000000
     -9.554  0.0000E+00  0.0000E+00  0.0000E+00  0.0000E+00
     -9.477  0.0000E+00  0.0000E+00  0.0000E+00  0.0000E+00
     -9.400  0.0000E+00  0.0000E+00  0.0000E+00  0.0000E+00
     -9.324  0.0000E+00  0.0000E+00  0.0000E+00  0.0000E+00
     -9.247  0.0000E+00  0.0000E+00  0.0000E+00  0.0000E+00
     -9.171 -0.1658E-30 -0.1658E-30 -0.1269E-31 -0.1269E-31
     -9.094 -0.6639E-28 -0.6639E-28 -0.5095E-29 -0.5095E-29
     -9.018 -0.1982E-25 -0.1982E-25 -0.1522E-26 -0.1522E-26
     -8.941 -0.4399E-23 -0.4399E-23 -0.3383E-24 -0.3383E-24
     -8.865 -0.7261E-21 -0.7261E-21 -0.5592E-22 -0.5592E-22
     -8.788 -0.8905E-19 -0.8905E-19 -0.6873E-20 -0.6873E-20
     -8.712 -0.7909E-17 -0.7909E-17 -0.6123E-18 -0.6123E-18
     -8.635 -0.5296E-15 -0.5296E-15 -0.4115E-16 -0.4115E-16
     -8.558 -0.2639E-13 -0.2639E-13 -0.2061E-14 -0.2061E-14
     -8.482 -0.9719E-12 -0.9719E-12 -0.7646E-13 -0.7646E-13
     -8.405 -0.2640E-10 -0.2640E-10 -0.2098E-11 -0.2098E-11
     -8.329 -0.5273E-09 -0.5273E-09 -0.4247E-10 -0.4247E-10
     -8.252 -0.7709E-08 -0.7708E-08 -0.6326E-09 -0.6326E-09
     -8.176 -0.8190E-07 -0.8190E-07 -0.6902E-08 -0.6902E-08
     -8.099 -0.6256E-06 -0.6255E-06 -0.5479E-07 -0.5479E-07
     -8.023 -0.3368E-05 -0.3367E-05 -0.3126E-06 -0.3126E-06
     -7.946 -0.1227E-04 -0.1227E-04 -0.1252E-05 -0.1252E-05
     -7.869 -0.2722E-04 -0.2722E-04 -0.3336E-05 -0.3336E-05
     -7.793 -0.2053E-04 -0.2053E-04 -0.4907E-05 -0.4907E-05
     -7.716  0.7584E-04  0.7584E-04  0.8983E-06  0.8982E-06
     -7.640  0.2966E-03  0.2966E-03  0.2360E-04  0.2360E-04
     -7.563  0.5238E-03  0.5238E-03  0.6370E-04  0.6370E-04
     -7.487  0.5537E-03  0.5538E-03  0.1061E-03  0.1061E-03
     -7.410  0.3496E-03  0.3496E-03  0.1329E-03  0.1329E-03
     -7.334  0.9409E-04  0.9409E-04  0.1401E-03  0.1401E-03
     -7.257 -0.2774E-04 -0.2774E-04  0.1379E-03  0.1379E-03
     -7.181  0.4789E-04  0.4789E-04  0.1416E-03  0.1416E-03
     -7.104  0.2836E-03  0.2836E-03  0.1633E-03  0.1633E-03
     -7.027  0.5213E-03  0.5213E-03  0.2032E-03  0.2032E-03
     -6.951  0.5551E-03  0.5551E-03  0.2457E-03  0.2457E-03
     -6.874  0.3587E-03  0.3587E-03  0.2732E-03  0.2732E-03
     -6.798  0.1160E-03  0.1160E-03  0.2820E-03  0.2820E-03
     -6.721 -0.2572E-04 -0.2572E-04  0.2801E-03  0.2801E-03
     -6.645 -0.9074E-04 -0.9074E-04  0.2731E-03  0.2731E-03
     -6.568 -0.1454E-03 -0.1454E-03  0.2620E-03  0.2620E-03
     -6.492 -0.9058E-04 -0.9058E-04  0.2551E-03  0.2551E-03
     -6.415  0.3863E-03  0.3863E-03  0.2846E-03  0.2846E-03
     -6.338  0.1436E-02  0.1436E-02  0.3945E-03  0.3945E-03
     -6.262  0.2510E-02  0.2510E-02  0.5867E-03  0.5867E-03
     -6.185  0.2680E-02  0.2680E-02  0.7918E-03  0.7918E-03
     -6.109  0.1755E-02  0.1755E-02  0.9262E-03  0.9262E-03
     -6.032  0.5816E-03  0.5816E-03  0.9707E-03  0.9707E-03
     -5.956  0.1202E-03  0.1202E-03  0.9799E-03  0.9799E-03
     -5.879  0.6663E-03  0.6664E-03  0.1031E-02  0.1031E-02
     -5.803  0.1712E-02  0.1712E-02  0.1162E-02  0.1162E-02
     -5.726  0.2274E-02  0.2274E-02  0.1336E-02  0.1336E-02
     -5.650  0.1814E-02  0.1814E-02  0.1475E-02  0.1475E-02
     -5.573  0.8091E-03  0.8091E-03  0.1537E-02  0.1537E-02
     -5.496  0.3742E-04  0.3741E-04  0.1540E-02  0.1540E-02
     -5.420 -0.2853E-03 -0.2853E-03  0.1518E-02  0.1518E-02
     -5.343 -0.2803E-03 -0.2803E-03  0.1496E-02  0.1496E-02
     -5.267  0.2259E-03  0.2259E-03  0.1514E-02  0.1514E-02
     -5.190  0.1573E-02  0.1573E-02  0.1634E-02  0.1634E-02
     -5.114  0.3420E-02  0.3420E-02  0.1896E-02  0.1896E-02
     -5.037  0.4526E-02  0.4526E-02  0.2242E-02  0.2242E-02
     -4.961  0.4012E-02  0.4012E-02  0.2549E-02  0.2549E-02
     -4.884  0.2573E-02  0.2573E-02  0.2746E-02  0.2746E-02
     -4.807  0.1718E-02  0.1718E-02  0.2878E-02  0.2878E-02
     -4.731  0.1882E-02  0.1882E-02  0.3022E-02  0.3022E-02
     -4.654  0.2084E-02  0.2084E-02  0.3182E-02  0.3182E-02
     -4.578  0.1516E-02  0.1516E-02  0.3298E-02  0.3298E-02
     -4.501  0.5243E-03  0.5243E-03  0.3338E-02  0.3338E-02
     -4.425 -0.1588E-03 -0.1588E-03  0.3326E-02  0.3326E-02
     -4.348 -0.1776E-03 -0.1776E-03  0.3312E-02  0.3312E-02
     -4.272  0.6227E-03  0.6227E-03  0.3360E-02  0.3360E-02
     -4.195  0.2206E-02  0.2206E-02  0.3529E-02  0.3529E-02
     -4.118  0.3882E-02  0.3882E-02  0.3826E-02  0.3826E-02
     -4.042  0.4490E-02  0.4490E-02  0.4169E-02  0.4169E-02
     -3.965  0.3496E-02  0.3496E-02  0.4437E-02  0.4437E-02
     -3.889  0.1625E-02  0.1625E-02  0.4561E-02  0.4561E-02
     -3.812  0.2132E-03  0.2132E-03  0.4578E-02  0.4578E-02
     -3.736  0.2248E-03  0.2248E-03  0.4595E-02  0.4595E-02
     -3.659  0.1750E-02  0.1750E-02  0.4729E-02  0.4729E-02
     -3.583  0.3683E-02  0.3683E-02  0.5011E-02  0.5011E-02
     -3.506  0.4253E-02  0.4253E-02  0.5336E-02  0.5336E-02
     -3.430  0.2993E-02  0.2993E-02  0.5566E-02  0.5566E-02
     -3.353  0.1659E-02  0.1659E-02  0.5693E-02  0.5693E-02
     -3.276  0.2365E-02  0.2365E-02  0.5874E-02  0.5874E-02
     -3.200  0.5445E-02  0.5445E-02  0.6290E-02  0.6290E-02
     -3.123  0.9571E-02  0.9570E-02  0.7023E-02  0.7023E-02
     -3.047  0.1320E-01  0.1320E-01  0.8033E-02  0.8033E-02
     -2.970  0.1523E-01  0.1523E-01  0.9199E-02  0.9199E-02
     -2.894  0.1503E-01  0.1503E-01  0.1035E-01  0.1035E-01
     -2.817  0.1326E-01  0.1326E-01  0.1136E-01  0.1136E-01
     -2.741  0.1191E-01  0.1191E-01  0.1228E-01  0.1228E-01
     -2.664  0.1217E-01  0.1217E-01  0.1321E-01  0.1321E-01
     -2.587  0.1389E-01  0.1389E-01  0.1427E-01  0.1427E-01
     -2.511  0.1731E-01  0.1731E-01  0.1560E-01  0.1560E-01
     -2.434  0.2248E-01  0.2248E-01  0.1732E-01  0.1732E-01
     -2.358  0.2708E-01  0.2708E-01  0.1939E-01  0.1939E-01
     -2.281  0.2770E-01  0.2770E-01  0.2151E-01  0.2151E-01
     -2.205  0.2379E-01  0.2379E-01  0.2333E-01  0.2333E-01
     -2.128  0.1845E-01  0.1845E-01  0.2474E-01  0.2474E-01
     -2.052  0.1508E-01  0.1508E-01  0.2590E-01  0.2590E-01
     -1.975  0.1476E-01  0.1476E-01  0.2703E-01  0.2703E-01
     -1.899  0.1706E-01  0.1706E-01  0.2833E-01  0.2833E-01
     -1.822  0.2092E-01  0.2092E-01  0.2993E-01  0.2993E-01
     -1.745  0.2435E-01  0.2435E-01  0.3180E-01  0.3180E-01
     -1.669  0.2539E-01  0.2539E-01  0.3374E-01  0.3374E-01
     -1.592  0.2439E-01  0.2439E-01  0.3561E-01  0.3561E-01
     -1.516  0.2394E-01  0.2394E-01  0.3744E-01  0.3744E-01
     -1.439  0.2605E-01  0.2605E-01  0.3944E-01  0.3944E-01
     -1.363  0.3073E-01  0.3073E-01  0.4179E-01  0.4179E-01
     -1.286  0.3683E-01  0.3683E-01  0.4461E-01  0.4461E-01
     -1.210  0.4216E-01  0.4216E-01  0.4784E-01  0.4784E-01
     -1.133  0.4381E-01  0.4381E-01  0.5119E-01  0.5119E-01
     -1.056  0.4068E-01  0.4068E-01  0.5430E-01  0.5430E-01
     -0.980  0.3552E-01  0.3552E-01  0.5702E-01  0.5702E-01
     -0.903  0.3189E-01  0.3189E-01  0.5946E-01  0.5946E-01
     -0.827  0.3031E-01  0.3031E-01  0.6178E-01  0.6178E-01
     -0.750  0.3010E-01  0.3010E-01  0.6409E-01  0.6409E-01
     -0.674  0.3120E-01  0.3120E-01  0.6648E-01  0.6648E-01
     -0.597  0.3222E-01  0.3222E-01  0.6894E-01  0.6894E-01
     -0.521  0.3168E-01  0.3168E-01  0.7137E-01  0.7137E-01
     -0.444  0.3161E-01  0.3161E-01  0.7379E-01  0.7379E-01
     -0.368  0.3514E-01  0.3514E-01  0.7648E-01  0.7648E-01
     -0.291  0.4142E-01  0.4142E-01  0.7965E-01  0.7965E-01
     -0.214  0.4625E-01  0.4625E-01  0.8319E-01  0.8319E-01
     -0.138  0.4712E-01  0.4712E-01  0.8680E-01  0.8680E-01
     -0.061  0.4577E-01  0.4577E-01  0.9030E-01  0.9030E-01
      0.015  0.4553E-01  0.4553E-01  0.9379E-01  0.9379E-01
      0.092  0.4643E-01  0.4643E-01  0.9734E-01  0.9734E-01
      0.168  0.4413E-01  0.4413E-01  0.1007E+00  0.1007E+00
      0.245  0.3508E-01  0.3508E-01  0.1034E+00  0.1034E+00
      0.321  0.2147E-01  0.2147E-01  0.1050E+00  0.1050E+00
      0.398  0.9171E-02  0.9171E-02  0.1057E+00  0.1057E+00
      0.475  0.2000E-02  0.1999E-02  0.1059E+00  0.1059E+00
      0.551 -0.2777E-03 -0.2777E-03  0.1059E+00  0.1059E+00
      0.628  0.4895E-03  0.4894E-03  0.1059E+00  0.1059E+00
      0.704  0.2792E-02  0.2791E-02  0.1061E+00  0.1061E+00
      0.781  0.5103E-02  0.5103E-02  0.1065E+00  0.1065E+00
      0.857  0.5817E-02  0.5817E-02  0.1070E+00  0.1070E+00
      0.934  0.4511E-02  0.4511E-02  0.1073E+00  0.1073E+00
      1.010  0.2364E-02  0.2364E-02  0.1075E+00  0.1075E+00
      1.087  0.8297E-03  0.8297E-03  0.1076E+00  0.1076E+00
      1.163  0.2848E-03  0.2848E-03  0.1076E+00  0.1076E+00
      1.240  0.1533E-03  0.1533E-03  0.1076E+00  0.1076E+00
      1.317 -0.3950E-06 -0.3874E-06  0.1076E+00  0.1076E+00
      1.393  0.1794E-03  0.1794E-03  0.1076E+00  0.1076E+00
      1.470  0.1456E-02  0.1456E-02  0.1077E+00  0.1077E+00
      1.546  0.4023E-02  0.4023E-02  0.1080E+00  0.1080E+00
      1.623  0.6791E-02  0.6791E-02  0.1085E+00  0.1085E+00
      1.699  0.8037E-02  0.8037E-02  0.1092E+00  0.1092E+00
      1.776  0.7343E-02  0.7343E-02  0.1097E+00  0.1097E+00
      1.852  0.5993E-02  0.5993E-02  0.1102E+00  0.1102E+00
      1.929  0.4780E-02  0.4780E-02  0.1105E+00  0.1105E+00
      2.006  0.3292E-02  0.3292E-02  0.1108E+00  0.1108E+00
      2.082  0.2028E-02  0.2028E-02  0.1110E+00  0.1110E+00
      2.159  0.2624E-02  0.2624E-02  0.1112E+00  0.1112E+00
      2.235  0.5120E-02  0.5120E-02  0.1115E+00  0.1115E+00
      2.312  0.7189E-02  0.7188E-02  0.1121E+00  0.1121E+00
      2.388  0.6944E-02  0.6944E-02  0.1126E+00  0.1126E+00
      2.465  0.4976E-02  0.4976E-02  0.1130E+00  0.1130E+00
      2.541  0.3168E-02  0.3168E-02  0.1133E+00  0.1133E+00
      2.618  0.2829E-02  0.2829E-02  0.1135E+00  0.1135E+00
      2.695  0.3747E-02  0.3747E-02  0.1138E+00  0.1138E+00
      2.771  0.4424E-02  0.4424E-02  0.1141E+00  0.1141E+00
      2.848  0.3957E-02  0.3957E-02  0.1144E+00  0.1144E+00
      2.924  0.3041E-02  0.3041E-02  0.1146E+00  0.1146E+00
      3.001  0.2369E-02  0.2369E-02  0.1148E+00  0.1148E+00
      3.077  0.1646E-02  0.1646E-02  0.1149E+00  0.1149E+00
      3.154  0.7459E-03  0.7460E-03  0.1150E+00  0.1150E+00
      3.230  0.2554E-03  0.2554E-03  0.1150E+00  0.1150E+00
      3.307  0.5679E-03  0.5679E-03  0.1151E+00  0.1151E+00
      3.383  0.1348E-02  0.1348E-02  0.1152E+00  0.1152E+00
      3.460  0.2055E-02  0.2055E-02  0.1153E+00  0.1153E+00
      3.537  0.2578E-02  0.2578E-02  0.1155E+00  0.1155E+00
      3.613  0.3063E-02  0.3063E-02  0.1157E+00  0.1157E+00
      3.690  0.3395E-02  0.3395E-02  0.1160E+00  0.1160E+00
      3.766  0.3226E-02  0.3226E-02  0.1163E+00  0.1163E+00
      3.843  0.2381E-02  0.2381E-02  0.1164E+00  0.1164E+00
      3.919  0.1167E-02  0.1167E-02  0.1165E+00  0.1165E+00
      3.996  0.1663E-03  0.1663E-03  0.1165E+00  0.1165E+00
      4.072 -0.2891E-03 -0.2891E-03  0.1165E+00  0.1165E+00
      4.149 -0.1164E-03 -0.1164E-03  0.1165E+00  0.1165E+00
      4.226  0.8237E-03  0.8237E-03  0.1166E+00  0.1166E+00
      4.302  0.2328E-02  0.2328E-02  0.1168E+00  0.1168E+00
      4.379  0.3349E-02  0.3349E-02  0.1170E+00  0.1170E+00
      4.455  0.2910E-02  0.2910E-02  0.1172E+00  0.1172E+00
      4.532  0.1487E-02  0.1487E-02  0.1173E+00  0.1173E+00
      4.608  0.5487E-03  0.5487E-03  0.1174E+00  0.1174E+00
      4.685  0.8409E-03  0.8409E-03  0.1174E+00  0.1174E+00
      4.761  0.1752E-02  0.1752E-02  0.1176E+00  0.1176E+00
      4.838  0.2296E-02  0.2296E-02  0.1178E+00  0.1178E+00
      4.914  0.2318E-02  0.2318E-02  0.1179E+00  0.1179E+00
      4.991  0.2245E-02  0.2245E-02  0.1181E+00  0.1181E+00
      5.068  0.2069E-02  0.2069E-02  0.1183E+00  0.1183E+00
      5.144  0.1730E-02  0.1730E-02  0.1184E+00  0.1184E+00
      5.221  0.1930E-02  0.1930E-02  0.1185E+00  0.1185E+00
      5.297  0.3109E-02  0.3109E-02  0.1188E+00  0.1188E+00
      5.374  0.4311E-02  0.4311E-02  0.1191E+00  0.1191E+00
      5.450  0.4477E-02  0.4477E-02  0.1195E+00  0.1195E+00
      5.527  0.4000E-02  0.4001E-02  0.1198E+00  0.1198E+00
      5.603  0.3990E-02  0.3990E-02  0.1201E+00  0.1201E+00
      5.680  0.4975E-02  0.4975E-02  0.1205E+00  0.1205E+00
      5.757  0.6473E-02  0.6473E-02  0.1209E+00  0.1209E+00
      5.833  0.6996E-02  0.6996E-02  0.1215E+00  0.1215E+00
      5.910  0.5441E-02  0.5441E-02  0.1219E+00  0.1219E+00
      5.986  0.2757E-02  0.2757E-02  0.1221E+00  0.1221E+00
      6.063  0.8279E-03  0.8280E-03  0.1222E+00  0.1222E+00
      6.139  0.2130E-03  0.2131E-03  0.1222E+00  0.1222E+00
      6.216  0.2225E-03  0.2225E-03  0.1222E+00  0.1222E+00
      6.292  0.3360E-03  0.3360E-03  0.1222E+00  0.1222E+00
      6.369  0.6481E-03  0.6481E-03  0.1223E+00  0.1223E+00
      6.445  0.1456E-02  0.1456E-02  0.1224E+00  0.1224E+00
      6.522  0.2871E-02  0.2871E-02  0.1226E+00  0.1226E+00
      6.599  0.4709E-02  0.4709E-02  0.1230E+00  0.1230E+00
      6.675  0.6534E-02  0.6534E-02  0.1235E+00  0.1235E+00
      6.752  0.7578E-02  0.7578E-02  0.1241E+00  0.1241E+00
      6.828  0.6984E-02  0.6984E-02  0.1246E+00  0.1246E+00
      6.905  0.4825E-02  0.4824E-02  0.1250E+00  0.1250E+00
      6.981  0.2505E-02  0.2505E-02  0.1251E+00  0.1251E+00
      7.058  0.1503E-02  0.1503E-02  0.1253E+00  0.1253E+00
      7.134  0.1912E-02  0.1912E-02  0.1254E+00  0.1254E+00
      7.211  0.2653E-02  0.2653E-02  0.1256E+00  0.1256E+00
      7.288  0.2977E-02  0.2977E-02  0.1258E+00  0.1258E+00
      7.364  0.3260E-02  0.3261E-02  0.1261E+00  0.1261E+00
      7.441  0.4119E-02  0.4120E-02  0.1264E+00  0.1264E+00
      7.517  0.5279E-02  0.5280E-02  0.1268E+00  0.1268E+00
      7.594  0.5785E-02  0.5785E-02  0.1273E+00  0.1273E+00
      7.670  0.5170E-02  0.5170E-02  0.1276E+00  0.1276E+00
      7.747  0.3945E-02  0.3944E-02  0.1280E+00  0.1280E+00
      7.823  0.2703E-02  0.2703E-02  0.1282E+00  0.1282E+00
      7.900  0.1458E-02  0.1458E-02  0.1283E+00  0.1283E+00
      7.976  0.3687E-03  0.3688E-03  0.1283E+00  0.1283E+00
      8.053  0.3250E-03  0.3251E-03  0.1283E+00  0.1283E+00
      8.130  0.2132E-02  0.2132E-02  0.1285E+00  0.1285E+00
      8.206  0.5041E-02  0.5041E-02  0.1289E+00  0.1289E+00
      8.283  0.6643E-02  0.6643E-02  0.1294E+00  0.1294E+00
      8.359  0.5320E-02  0.5320E-02  0.1298E+00  0.1298E+00
      8.436  0.2350E-02  0.2350E-02  0.1300E+00  0.1300E+00
      8.512  0.4843E-03  0.4845E-03  0.1300E+00  0.1300E+00
      8.589  0.1295E-02  0.1296E-02  0.1301E+00  0.1301E+00
      8.665  0.4400E-02  0.4401E-02  0.1304E+00  0.1304E+00
      8.742  0.8008E-02  0.8008E-02  0.1311E+00  0.1311E+00
      8.819  0.1007E-01  0.1007E-01  0.1318E+00  0.1318E+00
      8.895  0.9765E-02  0.9765E-02  0.1326E+00  0.1326E+00
      8.972  0.7716E-02  0.7715E-02  0.1332E+00  0.1332E+00
      9.048  0.4951E-02  0.4951E-02  0.1335E+00  0.1335E+00
      9.125  0.2282E-02  0.2281E-02  0.1337E+00  0.1337E+00
      9.201  0.5418E-03  0.5418E-03  0.1338E+00  0.1338E+00
      9.278  0.4561E-03  0.4561E-03  0.1338E+00  0.1338E+00
      9.354  0.1951E-02  0.1951E-02  0.1339E+00  0.1339E+00
      9.431  0.3860E-02  0.3860E-02  0.1342E+00  0.1342E+00
      9.508  0.4753E-02  0.4753E-02  0.1346E+00  0.1346E+00
      9.584  0.4259E-02  0.4260E-02  0.1349E+00  0.1349E+00
      9.661  0.3323E-02  0.3324E-02  0.1352E+00  0.1352E+00
      9.737  0.3276E-02  0.3277E-02  0.1354E+00  0.1354E+00
      9.814  0.4915E-02  0.4915E-02  0.1358E+00  0.1358E+00
      9.890  0.7635E-02  0.7634E-02  0.1364E+00  0.1364E+00
      9.967  0.9213E-02  0.9213E-02  0.1371E+00  0.1371E+00
     10.043  0.7941E-02  0.7941E-02  0.1377E+00  0.1377E+00
     10.120  0.5043E-02  0.5044E-02  0.1381E+00  0.1381E+00
     10.196  0.3458E-02  0.3458E-02  0.1384E+00  0.1384E+00
     10.273  0.4535E-02  0.4535E-02  0.1387E+00  0.1387E+00
     10.350  0.6982E-02  0.6982E-02  0.1392E+00  0.1392E+00
     10.426  0.8382E-02  0.8382E-02  0.1399E+00  0.1399E+00
     10.503  0.7230E-02  0.7230E-02  0.1404E+00  0.1404E+00
     10.579  0.4198E-02  0.4198E-02  0.1408E+00  0.1408E+00
     10.656  0.1528E-02  0.1528E-02  0.1409E+00  0.1409E+00
     10.732  0.8834E-03  0.8806E-03  0.1409E+00  0.1409E+00
     10.809  0.2126E-02  0.2113E-02  0.1411E+00  0.1411E+00
     10.885  0.4037E-02  0.4006E-02  0.1414E+00  0.1414E+00
     10.962  0.5406E-02  0.5388E-02  0.1418E+00  0.1418E+00
     11.039  0.5563E-02  0.5683E-02  0.1423E+00  0.1423E+00
     11.115  0.4976E-02  0.5372E-02  0.1426E+00  0.1427E+00
     11.192  0.5156E-02  0.5700E-02  0.1430E+00  0.1431E+00
     11.268  0.6651E-02  0.6900E-02  0.1435E+00  0.1436E+00
     11.345  0.7765E-02  0.7470E-02  0.1441E+00  0.1442E+00
     11.421  0.6700E-02  0.6154E-02  0.1446E+00  0.1447E+00
     11.498  0.3927E-02  0.3557E-02  0.1449E+00  0.1449E+00
     11.574  0.1319E-02  0.1218E-02  0.1450E+00  0.1450E+00
     11.651 -0.1931E-04  0.2607E-05  0.1450E+00  0.1450E+00
     11.727 -0.3014E-03 -0.2722E-03  0.1450E+00  0.1450E+00
     11.804 -0.1880E-03 -0.1760E-03  0.1450E+00  0.1450E+00
     11.881 -0.6787E-04 -0.6494E-04  0.1450E+00  0.1450E+00
     11.957 -0.1659E-04 -0.1611E-04  0.1450E+00  0.1450E+00
     12.034 -0.2875E-05 -0.2820E-05  0.1450E+00  0.1450E+00
     12.110 -0.3600E-06 -0.3555E-06  0.1450E+00  0.1450E+00
     12.187 -0.3291E-07 -0.3263E-07  0.1450E+00  0.1450E+00
     12.263 -0.2207E-08 -0.2194E-08  0.1450E+00  0.1450E+00
     12.340 -0.1090E-09 -0.1086E-09  0.1450E+00  0.1450E+00
     12.416 -0.3976E-11 -0.3964E-11  0.1450E+00  0.1450E+00
     12.493 -0.1073E-12 -0.1070E-12  0.1450E+00  0.1450E+00
     12.570 -0.2142E-14 -0.2138E-14  0.1450E+00  0.1450E+00
     12.646 -0.3223E-16 -0.3223E-16  0.1450E+00  0.1450E+00
     12.723  0.0000E+00  0.0000E+00  0.1450E+00  0.1450E+00
     12.799  0.0000E+00  0.0000E+00  0.1450E+00  0.1450E+00
     12.876  0.0000E+00  0.0000E+00  0.1450E+00  0.1450E+00
     12.952  0.0000E+00  0.0000E+00  0.1450E+00  0.1450E+00
     13.029  0.0000E+00  0.0000E+00  0.1450E+00  0.1450E+00
     13.105  0.0000E+00  0.0000E+00  0.1450E+00  0.1450E+00
     13.182  0.0000E+00  0.0000E+00  0.1450E+00  0.1450E+00
     13.258  0.0000E+00  0.0000E+00  0.1450E+00  0.1450E+00
     13.335  0.0000E+00  0.0000E+00  0.1450E+00  0.1450E+00
     13.412  0.0000E+00  0.0000E+00  0.1450E+00  0.1450E+00
