   16   16  800    2
  0.2281663E+02  0.3630000E-09  0.3630000E-09  0.2770500E-08  0.5000000E-15
  1.000000000000000E-004
  CAR 
 unknown system                          
    176      3    116
 
  0.0000000E+00  0.0000000E+00  0.0000000E+00  0.1111111E+00
      1         -7.553580       -7.553579   1.000000   1.000000
      2         -7.018542       -7.018544   1.000000   1.000000
      3         -6.188423       -6.188423   1.000000   1.000000
      4         -5.107484       -5.107478   1.000000   1.000000
      5         -4.017712       -4.017709   1.000000   1.000000
      6         -3.297157       -3.297158   1.000000   1.000000
      7         -3.145696       -3.145696   1.000000   1.000000
      8         -3.134122       -3.134122   1.000000   1.000000
      9         -3.114536       -3.114536   1.000000   1.000000
     10         -3.079638       -3.079638   1.000000   1.000000
     11         -2.926037       -2.926036   1.000000   1.000000
     12         -2.891947       -2.891947   1.000000   1.000000
     13         -2.700449       -2.700449   1.000000   1.000000
     14         -2.673187       -2.673188   1.000000   1.000000
     15         -2.673187       -2.673188   1.000000   1.000000
     16         -2.596303       -2.596303   1.000000   1.000000
     17         -2.585858       -2.585860   1.000000   1.000000
     18         -2.566496       -2.566495   1.000000   1.000000
     19         -2.524741       -2.524740   1.000000   1.000000
     20         -2.524741       -2.524740   1.000000   1.000000
     21         -2.329297       -2.329296   1.000000   1.000000
     22         -2.260876       -2.260874   1.000000   1.000000
     23         -2.260876       -2.260874   1.000000   1.000000
     24         -2.197110       -2.197115   1.000000   1.000000
     25         -2.124320       -2.124320   1.000000   1.000000
     26         -2.018821       -2.018822   1.000000   1.000000
     27         -1.850471       -1.850471   1.000000   1.000000
     28         -1.850471       -1.850471   1.000000   1.000000
     29         -1.736607       -1.736608   1.000000   1.000000
     30         -1.495094       -1.495095   1.000000   1.000000
     31         -1.369406       -1.369410   1.000000   1.000000
     32         -1.369406       -1.369410   1.000000   1.000000
     33         -1.357238       -1.357239   1.000000   1.000000
     34         -1.300700       -1.300701   1.000000   1.000000
     35         -1.300700       -1.300701   1.000000   1.000000
     36         -1.199512       -1.199513   1.000000   1.000000
     37         -1.179312       -1.179311   1.000000   1.000000
     38         -1.179312       -1.179311   1.000000   1.000000
     39         -0.965230       -0.965229   1.000000   1.000000
     40         -0.965230       -0.965229   1.000000   1.000000
     41         -0.817179       -0.817183   1.000000   1.000000
     42         -0.817179       -0.817183   1.000000   1.000000
     43         -0.731737       -0.731740   1.000000   1.000000
     44         -0.685381       -0.685381   1.000000   1.000000
     45         -0.652323       -0.652325   1.000000   1.000000
     46         -0.652323       -0.652325   1.000000   1.000000
     47         -0.598847       -0.598852   1.000000   1.000000
     48         -0.509040       -0.509040   1.000000   1.000000
     49         -0.505620       -0.505619   1.000000   1.000000
     50         -0.460104       -0.460102   1.000000   1.000000
     51         -0.369572       -0.369573   1.000000   1.000000
     52         -0.369260       -0.369261   1.000000   1.000000
     53         -0.365652       -0.365652   1.000000   1.000000
     54         -0.342947       -0.342946   1.000000   1.000000
     55         -0.333577       -0.333582   1.000000   1.000000
     56         -0.333577       -0.333582   1.000000   1.000000
     57         -0.287081       -0.287082   1.000000   1.000000
     58         -0.287081       -0.287082   1.000000   1.000000
     59         -0.197243       -0.197248   1.000000   1.000000
     60         -0.194475       -0.194470   1.000000   1.000000
     61         -0.193681       -0.193681   1.000000   1.000000
     62         -0.080265       -0.080265   1.000000   1.000000
     63         -0.055379       -0.055381   1.000000   1.000000
     64         -0.049235       -0.049240   1.000000   1.000000
     65         -0.049235       -0.049240   1.000000   1.000000
     66         -0.010068       -0.010073   1.000000   1.000000
     67         -0.004291       -0.004291   1.000000   1.000000
     68          0.086131        0.086127   1.000000   1.000000
     69          0.112977        0.112974   1.000000   1.000000
     70          0.114560        0.114559   1.000000   1.000000
     71          0.126212        0.126209   1.000000   1.000000
     72          0.128299        0.128311   1.000000   1.000000
     73          0.129153        0.129150   1.000000   1.000000
     74          0.129153        0.129150   1.000000   1.000000
     75          0.148752        0.148750   1.000000   1.000000
     76          0.152634        0.152634   1.000000   1.000000
     77          0.184611        0.184610   1.000000   1.000000
     78          0.184611        0.184610   1.000000   1.000000
     79          0.223439        0.223438   1.000000   1.000000
     80          0.242828        0.242825   1.000000   1.000000
     81          0.270673        0.270671   1.000000   1.000000
     82          0.270673        0.270671   1.000000   1.000000
     83          0.280473        0.280475   1.000000   1.000000
     84          0.286998        0.286994   1.000000   1.000000
     85          0.436755        0.436742   1.000000   1.000000
     86          0.479820        0.479817   1.000000   1.000000
     87          1.180795        1.180798   1.000030   1.000030
     88          2.424488        2.424491  -0.000083  -0.000083
     89          3.386644        3.386645  -0.000000  -0.000000
     90          3.406632        3.406632  -0.000000  -0.000000
     91          3.406632        3.406632  -0.000000  -0.000000
     92          4.370795        4.370794  -0.000000  -0.000000
     93          4.370795        4.370794  -0.000000  -0.000000
     94          5.624108        5.624110  -0.000000  -0.000000
     95          5.624108        5.624110  -0.000000  -0.000000
     96          6.116267        6.116231  -0.000000  -0.000000
     97          6.348315        6.348259  -0.000000  -0.000000
     98          7.105857        7.105864  -0.000000  -0.000000
     99          7.105857        7.105864  -0.000000  -0.000000
    100          7.426860        7.426865   0.000000   0.000000
    101          8.614516        8.614458   0.000000   0.000000
    102          8.696505        8.696509   0.000000   0.000000
    103          8.696505        8.696509   0.000000   0.000000
    104          8.839397        8.839397   0.000000   0.000000
    105          8.842635        8.842635   0.000000   0.000000
    106          9.020993        9.020995   0.000000   0.000000
    107          9.027834        9.027831   0.000000   0.000000
    108          9.427973        9.427969   0.000000   0.000000
    109          9.428815        9.428818   0.000000   0.000000
    110         10.058855       10.058859   0.000000   0.000000
    111         10.073909       10.073910   0.000000   0.000000
    112         10.245744       10.245719   0.000000   0.000000
    113         10.457334       10.457332   0.000000   0.000000
    114         10.457334       10.457332   0.000000   0.000000
    115         10.759539       10.759527   0.000000   0.000000
    116         10.835218       10.835204   0.000000   0.000000
 
  0.3333333E+00  0.0000000E+00  0.0000000E+00  0.4444444E+00
      1         -6.262961       -6.262960   1.000000   1.000000
      2         -5.763080       -5.763082   1.000000   1.000000
      3         -5.001095       -5.001095   1.000000   1.000000
      4         -4.043566       -4.043561   1.000000   1.000000
      5         -3.546186       -3.546186   1.000000   1.000000
      6         -3.200227       -3.200228   1.000000   1.000000
      7         -3.134708       -3.134705   1.000000   1.000000
      8         -2.742802       -2.742803   1.000000   1.000000
      9         -2.665611       -2.665611   1.000000   1.000000
     10         -2.631817       -2.631817   1.000000   1.000000
     11         -2.494482       -2.494483   1.000000   1.000000
     12         -2.452416       -2.452417   1.000000   1.000000
     13         -2.440380       -2.440380   1.000000   1.000000
     14         -2.365528       -2.365524   1.000000   1.000000
     15         -2.357643       -2.357643   1.000000   1.000000
     16         -2.326606       -2.326606   1.000000   1.000000
     17         -2.322512       -2.322513   1.000000   1.000000
     18         -2.300512       -2.300511   1.000000   1.000000
     19         -2.266260       -2.266261   1.000000   1.000000
     20         -2.251374       -2.251374   1.000000   1.000000
     21         -2.240050       -2.240049   1.000000   1.000000
     22         -2.116847       -2.116848   1.000000   1.000000
     23         -2.081454       -2.081454   1.000000   1.000000
     24         -2.068782       -2.068781   1.000000   1.000000
     25         -1.886031       -1.886032   1.000000   1.000000
     26         -1.852278       -1.852279   1.000000   1.000000
     27         -1.796444       -1.796443   1.000000   1.000000
     28         -1.757934       -1.757934   1.000000   1.000000
     29         -1.712752       -1.712754   1.000000   1.000000
     30         -1.698905       -1.698905   1.000000   1.000000
     31         -1.685874       -1.685874   1.000000   1.000000
     32         -1.556817       -1.556819   1.000000   1.000000
     33         -1.539786       -1.539787   1.000000   1.000000
     34         -1.464860       -1.464860   1.000000   1.000000
     35         -1.393558       -1.393558   1.000000   1.000000
     36         -1.327038       -1.327039   1.000000   1.000000
     37         -1.299498       -1.299501   1.000000   1.000000
     38         -1.243365       -1.243364   1.000000   1.000000
     39         -1.212384       -1.212386   1.000000   1.000000
     40         -1.186267       -1.186267   1.000000   1.000000
     41         -1.147540       -1.147539   1.000000   1.000000
     42         -1.086780       -1.086780   1.000000   1.000000
     43         -1.070966       -1.070969   1.000000   1.000000
     44         -1.056510       -1.056512   1.000000   1.000000
     45         -0.921068       -0.921070   1.000000   1.000000
     46         -0.876212       -0.876214   1.000000   1.000000
     47         -0.861162       -0.861163   1.000000   1.000000
     48         -0.835944       -0.835944   1.000000   1.000000
     49         -0.807790       -0.807792   1.000000   1.000000
     50         -0.669852       -0.669855   1.000000   1.000000
     51         -0.665203       -0.665203   1.000000   1.000000
     52         -0.641687       -0.641690   1.000000   1.000000
     53         -0.621105       -0.621107   1.000000   1.000000
     54         -0.587870       -0.587872   1.000000   1.000000
     55         -0.531335       -0.531336   1.000000   1.000000
     56         -0.526385       -0.526386   1.000000   1.000000
     57         -0.460246       -0.460253   1.000000   1.000000
     58         -0.456611       -0.456615   1.000000   1.000000
     59         -0.418951       -0.418953   1.000000   1.000000
     60         -0.408425       -0.408422   1.000000   1.000000
     61         -0.399607       -0.399610   1.000000   1.000000
     62         -0.352557       -0.352561   1.000000   1.000000
     63         -0.325287       -0.325289   1.000000   1.000000
     64         -0.300295       -0.300295   1.000000   1.000000
     65         -0.287511       -0.287512   1.000000   1.000000
     66         -0.254334       -0.254335   1.000000   1.000000
     67         -0.237820       -0.237826   1.000000   1.000000
     68         -0.234115       -0.234117   1.000000   1.000000
     69         -0.221496       -0.221494   1.000000   1.000000
     70         -0.220122       -0.220123   1.000000   1.000000
     71         -0.213755       -0.213756   1.000000   1.000000
     72         -0.197945       -0.197946   1.000000   1.000000
     73         -0.143202       -0.143203   1.000000   1.000000
     74         -0.129156       -0.129160   1.000000   1.000000
     75         -0.119134       -0.119135   1.000000   1.000000
     76         -0.080744       -0.080747   1.000000   1.000000
     77         -0.064367       -0.064369   1.000000   1.000000
     78         -0.026472       -0.026474   1.000000   1.000000
     79         -0.001009       -0.001011   1.000000   1.000000
     80          0.109917        0.109915   1.000000   1.000000
     81          0.131393        0.131391   1.000000   1.000000
     82          0.136955        0.136954   1.000000   1.000000
     83          0.249885        0.249886   1.000000   1.000000
     84          0.273872        0.273871   1.000000   1.000000
     85          0.287411        0.287409   1.000000   1.000000
     86          0.741290        0.741290   1.000000   1.000000
     87          0.791763        0.791762   1.000000   1.000000
     88          1.542766        1.542767   1.032195   1.032195
     89          1.645849        1.645848   1.006396   1.006397
     90          2.461257        2.461262  -0.000028  -0.000028
     91          2.977065        2.977066  -0.000000  -0.000000
     92          3.599998        3.599999  -0.000000  -0.000000
     93          4.353886        4.353887  -0.000000  -0.000000
     94          5.028002        5.028001  -0.000000  -0.000000
     95          5.564211        5.564210  -0.000000  -0.000000
     96          5.838813        5.838813  -0.000000  -0.000000
     97          6.531820        6.531819  -0.000000  -0.000000
     98          6.642232        6.642233  -0.000000  -0.000000
     99          7.429997        7.429967   0.000000   0.000000
    100          7.570929        7.570931   0.000000   0.000000
    101          7.598673        7.598614   0.000000   0.000000
    102          8.268040        8.268041   0.000000   0.000000
    103          8.720569        8.720574   0.000000   0.000000
    104          8.881518        8.881524   0.000000   0.000000
    105          9.416945        9.416944   0.000000   0.000000
    106          9.546444        9.546441   0.000000   0.000000
    107          9.723922        9.723867   0.000000   0.000000
    108          9.912388        9.912387   0.000000   0.000000
    109         10.273314       10.273313   0.000000   0.000000
    110         10.355567       10.355570   0.000000   0.000000
    111         10.423670       10.423670   0.000000   0.000000
    112         11.012565       11.012564   0.000000   0.000000
    113         11.028370       11.028374   0.000000   0.000000
    114         11.252526       11.252503   0.000000   0.000000
    115         11.328992       11.328939   0.000000   0.000000
    116         11.411580       11.411554   0.000000   0.000000
 
  0.3333333E+00  0.3333333E+00  0.0000000E+00  0.4444444E+00
      1         -5.102659       -5.102658   1.000000   1.000000
      2         -4.704970       -4.704972   1.000000   1.000000
      3         -4.154198       -4.154199   1.000000   1.000000
      4         -3.569101       -3.569097   1.000000   1.000000
      5         -3.079683       -3.079681   1.000000   1.000000
      6         -2.994957       -2.994957   1.000000   1.000000
      7         -2.991257       -2.991258   1.000000   1.000000
      8         -2.941309       -2.941310   1.000000   1.000000
      9         -2.937263       -2.937263   1.000000   1.000000
     10         -2.885920       -2.885922   1.000000   1.000000
     11         -2.847274       -2.847274   1.000000   1.000000
     12         -2.688397       -2.688396   1.000000   1.000000
     13         -2.499449       -2.499443   1.000000   1.000000
     14         -2.416740       -2.416739   1.000000   1.000000
     15         -2.415320       -2.415318   1.000000   1.000000
     16         -2.319227       -2.319228   1.000000   1.000000
     17         -2.143731       -2.143731   1.000000   1.000000
     18         -1.976305       -1.976306   1.000000   1.000000
     19         -1.967519       -1.967520   1.000000   1.000000
     20         -1.931784       -1.931784   1.000000   1.000000
     21         -1.823253       -1.823252   1.000000   1.000000
     22         -1.790838       -1.790838   1.000000   1.000000
     23         -1.693242       -1.693243   1.000000   1.000000
     24         -1.691517       -1.691516   1.000000   1.000000
     25         -1.648456       -1.648457   1.000000   1.000000
     26         -1.630246       -1.630246   1.000000   1.000000
     27         -1.513759       -1.513759   1.000000   1.000000
     28         -1.509806       -1.509806   1.000000   1.000000
     29         -1.469456       -1.469456   1.000000   1.000000
     30         -1.463827       -1.463828   1.000000   1.000000
     31         -1.424389       -1.424389   1.000000   1.000000
     32         -1.355640       -1.355642   1.000000   1.000000
     33         -1.352424       -1.352424   1.000000   1.000000
     34         -1.323966       -1.323966   1.000000   1.000000
     35         -1.278549       -1.278552   1.000000   1.000000
     36         -1.263284       -1.263283   1.000000   1.000000
     37         -1.256629       -1.256630   1.000000   1.000000
     38         -1.242023       -1.242024   1.000000   1.000000
     39         -1.212366       -1.212366   1.000000   1.000000
     40         -1.145173       -1.145174   1.000000   1.000000
     41         -1.135906       -1.135906   1.000000   1.000000
     42         -1.133102       -1.133102   1.000000   1.000000
     43         -1.131867       -1.131865   1.000000   1.000000
     44         -1.127162       -1.127162   1.000000   1.000000
     45         -1.126352       -1.126352   1.000000   1.000000
     46         -1.075714       -1.075715   1.000000   1.000000
     47         -1.062863       -1.062865   1.000000   1.000000
     48         -1.042376       -1.042379   1.000000   1.000000
     49         -0.944041       -0.944044   1.000000   1.000000
     50         -0.943047       -0.943049   1.000000   1.000000
     51         -0.932169       -0.932169   1.000000   1.000000
     52         -0.896148       -0.896148   1.000000   1.000000
     53         -0.890850       -0.890855   1.000000   1.000000
     54         -0.883215       -0.883217   1.000000   1.000000
     55         -0.780229       -0.780232   1.000000   1.000000
     56         -0.766196       -0.766198   1.000000   1.000000
     57         -0.719658       -0.719663   1.000000   1.000000
     58         -0.665731       -0.665732   1.000000   1.000000
     59         -0.641770       -0.641770   1.000000   1.000000
     60         -0.610910       -0.610911   1.000000   1.000000
     61         -0.594762       -0.594764   1.000000   1.000000
     62         -0.571864       -0.571865   1.000000   1.000000
     63         -0.419838       -0.419841   1.000000   1.000000
     64         -0.315462       -0.315461   1.000000   1.000000
     65         -0.298144       -0.298146   1.000000   1.000000
     66         -0.274076       -0.274080   1.000000   1.000000
     67         -0.160829       -0.160830   1.000000   1.000000
     68         -0.157328       -0.157336   1.000000   1.000000
     69         -0.144083       -0.144085   1.000000   1.000000
     70         -0.097169       -0.097172   1.000000   1.000000
     71         -0.077323       -0.077324   1.000000   1.000000
     72          0.015103        0.015101   1.000000   1.000000
     73          0.016881        0.016879   1.000000   1.000000
     74          0.022334        0.022335   1.000000   1.000000
     75          0.027180        0.027181   1.000000   1.000000
     76          0.044306        0.044306   1.000000   1.000000
     77          0.053797        0.053793   1.000000   1.000000
     78          0.106794        0.106792   1.000000   1.000000
     79          0.132468        0.132467   1.000000   1.000000
     80          0.134968        0.134967   1.000000   1.000000
     81          0.153067        0.153066   1.000000   1.000000
     82          0.155353        0.155349   1.000000   1.000000
     83          0.177748        0.177746   1.000000   1.000000
     84          0.190112        0.190111   1.000000   1.000000
     85          0.888290        0.888291   1.000000   1.000000
     86          1.686547        1.686547   0.948692   0.948692
     87          1.690237        1.690237   0.941526   0.941526
     88          1.907545        1.907545   0.167233   0.167233
     89          1.908685        1.908682   0.163764   0.163773
     90          2.249408        2.249408  -0.004867  -0.004867
     91          2.283929        2.283928  -0.002515  -0.002515
     92          2.286530        2.286529  -0.002386  -0.002386
     93          2.721626        2.721630  -0.000000  -0.000000
     94          2.732260        2.732263  -0.000000  -0.000000
     95          3.765436        3.765437  -0.000000  -0.000000
     96          4.779457        4.779458  -0.000000  -0.000000
     97          5.326783        5.326784  -0.000000  -0.000000
     98          5.373519        5.373528  -0.000000  -0.000000
     99          5.781428        5.781428  -0.000000  -0.000000
    100          5.787526        5.787526  -0.000000  -0.000000
    101          6.743289        6.743290  -0.000000  -0.000000
    102          6.758383        6.758381  -0.000000  -0.000000
    103          6.855348        6.855348  -0.000000  -0.000000
    104          7.221227        7.221226  -0.000000  -0.000000
    105          7.794383        7.794387   0.000000   0.000000
    106          8.218718        8.218721   0.000000   0.000000
    107          8.263320        8.263317   0.000000   0.000000
    108          8.746011        8.745985   0.000000   0.000000
    109          8.823261        8.823214   0.000000   0.000000
    110          8.988123        8.988114   0.000000   0.000000
    111          9.914896        9.914899   0.000000   0.000000
    112          9.927162        9.927160   0.000000   0.000000
    113          9.997329        9.997333   0.000000   0.000000
    114         10.468727       10.468726   0.000000   0.000000
    115         10.874310       10.874257   0.000000   0.000000
    116         11.284780       11.244038   0.000000   0.000000
