<?xml version="1.0" encoding="ISO-8859-1"?>
<modeling>
 <generator>
  <i name="program" type="string">vasp </i>
  <i name="version" type="string">6.3.2  </i>
  <i name="subversion" type="string">27Jun22 (build Aug 17 2022 15:43:34) complex                          parallel </i>
  <i name="platform" type="string">tv2STDVTST </i>
  <i name="date" type="string">2025 01 17 </i>
  <i name="time" type="string">11:41:27 </i>
 </generator>
 <incar>
  <i type="int" name="ISTART">     0</i>
  <i type="string" name="PREC">Normal</i>
  <i type="int" name="ISPIN">     2</i>
  <i type="int" name="ICHARG">     2</i>
  <i type="int" name="IBRION">     2</i>
  <i name="EDIFF">      0.00020000</i>
  <i name="EDIFFG">     -0.03000000</i>
  <i type="int" name="NSW">   800</i>
  <i type="int" name="ISIF">     2</i>
  <i type="int" name="ISYM">     1</i>
  <i name="ENCUT">    400.00000000</i>
  <i name="POTIM">      0.50000000</i>
  <i type="logical" name="LREAL"> F  </i>
  <i type="int" name="ISMEAR">     1</i>
  <i name="SIGMA">      0.20000000</i>
  <i type="logical" name="LWAVE"> F  </i>
  <i type="logical" name="LCHARG"> F  </i>
  <i type="string" name="GGA">PE</i>
  <i type="int" name="IDIPOL">     3</i>
  <i type="int" name="IVDW">    11</i>
 </incar>
 <primitive_cell>
  <structure name="primitive_cell" >
   <crystal>
    <varray name="basis" >
     <v>       1.81500006      -1.81500006       0.00000000 </v>
     <v>       1.81500006       1.81500006       0.00000000 </v>
     <v>       0.00000000       0.00000000      27.70499992 </v>
    </varray>
    <i name="volume">    182.53301823 </i>
    <varray name="rec_basis" >
     <v>       0.27548208      -0.27548208       0.00000000 </v>
     <v>       0.27548209       0.27548208       0.00000000 </v>
     <v>       0.00000000       0.00000000       0.03609457 </v>
    </varray>
   </crystal>
   <varray name="positions" >
    <v>       0.00000000       0.00000000       0.00000000 </v>
    <v>       0.50000000       0.50000000       0.06551164 </v>
    <v>       0.00000000       0.00000000       0.13102328 </v>
    <v>       0.50000000       0.50000000       0.19653492 </v>
    <v>       0.00000000       0.00000000       0.26204657 </v>
    <v>       0.50000000       0.50000000       0.32755821 </v>
    <v>       0.00000000       0.00000000       0.39306985 </v>
    <v>       0.50000000       0.50000000       0.45858149 </v>
   </varray>
  </structure>
  <varray name="primitive_index" >
   <v type="int" >        1 </v>
   <v type="int" >        3 </v>
   <v type="int" >        5 </v>
   <v type="int" >        7 </v>
   <v type="int" >        9 </v>
   <v type="int" >       11 </v>
   <v type="int" >       13 </v>
   <v type="int" >       15 </v>
  </varray>
 </primitive_cell>
 <kpoints>
  <generation param="Monkhorst-Pack">
   <v type="int" name="divisions">       3        3        1 </v>
   <v name="usershift">      0.00000000       0.00000000       0.00000000 </v>
   <v name="genvec1">      0.33333333       0.00000000       0.00000000 </v>
   <v name="genvec2">      0.00000000       0.33333333       0.00000000 </v>
   <v name="genvec3">      0.00000000       0.00000000       1.00000000 </v>
   <v name="shift">      0.00000000       0.00000000       0.00000000 </v>
  </generation>
  <varray name="kpointlist" >
   <v>       0.00000000       0.00000000       0.00000000 </v>
   <v>       0.33333333       0.00000000       0.00000000 </v>
   <v>       0.33333333       0.33333333       0.00000000 </v>
  </varray>
  <varray name="weights" >
   <v>       0.11111111 </v>
   <v>       0.44444444 </v>
   <v>       0.44444444 </v>
  </varray>
 </kpoints>
 <parameters>
  <separator name="general" >
   <i type="string" name="SYSTEM">unknown system</i>
   <i type="logical" name="LCOMPAT"> F  </i>
  </separator>
  <separator name="electronic" >
   <i type="string" name="PREC">normal</i>
   <i name="ENMAX">    400.00000000</i>
   <i name="ENAUG">    586.98000000</i>
   <i name="EDIFF">      0.00020000</i>
   <i type="int" name="IALGO">    38</i>
   <i type="int" name="IWAVPR">    11</i>
   <i type="int" name="NBANDS">   116</i>
   <i type="int" name="NBANDSLOW">    -1</i>
   <i type="int" name="NBANDSHIGH">    -1</i>
   <i name="NELECT">    176.00000000</i>
   <i type="int" name="TURBO">     0</i>
   <i type="int" name="IRESTART">     0</i>
   <i type="int" name="NREBOOT">     0</i>
   <i type="int" name="NMIN">     0</i>
   <i name="EREF">      0.00000000</i>
   <separator name="electronic smearing" >
    <i type="int" name="ISMEAR">     1</i>
    <i name="SIGMA">      0.20000000</i>
    <i name="KSPACING">      0.50000000</i>
    <i type="logical" name="KGAMMA"> T  </i>
    <i type="logical" name="KBLOWUP"> T  </i>
   </separator>
   <separator name="electronic projectors" >
    <i type="logical" name="LREAL"> F  </i>
    <v name="ROPT">      0.00000000</v>
    <i type="int" name="LMAXPAW">  -100</i>
    <i type="int" name="LMAXMIX">     2</i>
    <i type="logical" name="NLSPLINE"> F  </i>
   </separator>
   <separator name="electronic startup" >
    <i type="int" name="ISTART">     0</i>
    <i type="int" name="ICHARG">     2</i>
    <i type="int" name="INIWAV">     1</i>
   </separator>
   <separator name="electronic spin" >
    <i type="int" name="ISPIN">     2</i>
    <i type="logical" name="LNONCOLLINEAR"> F  </i>
    <v name="MAGMOM">      1.00000000      1.00000000      1.00000000      1.00000000      1.00000000      1.00000000      1.00000000      1.00000000      1.00000000      1.00000000      1.00000000      1.00000000      1.00000000      1.00000000      1.00000000      1.00000000</v>
    <i name="NUPDOWN">     -1.00000000</i>
    <i type="logical" name="LSORBIT"> F  </i>
    <v name="SAXIS">      0.00000000      0.00000000      1.00000000</v>
    <i type="logical" name="LSPIRAL"> F  </i>
    <v name="QSPIRAL">      0.00000000      0.00000000      0.00000000</v>
    <i type="logical" name="LZEROZ"> F  </i>
   </separator>
   <separator name="electronic exchange-correlation" >
    <i type="logical" name="LASPH"> F  </i>
    <i type="logical" name="LMETAGGA"> F  </i>
   </separator>
   <separator name="electronic convergence" >
    <i type="int" name="NELM">    60</i>
    <i type="int" name="NELMDL">    -5</i>
    <i type="int" name="NELMIN">     2</i>
    <i name="ENINI">    400.00000000</i>
    <separator name="electronic convergence detail" >
     <i type="logical" name="LDIAG"> T  </i>
     <i type="logical" name="LSUBROT"> F  </i>
     <i name="WEIMIN">      0.00100000</i>
     <i name="EBREAK">      0.00000043</i>
     <i name="DEPER">      0.30000000</i>
     <i type="int" name="NRMM">     4</i>
     <i name="TIME">      0.40000000</i>
    </separator>
   </separator>
   <separator name="electronic mixer" >
    <i name="AMIX">      0.40000000</i>
    <i name="BMIX">      1.00000000</i>
    <i name="AMIN">      0.10000000</i>
    <i name="AMIX_MAG">      1.60000000</i>
    <i name="BMIX_MAG">      1.00000000</i>
    <separator name="electronic mixer details" >
     <i type="int" name="IMIX">     4</i>
     <i type="logical" name="MIXFIRST"> F  </i>
     <i type="int" name="MAXMIX">   -45</i>
     <i name="WC">    100.00000000</i>
     <i type="int" name="INIMIX">     1</i>
     <i type="int" name="MIXPRE">     1</i>
     <i type="int" name="MREMOVE">     5</i>
    </separator>
   </separator>
   <separator name="electronic dipolcorrection" >
    <i type="logical" name="LDIPOL"> F  </i>
    <i type="logical" name="LMONO"> F  </i>
    <i type="int" name="IDIPOL">     3</i>
    <i name="EPSILON">      1.00000000</i>
    <v name="DIPOL">   -100.00000000   -100.00000000   -100.00000000</v>
    <i name="EFIELD">      0.00000000</i>
   </separator>
  </separator>
  <separator name="grids" >
   <i type="int" name="NGX">    18</i>
   <i type="int" name="NGY">    18</i>
   <i type="int" name="NGZ">   140</i>
   <i type="int" name="NGXF">    36</i>
   <i type="int" name="NGYF">    36</i>
   <i type="int" name="NGZF">   280</i>
   <i type="logical" name="ADDGRID"> F  </i>
  </separator>
  <separator name="ionic" >
   <i type="int" name="NSW">   800</i>
   <i type="int" name="IBRION">     2</i>
   <i type="int" name="MDALGO">     0</i>
   <i type="int" name="ISIF">     2</i>
   <i name="PSTRESS">      0.00000000</i>
   <i name="EDIFFG">     -0.03000000</i>
   <i type="int" name="NFREE">     1</i>
   <i name="POTIM">      0.50000000</i>
   <i name="SMASS">     -3.00000000</i>
   <i name="SCALEE">      1.00000000</i>
  </separator>
  <separator name="ionic md" >
   <i name="TEBEG">      0.00010000</i>
   <i name="TEEND">      0.00010000</i>
   <i type="int" name="NBLOCK">     1</i>
   <i type="int" name="KBLOCK">   800</i>
   <i type="int" name="NPACO">   256</i>
   <i name="APACO">     10.00000000</i>
  </separator>
  <separator name="symmetry" >
   <i type="int" name="ISYM">     1</i>
   <i name="SYMPREC">      0.00001000</i>
  </separator>
  <separator name="dos" >
   <i type="int" name="LORBIT">     0</i>
   <v name="RWIGS">     -1.00000000</v>
   <i type="int" name="NEDOS">   301</i>
   <i name="EMIN">     10.00000000</i>
   <i name="EMAX">    -10.00000000</i>
   <i name="EFERMI">      0.00000000</i>
  </separator>
  <separator name="writing" >
   <i type="int" name="NWRITE">     2</i>
   <i type="logical" name="LWAVE"> F  </i>
   <i type="logical" name="LDOWNSAMPLE"> F  </i>
   <i type="logical" name="LCHARG"> F  </i>
   <i type="logical" name="LPARD"> F  </i>
   <i type="logical" name="LVTOT"> F  </i>
   <i type="logical" name="LVHAR"> F  </i>
   <i type="logical" name="LELF"> F  </i>
   <i type="logical" name="LOPTICS"> F  </i>
   <v name="STM">      0.00000000      0.00000000      0.00000000      0.00000000      0.00000000      0.00000000      0.00000000</v>
  </separator>
  <separator name="performance" >
   <i type="int" name="NPAR">     4</i>
   <i type="int" name="NSIM">     4</i>
   <i type="int" name="NBLK">    -1</i>
   <i type="logical" name="LPLANE"> T  </i>
   <i type="logical" name="LSCALAPACK"> T  </i>
   <i type="logical" name="LSCAAWARE"> F  </i>
   <i type="logical" name="LSCALU"> F  </i>
   <i type="logical" name="LASYNC"> F  </i>
   <i type="logical" name="LORBITALREAL"> F  </i>
  </separator>
  <separator name="miscellaneous" >
   <i type="int" name="IDIOT">     3</i>
   <i type="int" name="PHON_NSTRUCT">    -1</i>
   <i type="logical" name="LMUSIC"> F  </i>
   <v name="POMASS">     63.54600000</v>
   <v name="DARWINR">      0.00000000</v>
   <v name="DARWINV">      1.00000000</v>
   <i type="logical" name="LCORR"> T  </i>
  </separator>
  <i type="logical" name="GGA_COMPAT"> T  </i>
  <i type="logical" name="LBERRY"> F  </i>
  <i type="int" name="ICORELEVEL">     0</i>
  <i type="logical" name="LDAU"> F  </i>
  <i type="int" name="I_CONSTRAINED_M">     0</i>
  <separator name="electronic exchange-correlation" >
   <i type="string" name="GGA">PE</i>
   <i type="int" name="VOSKOWN">     0</i>
   <i type="logical" name="LHFCALC"> F  </i>
   <i type="string" name="PRECFOCK"></i>
   <i type="logical" name="LSYMGRAD"> F  </i>
   <i type="logical" name="LHFONE"> F  </i>
   <i type="logical" name="LRHFCALC"> F  </i>
   <i type="logical" name="LTHOMAS"> F  </i>
   <i type="logical" name="LMODELHF"> F  </i>
   <i type="logical" name="LFOCKACE"> F  </i>
   <i name="ENCUT4O">     -1.00000000</i>
   <i type="int" name="EXXOEP">     0</i>
   <i type="int" name="FOURORBIT">     0</i>
   <i name="AEXX">      0.00000000</i>
   <i name="HFALPHA">      0.00000000</i>
   <i name="MCALPHA">      0.00000000</i>
   <i name="ALDAX">      1.00000000</i>
   <i name="AGGAX">      1.00000000</i>
   <i name="ALDAC">      1.00000000</i>
   <i name="AGGAC">      1.00000000</i>
   <i type="int" name="NKREDX">     1</i>
   <i type="int" name="NKREDY">     1</i>
   <i type="int" name="NKREDZ">     1</i>
   <i type="logical" name="SHIFTRED"> F  </i>
   <i type="logical" name="ODDONLY"> F  </i>
   <i type="logical" name="EVENONLY"> F  </i>
   <i type="int" name="LMAXFOCK">     0</i>
   <i type="int" name="NMAXFOCKAE">     0</i>
   <i type="logical" name="LFOCKAEDFT"> F  </i>
   <i name="HFSCREEN">      0.00000000</i>
   <i name="HFSCREENC">      0.00000000</i>
   <i type="int" name="NBANDSGWLOW">     0</i>
  </separator>
  <separator name="vdW DFT" >
   <i type="logical" name="LUSE_VDW"> F  </i>
   <i name="Zab_VDW">     -0.84910000</i>
   <i name="PARAM1">      0.12340000</i>
   <i name="PARAM2">      1.00000000</i>
   <i name="PARAM3">      0.00000000</i>
  </separator>
  <separator name="model GW" >
   <i type="int" name="MODEL_GW">     0</i>
   <i name="MODEL_EPS0">     13.68997637</i>
   <i name="MODEL_ALPHA">      1.00000000</i>
  </separator>
  <separator name="linear response parameters" >
   <i type="logical" name="LEPSILON"> F  </i>
   <i type="logical" name="LRPA"> F  </i>
   <i type="logical" name="LNABLA"> F  </i>
   <i type="logical" name="LVEL"> F  </i>
   <i name="CSHIFT">      0.10000000</i>
   <i name="OMEGAMAX">     -1.00000000</i>
   <i name="DEG_THRESHOLD">      0.00200000</i>
   <i name="RTIME">     -0.10000000</i>
   <i name="WPLASMAI">      0.00000000</i>
   <v name="DFIELD">      0.00000000      0.00000000      0.00000000</v>
   <v name="WPLASMA">      0.00000000      0.00000000      0.00000000      0.00000000      0.00000000      0.00000000      0.00000000      0.00000000      0.00000000</v>
  </separator>
  <separator name="orbital magnetization" >
   <i type="logical" name="NUCIND"> F  </i>
   <v name="MAGPOS">      0.00000000      0.00000000      0.00000000</v>
   <i type="logical" name="LNICSALL"> T  </i>
   <i type="logical" name="ORBITALMAG"> F  </i>
   <i type="logical" name="LMAGBLOCH"> F  </i>
   <i type="logical" name="LCHIMAG"> F  </i>
   <i type="logical" name="LGAUGE"> T  </i>
   <i type="int" name="MAGATOM">     0</i>
   <v name="MAGDIPOL">      0.00000000      0.00000000      0.00000000</v>
   <v name="AVECCONST">      0.00000000      0.00000000      0.00000000</v>
  </separator>
  <separator name="response functions" >
   <i type="logical" name="LFINITE_TEMPERATURE"> F  </i>
   <i type="logical" name="LADDER"> F  </i>
   <i type="logical" name="LRPAFORCE"> F  </i>
   <i type="logical" name="LFXC"> F  </i>
   <i type="logical" name="LHARTREE"> T  </i>
   <i type="int" name="IBSE">     0</i>
   <v type="int" name="KPOINT">    -1     0     0     0</v>
   <i type="logical" name="LTCTC"> F  </i>
   <i type="logical" name="LTCTE"> F  </i>
   <i type="logical" name="LTETE"> F  </i>
   <i type="logical" name="LTRIPLET"> F  </i>
   <i type="logical" name="LFXCEPS"> F  </i>
   <i type="logical" name="LFXHEG"> F  </i>
   <i type="int" name="NATURALO">     2</i>
   <i type="logical" name="LHOLEGF"> F  </i>
   <i type="logical" name="L2ORDER"> F  </i>
   <i type="logical" name="LDMP1"> F  </i>
   <i type="logical" name="LMP2LT"> F  </i>
   <i type="logical" name="LSMP2LT"> F  </i>
   <i type="logical" name="LGWLF"> F  </i>
   <i name="ENCUTGW">     -2.00000000</i>
   <i name="ENCUTGWSOFT">     -2.00000000</i>
   <i name="ENCUTLF">     -1.00000000</i>
   <i type="logical" name="LESF_SPLINES"> F  </i>
   <i type="int" name="LMAXMP2">    -1</i>
   <i name="SCISSOR">      0.00000000</i>
   <i type="int" name="NOMEGA">     0</i>
   <i type="int" name="NOMEGAR">     0</i>
   <i type="int" name="NBANDSGW">    -1</i>
   <i type="int" name="NBANDSO">    -1</i>
   <i type="int" name="NBANDSV">    -1</i>
   <i type="int" name="NELMGW">     1</i>
   <i type="int" name="NELMHF">     1</i>
   <i type="int" name="DIM">     3</i>
   <i type="int" name="IESPILON">     4</i>
   <i type="int" name="ANTIRES">     0</i>
   <i name="OMEGAMAX">    -30.00000000</i>
   <i name="OMEGAMIN">    -30.00000000</i>
   <i name="OMEGATL">   -200.00000000</i>
   <i type="int" name="OMEGAGRID">     0</i>
   <i name="CSHIFT">     -0.10000000</i>
   <i type="logical" name="LSELFENERGY"> F  </i>
   <i type="logical" name="LSPECTRAL"> F  </i>
   <i type="logical" name="LSPECTRALGW"> F  </i>
   <i type="logical" name="LSINGLES"> F  </i>
   <i type="logical" name="LFERMIGW"> F  </i>
   <i type="logical" name="ODDONLYGW"> F  </i>
   <i type="logical" name="EVENONLYGW"> F  </i>
   <i type="int" name="NKREDLFX">     1</i>
   <i type="int" name="NKREDLFY">     1</i>
   <i type="int" name="NKREDLFZ">     1</i>
   <i type="int" name="MAXMEM">  2800</i>
   <i type="int" name="TELESCOPE">     0</i>
   <i type="int" name="NTAUPAR">    -1</i>
   <i type="int" name="NOMEGAPAR">    -1</i>
   <i name="DAMP_NEWTON">      0.80000001</i>
   <i name="LAMBDA">      1.00000000</i>
  </separator>
  <separator name="External order field" >
   <i name="OFIELD_KAPPA">      0.00000000</i>
   <v name="OFIELD_K">      0.00000000      0.00000000      0.00000000</v>
   <i name="OFIELD_Q6_NEAR">      0.00000000</i>
   <i name="OFIELD_Q6_FAR">      0.00000000</i>
   <i name="OFIELD_A">      0.00000000</i>
  </separator>
  <separator name="optional k-points parameters" >
   <i type="int" name="KPOINTS_OPT_MODE">     1</i>
   <i type="logical" name="LKPOINTS_OPT"> F  </i>
  </separator>
 </parameters>
 <atominfo>
  <atoms>      16 </atoms>
  <types>       1 </types>
  <array name="atoms" >
   <dimension dim="1">ion</dimension>
   <field type="string">element</field>
   <field type="int">atomtype</field>
   <set>
    <rc><c>Cu</c><c>   1</c></rc>
    <rc><c>Cu</c><c>   1</c></rc>
    <rc><c>Cu</c><c>   1</c></rc>
    <rc><c>Cu</c><c>   1</c></rc>
    <rc><c>Cu</c><c>   1</c></rc>
    <rc><c>Cu</c><c>   1</c></rc>
    <rc><c>Cu</c><c>   1</c></rc>
    <rc><c>Cu</c><c>   1</c></rc>
    <rc><c>Cu</c><c>   1</c></rc>
    <rc><c>Cu</c><c>   1</c></rc>
    <rc><c>Cu</c><c>   1</c></rc>
    <rc><c>Cu</c><c>   1</c></rc>
    <rc><c>Cu</c><c>   1</c></rc>
    <rc><c>Cu</c><c>   1</c></rc>
    <rc><c>Cu</c><c>   1</c></rc>
    <rc><c>Cu</c><c>   1</c></rc>
   </set>
  </array>
  <array name="atomtypes" >
   <dimension dim="1">type</dimension>
   <field type="int">atomspertype</field>
   <field type="string">element</field>
   <field>mass</field>
   <field>valence</field>
   <field type="string">pseudopotential</field>
   <set>
    <rc><c>  16</c><c>Cu</c><c>     63.54600000</c><c>     11.00000000</c><c>  PAW_PBE Cu 22Jun2005                  </c></rc>
   </set>
  </array>
 </atominfo>
 <structure name="initialpos" >
  <crystal>
   <varray name="basis" >
    <v>       3.63000011       0.00000000       0.00000000 </v>
    <v>       0.00000000       3.63000011       0.00000000 </v>
    <v>       0.00000000       0.00000000      27.70499992 </v>
   </varray>
   <i name="volume">    365.06603650 </i>
   <varray name="rec_basis" >
    <v>       0.27548208       0.00000000       0.00000000 </v>
    <v>       0.00000000       0.27548208       0.00000000 </v>
    <v>       0.00000000       0.00000000       0.03609457 </v>
   </varray>
  </crystal>
  <varray name="positions" >
   <v>       0.00000000       0.00000000       0.00000000 </v>
   <v>       0.50000000       0.50000000       0.00000000 </v>
   <v>       0.00000000       0.50000000       0.06551164 </v>
   <v>       0.50000000       0.00000000       0.06551164 </v>
   <v>       0.00000000       0.00000000       0.13102328 </v>
   <v>       0.50000000       0.50000000       0.13102328 </v>
   <v>       0.00000000       0.50000000       0.19653492 </v>
   <v>       0.50000000       0.00000000       0.19653492 </v>
   <v>       0.00000000       0.00000000       0.26204657 </v>
   <v>       0.50000000       0.50000000       0.26204657 </v>
   <v>       0.00000000       0.50000000       0.32755821 </v>
   <v>       0.50000000       0.00000000       0.32755821 </v>
   <v>       0.00000000       0.00000000       0.39306985 </v>
   <v>       0.50000000       0.50000000       0.39306985 </v>
   <v>       0.00000000       0.50000000       0.45858149 </v>
   <v>       0.50000000       0.00000000       0.45858149 </v>
  </varray>
  <varray name="selective"  type="logical" >
   <v type="logical" >  F  F  F </v>
   <v type="logical" >  F  F  F </v>
   <v type="logical" >  F  F  F </v>
   <v type="logical" >  F  F  F </v>
   <v type="logical" >  T  T  T </v>
   <v type="logical" >  T  T  T </v>
   <v type="logical" >  T  T  T </v>
   <v type="logical" >  T  T  T </v>
   <v type="logical" >  T  T  T </v>
   <v type="logical" >  T  T  T </v>
   <v type="logical" >  T  T  T </v>
   <v type="logical" >  T  T  T </v>
   <v type="logical" >  T  T  T </v>
   <v type="logical" >  T  T  T </v>
   <v type="logical" >  T  T  T </v>
   <v type="logical" >  T  T  T </v>
  </varray>
  <nose>
   <v>      -3.00000000       0.00000000       0.00010000       0.00010000 </v>
  </nose>
 </structure>
 <calculation>
  <scstep>
   <time name="dav">    0.82    0.83</time>
   <time name="total">    0.86    0.87</time>
   <energy>
    <i name="alphaZ">    512.83866137 </i>
    <i name="ewald">  95579.55324484 </i>
    <i name="hartreedc">-117450.93500450 </i>
    <i name="XCdc">    731.37124990 </i>
    <i name="pawpsdc">  19649.55993678 </i>
    <i name="pawaedc"> -21342.73490440 </i>
    <i name="eentropy">     -0.01290462 </i>
    <i name="bandstr">   1697.68131205 </i>
    <i name="atom">  22255.32224320 </i>
    <i name="e_fr_energy">   1632.64383461 </i>
    <i name="e_wo_entrp">   1632.65673922 </i>
    <i name="e_0_energy">   1632.64813614 </i>
   </energy>
  </scstep>
  <scstep>
   <time name="dav">    0.80    0.80</time>
   <time name="total">    0.80    0.80</time>
   <energy>
    <i name="e_fr_energy">    192.19775951 </i>
    <i name="e_wo_entrp">    192.18158818 </i>
    <i name="e_0_energy">    192.19236907 </i>
   </energy>
  </scstep>
  <scstep>
   <time name="dav">    0.80    0.81</time>
   <time name="total">    0.80    0.81</time>
   <energy>
    <i name="e_fr_energy">    -52.32467873 </i>
    <i name="e_wo_entrp">    -52.36529019 </i>
    <i name="e_0_energy">    -52.33821589 </i>
   </energy>
  </scstep>
  <scstep>
   <time name="dav">    0.87    0.88</time>
   <time name="total">    0.88    0.88</time>
   <energy>
    <i name="e_fr_energy">    -67.31831089 </i>
    <i name="e_wo_entrp">    -67.35792331 </i>
    <i name="e_0_energy">    -67.33151503 </i>
   </energy>
  </scstep>
  <scstep>
   <time name="dav">    0.86    0.87</time>
   <time name="total">    0.99    1.00</time>
   <energy>
    <i name="e_fr_energy">    -67.62691586 </i>
    <i name="e_wo_entrp">    -67.66704370 </i>
    <i name="e_0_energy">    -67.64029180 </i>
   </energy>
  </scstep>
  <scstep>
   <time name="dav">    0.87    0.88</time>
   <time name="total">    1.03    1.04</time>
   <energy>
    <i name="e_fr_energy">    -56.32747963 </i>
    <i name="e_wo_entrp">    -56.29209226 </i>
    <i name="e_0_energy">    -56.31568384 </i>
   </energy>
  </scstep>
  <scstep>
   <time name="dav">    0.86    0.87</time>
   <time name="total">    1.02    1.03</time>
   <energy>
    <i name="e_fr_energy">    -48.98701224 </i>
    <i name="e_wo_entrp">    -48.99269034 </i>
    <i name="e_0_energy">    -48.98890494 </i>
   </energy>
  </scstep>
  <scstep>
   <time name="dav">    0.90    0.91</time>
   <time name="total">    1.05    1.06</time>
   <energy>
    <i name="e_fr_energy">    -48.32086611 </i>
    <i name="e_wo_entrp">    -48.32481865 </i>
    <i name="e_0_energy">    -48.32218363 </i>
   </energy>
  </scstep>
  <scstep>
   <time name="dav">    1.01    1.02</time>
   <time name="total">    1.17    1.18</time>
   <energy>
    <i name="e_fr_energy">    -48.01702659 </i>
    <i name="e_wo_entrp">    -47.99178174 </i>
    <i name="e_0_energy">    -48.00861164 </i>
   </energy>
  </scstep>
  <scstep>
   <time name="dav">    1.20    1.21</time>
   <time name="total">    1.35    1.36</time>
   <energy>
    <i name="e_fr_energy">    -47.67238111 </i>
    <i name="e_wo_entrp">    -47.68308656 </i>
    <i name="e_0_energy">    -47.67594960 </i>
   </energy>
  </scstep>
  <scstep>
   <time name="dav">    1.03    1.04</time>
   <time name="total">    1.19    1.20</time>
   <energy>
    <i name="e_fr_energy">    -47.86253391 </i>
    <i name="e_wo_entrp">    -47.84120002 </i>
    <i name="e_0_energy">    -47.85542261 </i>
   </energy>
  </scstep>
  <scstep>
   <time name="dav">    1.05    1.06</time>
   <time name="total">    1.20    1.21</time>
   <energy>
    <i name="e_fr_energy">    -49.37029536 </i>
    <i name="e_wo_entrp">    -49.37205451 </i>
    <i name="e_0_energy">    -49.37088175 </i>
   </energy>
  </scstep>
  <scstep>
   <time name="dav">    1.19    1.20</time>
   <time name="total">    1.34    1.35</time>
   <energy>
    <i name="e_fr_energy">    -47.65652837 </i>
    <i name="e_wo_entrp">    -47.66464309 </i>
    <i name="e_0_energy">    -47.65923328 </i>
   </energy>
  </scstep>
  <scstep>
   <time name="dav">    1.09    1.10</time>
   <time name="total">    1.24    1.25</time>
   <energy>
    <i name="e_fr_energy">    -49.71383909 </i>
    <i name="e_wo_entrp">    -49.71028047 </i>
    <i name="e_0_energy">    -49.71265288 </i>
   </energy>
  </scstep>
  <scstep>
   <time name="dav">    0.98    0.99</time>
   <time name="total">    1.14    1.15</time>
   <energy>
    <i name="e_fr_energy">    -51.77072975 </i>
    <i name="e_wo_entrp">    -51.72739581 </i>
    <i name="e_0_energy">    -51.75628510 </i>
   </energy>
  </scstep>
  <scstep>
   <time name="dav">    0.97    0.98</time>
   <time name="total">    1.12    1.13</time>
   <energy>
    <i name="e_fr_energy">    -53.03813011 </i>
    <i name="e_wo_entrp">    -52.98371520 </i>
    <i name="e_0_energy">    -53.01999181 </i>
   </energy>
  </scstep>
  <scstep>
   <time name="dav">    0.94    0.94</time>
   <time name="total">    1.09    1.09</time>
   <energy>
    <i name="e_fr_energy">    -53.93290186 </i>
    <i name="e_wo_entrp">    -53.88964014 </i>
    <i name="e_0_energy">    -53.91848129 </i>
   </energy>
  </scstep>
  <scstep>
   <time name="dav">    0.92    0.93</time>
   <time name="total">    1.07    1.08</time>
   <energy>
    <i name="e_fr_energy">    -54.36760248 </i>
    <i name="e_wo_entrp">    -54.33158911 </i>
    <i name="e_0_energy">    -54.35559803 </i>
   </energy>
  </scstep>
  <scstep>
   <time name="dav">    0.88    0.89</time>
   <time name="total">    1.03    1.04</time>
   <energy>
    <i name="e_fr_energy">    -54.84006349 </i>
    <i name="e_wo_entrp">    -54.81280964 </i>
    <i name="e_0_energy">    -54.83097888 </i>
   </energy>
  </scstep>
  <scstep>
   <time name="dav">    0.93    0.93</time>
   <time name="total">    1.08    1.09</time>
   <energy>
    <i name="e_fr_energy">    -55.27435489 </i>
    <i name="e_wo_entrp">    -55.25310542 </i>
    <i name="e_0_energy">    -55.26727174 </i>
   </energy>
  </scstep>
  <scstep>
   <time name="dav">    1.06    1.06</time>
   <time name="total">    1.21    1.22</time>
   <energy>
    <i name="e_fr_energy">    -55.62261233 </i>
    <i name="e_wo_entrp">    -55.60588151 </i>
    <i name="e_0_energy">    -55.61703539 </i>
   </energy>
  </scstep>
  <scstep>
   <time name="dav">    0.94    0.95</time>
   <time name="total">    1.09    1.10</time>
   <energy>
    <i name="e_fr_energy">    -55.85184417 </i>
    <i name="e_wo_entrp">    -55.83378962 </i>
    <i name="e_0_energy">    -55.84582599 </i>
   </energy>
  </scstep>
  <scstep>
   <time name="dav">    0.96    0.97</time>
   <time name="total">    1.11    1.12</time>
   <energy>
    <i name="e_fr_energy">    -56.02281720 </i>
    <i name="e_wo_entrp">    -56.00320380 </i>
    <i name="e_0_energy">    -56.01627940 </i>
   </energy>
  </scstep>
  <scstep>
   <time name="dav">    0.99    1.00</time>
   <time name="total">    1.14    1.14</time>
   <energy>
    <i name="e_fr_energy">    -56.18068978 </i>
    <i name="e_wo_entrp">    -56.16346278 </i>
    <i name="e_0_energy">    -56.17494745 </i>
   </energy>
  </scstep>
  <scstep>
   <time name="dav">    1.01    1.02</time>
   <time name="total">    1.16    1.17</time>
   <energy>
    <i name="e_fr_energy">    -56.30664403 </i>
    <i name="e_wo_entrp">    -56.28670708 </i>
    <i name="e_0_energy">    -56.29999838 </i>
   </energy>
  </scstep>
  <scstep>
   <time name="dav">    0.82    0.83</time>
   <time name="total">    0.97    0.98</time>
   <energy>
    <i name="e_fr_energy">    -56.37691010 </i>
    <i name="e_wo_entrp">    -56.35840672 </i>
    <i name="e_0_energy">    -56.37074231 </i>
   </energy>
  </scstep>
  <scstep>
   <time name="dav">    0.81    0.82</time>
   <time name="total">    0.96    0.97</time>
   <energy>
    <i name="e_fr_energy">    -56.42097287 </i>
    <i name="e_wo_entrp">    -56.40141821 </i>
    <i name="e_0_energy">    -56.41445465 </i>
   </energy>
  </scstep>
  <scstep>
   <time name="dav">    0.83    0.84</time>
   <time name="total">    0.99    0.99</time>
   <energy>
    <i name="e_fr_energy">    -56.45436660 </i>
    <i name="e_wo_entrp">    -56.43532525 </i>
    <i name="e_0_energy">    -56.44801948 </i>
   </energy>
  </scstep>
  <scstep>
   <time name="dav">    0.64    0.65</time>
   <time name="total">    0.80    0.80</time>
   <energy>
    <i name="e_fr_energy">    -56.46210234 </i>
    <i name="e_wo_entrp">    -56.44329750 </i>
    <i name="e_0_energy">    -56.45583406 </i>
   </energy>
  </scstep>
  <scstep>
   <time name="dav">    0.62    0.62</time>
   <time name="total">    0.77    0.77</time>
   <energy>
    <i name="e_fr_energy">    -56.46450708 </i>
    <i name="e_wo_entrp">    -56.44565079 </i>
    <i name="e_0_energy">    -56.45822165 </i>
   </energy>
  </scstep>
  <scstep>
   <time name="dav">    0.62    0.63</time>
   <time name="total">    0.77    0.78</time>
   <energy>
    <i name="e_fr_energy">    -56.46493959 </i>
    <i name="e_wo_entrp">    -56.44607212 </i>
    <i name="e_0_energy">    -56.45865044 </i>
   </energy>
  </scstep>
  <scstep>
   <time name="dav">    0.61    0.61</time>
   <time name="total">    0.64    0.65</time>
   <energy>
    <i name="alphaZ">    512.83866137 </i>
    <i name="ewald">  95579.55324484 </i>
    <i name="hartreedc">-117206.21795050 </i>
    <i name="XCdc">    712.92282208 </i>
    <i name="pawpsdc">  20879.60180317 </i>
    <i name="pawaedc"> -22602.68519208 </i>
    <i name="eentropy">     -0.01895227 </i>
    <i name="bandstr">   -187.78162764 </i>
    <i name="atom">  22255.32224320 </i>
    <i name="e_fr_energy">    -56.46494784 </i>
    <i name="e_wo_entrp">    -56.44599557 </i>
    <i name="e_0_energy">    -56.45863042 </i>
   </energy>
  </scstep>
  <dipole>
   <v name="dipole">      0.00000000       0.00000000       0.01266480 </v>
   <i name="Tr[quadrupol]">   -577.95076027 </i>
   <i name="Echarged">      0.00000000 </i>
   <i name="Edipol_quadrupol">      0.00000000 </i>
   <i name="Eion">      0.00000000 </i>
  </dipole>
  <structure>
   <crystal>
    <varray name="basis" >
     <v>       3.63000011       0.00000000       0.00000000 </v>
     <v>       0.00000000       3.63000011       0.00000000 </v>
     <v>       0.00000000       0.00000000      27.70499992 </v>
    </varray>
    <i name="volume">    365.06603650 </i>
    <varray name="rec_basis" >
     <v>       0.27548208       0.00000000       0.00000000 </v>
     <v>       0.00000000       0.27548208       0.00000000 </v>
     <v>       0.00000000       0.00000000       0.03609457 </v>
    </varray>
   </crystal>
   <varray name="positions" >
    <v>       0.00000000       0.00000000       0.00000000 </v>
    <v>       0.50000000       0.50000000       0.00000000 </v>
    <v>       0.00000000       0.50000000       0.06551164 </v>
    <v>       0.50000000       0.00000000       0.06551164 </v>
    <v>       0.00000000       0.00000000       0.13102328 </v>
    <v>       0.50000000       0.50000000       0.13102328 </v>
    <v>       0.00000000       0.50000000       0.19653492 </v>
    <v>       0.50000000       0.00000000       0.19653492 </v>
    <v>       0.00000000       0.00000000       0.26204657 </v>
    <v>       0.50000000       0.50000000       0.26204657 </v>
    <v>       0.00000000       0.50000000       0.32755821 </v>
    <v>       0.50000000       0.00000000       0.32755821 </v>
    <v>       0.00000000       0.00000000       0.39306985 </v>
    <v>       0.50000000       0.50000000       0.39306985 </v>
    <v>       0.00000000       0.50000000       0.45858149 </v>
    <v>       0.50000000       0.00000000       0.45858149 </v>
   </varray>
  </structure>
  <varray name="forces" >
   <v>       0.00000000       0.00000000       0.32276168 </v>
   <v>       0.00000000      -0.00000000       0.32276168 </v>
   <v>      -0.00000000      -0.00000000      -0.01880486 </v>
   <v>      -0.00000000       0.00000000      -0.01880486 </v>
   <v>       0.00000000      -0.00000000       0.02746795 </v>
   <v>       0.00000000      -0.00000000       0.02746795 </v>
   <v>       0.00000000      -0.00000000       0.10109458 </v>
   <v>       0.00000000      -0.00000000       0.10109458 </v>
   <v>       0.00000000      -0.00000000      -0.10633329 </v>
   <v>      -0.00000000       0.00000000      -0.10633329 </v>
   <v>       0.00000000       0.00000000      -0.01085166 </v>
   <v>       0.00000000       0.00000000      -0.01085166 </v>
   <v>      -0.00000000       0.00000000       0.00753442 </v>
   <v>       0.00000000       0.00000000       0.00753442 </v>
   <v>      -0.00000000      -0.00000000      -0.32286881 </v>
   <v>      -0.00000000       0.00000000      -0.32286881 </v>
  </varray>
  <varray name="stress" >
   <v>     -37.81063250       0.00000000       0.00000000 </v>
   <v>       0.00000000     -37.81063250       0.00000000 </v>
   <v>      -0.00000000       0.00000000     -42.27895847 </v>
  </varray>
  <energy>
   <i name="e_fr_energy">    -62.97929791 </i>
   <i name="e_wo_entrp">    -62.96034564 </i>
   <i name="e_0_energy">    -62.97298049 </i>
  </energy>
  <time name="totalsc">   34.47   34.83</time>
 </calculation>
 <calculation>
  <scstep>
   <time name="dav">    0.84    0.85</time>
   <time name="total">    0.99    1.00</time>
   <energy>
    <i name="alphaZ">    512.83866137 </i>
    <i name="ewald">  95771.90852076 </i>
    <i name="hartreedc">-117397.80111661 </i>
    <i name="XCdc">    712.97272235 </i>
    <i name="pawpsdc">  20879.72907813 </i>
    <i name="pawaedc"> -22602.82085092 </i>
    <i name="eentropy">     -0.01823913 </i>
    <i name="bandstr">   -188.59667593 </i>
    <i name="atom">  22255.32224320 </i>
    <i name="e_fr_energy">    -56.46565680 </i>
    <i name="e_wo_entrp">    -56.44741767 </i>
    <i name="e_0_energy">    -56.45957709 </i>
   </energy>
  </scstep>
  <scstep>
   <time name="dav">    1.12    1.12</time>
   <time name="total">    1.26    1.27</time>
   <energy>
    <i name="e_fr_energy">    -56.47329520 </i>
    <i name="e_wo_entrp">    -56.45313280 </i>
    <i name="e_0_energy">    -56.46657440 </i>
   </energy>
  </scstep>
  <scstep>
   <time name="dav">    0.94    0.94</time>
   <time name="total">    1.09    1.10</time>
   <energy>
    <i name="e_fr_energy">    -56.47308301 </i>
    <i name="e_wo_entrp">    -56.45453103 </i>
    <i name="e_0_energy">    -56.46689902 </i>
   </energy>
  </scstep>
  <scstep>
   <time name="dav">    0.86    0.87</time>
   <time name="total">    1.01    1.02</time>
   <energy>
    <i name="e_fr_energy">    -56.47132211 </i>
    <i name="e_wo_entrp">    -56.45443690 </i>
    <i name="e_0_energy">    -56.46569371 </i>
   </energy>
  </scstep>
  <scstep>
   <time name="dav">    0.81    0.82</time>
   <time name="total">    0.85    0.85</time>
   <energy>
    <i name="alphaZ">    512.83866137 </i>
    <i name="ewald">  95771.90852076 </i>
    <i name="hartreedc">-117397.43404879 </i>
    <i name="XCdc">    712.95199919 </i>
    <i name="pawpsdc">  20882.76300718 </i>
    <i name="pawaedc"> -22605.78693693 </i>
    <i name="eentropy">     -0.01959718 </i>
    <i name="bandstr">   -189.01498923 </i>
    <i name="atom">  22255.32224320 </i>
    <i name="e_fr_energy">    -56.47114043 </i>
    <i name="e_wo_entrp">    -56.45154325 </i>
    <i name="e_0_energy">    -56.46460804 </i>
   </energy>
  </scstep>
  <dipole>
   <v name="dipole">      0.00000000       0.00000000       0.00052242 </v>
   <i name="Tr[quadrupol]">   -577.93234476 </i>
   <i name="Echarged">      0.00000000 </i>
   <i name="Edipol_quadrupol">      0.00000000 </i>
   <i name="Eion">      0.00000000 </i>
  </dipole>
  <structure>
   <crystal>
    <varray name="basis" >
     <v>       3.63000011       0.00000000       0.00000000 </v>
     <v>       0.00000000       3.63000011       0.00000000 </v>
     <v>       0.00000000       0.00000000      27.70499992 </v>
    </varray>
    <i name="volume">    365.06603650 </i>
    <varray name="rec_basis" >
     <v>       0.27548208       0.00000000       0.00000000 </v>
     <v>       0.00000000       0.27548208       0.00000000 </v>
     <v>       0.00000000       0.00000000       0.03609457 </v>
    </varray>
   </crystal>
   <varray name="positions" >
    <v>       0.00000000       0.00000000       0.00000000 </v>
    <v>       0.50000000       0.50000000       0.00000000 </v>
    <v>       0.00000000       0.50000000       0.06551164 </v>
    <v>       0.50000000       0.00000000       0.06551164 </v>
    <v>       0.00000000      -0.00000000       0.13107111 </v>
    <v>       0.50000000       0.50000000       0.13107111 </v>
    <v>       0.00000000       0.50000000       0.19671096 </v>
    <v>       0.50000000      -0.00000000       0.19671096 </v>
    <v>       0.00000000      -0.00000000       0.26186141 </v>
    <v>       0.50000000       0.50000000       0.26186141 </v>
    <v>       0.00000000       0.50000000       0.32753931 </v>
    <v>       0.50000000       0.00000000       0.32753931 </v>
    <v>      -0.00000000       0.00000000       0.39308297 </v>
    <v>       0.50000000       0.50000000       0.39308297 </v>
    <v>      -0.00000000       0.50000000       0.45801928 </v>
    <v>       0.50000000       0.00000000       0.45801928 </v>
   </varray>
  </structure>
  <varray name="forces" >
   <v>       0.00000000      -0.00000000       0.31804331 </v>
   <v>      -0.00000000       0.00000000       0.31804331 </v>
   <v>       0.00000000      -0.00000000      -0.01056810 </v>
   <v>       0.00000000       0.00000000      -0.01056810 </v>
   <v>      -0.00000000      -0.00000000       0.02988554 </v>
   <v>      -0.00000000      -0.00000000       0.02988554 </v>
   <v>       0.00000000       0.00000000       0.03876212 </v>
   <v>       0.00000000      -0.00000000       0.03876212 </v>
   <v>       0.00000000       0.00000000      -0.05400208 </v>
   <v>       0.00000000      -0.00000000      -0.05400208 </v>
   <v>       0.00000000       0.00000000      -0.02332265 </v>
   <v>       0.00000000      -0.00000000      -0.02332265 </v>
   <v>       0.00000000       0.00000000      -0.04731637 </v>
   <v>      -0.00000000       0.00000000      -0.04731637 </v>
   <v>       0.00000000      -0.00000000      -0.25148178 </v>
   <v>       0.00000000       0.00000000      -0.25148178 </v>
  </varray>
  <varray name="stress" >
   <v>     -31.99688496       0.00000000       0.00000000 </v>
   <v>       0.00000000     -31.99688496       0.00000000 </v>
   <v>       0.00000000      -0.00000000     -35.86051646 </v>
  </varray>
  <energy>
   <i name="e_fr_energy">    -62.99039109 </i>
   <i name="e_wo_entrp">    -62.97079391 </i>
   <i name="e_0_energy">    -62.98385870 </i>
  </energy>
  <time name="totalsc">    6.63    6.76</time>
 </calculation>
 <calculation>
  <scstep>
   <time name="dav">    0.83    0.84</time>
   <time name="total">    0.98    0.99</time>
   <energy>
    <i name="alphaZ">    512.83866137 </i>
    <i name="ewald">  96275.24087530 </i>
    <i name="hartreedc">-117899.77424431 </i>
    <i name="XCdc">    713.10012605 </i>
    <i name="pawpsdc">  20883.18490035 </i>
    <i name="pawaedc"> -22606.25861976 </i>
    <i name="eentropy">     -0.01666557 </i>
    <i name="bandstr">   -190.07048366 </i>
    <i name="atom">  22255.32224320 </i>
    <i name="e_fr_energy">    -56.43320705 </i>
    <i name="e_wo_entrp">    -56.41654148 </i>
    <i name="e_0_energy">    -56.42765186 </i>
   </energy>
  </scstep>
  <scstep>
   <time name="dav">    1.13    1.14</time>
   <time name="total">    1.28    1.30</time>
   <energy>
    <i name="e_fr_energy">    -56.48833993 </i>
    <i name="e_wo_entrp">    -56.46675175 </i>
    <i name="e_0_energy">    -56.48114387 </i>
   </energy>
  </scstep>
  <scstep>
   <time name="dav">    0.99    1.00</time>
   <time name="total">    1.15    1.15</time>
   <energy>
    <i name="e_fr_energy">    -56.49339037 </i>
    <i name="e_wo_entrp">    -56.48146491 </i>
    <i name="e_0_energy">    -56.48941522 </i>
   </energy>
  </scstep>
  <scstep>
   <time name="dav">    0.92    0.92</time>
   <time name="total">    1.06    1.07</time>
   <energy>
    <i name="e_fr_energy">    -56.47694216 </i>
    <i name="e_wo_entrp">    -56.46456174 </i>
    <i name="e_0_energy">    -56.47281535 </i>
   </energy>
  </scstep>
  <scstep>
   <time name="dav">    1.04    1.05</time>
   <time name="total">    1.19    1.20</time>
   <energy>
    <i name="e_fr_energy">    -56.47505331 </i>
    <i name="e_wo_entrp">    -56.45458191 </i>
    <i name="e_0_energy">    -56.46822951 </i>
   </energy>
  </scstep>
  <scstep>
   <time name="dav">    0.90    0.91</time>
   <time name="total">    1.05    1.06</time>
   <energy>
    <i name="e_fr_energy">    -56.47458468 </i>
    <i name="e_wo_entrp">    -56.45690554 </i>
    <i name="e_0_energy">    -56.46869163 </i>
   </energy>
  </scstep>
  <scstep>
   <time name="dav">    0.95    0.96</time>
   <time name="total">    1.10    1.11</time>
   <energy>
    <i name="e_fr_energy">    -56.47380512 </i>
    <i name="e_wo_entrp">    -56.45573127 </i>
    <i name="e_0_energy">    -56.46778050 </i>
   </energy>
  </scstep>
  <scstep>
   <time name="dav">    0.91    0.92</time>
   <time name="total">    1.06    1.07</time>
   <energy>
    <i name="e_fr_energy">    -56.47376311 </i>
    <i name="e_wo_entrp">    -56.45530854 </i>
    <i name="e_0_energy">    -56.46761159 </i>
   </energy>
  </scstep>
  <scstep>
   <time name="dav">    0.71    0.72</time>
   <time name="total">    0.86    0.87</time>
   <energy>
    <i name="e_fr_energy">    -56.47353298 </i>
    <i name="e_wo_entrp">    -56.45484900 </i>
    <i name="e_0_energy">    -56.46730499 </i>
   </energy>
  </scstep>
  <scstep>
   <time name="dav">    0.60    0.60</time>
   <time name="total">    0.63    0.64</time>
   <energy>
    <i name="alphaZ">    512.83866137 </i>
    <i name="ewald">  96275.24087530 </i>
    <i name="hartreedc">-117897.75481048 </i>
    <i name="XCdc">    713.04346140 </i>
    <i name="pawpsdc">  20901.72514793 </i>
    <i name="pawaedc"> -22625.23835284 </i>
    <i name="eentropy">     -0.01836400 </i>
    <i name="bandstr">   -191.63237745 </i>
    <i name="atom">  22255.32224320 </i>
    <i name="e_fr_energy">    -56.47351559 </i>
    <i name="e_wo_entrp">    -56.45515158 </i>
    <i name="e_0_energy">    -56.46739425 </i>
   </energy>
  </scstep>
  <dipole>
   <v name="dipole">      0.00000000       0.00000000      -0.00424465 </v>
   <i name="Tr[quadrupol]">   -577.87516323 </i>
   <i name="Echarged">      0.00000000 </i>
   <i name="Edipol_quadrupol">      0.00000000 </i>
   <i name="Eion">      0.00000000 </i>
  </dipole>
  <structure>
   <crystal>
    <varray name="basis" >
     <v>       3.63000011       0.00000000       0.00000000 </v>
     <v>       0.00000000       3.63000011       0.00000000 </v>
     <v>       0.00000000       0.00000000      27.70499992 </v>
    </varray>
    <i name="volume">    365.06603650 </i>
    <varray name="rec_basis" >
     <v>       0.27548208       0.00000000       0.00000000 </v>
     <v>       0.00000000       0.27548208       0.00000000 </v>
     <v>       0.00000000       0.00000000       0.03609457 </v>
    </varray>
   </crystal>
   <varray name="positions" >
    <v>       0.00000000       0.00000000       0.00000000 </v>
    <v>       0.50000000       0.50000000       0.00000000 </v>
    <v>       0.00000000       0.50000000       0.06551164 </v>
    <v>       0.50000000       0.00000000       0.06551164 </v>
    <v>       0.00000000      -0.00000000       0.13119581 </v>
    <v>       0.50000000       0.50000000       0.13119581 </v>
    <v>       0.00000000       0.50000000       0.19716989 </v>
    <v>       0.50000000      -0.00000000       0.19716989 </v>
    <v>       0.00000000      -0.00000000       0.26137870 </v>
    <v>       0.50000000       0.50000000       0.26137870 </v>
    <v>       0.00000000       0.50000000       0.32749005 </v>
    <v>       0.50000000       0.00000000       0.32749005 </v>
    <v>      -0.00000000       0.00000000       0.39311717 </v>
    <v>       0.50000000       0.50000000       0.39311717 </v>
    <v>      -0.00000000       0.50000000       0.45655360 </v>
    <v>       0.50000000       0.00000000       0.45655360 </v>
   </varray>
  </structure>
  <varray name="forces" >
   <v>       0.00000000      -0.00000000       0.31115172 </v>
   <v>       0.00000000      -0.00000000       0.31115172 </v>
   <v>       0.00000000       0.00000000       0.00251171 </v>
   <v>       0.00000000      -0.00000000       0.00251171 </v>
   <v>       0.00000000      -0.00000000       0.05049649 </v>
   <v>       0.00000000       0.00000000       0.05049649 </v>
   <v>       0.00000000      -0.00000000      -0.07266888 </v>
   <v>      -0.00000000       0.00000000      -0.07266888 </v>
   <v>      -0.00000000      -0.00000000       0.06833738 </v>
   <v>      -0.00000000       0.00000000       0.06833738 </v>
   <v>       0.00000000       0.00000000      -0.05906036 </v>
   <v>      -0.00000000      -0.00000000      -0.05906036 </v>
   <v>       0.00000000      -0.00000000      -0.19780471 </v>
   <v>       0.00000000      -0.00000000      -0.19780471 </v>
   <v>       0.00000000       0.00000000      -0.10296335 </v>
   <v>       0.00000000      -0.00000000      -0.10296335 </v>
  </varray>
  <varray name="stress" >
   <v>     -36.46496590       0.00000000       0.00000000 </v>
   <v>       0.00000000     -36.46496590      -0.00000000 </v>
   <v>       0.00000000       0.00000000     -38.28319210 </v>
  </varray>
  <energy>
   <i name="e_fr_energy">    -63.00547422 </i>
   <i name="e_wo_entrp">    -62.98711022 </i>
   <i name="e_0_energy">    -62.99935289 </i>
  </energy>
  <time name="totalsc">   11.79   11.94</time>
 </calculation>
 <calculation>
  <scstep>
   <time name="dav">    0.84    0.85</time>
   <time name="total">    0.99    1.00</time>
   <energy>
    <i name="alphaZ">    512.83866137 </i>
    <i name="ewald">  96408.93565980 </i>
    <i name="hartreedc">-118031.11259473 </i>
    <i name="XCdc">    713.08057688 </i>
    <i name="pawpsdc">  20901.67616488 </i>
    <i name="pawaedc"> -22625.17899853 </i>
    <i name="eentropy">     -0.01786196 </i>
    <i name="bandstr">   -192.01194699 </i>
    <i name="atom">  22255.32224320 </i>
    <i name="e_fr_energy">    -56.46809609 </i>
    <i name="e_wo_entrp">    -56.45023413 </i>
    <i name="e_0_energy">    -56.46214210 </i>
   </energy>
  </scstep>
  <scstep>
   <time name="dav">    1.17    1.18</time>
   <time name="total">    1.32    1.33</time>
   <energy>
    <i name="e_fr_energy">    -56.47266441 </i>
    <i name="e_wo_entrp">    -56.45318914 </i>
    <i name="e_0_energy">    -56.46617265 </i>
   </energy>
  </scstep>
  <scstep>
   <time name="dav">    1.00    1.01</time>
   <time name="total">    1.15    1.16</time>
   <energy>
    <i name="e_fr_energy">    -56.47126428 </i>
    <i name="e_wo_entrp">    -56.45230471 </i>
    <i name="e_0_energy">    -56.46494443 </i>
   </energy>
  </scstep>
  <scstep>
   <time name="dav">    0.82    0.83</time>
   <time name="total">    0.97    0.98</time>
   <energy>
    <i name="e_fr_energy">    -56.47076945 </i>
    <i name="e_wo_entrp">    -56.45404971 </i>
    <i name="e_0_energy">    -56.46519621 </i>
   </energy>
  </scstep>
  <scstep>
   <time name="dav">    0.73    0.74</time>
   <time name="total">    0.76    0.77</time>
   <energy>
    <i name="alphaZ">    512.83866137 </i>
    <i name="ewald">  96408.93565980 </i>
    <i name="hartreedc">-118030.91058281 </i>
    <i name="XCdc">    713.06804169 </i>
    <i name="pawpsdc">  20904.15973825 </i>
    <i name="pawaedc"> -22627.63580072 </i>
    <i name="eentropy">     -0.01890963 </i>
    <i name="bandstr">   -192.22972793 </i>
    <i name="atom">  22255.32224320 </i>
    <i name="e_fr_energy">    -56.47067677 </i>
    <i name="e_wo_entrp">    -56.45176715 </i>
    <i name="e_0_energy">    -56.46437356 </i>
   </energy>
  </scstep>
  <dipole>
   <v name="dipole">      0.00000000       0.00000000      -0.00426091 </v>
   <i name="Tr[quadrupol]">   -577.86932721 </i>
   <i name="Echarged">      0.00000000 </i>
   <i name="Edipol_quadrupol">      0.00000000 </i>
   <i name="Eion">      0.00000000 </i>
  </dipole>
  <structure>
   <crystal>
    <varray name="basis" >
     <v>       3.63000011       0.00000000       0.00000000 </v>
     <v>       0.00000000       3.63000011       0.00000000 </v>
     <v>       0.00000000       0.00000000      27.70499992 </v>
    </varray>
    <i name="volume">    365.06603650 </i>
    <varray name="rec_basis" >
     <v>       0.27548208       0.00000000       0.00000000 </v>
     <v>       0.00000000       0.27548208       0.00000000 </v>
     <v>       0.00000000       0.00000000       0.03609457 </v>
    </varray>
   </crystal>
   <varray name="positions" >
    <v>       0.00000000       0.00000000       0.00000000 </v>
    <v>       0.50000000       0.50000000       0.00000000 </v>
    <v>       0.00000000       0.50000000       0.06551164 </v>
    <v>       0.50000000       0.00000000       0.06551164 </v>
    <v>       0.00000000      -0.00000000       0.13122882 </v>
    <v>       0.50000000       0.50000000       0.13122882 </v>
    <v>       0.00000000       0.50000000       0.19729138 </v>
    <v>       0.50000000      -0.00000000       0.19729138 </v>
    <v>       0.00000000      -0.00000000       0.26125091 </v>
    <v>       0.50000000       0.50000000       0.26125091 </v>
    <v>       0.00000000       0.50000000       0.32747701 </v>
    <v>       0.50000000       0.00000000       0.32747701 </v>
    <v>      -0.00000000       0.00000000       0.39312623 </v>
    <v>       0.50000000       0.50000000       0.39312623 </v>
    <v>      -0.00000000       0.50000000       0.45616558 </v>
    <v>       0.50000000       0.00000000       0.45616558 </v>
   </varray>
  </structure>
  <varray name="forces" >
   <v>      -0.00000000      -0.00000000       0.30763946 </v>
   <v>      -0.00000000      -0.00000000       0.30763946 </v>
   <v>       0.00000000       0.00000000       0.00611420 </v>
   <v>       0.00000000       0.00000000       0.00611420 </v>
   <v>       0.00000000       0.00000000       0.05105560 </v>
   <v>       0.00000000      -0.00000000       0.05105560 </v>
   <v>       0.00000000       0.00000000      -0.11505828 </v>
   <v>       0.00000000      -0.00000000      -0.11505828 </v>
   <v>       0.00000000      -0.00000000       0.10809454 </v>
   <v>       0.00000000       0.00000000       0.10809454 </v>
   <v>      -0.00000000      -0.00000000      -0.06872822 </v>
   <v>      -0.00000000      -0.00000000      -0.06872822 </v>
   <v>       0.00000000      -0.00000000      -0.24514523 </v>
   <v>      -0.00000000      -0.00000000      -0.24514523 </v>
   <v>       0.00000000       0.00000000      -0.04397206 </v>
   <v>       0.00000000       0.00000000      -0.04397206 </v>
  </varray>
  <varray name="stress" >
   <v>     -32.52346405       0.00000000       0.00000000 </v>
   <v>       0.00000000     -32.52346405       0.00000000 </v>
   <v>       0.00000000       0.00000000     -34.13979353 </v>
  </varray>
  <energy>
   <i name="e_fr_energy">    -63.00601107 </i>
   <i name="e_wo_entrp">    -62.98710144 </i>
   <i name="e_0_energy">    -62.99970786 </i>
  </energy>
  <time name="totalsc">    6.62    6.81</time>
 </calculation>
 <calculation>
  <scstep>
   <time name="dav">    0.85    0.85</time>
   <time name="total">    0.99    1.00</time>
   <energy>
    <i name="alphaZ">    512.83866137 </i>
    <i name="ewald">  96774.60084843 </i>
    <i name="hartreedc">-118396.14107974 </i>
    <i name="XCdc">    713.13389507 </i>
    <i name="pawpsdc">  20904.50280716 </i>
    <i name="pawaedc"> -22628.00831768 </i>
    <i name="eentropy">     -0.01729203 </i>
    <i name="bandstr">   -192.69199783 </i>
    <i name="atom">  22255.32224320 </i>
    <i name="e_fr_energy">    -56.46023206 </i>
    <i name="e_wo_entrp">    -56.44294003 </i>
    <i name="e_0_energy">    -56.45446805 </i>
   </energy>
  </scstep>
  <scstep>
   <time name="dav">    1.12    1.13</time>
   <time name="total">    1.27    1.28</time>
   <energy>
    <i name="e_fr_energy">    -56.47728249 </i>
    <i name="e_wo_entrp">    -56.45785399 </i>
    <i name="e_0_energy">    -56.47080632 </i>
   </energy>
  </scstep>
  <scstep>
   <time name="dav">    0.95    0.96</time>
   <time name="total">    1.10    1.11</time>
   <energy>
    <i name="e_fr_energy">    -56.47313842 </i>
    <i name="e_wo_entrp">    -56.45388163 </i>
    <i name="e_0_energy">    -56.46671949 </i>
   </energy>
  </scstep>
  <scstep>
   <time name="dav">    0.92    0.93</time>
   <time name="total">    1.07    1.08</time>
   <energy>
    <i name="e_fr_energy">    -56.47215343 </i>
    <i name="e_wo_entrp">    -56.45642704 </i>
    <i name="e_0_energy">    -56.46691130 </i>
   </energy>
  </scstep>
  <scstep>
   <time name="dav">    0.90    0.91</time>
   <time name="total">    1.05    1.05</time>
   <energy>
    <i name="e_fr_energy">    -56.47187109 </i>
    <i name="e_wo_entrp">    -56.45282988 </i>
    <i name="e_0_energy">    -56.46552402 </i>
   </energy>
  </scstep>
  <scstep>
   <time name="dav">    0.79    0.80</time>
   <time name="total">    0.82    0.83</time>
   <energy>
    <i name="alphaZ">    512.83866137 </i>
    <i name="ewald">  96774.60084843 </i>
    <i name="hartreedc">-118395.54015360 </i>
    <i name="XCdc">    713.11170045 </i>
    <i name="pawpsdc">  20909.89546370 </i>
    <i name="pawaedc"> -22633.44207992 </i>
    <i name="eentropy">     -0.01767810 </i>
    <i name="bandstr">   -193.24069645 </i>
    <i name="atom">  22255.32224320 </i>
    <i name="e_fr_energy">    -56.47169092 </i>
    <i name="e_wo_entrp">    -56.45401283 </i>
    <i name="e_0_energy">    -56.46579822 </i>
   </energy>
  </scstep>
  <dipole>
   <v name="dipole">      0.00000000       0.00000000      -0.00614527 </v>
   <i name="Tr[quadrupol]">   -577.85286860 </i>
   <i name="Echarged">      0.00000000 </i>
   <i name="Edipol_quadrupol">      0.00000000 </i>
   <i name="Eion">      0.00000000 </i>
  </dipole>
  <structure>
   <crystal>
    <varray name="basis" >
     <v>       3.63000011       0.00000000       0.00000000 </v>
     <v>       0.00000000       3.63000011       0.00000000 </v>
     <v>       0.00000000       0.00000000      27.70499992 </v>
    </varray>
    <i name="volume">    365.06603650 </i>
    <varray name="rec_basis" >
     <v>       0.27548208       0.00000000       0.00000000 </v>
     <v>       0.00000000       0.27548208       0.00000000 </v>
     <v>       0.00000000       0.00000000       0.03609457 </v>
    </varray>
   </crystal>
   <varray name="positions" >
    <v>       0.00000000       0.00000000       0.00000000 </v>
    <v>       0.50000000       0.50000000       0.00000000 </v>
    <v>       0.00000000       0.50000000       0.06551164 </v>
    <v>       0.50000000       0.00000000       0.06551164 </v>
    <v>       0.00000000      -0.00000000       0.13139274 </v>
    <v>       0.50000000       0.50000000       0.13139274 </v>
    <v>       0.00000000       0.50000000       0.19721777 </v>
    <v>       0.50000000      -0.00000000       0.19721777 </v>
    <v>       0.00000000      -0.00000000       0.26129946 </v>
    <v>       0.50000000       0.50000000       0.26129946 </v>
    <v>      -0.00000000       0.50000000       0.32730375 </v>
    <v>       0.50000000       0.00000000       0.32730375 </v>
    <v>      -0.00000000       0.00000000       0.39259216 </v>
    <v>       0.50000000       0.50000000       0.39259216 </v>
    <v>      -0.00000000       0.50000000       0.45548139 </v>
    <v>       0.50000000       0.00000000       0.45548139 </v>
   </varray>
  </structure>
  <varray name="forces" >
   <v>      -0.00000000       0.00000000       0.31041985 </v>
   <v>       0.00000000       0.00000000       0.31041985 </v>
   <v>      -0.00000000      -0.00000000       0.02079405 </v>
   <v>      -0.00000000       0.00000000       0.02079405 </v>
   <v>      -0.00000000      -0.00000000       0.01745718 </v>
   <v>      -0.00000000      -0.00000000       0.01745718 </v>
   <v>      -0.00000000       0.00000000      -0.06711182 </v>
   <v>      -0.00000000       0.00000000      -0.06711182 </v>
   <v>      -0.00000000       0.00000000       0.07101425 </v>
   <v>       0.00000000       0.00000000       0.07101425 </v>
   <v>      -0.00000000       0.00000000      -0.08476138 </v>
   <v>      -0.00000000       0.00000000      -0.08476138 </v>
   <v>      -0.00000000      -0.00000000      -0.22278832 </v>
   <v>       0.00000000       0.00000000      -0.22278832 </v>
   <v>      -0.00000000      -0.00000000      -0.04502381 </v>
   <v>       0.00000000      -0.00000000      -0.04502381 </v>
  </varray>
  <varray name="stress" >
   <v>     -30.29639643       0.00000000       0.00000000 </v>
   <v>       0.00000000     -30.29639643       0.00000000 </v>
   <v>       0.00000000       0.00000000     -31.20476306 </v>
  </varray>
  <energy>
   <i name="e_fr_energy">    -63.01683340 </i>
   <i name="e_wo_entrp">    -62.99915530 </i>
   <i name="e_0_energy">    -63.01094070 </i>
  </energy>
  <time name="totalsc">    7.73    9.17</time>
 </calculation>
 <calculation>
  <scstep>
   <time name="dav">    0.85    0.86</time>
   <time name="total">    1.00    1.01</time>
   <energy>
    <i name="alphaZ">    512.83866137 </i>
    <i name="ewald">  97876.69230423 </i>
    <i name="hartreedc">-119496.41341679 </i>
    <i name="XCdc">    713.32422071 </i>
    <i name="pawpsdc">  20912.94982720 </i>
    <i name="pawaedc"> -22636.69894636 </i>
    <i name="eentropy">     -0.01476903 </i>
    <i name="bandstr">   -194.34973729 </i>
    <i name="atom">  22255.32224320 </i>
    <i name="e_fr_energy">    -56.34961278 </i>
    <i name="e_wo_entrp">    -56.33484374 </i>
    <i name="e_0_energy">    -56.34468977 </i>
   </energy>
  </scstep>
  <scstep>
   <time name="dav">    1.12    1.13</time>
   <time name="total">    1.27    1.28</time>
   <energy>
    <i name="e_fr_energy">    -56.48729376 </i>
    <i name="e_wo_entrp">    -56.45798213 </i>
    <i name="e_0_energy">    -56.47752322 </i>
   </energy>
  </scstep>
  <scstep>
   <time name="dav">    1.03    1.04</time>
   <time name="total">    1.18    1.19</time>
   <energy>
    <i name="e_fr_energy">    -56.49027266 </i>
    <i name="e_wo_entrp">    -56.49070649 </i>
    <i name="e_0_energy">    -56.49041727 </i>
   </energy>
  </scstep>
  <scstep>
   <time name="dav">    1.02    1.03</time>
   <time name="total">    1.18    1.19</time>
   <energy>
    <i name="e_fr_energy">    -56.47519807 </i>
    <i name="e_wo_entrp">    -56.46697106 </i>
    <i name="e_0_energy">    -56.47245574 </i>
   </energy>
  </scstep>
  <scstep>
   <time name="dav">    1.03    1.03</time>
   <time name="total">    1.18    1.19</time>
   <energy>
    <i name="e_fr_energy">    -56.46738885 </i>
    <i name="e_wo_entrp">    -56.44800248 </i>
    <i name="e_0_energy">    -56.46092673 </i>
   </energy>
  </scstep>
  <scstep>
   <time name="dav">    0.96    0.97</time>
   <time name="total">    1.11    1.12</time>
   <energy>
    <i name="e_fr_energy">    -56.46632756 </i>
    <i name="e_wo_entrp">    -56.45051966 </i>
    <i name="e_0_energy">    -56.46105826 </i>
   </energy>
  </scstep>
  <scstep>
   <time name="dav">    0.98    0.98</time>
   <time name="total">    1.12    1.13</time>
   <energy>
    <i name="e_fr_energy">    -56.46402087 </i>
    <i name="e_wo_entrp">    -56.44639669 </i>
    <i name="e_0_energy">    -56.45814614 </i>
   </energy>
  </scstep>
  <scstep>
   <time name="dav">    1.10    1.11</time>
   <time name="total">    1.25    1.26</time>
   <energy>
    <i name="e_fr_energy">    -56.46358614 </i>
    <i name="e_wo_entrp">    -56.44691089 </i>
    <i name="e_0_energy">    -56.45802772 </i>
   </energy>
  </scstep>
  <scstep>
   <time name="dav">    0.84    0.85</time>
   <time name="total">    0.99    0.99</time>
   <energy>
    <i name="e_fr_energy">    -56.46297979 </i>
    <i name="e_wo_entrp">    -56.44648335 </i>
    <i name="e_0_energy">    -56.45748098 </i>
   </energy>
  </scstep>
  <scstep>
   <time name="dav">    0.67    0.68</time>
   <time name="total">    0.70    0.71</time>
   <energy>
    <i name="alphaZ">    512.83866137 </i>
    <i name="ewald">  97876.69230423 </i>
    <i name="hartreedc">-119493.43470134 </i>
    <i name="XCdc">    713.24079798 </i>
    <i name="pawpsdc">  20935.35584893 </i>
    <i name="pawaedc"> -22659.48677108 </i>
    <i name="eentropy">     -0.01678694 </i>
    <i name="bandstr">   -196.97460679 </i>
    <i name="atom">  22255.32224320 </i>
    <i name="e_fr_energy">    -56.46301044 </i>
    <i name="e_wo_entrp">    -56.44622350 </i>
    <i name="e_0_energy">    -56.45741479 </i>
   </energy>
  </scstep>
  <dipole>
   <v name="dipole">      0.00000000       0.00000000      -0.00375094 </v>
   <i name="Tr[quadrupol]">   -577.80285002 </i>
   <i name="Echarged">      0.00000000 </i>
   <i name="Edipol_quadrupol">      0.00000000 </i>
   <i name="Eion">      0.00000000 </i>
  </dipole>
  <structure>
   <crystal>
    <varray name="basis" >
     <v>       3.63000011       0.00000000       0.00000000 </v>
     <v>       0.00000000       3.63000011       0.00000000 </v>
     <v>       0.00000000       0.00000000      27.70499992 </v>
    </varray>
    <i name="volume">    365.06603650 </i>
    <varray name="rec_basis" >
     <v>       0.27548208       0.00000000       0.00000000 </v>
     <v>       0.00000000       0.27548208       0.00000000 </v>
     <v>       0.00000000       0.00000000       0.03609457 </v>
    </varray>
   </crystal>
   <varray name="positions" >
    <v>       0.00000000       0.00000000       0.00000000 </v>
    <v>       0.50000000       0.50000000       0.00000000 </v>
    <v>       0.00000000       0.50000000       0.06551164 </v>
    <v>       0.50000000       0.00000000       0.06551164 </v>
    <v>       0.00000000      -0.00000000       0.13188452 </v>
    <v>       0.50000000       0.50000000       0.13188452 </v>
    <v>       0.00000000       0.50000000       0.19699693 </v>
    <v>       0.50000000      -0.00000000       0.19699693 </v>
    <v>       0.00000000      -0.00000000       0.26144510 </v>
    <v>       0.50000000       0.50000000       0.26144510 </v>
    <v>      -0.00000000       0.50000000       0.32678398 </v>
    <v>       0.50000000       0.00000000       0.32678398 </v>
    <v>      -0.00000000       0.00000000       0.39098997 </v>
    <v>       0.50000000       0.50000000       0.39098997 </v>
    <v>      -0.00000000       0.50000000       0.45342880 </v>
    <v>       0.50000000       0.00000000       0.45342880 </v>
   </varray>
  </structure>
  <varray name="forces" >
   <v>      -0.00000000      -0.00000000       0.29628227 </v>
   <v>      -0.00000000      -0.00000000       0.29628227 </v>
   <v>       0.00000000      -0.00000000       0.05611748 </v>
   <v>       0.00000000       0.00000000       0.05611748 </v>
   <v>       0.00000000      -0.00000000      -0.08628549 </v>
   <v>       0.00000000      -0.00000000      -0.08628549 </v>
   <v>       0.00000000       0.00000000       0.03268900 </v>
   <v>      -0.00000000       0.00000000       0.03268900 </v>
   <v>       0.00000000      -0.00000000      -0.02924661 </v>
   <v>      -0.00000000      -0.00000000      -0.02924661 </v>
   <v>       0.00000000       0.00000000      -0.14226760 </v>
   <v>      -0.00000000       0.00000000      -0.14226760 </v>
   <v>      -0.00000000      -0.00000000      -0.15483960 </v>
   <v>      -0.00000000       0.00000000      -0.15483960 </v>
   <v>       0.00000000      -0.00000000       0.02755055 </v>
   <v>      -0.00000000      -0.00000000       0.02755055 </v>
  </varray>
  <varray name="stress" >
   <v>     -34.39019532       0.00000000      -0.00000000 </v>
   <v>       0.00000000     -34.39019532       0.00000000 </v>
   <v>      -0.00000000       0.00000000     -32.10696731 </v>
  </varray>
  <energy>
   <i name="e_fr_energy">    -63.03769405 </i>
   <i name="e_wo_entrp">    -63.02090711 </i>
   <i name="e_0_energy">    -63.03209840 </i>
  </energy>
  <time name="totalsc">   12.39   13.72</time>
 </calculation>
 <calculation>
  <scstep>
   <time name="dav">    0.92    0.93</time>
   <time name="total">    1.07    1.08</time>
   <energy>
    <i name="alphaZ">    512.83866137 </i>
    <i name="ewald"> 100103.72745027 </i>
    <i name="hartreedc">-121719.27248766 </i>
    <i name="XCdc">    713.73095079 </i>
    <i name="pawpsdc">  20935.33530549 </i>
    <i name="pawaedc"> -22659.44914027 </i>
    <i name="eentropy">     -0.00774000 </i>
    <i name="bandstr">   -198.18372477 </i>
    <i name="atom">  22255.32224320 </i>
    <i name="e_fr_energy">    -55.95848158 </i>
    <i name="e_wo_entrp">    -55.95074158 </i>
    <i name="e_0_energy">    -55.95590158 </i>
   </energy>
  </scstep>
  <scstep>
   <time name="dav">    1.10    1.11</time>
   <time name="total">    1.25    1.26</time>
   <energy>
    <i name="e_fr_energy">    -56.56731974 </i>
    <i name="e_wo_entrp">    -56.55647430 </i>
    <i name="e_0_energy">    -56.56370459 </i>
   </energy>
  </scstep>
  <scstep>
   <time name="dav">    1.05    1.06</time>
   <time name="total">    1.19    1.20</time>
   <energy>
    <i name="e_fr_energy">    -56.61883257 </i>
    <i name="e_wo_entrp">    -56.66058357 </i>
    <i name="e_0_energy">    -56.63274957 </i>
   </energy>
  </scstep>
  <scstep>
   <time name="dav">    1.03    1.04</time>
   <time name="total">    1.18    1.19</time>
   <energy>
    <i name="e_fr_energy">    -56.43358457 </i>
    <i name="e_wo_entrp">    -56.44210651 </i>
    <i name="e_0_energy">    -56.43642522 </i>
   </energy>
  </scstep>
  <scstep>
   <time name="dav">    1.04    1.06</time>
   <time name="total">    1.19    1.20</time>
   <energy>
    <i name="e_fr_energy">    -56.40915873 </i>
    <i name="e_wo_entrp">    -56.39246596 </i>
    <i name="e_0_energy">    -56.40359448 </i>
   </energy>
  </scstep>
  <scstep>
   <time name="dav">    0.90    0.90</time>
   <time name="total">    1.04    1.05</time>
   <energy>
    <i name="e_fr_energy">    -56.40607340 </i>
    <i name="e_wo_entrp">    -56.39189178 </i>
    <i name="e_0_energy">    -56.40134619 </i>
   </energy>
  </scstep>
  <scstep>
   <time name="dav">    0.89    0.90</time>
   <time name="total">    1.04    1.05</time>
   <energy>
    <i name="e_fr_energy">    -56.40044882 </i>
    <i name="e_wo_entrp">    -56.38423206 </i>
    <i name="e_0_energy">    -56.39504323 </i>
   </energy>
  </scstep>
  <scstep>
   <time name="dav">    1.04    1.05</time>
   <time name="total">    1.18    1.19</time>
   <energy>
    <i name="e_fr_energy">    -56.39761716 </i>
    <i name="e_wo_entrp">    -56.38399660 </i>
    <i name="e_0_energy">    -56.39307697 </i>
   </energy>
  </scstep>
  <scstep>
   <time name="dav">    0.93    0.94</time>
   <time name="total">    1.08    1.08</time>
   <energy>
    <i name="e_fr_energy">    -56.39509191 </i>
    <i name="e_wo_entrp">    -56.38318906 </i>
    <i name="e_0_energy">    -56.39112430 </i>
   </energy>
  </scstep>
  <scstep>
   <time name="dav">    0.96    0.97</time>
   <time name="total">    1.11    1.12</time>
   <energy>
    <i name="e_fr_energy">    -56.39492729 </i>
    <i name="e_wo_entrp">    -56.38098934 </i>
    <i name="e_0_energy">    -56.39028131 </i>
   </energy>
  </scstep>
  <scstep>
   <time name="dav">    0.72    0.73</time>
   <time name="total">    0.75    0.76</time>
   <energy>
    <i name="alphaZ">    512.83866137 </i>
    <i name="ewald"> 100103.72745027 </i>
    <i name="hartreedc">-121712.86239135 </i>
    <i name="XCdc">    713.51827721 </i>
    <i name="pawpsdc">  20985.23905532 </i>
    <i name="pawaedc"> -22710.21378736 </i>
    <i name="eentropy">     -0.01445570 </i>
    <i name="bandstr">   -203.94996995 </i>
    <i name="atom">  22255.32224320 </i>
    <i name="e_fr_energy">    -56.39491700 </i>
    <i name="e_wo_entrp">    -56.38046130 </i>
    <i name="e_0_energy">    -56.39009843 </i>
   </energy>
  </scstep>
  <dipole>
   <v name="dipole">      0.00000000       0.00000000      -0.00389307 </v>
   <i name="Tr[quadrupol]">   -577.73595859 </i>
   <i name="Echarged">      0.00000000 </i>
   <i name="Edipol_quadrupol">      0.00000000 </i>
   <i name="Eion">      0.00000000 </i>
  </dipole>
  <structure>
   <crystal>
    <varray name="basis" >
     <v>       3.63000011       0.00000000       0.00000000 </v>
     <v>       0.00000000       3.63000011       0.00000000 </v>
     <v>       0.00000000       0.00000000      27.70499992 </v>
    </varray>
    <i name="volume">    365.06603650 </i>
    <varray name="rec_basis" >
     <v>       0.27548208       0.00000000       0.00000000 </v>
     <v>       0.00000000       0.27548208       0.00000000 </v>
     <v>       0.00000000       0.00000000       0.03609457 </v>
    </varray>
   </crystal>
   <varray name="positions" >
    <v>       0.00000000       0.00000000       0.00000000 </v>
    <v>       0.50000000       0.50000000       0.00000000 </v>
    <v>       0.00000000       0.50000000       0.06551164 </v>
    <v>       0.50000000       0.00000000       0.06551164 </v>
    <v>       0.00000000      -0.00000000       0.13286806 </v>
    <v>       0.50000000       0.50000000       0.13286806 </v>
    <v>       0.00000000       0.50000000       0.19655526 </v>
    <v>       0.50000000      -0.00000000       0.19655526 </v>
    <v>       0.00000000      -0.00000000       0.26173637 </v>
    <v>       0.50000000       0.50000000       0.26173637 </v>
    <v>      -0.00000000       0.50000000       0.32574445 </v>
    <v>       0.50000000      -0.00000000       0.32574445 </v>
    <v>       0.00000000       0.00000000       0.38778558 </v>
    <v>       0.50000000       0.50000000       0.38778558 </v>
    <v>      -0.00000000       0.50000000       0.44932364 </v>
    <v>       0.50000000       0.00000000       0.44932364 </v>
   </varray>
  </structure>
  <varray name="forces" >
   <v>       0.00000000       0.00000000       0.28291909 </v>
   <v>       0.00000000      -0.00000000       0.28291909 </v>
   <v>       0.00000000       0.00000000       0.11973998 </v>
   <v>      -0.00000000       0.00000000       0.11973998 </v>
   <v>       0.00000000      -0.00000000      -0.31600812 </v>
   <v>       0.00000000      -0.00000000      -0.31600812 </v>
   <v>       0.00000000       0.00000000       0.25795353 </v>
   <v>       0.00000000       0.00000000       0.25795353 </v>
   <v>      -0.00000000      -0.00000000      -0.23128098 </v>
   <v>      -0.00000000       0.00000000      -0.23128098 </v>
   <v>       0.00000000      -0.00000000      -0.27447449 </v>
   <v>      -0.00000000      -0.00000000      -0.27447449 </v>
   <v>       0.00000000      -0.00000000      -0.00309858 </v>
   <v>       0.00000000       0.00000000      -0.00309858 </v>
   <v>       0.00000000       0.00000000       0.16424957 </v>
   <v>       0.00000000      -0.00000000       0.16424957 </v>
  </varray>
  <varray name="stress" >
   <v>     -27.97796687       0.00000000       0.00000000 </v>
   <v>       0.00000000     -27.97796687      -0.00000000 </v>
   <v>       0.00000000       0.00000000     -20.64293833 </v>
  </varray>
  <energy>
   <i name="e_fr_energy">    -63.02947242 </i>
   <i name="e_wo_entrp">    -63.01501672 </i>
   <i name="e_0_energy">    -63.02465385 </i>
  </energy>
  <time name="totalsc">   13.52   13.69</time>
 </calculation>
 <calculation>
  <scstep>
   <time name="dav">    0.89    0.89</time>
   <time name="total">    1.04    1.05</time>
   <energy>
    <i name="alphaZ">    512.83866137 </i>
    <i name="ewald">  98601.43798747 </i>
    <i name="hartreedc">-120213.43522599 </i>
    <i name="XCdc">    713.28760774 </i>
    <i name="pawpsdc">  20985.00190509 </i>
    <i name="pawaedc"> -22709.97009821 </i>
    <i name="eentropy">     -0.01793701 </i>
    <i name="bandstr">   -200.72575418 </i>
    <i name="atom">  22255.32224320 </i>
    <i name="e_fr_energy">    -56.26061051 </i>
    <i name="e_wo_entrp">    -56.24267351 </i>
    <i name="e_0_energy">    -56.25463151 </i>
   </energy>
  </scstep>
  <scstep>
   <time name="dav">    1.26    1.27</time>
   <time name="total">    1.40    1.41</time>
   <energy>
    <i name="e_fr_energy">    -56.75860813 </i>
    <i name="e_wo_entrp">    -56.79597153 </i>
    <i name="e_0_energy">    -56.77106260 </i>
   </energy>
  </scstep>
  <scstep>
   <time name="dav">    1.25    1.26</time>
   <time name="total">    1.40    1.41</time>
   <energy>
    <i name="e_fr_energy">    -56.46263582 </i>
    <i name="e_wo_entrp">    -56.45683365 </i>
    <i name="e_0_energy">    -56.46070176 </i>
   </energy>
  </scstep>
  <scstep>
   <time name="dav">    0.99    1.00</time>
   <time name="total">    1.14    1.15</time>
   <energy>
    <i name="e_fr_energy">    -56.45716492 </i>
    <i name="e_wo_entrp">    -56.43679550 </i>
    <i name="e_0_energy">    -56.45037512 </i>
   </energy>
  </scstep>
  <scstep>
   <time name="dav">    0.89    0.90</time>
   <time name="total">    1.04    1.05</time>
   <energy>
    <i name="e_fr_energy">    -56.45823073 </i>
    <i name="e_wo_entrp">    -56.45003179 </i>
    <i name="e_0_energy">    -56.45549775 </i>
   </energy>
  </scstep>
  <scstep>
   <time name="dav">    1.05    1.06</time>
   <time name="total">    1.19    1.21</time>
   <energy>
    <i name="e_fr_energy">    -56.45523191 </i>
    <i name="e_wo_entrp">    -56.43578119 </i>
    <i name="e_0_energy">    -56.44874834 </i>
   </energy>
  </scstep>
  <scstep>
   <time name="dav">    1.17    1.18</time>
   <time name="total">    1.32    1.33</time>
   <energy>
    <i name="e_fr_energy">    -56.45114740 </i>
    <i name="e_wo_entrp">    -56.43777271 </i>
    <i name="e_0_energy">    -56.44668917 </i>
   </energy>
  </scstep>
  <scstep>
   <time name="dav">    1.26    1.27</time>
   <time name="total">    1.40    1.42</time>
   <energy>
    <i name="e_fr_energy">    -56.44906936 </i>
    <i name="e_wo_entrp">    -56.43710153 </i>
    <i name="e_0_energy">    -56.44508008 </i>
   </energy>
  </scstep>
  <scstep>
   <time name="dav">    0.87    0.87</time>
   <time name="total">    1.01    1.02</time>
   <energy>
    <i name="e_fr_energy">    -56.44843800 </i>
    <i name="e_wo_entrp">    -56.43267944 </i>
    <i name="e_0_energy">    -56.44318515 </i>
   </energy>
  </scstep>
  <scstep>
   <time name="dav">    0.79    0.80</time>
   <time name="total">    0.82    0.83</time>
   <energy>
    <i name="alphaZ">    512.83866137 </i>
    <i name="ewald">  98601.43798747 </i>
    <i name="hartreedc">-120215.17683129 </i>
    <i name="XCdc">    713.32964710 </i>
    <i name="pawpsdc">  20951.54027511 </i>
    <i name="pawaedc"> -22675.92739978 </i>
    <i name="eentropy">     -0.01644633 </i>
    <i name="bandstr">   -199.79657177 </i>
    <i name="atom">  22255.32224320 </i>
    <i name="e_fr_energy">    -56.44843493 </i>
    <i name="e_wo_entrp">    -56.43198860 </i>
    <i name="e_0_energy">    -56.44295282 </i>
   </energy>
  </scstep>
  <dipole>
   <v name="dipole">      0.00000000       0.00000000      -0.00221375 </v>
   <i name="Tr[quadrupol]">   -577.74884112 </i>
   <i name="Echarged">      0.00000000 </i>
   <i name="Edipol_quadrupol">      0.00000000 </i>
   <i name="Eion">      0.00000000 </i>
  </dipole>
  <structure>
   <crystal>
    <varray name="basis" >
     <v>       3.63000011       0.00000000       0.00000000 </v>
     <v>       0.00000000       3.63000011       0.00000000 </v>
     <v>       0.00000000       0.00000000      27.70499992 </v>
    </varray>
    <i name="volume">    365.06603650 </i>
    <varray name="rec_basis" >
     <v>       0.27548208       0.00000000       0.00000000 </v>
     <v>       0.00000000       0.27548208       0.00000000 </v>
     <v>       0.00000000       0.00000000       0.03609457 </v>
    </varray>
   </crystal>
   <varray name="positions" >
    <v>       0.00000000       0.00000000       0.00000000 </v>
    <v>       0.50000000       0.50000000       0.00000000 </v>
    <v>       0.00000000       0.50000000       0.06551164 </v>
    <v>       0.50000000       0.00000000       0.06551164 </v>
    <v>       0.00000000      -0.00000000       0.13220607 </v>
    <v>       0.50000000       0.50000000       0.13220607 </v>
    <v>       0.00000000       0.50000000       0.19685253 </v>
    <v>       0.50000000      -0.00000000       0.19685253 </v>
    <v>       0.00000000      -0.00000000       0.26154032 </v>
    <v>       0.50000000       0.50000000       0.26154032 </v>
    <v>      -0.00000000       0.50000000       0.32644413 </v>
    <v>       0.50000000       0.00000000       0.32644413 </v>
    <v>       0.00000000       0.00000000       0.38994234 </v>
    <v>       0.50000000       0.50000000       0.38994234 </v>
    <v>      -0.00000000       0.50000000       0.45208669 </v>
    <v>       0.50000000       0.00000000       0.45208669 </v>
   </varray>
  </structure>
  <varray name="forces" >
   <v>       0.00000000       0.00000000       0.29791274 </v>
   <v>       0.00000000      -0.00000000       0.29791274 </v>
   <v>       0.00000000      -0.00000000       0.08737398 </v>
   <v>       0.00000000       0.00000000       0.08737398 </v>
   <v>       0.00000000       0.00000000      -0.15154379 </v>
   <v>       0.00000000       0.00000000      -0.15154379 </v>
   <v>      -0.00000000       0.00000000       0.10818624 </v>
   <v>      -0.00000000       0.00000000       0.10818624 </v>
   <v>       0.00000000      -0.00000000      -0.09108360 </v>
   <v>       0.00000000      -0.00000000      -0.09108360 </v>
   <v>       0.00000000      -0.00000000      -0.18229359 </v>
   <v>       0.00000000      -0.00000000      -0.18229359 </v>
   <v>      -0.00000000       0.00000000      -0.12989362 </v>
   <v>      -0.00000000       0.00000000      -0.12989362 </v>
   <v>       0.00000000      -0.00000000       0.06134163 </v>
   <v>      -0.00000000       0.00000000       0.06134163 </v>
  </varray>
  <varray name="stress" >
   <v>     -33.12779599       0.00000000       0.00000000 </v>
   <v>       0.00000000     -33.12779599       0.00000000 </v>
   <v>       0.00000000      -0.00000000     -29.27630414 </v>
  </varray>
  <energy>
   <i name="e_fr_energy">    -63.04254748 </i>
   <i name="e_wo_entrp">    -63.02610115 </i>
   <i name="e_0_energy">    -63.03706537 </i>
  </energy>
  <time name="totalsc">   13.19   13.37</time>
 </calculation>
 <calculation>
  <scstep>
   <time name="dav">    0.83    0.84</time>
   <time name="total">    0.98    0.99</time>
   <energy>
    <i name="alphaZ">    512.83866137 </i>
    <i name="ewald">  99107.98296787 </i>
    <i name="hartreedc">-120721.26096482 </i>
    <i name="XCdc">    713.39158557 </i>
    <i name="pawpsdc">  20951.39344648 </i>
    <i name="pawaedc"> -22675.77687713 </i>
    <i name="eentropy">     -0.01181268 </i>
    <i name="bandstr">   -200.29841991 </i>
    <i name="atom">  22255.32224320 </i>
    <i name="e_fr_energy">    -56.41917005 </i>
    <i name="e_wo_entrp">    -56.40735737 </i>
[...]
       <r>     9.2013     0.4335   107.0067 </r>
       <r>     9.2779     0.3649   107.0346 </r>
       <r>     9.3544     1.5606   107.1541 </r>
       <r>     9.4310     3.0883   107.3905 </r>
       <r>     9.5075     3.8025   107.6816 </r>
       <r>     9.5841     3.4074   107.9424 </r>
       <r>     9.6606     2.6583   108.1459 </r>
       <r>     9.7372     2.6210   108.3466 </r>
       <r>     9.8137     3.9322   108.6476 </r>
       <r>     9.8903     6.1078   109.1151 </r>
       <r>     9.9668     7.3705   109.6794 </r>
       <r>    10.0434     6.3528   110.1657 </r>
       <r>    10.1199     4.0348   110.4745 </r>
       <r>    10.1965     2.7661   110.6863 </r>
       <r>    10.2730     3.6281   110.9640 </r>
       <r>    10.3496     5.5859   111.3916 </r>
       <r>    10.4261     6.7055   111.9049 </r>
       <r>    10.5027     5.7844   112.3477 </r>
       <r>    10.5792     3.3587   112.6048 </r>
       <r>    10.6558     1.2224   112.6984 </r>
       <r>    10.7323     0.7067   112.7525 </r>
       <r>    10.8089     1.7005   112.8827 </r>
       <r>    10.8854     3.2295   113.1299 </r>
       <r>    10.9620     4.3248   113.4610 </r>
       <r>    11.0385     4.4506   113.8017 </r>
       <r>    11.1151     3.9804   114.1064 </r>
       <r>    11.1916     4.1245   114.4221 </r>
       <r>    11.2682     5.3208   114.8294 </r>
       <r>    11.3447     6.2121   115.3049 </r>
       <r>    11.4213     5.3603   115.7153 </r>
       <r>    11.4978     3.1415   115.9558 </r>
       <r>    11.5744     1.0550   116.0365 </r>
       <r>    11.6509    -0.0155   116.0353 </r>
       <r>    11.7275    -0.2411   116.0169 </r>
       <r>    11.8040    -0.1504   116.0054 </r>
       <r>    11.8806    -0.0543   116.0012 </r>
       <r>    11.9571    -0.0133   116.0002 </r>
       <r>    12.0337    -0.0023   116.0000 </r>
       <r>    12.1102    -0.0003   116.0000 </r>
       <r>    12.1868    -0.0000   116.0000 </r>
       <r>    12.2633    -0.0000   116.0000 </r>
       <r>    12.3399    -0.0000   116.0000 </r>
       <r>    12.4164    -0.0000   116.0000 </r>
       <r>    12.4930    -0.0000   116.0000 </r>
       <r>    12.5695    -0.0000   116.0000 </r>
       <r>    12.6461    -0.0000   116.0000 </r>
       <r>    12.7226     0.0000   116.0000 </r>
       <r>    12.7992     0.0000   116.0000 </r>
       <r>    12.8757     0.0000   116.0000 </r>
       <r>    12.9523     0.0000   116.0000 </r>
       <r>    13.0288     0.0000   116.0000 </r>
       <r>    13.1054     0.0000   116.0000 </r>
       <r>    13.1819     0.0000   116.0000 </r>
       <r>    13.2585     0.0000   116.0000 </r>
       <r>    13.3350     0.0000   116.0000 </r>
       <r>    13.4116     0.0000   116.0000 </r>
      </set>
      <set comment="spin 2">
       <r>    -9.5536     0.0000     0.0000 </r>
       <r>    -9.4770     0.0000     0.0000 </r>
       <r>    -9.4005     0.0000     0.0000 </r>
       <r>    -9.3239     0.0000     0.0000 </r>
       <r>    -9.2474     0.0000     0.0000 </r>
       <r>    -9.1708    -0.0000    -0.0000 </r>
       <r>    -9.0943    -0.0000    -0.0000 </r>
       <r>    -9.0177    -0.0000    -0.0000 </r>
       <r>    -8.9412    -0.0000    -0.0000 </r>
       <r>    -8.8646    -0.0000    -0.0000 </r>
       <r>    -8.7881    -0.0000    -0.0000 </r>
       <r>    -8.7115    -0.0000    -0.0000 </r>
       <r>    -8.6350    -0.0000    -0.0000 </r>
       <r>    -8.5584    -0.0000    -0.0000 </r>
       <r>    -8.4819    -0.0000    -0.0000 </r>
       <r>    -8.4053    -0.0000    -0.0000 </r>
       <r>    -8.3288    -0.0000    -0.0000 </r>
       <r>    -8.2522    -0.0000    -0.0000 </r>
       <r>    -8.1757    -0.0001    -0.0000 </r>
       <r>    -8.0991    -0.0005    -0.0000 </r>
       <r>    -8.0226    -0.0027    -0.0003 </r>
       <r>    -7.9460    -0.0098    -0.0010 </r>
       <r>    -7.8695    -0.0218    -0.0027 </r>
       <r>    -7.7929    -0.0164    -0.0039 </r>
       <r>    -7.7164     0.0607     0.0007 </r>
       <r>    -7.6398     0.2373     0.0189 </r>
       <r>    -7.5633     0.4191     0.0510 </r>
       <r>    -7.4867     0.4430     0.0849 </r>
       <r>    -7.4102     0.2797     0.1063 </r>
       <r>    -7.3336     0.0753     0.1120 </r>
       <r>    -7.2571    -0.0222     0.1103 </r>
       <r>    -7.1805     0.0383     0.1133 </r>
       <r>    -7.1040     0.2269     0.1306 </r>
       <r>    -7.0274     0.4170     0.1626 </r>
       <r>    -6.9509     0.4441     0.1966 </r>
       <r>    -6.8743     0.2870     0.2185 </r>
       <r>    -6.7978     0.0928     0.2256 </r>
       <r>    -6.7212    -0.0206     0.2241 </r>
       <r>    -6.6447    -0.0726     0.2185 </r>
       <r>    -6.5681    -0.1163     0.2096 </r>
       <r>    -6.4916    -0.0725     0.2040 </r>
       <r>    -6.4150     0.3091     0.2277 </r>
       <r>    -6.3385     1.1485     0.3156 </r>
       <r>    -6.2619     2.0082     0.4694 </r>
       <r>    -6.1854     2.1440     0.6335 </r>
       <r>    -6.1088     1.4040     0.7410 </r>
       <r>    -6.0323     0.4653     0.7766 </r>
       <r>    -5.9557     0.0962     0.7839 </r>
       <r>    -5.8792     0.5331     0.8247 </r>
       <r>    -5.8026     1.3692     0.9296 </r>
       <r>    -5.7261     1.8190     1.0688 </r>
       <r>    -5.6495     1.4511     1.1799 </r>
       <r>    -5.5730     0.6473     1.2294 </r>
       <r>    -5.4964     0.0299     1.2317 </r>
       <r>    -5.4199    -0.2282     1.2143 </r>
       <r>    -5.3433    -0.2242     1.1971 </r>
       <r>    -5.2667     0.1807     1.2109 </r>
       <r>    -5.1902     1.2584     1.3073 </r>
       <r>    -5.1136     2.7357     1.5167 </r>
       <r>    -5.0371     3.6211     1.7939 </r>
       <r>    -4.9605     3.2094     2.0396 </r>
       <r>    -4.8840     2.0581     2.1971 </r>
       <r>    -4.8074     1.3748     2.3024 </r>
       <r>    -4.7309     1.5060     2.4176 </r>
       <r>    -4.6543     1.6672     2.5453 </r>
       <r>    -4.5778     1.2127     2.6381 </r>
       <r>    -4.5012     0.4194     2.6702 </r>
       <r>    -4.4247    -0.1271     2.6605 </r>
       <r>    -4.3481    -0.1421     2.6496 </r>
       <r>    -4.2716     0.4982     2.6877 </r>
       <r>    -4.1950     1.7649     2.8228 </r>
       <r>    -4.1185     3.1053     3.0605 </r>
       <r>    -4.0419     3.5923     3.3355 </r>
       <r>    -3.9654     2.7971     3.5497 </r>
       <r>    -3.8888     1.2999     3.6492 </r>
       <r>    -3.8123     0.1706     3.6622 </r>
       <r>    -3.7357     0.1799     3.6760 </r>
       <r>    -3.6592     1.4001     3.7832 </r>
       <r>    -3.5826     2.9462     4.0087 </r>
       <r>    -3.5061     3.4023     4.2692 </r>
       <r>    -3.4295     2.3943     4.4524 </r>
       <r>    -3.3530     1.3274     4.5541 </r>
       <r>    -3.2764     1.8919     4.6989 </r>
       <r>    -3.1999     4.3561     5.0323 </r>
       <r>    -3.1233     7.6564     5.6184 </r>
       <r>    -3.0468    10.5591     6.4268 </r>
       <r>    -2.9702    12.1853     7.3595 </r>
       <r>    -2.8937    12.0222     8.2798 </r>
       <r>    -2.8171    10.6050     9.0917 </r>
       <r>    -2.7406     9.5250     9.8208 </r>
       <r>    -2.6640     9.7327    10.5658 </r>
       <r>    -2.5875    11.1094    11.4163 </r>
       <r>    -2.5109    13.8503    12.4765 </r>
       <r>    -2.4344    17.9878    13.8535 </r>
       <r>    -2.3578    21.6613    15.5117 </r>
       <r>    -2.2813    22.1589    17.2080 </r>
       <r>    -2.2047    19.0297    18.6647 </r>
       <r>    -2.1282    14.7611    19.7947 </r>
       <r>    -2.0516    12.0608    20.7179 </r>
       <r>    -1.9751    11.8060    21.6217 </r>
       <r>    -1.8985    13.6500    22.6666 </r>
       <r>    -1.8220    16.7386    23.9479 </r>
       <r>    -1.7454    19.4835    25.4394 </r>
       <r>    -1.6689    20.3149    26.9945 </r>
       <r>    -1.5923    19.5081    28.4879 </r>
       <r>    -1.5158    19.1514    29.9539 </r>
       <r>    -1.4392    20.8422    31.5494 </r>
       <r>    -1.3627    24.5856    33.4315 </r>
       <r>    -1.2861    29.4603    35.6867 </r>
       <r>    -1.2096    33.7288    38.2686 </r>
       <r>    -1.1330    35.0486    40.9516 </r>
       <r>    -1.0565    32.5422    43.4427 </r>
       <r>    -0.9799    28.4158    45.6180 </r>
       <r>    -0.9034    25.5100    47.5708 </r>
       <r>    -0.8268    24.2471    49.4269 </r>
       <r>    -0.7503    24.0766    51.2700 </r>
       <r>    -0.6737    24.9618    53.1808 </r>
       <r>    -0.5972    25.7793    55.1542 </r>
       <r>    -0.5206    25.3438    57.0943 </r>
       <r>    -0.4441    25.2884    59.0302 </r>
       <r>    -0.3675    28.1153    61.1824 </r>
       <r>    -0.2910    33.1358    63.7190 </r>
       <r>    -0.2144    37.0020    66.5515 </r>
       <r>    -0.1379    37.6967    69.4372 </r>
       <r>    -0.0613    36.6151    72.2401 </r>
       <r>     0.0152    36.4270    75.0286 </r>
       <r>     0.0918    37.1456    77.8721 </r>
       <r>     0.1683    35.3044    80.5747 </r>
       <r>     0.2449    28.0637    82.7230 </r>
       <r>     0.3214    17.1733    84.0376 </r>
       <r>     0.3980     7.3364    84.5992 </r>
       <r>     0.4745     1.5995    84.7217 </r>
       <r>     0.5511    -0.2222    84.7047 </r>
       <r>     0.6276     0.3915    84.7346 </r>
       <r>     0.7042     2.2332    84.9056 </r>
       <r>     0.7807     4.0824    85.2181 </r>
       <r>     0.8573     4.6536    85.5743 </r>
       <r>     0.9338     3.6088    85.8506 </r>
       <r>     1.0104     1.8915    85.9954 </r>
       <r>     1.0869     0.6637    86.0462 </r>
       <r>     1.1635     0.2278    86.0636 </r>
       <r>     1.2400     0.1226    86.0730 </r>
       <r>     1.3166    -0.0003    86.0730 </r>
       <r>     1.3931     0.1435    86.0840 </r>
       <r>     1.4697     1.1645    86.1731 </r>
       <r>     1.5462     3.2188    86.4195 </r>
       <r>     1.6228     5.4330    86.8354 </r>
       <r>     1.6993     6.4297    87.3276 </r>
       <r>     1.7759     5.8742    87.7773 </r>
       <r>     1.8524     4.7945    88.1443 </r>
       <r>     1.9290     3.8243    88.4370 </r>
       <r>     2.0056     2.6334    88.6386 </r>
       <r>     2.0821     1.6223    88.7628 </r>
       <r>     2.1587     2.0992    88.9235 </r>
       <r>     2.2352     4.0964    89.2371 </r>
       <r>     2.3118     5.7508    89.6773 </r>
       <r>     2.3883     5.5550    90.1026 </r>
       <r>     2.4649     3.9809    90.4073 </r>
       <r>     2.5414     2.5343    90.6013 </r>
       <r>     2.6180     2.2634    90.7746 </r>
       <r>     2.6945     2.9974    91.0040 </r>
       <r>     2.7711     3.5390    91.2749 </r>
       <r>     2.8476     3.1654    91.5172 </r>
       <r>     2.9242     2.4327    91.7035 </r>
       <r>     3.0007     1.8950    91.8485 </r>
       <r>     3.0773     1.3166    91.9493 </r>
       <r>     3.1538     0.5968    91.9950 </r>
       <r>     3.2304     0.2044    92.0106 </r>
       <r>     3.3069     0.4543    92.0454 </r>
       <r>     3.3835     1.0785    92.1280 </r>
       <r>     3.4600     1.6443    92.2538 </r>
       <r>     3.5366     2.0628    92.4117 </r>
       <r>     3.6131     2.4500    92.5993 </r>
       <r>     3.6897     2.7160    92.8072 </r>
       <r>     3.7662     2.5806    93.0047 </r>
       <r>     3.8428     1.9048    93.1506 </r>
       <r>     3.9193     0.9338    93.2220 </r>
       <r>     3.9959     0.1330    93.2322 </r>
       <r>     4.0724    -0.2313    93.2145 </r>
       <r>     4.1490    -0.0931    93.2074 </r>
       <r>     4.2255     0.6590    93.2578 </r>
       <r>     4.3021     1.8627    93.4004 </r>
       <r>     4.3786     2.6794    93.6055 </r>
       <r>     4.4552     2.3281    93.7838 </r>
       <r>     4.5317     1.1900    93.8748 </r>
       <r>     4.6083     0.4390    93.9084 </r>
       <r>     4.6848     0.6727    93.9599 </r>
       <r>     4.7614     1.4018    94.0673 </r>
       <r>     4.8379     1.8368    94.2079 </r>
       <r>     4.9145     1.8543    94.3498 </r>
       <r>     4.9910     1.7962    94.4873 </r>
       <r>     5.0676     1.6555    94.6140 </r>
       <r>     5.1441     1.3838    94.7200 </r>
       <r>     5.2207     1.5441    94.8382 </r>
       <r>     5.2972     2.4874    95.0286 </r>
       <r>     5.3738     3.4489    95.2926 </r>
       <r>     5.4503     3.5817    95.5668 </r>
       <r>     5.5269     3.2005    95.8118 </r>
       <r>     5.6034     3.1917    96.0561 </r>
       <r>     5.6800     3.9796    96.3608 </r>
       <r>     5.7565     5.1784    96.7572 </r>
       <r>     5.8331     5.5968    97.1856 </r>
       <r>     5.9096     4.3527    97.5188 </r>
       <r>     5.9862     2.2059    97.6877 </r>
       <r>     6.0627     0.6624    97.7384 </r>
       <r>     6.1393     0.1705    97.7514 </r>
       <r>     6.2158     0.1780    97.7651 </r>
       <r>     6.2924     0.2688    97.7856 </r>
       <r>     6.3689     0.5185    97.8253 </r>
       <r>     6.4455     1.1648    97.9145 </r>
       <r>     6.5220     2.2968    98.0903 </r>
       <r>     6.5986     3.7670    98.3787 </r>
       <r>     6.6751     5.2275    98.7789 </r>
       <r>     6.7517     6.0623    99.2429 </r>
       <r>     6.8282     5.5875    99.6707 </r>
       <r>     6.9048     3.8596    99.9661 </r>
       <r>     6.9813     2.0038   100.1195 </r>
       <r>     7.0579     1.2026   100.2116 </r>
       <r>     7.1344     1.5299   100.3287 </r>
       <r>     7.2110     2.1222   100.4911 </r>
       <r>     7.2875     2.3818   100.6735 </r>
       <r>     7.3641     2.6086   100.8731 </r>
       <r>     7.4406     3.2960   101.1254 </r>
       <r>     7.5172     4.2236   101.4488 </r>
       <r>     7.5937     4.6281   101.8031 </r>
       <r>     7.6703     4.1359   102.1197 </r>
       <r>     7.7468     3.1552   102.3612 </r>
       <r>     7.8234     2.1621   102.5267 </r>
       <r>     7.8999     1.1665   102.6160 </r>
       <r>     7.9765     0.2950   102.6386 </r>
       <r>     8.0530     0.2601   102.6585 </r>
       <r>     8.1296     1.7057   102.7891 </r>
       <r>     8.2061     4.0324   103.0977 </r>
       <r>     8.2827     5.3141   103.5045 </r>
       <r>     8.3592     4.2560   103.8303 </r>
       <r>     8.4358     1.8802   103.9743 </r>
       <r>     8.5123     0.3876   104.0039 </r>
       <r>     8.5889     1.0365   104.0833 </r>
       <r>     8.6654     3.5206   104.3528 </r>
       <r>     8.7420     6.4066   104.8432 </r>
       <r>     8.8185     8.0595   105.4602 </r>
       <r>     8.8951     7.8117   106.0582 </r>
       <r>     8.9716     6.1720   106.5306 </r>
       <r>     9.0482     3.9605   106.8338 </r>
       <r>     9.1248     1.8252   106.9735 </r>
       <r>     9.2013     0.4334   107.0067 </r>
       <r>     9.2779     0.3649   107.0346 </r>
       <r>     9.3544     1.5606   107.1541 </r>
       <r>     9.4310     3.0884   107.3905 </r>
       <r>     9.5075     3.8027   107.6816 </r>
       <r>     9.5841     3.4079   107.9425 </r>
       <r>     9.6606     2.6588   108.1460 </r>
       <r>     9.7372     2.6212   108.3467 </r>
       <r>     9.8137     3.9318   108.6477 </r>
       <r>     9.8903     6.1072   109.1152 </r>
       <r>     9.9668     7.3701   109.6794 </r>
       <r>    10.0434     6.3527   110.1657 </r>
       <r>    10.1199     4.0349   110.4745 </r>
       <r>    10.1965     2.7662   110.6863 </r>
       <r>    10.2730     3.6281   110.9640 </r>
       <r>    10.3496     5.5859   111.3916 </r>
       <r>    10.4261     6.7054   111.9049 </r>
       <r>    10.5027     5.7843   112.3477 </r>
       <r>    10.5792     3.3586   112.6048 </r>
       <r>    10.6558     1.2221   112.6984 </r>
       <r>    10.7323     0.7045   112.7523 </r>
       <r>    10.8089     1.6904   112.8817 </r>
       <r>    10.8854     3.2051   113.1271 </r>
       <r>    10.9620     4.3107   113.4570 </r>
       <r>    11.0385     4.5467   113.8051 </r>
       <r>    11.1151     4.2976   114.1341 </r>
       <r>    11.1916     4.5597   114.4831 </r>
       <r>    11.2682     5.5199   114.9057 </r>
       <r>    11.3447     5.9757   115.3631 </r>
       <r>    11.4213     4.9232   115.7400 </r>
       <r>    11.4978     2.8457   115.9578 </r>
       <r>    11.5744     0.9746   116.0324 </r>
       <r>    11.6509     0.0021   116.0326 </r>
       <r>    11.7275    -0.2178   116.0159 </r>
       <r>    11.8040    -0.1408   116.0052 </r>
       <r>    11.8806    -0.0520   116.0012 </r>
       <r>    11.9571    -0.0129   116.0002 </r>
       <r>    12.0337    -0.0023   116.0000 </r>
       <r>    12.1102    -0.0003   116.0000 </r>
       <r>    12.1868    -0.0000   116.0000 </r>
       <r>    12.2633    -0.0000   116.0000 </r>
       <r>    12.3399    -0.0000   116.0000 </r>
       <r>    12.4164    -0.0000   116.0000 </r>
       <r>    12.4930    -0.0000   116.0000 </r>
       <r>    12.5695    -0.0000   116.0000 </r>
       <r>    12.6461    -0.0000   116.0000 </r>
       <r>    12.7226     0.0000   116.0000 </r>
       <r>    12.7992     0.0000   116.0000 </r>
       <r>    12.8757     0.0000   116.0000 </r>
       <r>    12.9523     0.0000   116.0000 </r>
       <r>    13.0288     0.0000   116.0000 </r>
       <r>    13.1054     0.0000   116.0000 </r>
       <r>    13.1819     0.0000   116.0000 </r>
       <r>    13.2585     0.0000   116.0000 </r>
       <r>    13.3350     0.0000   116.0000 </r>
       <r>    13.4116     0.0000   116.0000 </r>
      </set>
     </set>
    </array>
   </total>
  </dos>
 </calculation>
 <structure name="finalpos" >
  <crystal>
   <varray name="basis" >
    <v>       3.63000011       0.00000000       0.00000000 </v>
    <v>       0.00000000       3.63000011       0.00000000 </v>
    <v>       0.00000000       0.00000000      27.70499992 </v>
   </varray>
   <i name="volume">    365.06603650 </i>
   <varray name="rec_basis" >
    <v>       0.27548208       0.00000000       0.00000000 </v>
    <v>       0.00000000       0.27548208       0.00000000 </v>
    <v>       0.00000000       0.00000000       0.03609457 </v>
   </varray>
  </crystal>
  <varray name="positions" >
   <v>       0.00000000       0.00000000       0.00000000 </v>
   <v>       0.50000000       0.50000000       0.00000000 </v>
   <v>       0.00000000       0.50000000       0.06551164 </v>
   <v>       0.50000000       0.00000000       0.06551164 </v>
   <v>       0.00000000       0.00000000       0.12876120 </v>
   <v>       0.50000000       0.50000000       0.12876120 </v>
   <v>       0.00000000       0.50000000       0.19193187 </v>
   <v>       0.50000000      -0.00000000       0.19193187 </v>
   <v>       0.00000000      -0.00000000       0.25406550 </v>
   <v>       0.50000000       0.50000000       0.25406550 </v>
   <v>      -0.00000000       0.50000000       0.31747855 </v>
   <v>       0.50000000      -0.00000000       0.31747855 </v>
   <v>      -0.00000000       0.00000000       0.38132233 </v>
   <v>       0.50000000       0.50000000       0.38132233 </v>
   <v>      -0.00000000       0.50000000       0.44440075 </v>
   <v>       0.50000000       0.00000000       0.44440075 </v>
  </varray>
  <varray name="selective"  type="logical" >
   <v type="logical" >  F  F  F </v>
   <v type="logical" >  F  F  F </v>
   <v type="logical" >  F  F  F </v>
   <v type="logical" >  F  F  F </v>
   <v type="logical" >  T  T  T </v>
   <v type="logical" >  T  T  T </v>
   <v type="logical" >  T  T  T </v>
   <v type="logical" >  T  T  T </v>
   <v type="logical" >  T  T  T </v>
   <v type="logical" >  T  T  T </v>
   <v type="logical" >  T  T  T </v>
   <v type="logical" >  T  T  T </v>
   <v type="logical" >  T  T  T </v>
   <v type="logical" >  T  T  T </v>
   <v type="logical" >  T  T  T </v>
   <v type="logical" >  T  T  T </v>
  </varray>
  <nose>
   <v>      -3.00000000       0.00000000       0.00010000       0.00010000 </v>
  </nose>
 </structure>
</modeling>
