  66  66   0   0
  0.2212521E+02  0.7260000E-09  0.7260000E-09  0.2770500E-08  0.5000000E-15
  1.000000000000000E-004
  CAR 
 unknown system                          
     13.39831006     -9.49403518  301      1.92781982      1.00000000
     -9.494  0.0000E+00  0.0000E+00  0.0000E+00  0.0000E+00
     -9.418  0.0000E+00  0.0000E+00  0.0000E+00  0.0000E+00
     -9.341  0.0000E+00  0.0000E+00  0.0000E+00  0.0000E+00
     -9.265  0.0000E+00  0.0000E+00  0.0000E+00  0.0000E+00
     -9.189  0.0000E+00  0.0000E+00  0.0000E+00  0.0000E+00
     -9.112 -0.1509E-30 -0.1509E-30 -0.1151E-31 -0.1151E-31
     -9.036 -0.5958E-28 -0.5958E-28 -0.4558E-29 -0.4558E-29
     -8.960 -0.1757E-25 -0.1757E-25 -0.1345E-26 -0.1345E-26
     -8.884 -0.3862E-23 -0.3862E-23 -0.2960E-24 -0.2960E-24
     -8.807 -0.6322E-21 -0.6322E-21 -0.4854E-22 -0.4854E-22
     -8.731 -0.7704E-19 -0.7704E-19 -0.5928E-20 -0.5928E-20
     -8.655 -0.6784E-17 -0.6784E-17 -0.5236E-18 -0.5236E-18
     -8.578 -0.4551E-15 -0.4551E-15 -0.3525E-16 -0.3525E-16
     -8.502 -0.2266E-13 -0.2266E-13 -0.1765E-14 -0.1765E-14
     -8.426 -0.8359E-12 -0.8359E-12 -0.6555E-13 -0.6555E-13
     -8.349 -0.2279E-10 -0.2279E-10 -0.1804E-11 -0.1804E-11
     -8.273 -0.4576E-09 -0.4576E-09 -0.3673E-10 -0.3673E-10
     -8.197 -0.6742E-08 -0.6742E-08 -0.5512E-09 -0.5512E-09
     -8.120 -0.7237E-07 -0.7237E-07 -0.6074E-08 -0.6074E-08
     -8.044 -0.5601E-06 -0.5601E-06 -0.4881E-07 -0.4881E-07
     -7.968 -0.3067E-05 -0.3067E-05 -0.2828E-06 -0.2828E-06
     -7.892 -0.1145E-04 -0.1145E-04 -0.1156E-05 -0.1156E-05
     -7.815 -0.2648E-04 -0.2648E-04 -0.3177E-05 -0.3177E-05
     -7.739 -0.2436E-04 -0.2436E-04 -0.5035E-05 -0.5035E-05
     -7.663  0.5626E-04  0.5626E-04 -0.7419E-06 -0.7419E-06
     -7.586  0.2439E-03  0.2439E-03  0.1787E-04  0.1787E-04
     -7.510  0.4218E-03  0.4218E-03  0.5005E-04  0.5005E-04
     -7.434  0.4410E-03  0.4410E-03  0.8371E-04  0.8371E-04
     -7.357  0.4605E-03  0.4605E-03  0.1188E-03  0.1188E-03
     -7.281  0.8818E-03  0.8818E-03  0.1861E-03  0.1861E-03
     -7.205  0.1664E-02  0.1664E-02  0.3131E-03  0.3131E-03
     -7.128  0.2143E-02  0.2143E-02  0.4766E-03  0.4766E-03
     -7.052  0.2075E-02  0.2075E-02  0.6350E-03  0.6350E-03
     -6.976  0.2310E-02  0.2310E-02  0.8113E-03  0.8113E-03
     -6.900  0.3657E-02  0.3657E-02  0.1090E-02  0.1090E-02
     -6.823  0.5485E-02  0.5485E-02  0.1509E-02  0.1509E-02
     -6.747  0.6280E-02  0.6280E-02  0.1988E-02  0.1988E-02
     -6.671  0.5489E-02  0.5489E-02  0.2407E-02  0.2407E-02
     -6.594  0.4004E-02  0.4004E-02  0.2712E-02  0.2712E-02
     -6.518  0.2788E-02  0.2788E-02  0.2925E-02  0.2925E-02
     -6.442  0.2068E-02  0.2068E-02  0.3083E-02  0.3083E-02
     -6.365  0.2060E-02  0.2060E-02  0.3240E-02  0.3240E-02
     -6.289  0.2975E-02  0.2975E-02  0.3467E-02  0.3467E-02
     -6.213  0.3988E-02  0.3988E-02  0.3772E-02  0.3772E-02
     -6.136  0.3921E-02  0.3921E-02  0.4071E-02  0.4071E-02
     -6.060  0.3183E-02  0.3183E-02  0.4314E-02  0.4314E-02
     -5.984  0.3311E-02  0.3311E-02  0.4566E-02  0.4566E-02
     -5.908  0.4568E-02  0.4568E-02  0.4915E-02  0.4915E-02
     -5.831  0.5651E-02  0.5651E-02  0.5346E-02  0.5346E-02
     -5.755  0.5662E-02  0.5662E-02  0.5778E-02  0.5778E-02
     -5.679  0.4907E-02  0.4907E-02  0.6153E-02  0.6153E-02
     -5.602  0.4168E-02  0.4168E-02  0.6471E-02  0.6471E-02
     -5.526  0.4271E-02  0.4271E-02  0.6797E-02  0.6797E-02
     -5.450  0.5392E-02  0.5392E-02  0.7208E-02  0.7208E-02
     -5.373  0.6209E-02  0.6209E-02  0.7682E-02  0.7682E-02
     -5.297  0.5204E-02  0.5204E-02  0.8079E-02  0.8079E-02
     -5.221  0.2931E-02  0.2931E-02  0.8303E-02  0.8303E-02
     -5.144  0.1456E-02  0.1456E-02  0.8414E-02  0.8414E-02
     -5.068  0.1739E-02  0.1739E-02  0.8546E-02  0.8546E-02
     -4.992  0.2915E-02  0.2915E-02  0.8769E-02  0.8769E-02
     -4.916  0.3962E-02  0.3962E-02  0.9071E-02  0.9071E-02
     -4.839  0.5067E-02  0.5067E-02  0.9458E-02  0.9458E-02
     -4.763  0.7100E-02  0.7100E-02  0.1000E-01  0.1000E-01
     -4.687  0.1002E-01  0.1002E-01  0.1076E-01  0.1076E-01
     -4.610  0.1227E-01  0.1227E-01  0.1170E-01  0.1170E-01
     -4.534  0.1222E-01  0.1222E-01  0.1263E-01  0.1263E-01
     -4.458  0.9920E-02  0.9920E-02  0.1339E-01  0.1339E-01
     -4.381  0.6805E-02  0.6805E-02  0.1391E-01  0.1391E-01
     -4.305  0.4390E-02  0.4390E-02  0.1424E-01  0.1424E-01
     -4.229  0.3636E-02  0.3636E-02  0.1452E-01  0.1452E-01
     -4.152  0.4673E-02  0.4673E-02  0.1488E-01  0.1488E-01
     -4.076  0.6478E-02  0.6478E-02  0.1537E-01  0.1537E-01
     -4.000  0.7835E-02  0.7835E-02  0.1597E-01  0.1597E-01
     -3.924  0.8872E-02  0.8872E-02  0.1665E-01  0.1665E-01
     -3.847  0.1026E-01  0.1026E-01  0.1743E-01  0.1743E-01
     -3.771  0.1182E-01  0.1182E-01  0.1833E-01  0.1833E-01
     -3.695  0.1345E-01  0.1345E-01  0.1936E-01  0.1936E-01
     -3.618  0.1544E-01  0.1544E-01  0.2054E-01  0.2054E-01
     -3.542  0.1709E-01  0.1709E-01  0.2184E-01  0.2184E-01
     -3.466  0.1732E-01  0.1732E-01  0.2316E-01  0.2316E-01
     -3.389  0.1613E-01  0.1613E-01  0.2439E-01  0.2439E-01
     -3.313  0.1447E-01  0.1447E-01  0.2550E-01  0.2550E-01
     -3.237  0.1416E-01  0.1416E-01  0.2658E-01  0.2658E-01
     -3.160  0.1820E-01  0.1820E-01  0.2797E-01  0.2797E-01
     -3.084  0.2824E-01  0.2824E-01  0.3012E-01  0.3012E-01
     -3.008  0.4071E-01  0.4071E-01  0.3323E-01  0.3323E-01
     -2.932  0.4780E-01  0.4780E-01  0.3687E-01  0.3687E-01
     -2.855  0.4575E-01  0.4575E-01  0.4037E-01  0.4037E-01
     -2.779  0.4044E-01  0.4044E-01  0.4345E-01  0.4345E-01
     -2.703  0.4065E-01  0.4065E-01  0.4655E-01  0.4655E-01
     -2.626  0.4751E-01  0.4751E-01  0.5018E-01  0.5018E-01
     -2.550  0.5572E-01  0.5572E-01  0.5443E-01  0.5443E-01
     -2.474  0.6378E-01  0.6378E-01  0.5930E-01  0.5930E-01
     -2.397  0.7599E-01  0.7599E-01  0.6510E-01  0.6510E-01
     -2.321  0.9203E-01  0.9203E-01  0.7212E-01  0.7212E-01
     -2.245  0.1014E+00  0.1014E+00  0.7986E-01  0.7986E-01
     -2.168  0.9488E-01  0.9488E-01  0.8710E-01  0.8710E-01
     -2.092  0.7798E-01  0.7798E-01  0.9305E-01  0.9305E-01
     -2.016  0.6597E-01  0.6597E-01  0.9808E-01  0.9808E-01
     -1.940  0.6720E-01  0.6720E-01  0.1032E+00  0.1032E+00
     -1.863  0.7735E-01  0.7735E-01  0.1091E+00  0.1091E+00
     -1.787  0.8750E-01  0.8750E-01  0.1158E+00  0.1158E+00
     -1.711  0.9231E-01  0.9231E-01  0.1228E+00  0.1228E+00
     -1.634  0.9252E-01  0.9252E-01  0.1299E+00  0.1299E+00
     -1.558  0.9332E-01  0.9332E-01  0.1370E+00  0.1370E+00
     -1.482  0.9971E-01  0.9971E-01  0.1446E+00  0.1446E+00
     -1.405  0.1118E+00  0.1118E+00  0.1532E+00  0.1532E+00
     -1.329  0.1244E+00  0.1244E+00  0.1626E+00  0.1626E+00
     -1.253  0.1324E+00  0.1324E+00  0.1727E+00  0.1727E+00
     -1.176  0.1357E+00  0.1357E+00  0.1831E+00  0.1831E+00
     -1.100  0.1379E+00  0.1379E+00  0.1936E+00  0.1936E+00
     -1.024  0.1384E+00  0.1384E+00  0.2042E+00  0.2042E+00
     -0.948  0.1341E+00  0.1341E+00  0.2144E+00  0.2144E+00
     -0.871  0.1262E+00  0.1262E+00  0.2241E+00  0.2241E+00
     -0.795  0.1194E+00  0.1194E+00  0.2332E+00  0.2332E+00
     -0.719  0.1166E+00  0.1166E+00  0.2421E+00  0.2421E+00
     -0.642  0.1199E+00  0.1199E+00  0.2512E+00  0.2512E+00
     -0.566  0.1302E+00  0.1302E+00  0.2612E+00  0.2612E+00
     -0.490  0.1412E+00  0.1412E+00  0.2719E+00  0.2719E+00
     -0.413  0.1456E+00  0.1456E+00  0.2830E+00  0.2830E+00
     -0.337  0.1436E+00  0.1436E+00  0.2940E+00  0.2940E+00
     -0.261  0.1414E+00  0.1414E+00  0.3048E+00  0.3048E+00
     -0.184  0.1418E+00  0.1418E+00  0.3156E+00  0.3156E+00
     -0.108  0.1435E+00  0.1435E+00  0.3266E+00  0.3266E+00
     -0.032  0.1484E+00  0.1484E+00  0.3379E+00  0.3379E+00
      0.044  0.1622E+00  0.1622E+00  0.3503E+00  0.3503E+00
      0.121  0.1840E+00  0.1840E+00  0.3643E+00  0.3643E+00
      0.197  0.2000E+00  0.2000E+00  0.3796E+00  0.3796E+00
      0.273  0.1933E+00  0.1933E+00  0.3943E+00  0.3943E+00
      0.350  0.1590E+00  0.1590E+00  0.4065E+00  0.4065E+00
      0.426  0.1088E+00  0.1088E+00  0.4148E+00  0.4148E+00
      0.502  0.6245E-01  0.6245E-01  0.4195E+00  0.4195E+00
      0.579  0.3322E-01  0.3322E-01  0.4221E+00  0.4221E+00
      0.655  0.2051E-01  0.2051E-01  0.4236E+00  0.4236E+00
      0.731  0.1674E-01  0.1674E-01  0.4249E+00  0.4249E+00
      0.808  0.1648E-01  0.1648E-01  0.4262E+00  0.4262E+00
      0.884  0.1731E-01  0.1731E-01  0.4275E+00  0.4275E+00
      0.960  0.1814E-01  0.1814E-01  0.4289E+00  0.4289E+00
      1.036  0.1894E-01  0.1894E-01  0.4303E+00  0.4303E+00
      1.113  0.1933E-01  0.1933E-01  0.4318E+00  0.4318E+00
      1.189  0.1778E-01  0.1778E-01  0.4331E+00  0.4331E+00
      1.265  0.1375E-01  0.1375E-01  0.4342E+00  0.4342E+00
      1.342  0.8928E-02  0.8928E-02  0.4349E+00  0.4349E+00
      1.418  0.5373E-02  0.5373E-02  0.4353E+00  0.4353E+00
      1.494  0.3679E-02  0.3679E-02  0.4356E+00  0.4356E+00
      1.571  0.3506E-02  0.3506E-02  0.4358E+00  0.4358E+00
      1.647  0.5066E-02  0.5066E-02  0.4362E+00  0.4362E+00
      1.723  0.9178E-02  0.9178E-02  0.4369E+00  0.4369E+00
      1.800  0.1581E-01  0.1581E-01  0.4381E+00  0.4381E+00
      1.876  0.2288E-01  0.2288E-01  0.4399E+00  0.4399E+00
      1.952  0.2680E-01  0.2680E-01  0.4419E+00  0.4419E+00
      2.028  0.2478E-01  0.2478E-01  0.4438E+00  0.4438E+00
      2.105  0.1757E-01  0.1757E-01  0.4451E+00  0.4451E+00
      2.181  0.9376E-02  0.9376E-02  0.4459E+00  0.4459E+00
      2.257  0.4501E-02  0.4501E-02  0.4462E+00  0.4462E+00
      2.334  0.4143E-02  0.4143E-02  0.4465E+00  0.4465E+00
      2.410  0.6259E-02  0.6259E-02  0.4470E+00  0.4470E+00
      2.486  0.8350E-02  0.8350E-02  0.4476E+00  0.4476E+00
      2.563  0.9838E-02  0.9838E-02  0.4484E+00  0.4484E+00
      2.639  0.1141E-01  0.1141E-01  0.4493E+00  0.4493E+00
      2.715  0.1335E-01  0.1335E-01  0.4503E+00  0.4503E+00
      2.792  0.1495E-01  0.1495E-01  0.4514E+00  0.4514E+00
      2.868  0.1455E-01  0.1455E-01  0.4525E+00  0.4525E+00
      2.944  0.1153E-01  0.1153E-01  0.4534E+00  0.4534E+00
      3.020  0.8549E-02  0.8549E-02  0.4541E+00  0.4541E+00
      3.097  0.9337E-02  0.9337E-02  0.4548E+00  0.4548E+00
      3.173  0.1389E-01  0.1389E-01  0.4558E+00  0.4558E+00
      3.249  0.1812E-01  0.1812E-01  0.4572E+00  0.4572E+00
      3.326  0.1842E-01  0.1842E-01  0.4586E+00  0.4586E+00
      3.402  0.1493E-01  0.1493E-01  0.4598E+00  0.4598E+00
      3.478  0.1033E-01  0.1033E-01  0.4605E+00  0.4605E+00
      3.555  0.6688E-02  0.6688E-02  0.4611E+00  0.4611E+00
      3.631  0.5027E-02  0.5027E-02  0.4614E+00  0.4614E+00
      3.707  0.6305E-02  0.6305E-02  0.4619E+00  0.4619E+00
      3.784  0.9986E-02  0.9986E-02  0.4627E+00  0.4627E+00
      3.860  0.1297E-01  0.1297E-01  0.4637E+00  0.4637E+00
      3.936  0.1260E-01  0.1260E-01  0.4646E+00  0.4646E+00
      4.012  0.9662E-02  0.9662E-02  0.4654E+00  0.4654E+00
      4.089  0.7237E-02  0.7237E-02  0.4659E+00  0.4659E+00
      4.165  0.7260E-02  0.7260E-02  0.4665E+00  0.4665E+00
      4.241  0.8742E-02  0.8742E-02  0.4671E+00  0.4671E+00
      4.318  0.9384E-02  0.9384E-02  0.4679E+00  0.4679E+00
      4.394  0.8634E-02  0.8634E-02  0.4685E+00  0.4685E+00
      4.470  0.7737E-02  0.7737E-02  0.4691E+00  0.4691E+00
      4.547  0.7622E-02  0.7622E-02  0.4697E+00  0.4697E+00
      4.623  0.8671E-02  0.8671E-02  0.4703E+00  0.4703E+00
      4.699  0.1102E-01  0.1102E-01  0.4712E+00  0.4712E+00
      4.776  0.1351E-01  0.1351E-01  0.4722E+00  0.4722E+00
      4.852  0.1399E-01  0.1399E-01  0.4733E+00  0.4733E+00
      4.928  0.1193E-01  0.1193E-01  0.4742E+00  0.4742E+00
      5.004  0.9546E-02  0.9546E-02  0.4749E+00  0.4749E+00
      5.081  0.9213E-02  0.9213E-02  0.4756E+00  0.4756E+00
      5.157  0.1062E-01  0.1062E-01  0.4764E+00  0.4764E+00
      5.233  0.1149E-01  0.1149E-01  0.4773E+00  0.4773E+00
      5.310  0.1076E-01  0.1076E-01  0.4781E+00  0.4781E+00
      5.386  0.1007E-01  0.1007E-01  0.4789E+00  0.4789E+00
      5.462  0.1156E-01  0.1156E-01  0.4798E+00  0.4798E+00
      5.539  0.1431E-01  0.1431E-01  0.4809E+00  0.4809E+00
      5.615  0.1455E-01  0.1455E-01  0.4820E+00  0.4820E+00
      5.691  0.1064E-01  0.1064E-01  0.4828E+00  0.4828E+00
      5.768  0.5950E-02  0.5950E-02  0.4833E+00  0.4833E+00
      5.844  0.5105E-02  0.5105E-02  0.4836E+00  0.4836E+00
      5.920  0.8668E-02  0.8668E-02  0.4843E+00  0.4843E+00
      5.996  0.1299E-01  0.1299E-01  0.4853E+00  0.4853E+00
      6.073  0.1458E-01  0.1458E-01  0.4864E+00  0.4864E+00
      6.149  0.1318E-01  0.1318E-01  0.4874E+00  0.4874E+00
      6.225  0.1094E-01  0.1094E-01  0.4883E+00  0.4883E+00
      6.302  0.1042E-01  0.1042E-01  0.4890E+00  0.4890E+00
      6.378  0.1299E-01  0.1299E-01  0.4900E+00  0.4900E+00
      6.454  0.1738E-01  0.1738E-01  0.4914E+00  0.4914E+00
      6.531  0.2039E-01  0.2039E-01  0.4929E+00  0.4929E+00
      6.607  0.2003E-01  0.2003E-01  0.4944E+00  0.4944E+00
      6.683  0.1719E-01  0.1719E-01  0.4958E+00  0.4958E+00
      6.760  0.1451E-01  0.1451E-01  0.4969E+00  0.4969E+00
      6.836  0.1396E-01  0.1396E-01  0.4979E+00  0.4979E+00
      6.912  0.1484E-01  0.1484E-01  0.4991E+00  0.4991E+00
      6.988  0.1461E-01  0.1461E-01  0.5002E+00  0.5002E+00
      7.065  0.1241E-01  0.1241E-01  0.5011E+00  0.5011E+00
      7.141  0.1011E-01  0.1011E-01  0.5019E+00  0.5019E+00
      7.217  0.9675E-02  0.9674E-02  0.5026E+00  0.5026E+00
      7.294  0.1096E-01  0.1096E-01  0.5035E+00  0.5035E+00
      7.370  0.1250E-01  0.1250E-01  0.5044E+00  0.5044E+00
      7.446  0.1347E-01  0.1347E-01  0.5055E+00  0.5055E+00
      7.523  0.1431E-01  0.1431E-01  0.5065E+00  0.5065E+00
      7.599  0.1553E-01  0.1553E-01  0.5077E+00  0.5077E+00
      7.675  0.1696E-01  0.1696E-01  0.5090E+00  0.5090E+00
      7.752  0.1829E-01  0.1829E-01  0.5104E+00  0.5104E+00
      7.828  0.1976E-01  0.1976E-01  0.5119E+00  0.5119E+00
      7.904  0.2144E-01  0.2144E-01  0.5136E+00  0.5136E+00
      7.980  0.2176E-01  0.2176E-01  0.5152E+00  0.5152E+00
      8.057  0.1859E-01  0.1859E-01  0.5166E+00  0.5166E+00
      8.133  0.1260E-01  0.1260E-01  0.5176E+00  0.5176E+00
      8.209  0.7958E-02  0.7958E-02  0.5182E+00  0.5182E+00
      8.286  0.8879E-02  0.8879E-02  0.5189E+00  0.5189E+00
      8.362  0.1497E-01  0.1497E-01  0.5200E+00  0.5200E+00
      8.438  0.2072E-01  0.2072E-01  0.5216E+00  0.5216E+00
      8.515  0.2103E-01  0.2103E-01  0.5232E+00  0.5232E+00
      8.591  0.1678E-01  0.1678E-01  0.5245E+00  0.5245E+00
      8.667  0.1286E-01  0.1286E-01  0.5255E+00  0.5255E+00
      8.744  0.1176E-01  0.1176E-01  0.5264E+00  0.5264E+00
      8.820  0.1265E-01  0.1265E-01  0.5273E+00  0.5273E+00
      8.896  0.1480E-01  0.1480E-01  0.5285E+00  0.5285E+00
      8.972  0.1801E-01  0.1801E-01  0.5299E+00  0.5299E+00
      9.049  0.2114E-01  0.2114E-01  0.5315E+00  0.5315E+00
      9.125  0.2270E-01  0.2270E-01  0.5332E+00  0.5332E+00
      9.201  0.2233E-01  0.2233E-01  0.5349E+00  0.5349E+00
      9.278  0.2074E-01  0.2074E-01  0.5365E+00  0.5365E+00
      9.354  0.1894E-01  0.1894E-01  0.5379E+00  0.5379E+00
      9.430  0.1763E-01  0.1763E-01  0.5393E+00  0.5393E+00
      9.507  0.1721E-01  0.1721E-01  0.5406E+00  0.5406E+00
      9.583  0.1741E-01  0.1741E-01  0.5419E+00  0.5419E+00
      9.659  0.1723E-01  0.1723E-01  0.5432E+00  0.5432E+00
      9.736  0.1612E-01  0.1612E-01  0.5445E+00  0.5445E+00
      9.812  0.1495E-01  0.1495E-01  0.5456E+00  0.5456E+00
      9.888  0.1476E-01  0.1476E-01  0.5467E+00  0.5467E+00
      9.964  0.1520E-01  0.1520E-01  0.5479E+00  0.5479E+00
     10.041  0.1511E-01  0.1511E-01  0.5490E+00  0.5490E+00
     10.117  0.1438E-01  0.1438E-01  0.5501E+00  0.5501E+00
     10.193  0.1461E-01  0.1461E-01  0.5513E+00  0.5513E+00
     10.270  0.1761E-01  0.1761E-01  0.5526E+00  0.5526E+00
     10.346  0.2315E-01  0.2315E-01  0.5544E+00  0.5544E+00
     10.422  0.2824E-01  0.2824E-01  0.5565E+00  0.5565E+00
     10.499  0.2896E-01  0.2896E-01  0.5587E+00  0.5587E+00
     10.575  0.2424E-01  0.2424E-01  0.5606E+00  0.5606E+00
     10.651  0.1720E-01  0.1720E-01  0.5619E+00  0.5619E+00
     10.728  0.1191E-01  0.1191E-01  0.5628E+00  0.5628E+00
     10.804  0.9734E-02  0.9734E-02  0.5635E+00  0.5635E+00
     10.880  0.9842E-02  0.9842E-02  0.5643E+00  0.5643E+00
     10.956  0.1154E-01  0.1154E-01  0.5652E+00  0.5652E+00
     11.033  0.1374E-01  0.1374E-01  0.5662E+00  0.5662E+00
     11.109  0.1411E-01  0.1411E-01  0.5673E+00  0.5673E+00
     11.185  0.1152E-01  0.1152E-01  0.5682E+00  0.5682E+00
     11.262  0.7994E-02  0.7994E-02  0.5688E+00  0.5688E+00
     11.338  0.5910E-02  0.5911E-02  0.5692E+00  0.5692E+00
     11.414  0.4995E-02  0.4995E-02  0.5696E+00  0.5696E+00
     11.491  0.3645E-02  0.3645E-02  0.5699E+00  0.5699E+00
     11.567  0.1704E-02  0.1704E-02  0.5700E+00  0.5700E+00
     11.643  0.2440E-03  0.2440E-03  0.5700E+00  0.5700E+00
     11.720 -0.2572E-03 -0.2572E-03  0.5700E+00  0.5700E+00
     11.796 -0.2111E-03 -0.2112E-03  0.5700E+00  0.5700E+00
     11.872 -0.8395E-04 -0.8395E-04  0.5700E+00  0.5700E+00
     11.948 -0.2140E-04 -0.2140E-04  0.5700E+00  0.5700E+00
     12.025 -0.3764E-05 -0.3764E-05  0.5700E+00  0.5700E+00
     12.101 -0.4712E-06 -0.4712E-06  0.5700E+00  0.5700E+00
     12.177 -0.4267E-07 -0.4267E-07  0.5700E+00  0.5700E+00
     12.254 -0.2822E-08 -0.2821E-08  0.5700E+00  0.5700E+00
     12.330 -0.1370E-09 -0.1370E-09  0.5700E+00  0.5700E+00
     12.406 -0.4910E-11 -0.4910E-11  0.5700E+00  0.5700E+00
     12.483 -0.1301E-12 -0.1301E-12  0.5700E+00  0.5700E+00
     12.559 -0.2557E-14 -0.2557E-14  0.5700E+00  0.5700E+00
     12.635 -0.3799E-16 -0.3799E-16  0.5700E+00  0.5700E+00
     12.712  0.0000E+00  0.0000E+00  0.5700E+00  0.5700E+00
     12.788  0.0000E+00  0.0000E+00  0.5700E+00  0.5700E+00
     12.864  0.0000E+00  0.0000E+00  0.5700E+00  0.5700E+00
     12.940  0.0000E+00  0.0000E+00  0.5700E+00  0.5700E+00
     13.017  0.0000E+00  0.0000E+00  0.5700E+00  0.5700E+00
     13.093  0.0000E+00  0.0000E+00  0.5700E+00  0.5700E+00
     13.169  0.0000E+00  0.0000E+00  0.5700E+00  0.5700E+00
     13.246  0.0000E+00  0.0000E+00  0.5700E+00  0.5700E+00
     13.322  0.0000E+00  0.0000E+00  0.5700E+00  0.5700E+00
     13.398  0.0000E+00  0.0000E+00  0.5700E+00  0.5700E+00
