<?xml version="1.0" encoding="ISO-8859-1"?>
<modeling>
 <generator>
  <i name="program" type="string">vasp </i>
  <i name="version" type="string">6.3.2  </i>
  <i name="subversion" type="string">27Jun22 (build Aug 17 2022 15:43:34) complex                          parallel </i>
  <i name="platform" type="string">tv2STDVTST </i>
  <i name="date" type="string">2025 02 17 </i>
  <i name="time" type="string">15:53:49 </i>
 </generator>
 <incar>
  <i type="int" name="ISTART">     0</i>
  <i type="string" name="PREC">Normal</i>
  <i type="int" name="ISPIN">     2</i>
  <i type="int" name="ICHARG">     2</i>
  <i type="int" name="IBRION">     2</i>
  <i name="EDIFF">      0.00020000</i>
  <i name="EDIFFG">     -0.03000000</i>
  <i type="int" name="NSW">   800</i>
  <i type="int" name="ISIF">     2</i>
  <i type="int" name="ISYM">     1</i>
  <i name="ENCUT">    400.00000000</i>
  <i name="POTIM">      0.50000000</i>
  <i type="logical" name="LREAL"> F  </i>
  <i type="int" name="ISMEAR">     1</i>
  <i name="SIGMA">      0.20000000</i>
  <i type="logical" name="LWAVE"> F  </i>
  <i type="logical" name="LCHARG"> F  </i>
  <i type="string" name="GGA">PE</i>
  <i type="int" name="IVDW">    11</i>
 </incar>
 <primitive_cell>
  <structure name="primitive_cell" >
   <crystal>
    <varray name="basis" >
     <v>       7.26000023       0.00000000       0.00000000 </v>
     <v>       0.00000000       7.26000023       0.00000000 </v>
     <v>       0.00000000       0.00000000      27.70499992 </v>
    </varray>
    <i name="volume">   1460.26414606 </i>
    <varray name="rec_basis" >
     <v>       0.13774104       0.00000000       0.00000000 </v>
     <v>       0.00000000       0.13774104       0.00000000 </v>
     <v>       0.00000000       0.00000000       0.03609457 </v>
    </varray>
   </crystal>
   <varray name="positions" >
    <v>       0.00000000       0.00000000       0.00000000 </v>
    <v>       0.00000000       0.50000000       0.00000000 </v>
    <v>       0.50000000       0.00000000       0.00000000 </v>
    <v>       0.50000000       0.50000000       0.00000000 </v>
    <v>       0.25000000       0.25000000       0.00000000 </v>
    <v>       0.25000000       0.75000000       0.00000000 </v>
    <v>       0.75000000       0.25000000       0.00000000 </v>
    <v>       0.75000000       0.75000000       0.00000000 </v>
    <v>       0.00000000       0.25000000       0.06551164 </v>
    <v>       0.00000000       0.75000000       0.06551164 </v>
    <v>       0.50000000       0.25000000       0.06551164 </v>
    <v>       0.50000000       0.75000000       0.06551164 </v>
    <v>       0.25000000       0.00000000       0.06551164 </v>
    <v>       0.25000000       0.50000000       0.06551164 </v>
    <v>       0.75000000       0.00000000       0.06551164 </v>
    <v>       0.75000000       0.50000000       0.06551164 </v>
    <v>       0.00000000       0.00000000       0.13164128 </v>
    <v>       0.00000000       0.50000000       0.13164128 </v>
    <v>       0.50000000       0.00000000       0.13164128 </v>
    <v>       0.50000000       0.50000000       0.13164128 </v>
    <v>       0.25000000       0.25000000       0.13164128 </v>
    <v>       0.25000000       0.75000000       0.13164128 </v>
    <v>       0.75000000       0.25000000       0.13164128 </v>
    <v>       0.75000000       0.75000000       0.13164128 </v>
    <v>       0.00000000       0.25000000       0.19677891 </v>
    <v>       0.00000000       0.75000000       0.19677891 </v>
    <v>       0.50000000       0.25000000       0.19677891 </v>
    <v>       0.50000000       0.75000000       0.19677891 </v>
    <v>       0.25000000       0.00000000       0.19677891 </v>
    <v>       0.25000000       0.50000000       0.19677891 </v>
    <v>       0.75000000       0.00000000       0.19677891 </v>
    <v>       0.75000000       0.50000000       0.19677891 </v>
    <v>       0.00000000       0.00000000       0.26184662 </v>
    <v>       0.00000000       0.50000000       0.26184662 </v>
    <v>       0.50000000       0.00000000       0.26184662 </v>
    <v>       0.50000000       0.50000000       0.26184662 </v>
    <v>       0.25000000       0.25000000       0.26184662 </v>
    <v>       0.25000000       0.75000000       0.26184662 </v>
    <v>       0.75000000       0.25000000       0.26184662 </v>
    <v>       0.75000000       0.75000000       0.26184662 </v>
    <v>       0.00000000       0.25000000       0.32758887 </v>
    <v>       0.00000000       0.75000000       0.32758887 </v>
    <v>       0.50000000       0.25000000       0.32758887 </v>
    <v>       0.50000000       0.75000000       0.32758887 </v>
    <v>       0.25000000       0.00000000       0.32758887 </v>
    <v>       0.25000000       0.50000000       0.32758887 </v>
    <v>       0.75000000       0.00000000       0.32758887 </v>
    <v>       0.75000000       0.50000000       0.32758887 </v>
    <v>       0.00000000       0.00000000       0.39185763 </v>
    <v>       0.00000000       0.50000000       0.39185763 </v>
    <v>       0.50000000       0.00000000       0.39185763 </v>
    <v>       0.50000000       0.50000000       0.39185763 </v>
    <v>       0.25000000       0.25000000       0.39185763 </v>
    <v>       0.25000000       0.75000000       0.39185763 </v>
    <v>       0.75000000       0.25000000       0.39185763 </v>
    <v>       0.75000000       0.75000000       0.39185763 </v>
    <v>       0.00000000       0.25000000       0.45475490 </v>
    <v>       0.00000000       0.75000000       0.45475490 </v>
    <v>       0.50000000       0.25000000       0.45475490 </v>
    <v>       0.50000000       0.75000000       0.45475490 </v>
    <v>       0.25000000       0.00000000       0.45475490 </v>
    <v>       0.25000000       0.50000000       0.45475490 </v>
    <v>       0.75000000       0.00000000       0.45475490 </v>
    <v>       0.75000000       0.50000000       0.45475490 </v>
    <v>       0.37500000       0.62500000       0.50150658 </v>
    <v>       0.37500000       0.72775482       0.50150658 </v>
   </varray>
  </structure>
  <varray name="primitive_index" >
   <v type="int" >        1 </v>
   <v type="int" >        2 </v>
   <v type="int" >        3 </v>
   <v type="int" >        4 </v>
   <v type="int" >        5 </v>
   <v type="int" >        6 </v>
   <v type="int" >        7 </v>
   <v type="int" >        8 </v>
   <v type="int" >        9 </v>
   <v type="int" >       10 </v>
   <v type="int" >       11 </v>
   <v type="int" >       12 </v>
   <v type="int" >       13 </v>
   <v type="int" >       14 </v>
   <v type="int" >       15 </v>
   <v type="int" >       16 </v>
   <v type="int" >       17 </v>
   <v type="int" >       18 </v>
   <v type="int" >       19 </v>
   <v type="int" >       20 </v>
   <v type="int" >       21 </v>
   <v type="int" >       22 </v>
   <v type="int" >       23 </v>
   <v type="int" >       24 </v>
   <v type="int" >       25 </v>
   <v type="int" >       26 </v>
   <v type="int" >       27 </v>
   <v type="int" >       28 </v>
   <v type="int" >       29 </v>
   <v type="int" >       30 </v>
   <v type="int" >       31 </v>
   <v type="int" >       32 </v>
   <v type="int" >       33 </v>
   <v type="int" >       34 </v>
   <v type="int" >       35 </v>
   <v type="int" >       36 </v>
   <v type="int" >       37 </v>
   <v type="int" >       38 </v>
   <v type="int" >       39 </v>
   <v type="int" >       40 </v>
   <v type="int" >       41 </v>
   <v type="int" >       42 </v>
   <v type="int" >       43 </v>
   <v type="int" >       44 </v>
   <v type="int" >       45 </v>
   <v type="int" >       46 </v>
   <v type="int" >       47 </v>
   <v type="int" >       48 </v>
   <v type="int" >       49 </v>
   <v type="int" >       50 </v>
   <v type="int" >       51 </v>
   <v type="int" >       52 </v>
   <v type="int" >       53 </v>
   <v type="int" >       54 </v>
   <v type="int" >       55 </v>
   <v type="int" >       56 </v>
   <v type="int" >       57 </v>
   <v type="int" >       58 </v>
   <v type="int" >       59 </v>
   <v type="int" >       60 </v>
   <v type="int" >       61 </v>
   <v type="int" >       62 </v>
   <v type="int" >       63 </v>
   <v type="int" >       64 </v>
   <v type="int" >       65 </v>
   <v type="int" >       66 </v>
  </varray>
 </primitive_cell>
 <kpoints>
  <generation param="Monkhorst-Pack">
   <v type="int" name="divisions">       3        3        1 </v>
   <v name="usershift">      0.00000000       0.00000000       0.00000000 </v>
   <v name="genvec1">      0.33333333       0.00000000       0.00000000 </v>
   <v name="genvec2">      0.00000000       0.33333333       0.00000000 </v>
   <v name="genvec3">      0.00000000       0.00000000       1.00000000 </v>
   <v name="shift">      0.00000000       0.00000000       0.00000000 </v>
  </generation>
  <varray name="kpointlist" >
   <v>       0.00000000       0.00000000       0.00000000 </v>
   <v>       0.33333333       0.00000000       0.00000000 </v>
   <v>       0.00000000       0.33333333       0.00000000 </v>
   <v>       0.33333333       0.33333333       0.00000000 </v>
   <v>      -0.33333333       0.33333333       0.00000000 </v>
  </varray>
  <varray name="weights" >
   <v>       0.11111111 </v>
   <v>       0.22222222 </v>
   <v>       0.22222222 </v>
   <v>       0.22222222 </v>
   <v>       0.22222222 </v>
  </varray>
 </kpoints>
 <parameters>
  <separator name="general" >
   <i type="string" name="SYSTEM">unknown system</i>
   <i type="logical" name="LCOMPAT"> F  </i>
  </separator>
  <separator name="electronic" >
   <i type="string" name="PREC">normal</i>
   <i name="ENMAX">    400.00000000</i>
   <i name="ENAUG">    586.98000000</i>
   <i name="EDIFF">      0.00020000</i>
   <i type="int" name="IALGO">    38</i>
   <i type="int" name="IWAVPR">    11</i>
   <i type="int" name="NBANDS">   456</i>
   <i type="int" name="NBANDSLOW">    -1</i>
   <i type="int" name="NBANDSHIGH">    -1</i>
   <i name="NELECT">    706.00000000</i>
   <i type="int" name="TURBO">     0</i>
   <i type="int" name="IRESTART">     0</i>
   <i type="int" name="NREBOOT">     0</i>
   <i type="int" name="NMIN">     0</i>
   <i name="EREF">      0.00000000</i>
   <separator name="electronic smearing" >
    <i type="int" name="ISMEAR">     1</i>
    <i name="SIGMA">      0.20000000</i>
    <i name="KSPACING">      0.50000000</i>
    <i type="logical" name="KGAMMA"> T  </i>
    <i type="logical" name="KBLOWUP"> T  </i>
   </separator>
   <separator name="electronic projectors" >
    <i type="logical" name="LREAL"> F  </i>
    <v name="ROPT">      0.00000000      0.00000000</v>
    <i type="int" name="LMAXPAW">  -100</i>
    <i type="int" name="LMAXMIX">     2</i>
    <i type="logical" name="NLSPLINE"> F  </i>
   </separator>
   <separator name="electronic startup" >
    <i type="int" name="ISTART">     0</i>
    <i type="int" name="ICHARG">     2</i>
    <i type="int" name="INIWAV">     1</i>
   </separator>
   <separator name="electronic spin" >
    <i type="int" name="ISPIN">     2</i>
    <i type="logical" name="LNONCOLLINEAR"> F  </i>
    <v name="MAGMOM">      1.00000000      1.00000000      1.00000000      1.00000000      1.00000000      1.00000000      1.00000000      1.00000000      1.00000000      1.00000000      1.00000000      1.00000000      1.00000000      1.00000000      1.00000000      1.00000000      1.00000000      1.00000000      1.00000000      1.00000000
      1.00000000      1.00000000      1.00000000      1.00000000      1.00000000      1.00000000      1.00000000      1.00000000      1.00000000      1.00000000      1.00000000      1.00000000      1.00000000      1.00000000      1.00000000      1.00000000      1.00000000      1.00000000      1.00000000      1.00000000
      1.00000000      1.00000000      1.00000000      1.00000000      1.00000000      1.00000000      1.00000000      1.00000000      1.00000000      1.00000000      1.00000000      1.00000000      1.00000000      1.00000000      1.00000000      1.00000000      1.00000000      1.00000000      1.00000000      1.00000000
      1.00000000      1.00000000      1.00000000      1.00000000      1.00000000      1.00000000</v>
    <i name="NUPDOWN">     -1.00000000</i>
    <i type="logical" name="LSORBIT"> F  </i>
    <v name="SAXIS">      0.00000000      0.00000000      1.00000000</v>
    <i type="logical" name="LSPIRAL"> F  </i>
    <v name="QSPIRAL">      0.00000000      0.00000000      0.00000000</v>
    <i type="logical" name="LZEROZ"> F  </i>
   </separator>
   <separator name="electronic exchange-correlation" >
    <i type="logical" name="LASPH"> F  </i>
    <i type="logical" name="LMETAGGA"> F  </i>
   </separator>
   <separator name="electronic convergence" >
    <i type="int" name="NELM">    60</i>
    <i type="int" name="NELMDL">    -5</i>
    <i type="int" name="NELMIN">     2</i>
    <i name="ENINI">    400.00000000</i>
    <separator name="electronic convergence detail" >
     <i type="logical" name="LDIAG"> T  </i>
     <i type="logical" name="LSUBROT"> F  </i>
     <i name="WEIMIN">      0.00100000</i>
     <i name="EBREAK">      0.00000011</i>
     <i name="DEPER">      0.30000000</i>
     <i type="int" name="NRMM">     4</i>
     <i name="TIME">      0.40000000</i>
    </separator>
   </separator>
   <separator name="electronic mixer" >
    <i name="AMIX">      0.40000000</i>
    <i name="BMIX">      1.00000000</i>
    <i name="AMIN">      0.10000000</i>
    <i name="AMIX_MAG">      1.60000000</i>
    <i name="BMIX_MAG">      1.00000000</i>
    <separator name="electronic mixer details" >
     <i type="int" name="IMIX">     4</i>
     <i type="logical" name="MIXFIRST"> F  </i>
     <i type="int" name="MAXMIX">   -45</i>
     <i name="WC">    100.00000000</i>
     <i type="int" name="INIMIX">     1</i>
     <i type="int" name="MIXPRE">     1</i>
     <i type="int" name="MREMOVE">     5</i>
    </separator>
   </separator>
   <separator name="electronic dipolcorrection" >
    <i type="logical" name="LDIPOL"> F  </i>
    <i type="logical" name="LMONO"> F  </i>
    <i type="int" name="IDIPOL">     0</i>
    <i name="EPSILON">      1.00000000</i>
    <v name="DIPOL">   -100.00000000   -100.00000000   -100.00000000</v>
    <i name="EFIELD">      0.00000000</i>
   </separator>
  </separator>
  <separator name="grids" >
   <i type="int" name="NGX">    36</i>
   <i type="int" name="NGY">    36</i>
   <i type="int" name="NGZ">   140</i>
   <i type="int" name="NGXF">    72</i>
   <i type="int" name="NGYF">    72</i>
   <i type="int" name="NGZF">   280</i>
   <i type="logical" name="ADDGRID"> F  </i>
  </separator>
  <separator name="ionic" >
   <i type="int" name="NSW">   800</i>
   <i type="int" name="IBRION">     2</i>
   <i type="int" name="MDALGO">     0</i>
   <i type="int" name="ISIF">     2</i>
   <i name="PSTRESS">      0.00000000</i>
   <i name="EDIFFG">     -0.03000000</i>
   <i type="int" name="NFREE">     1</i>
   <i name="POTIM">      0.50000000</i>
   <i name="SMASS">     -3.00000000</i>
   <i name="SCALEE">      1.00000000</i>
  </separator>
  <separator name="ionic md" >
   <i name="TEBEG">      0.00010000</i>
   <i name="TEEND">      0.00010000</i>
   <i type="int" name="NBLOCK">     1</i>
   <i type="int" name="KBLOCK">   800</i>
   <i type="int" name="NPACO">   256</i>
   <i name="APACO">     10.00000000</i>
  </separator>
  <separator name="symmetry" >
   <i type="int" name="ISYM">     1</i>
   <i name="SYMPREC">      0.00001000</i>
  </separator>
  <separator name="dos" >
   <i type="int" name="LORBIT">     0</i>
   <v name="RWIGS">     -1.00000000     -1.00000000</v>
   <i type="int" name="NEDOS">   301</i>
   <i name="EMIN">     10.00000000</i>
   <i name="EMAX">    -10.00000000</i>
   <i name="EFERMI">      0.00000000</i>
  </separator>
  <separator name="writing" >
   <i type="int" name="NWRITE">     2</i>
   <i type="logical" name="LWAVE"> F  </i>
   <i type="logical" name="LDOWNSAMPLE"> F  </i>
   <i type="logical" name="LCHARG"> F  </i>
   <i type="logical" name="LPARD"> F  </i>
   <i type="logical" name="LVTOT"> F  </i>
   <i type="logical" name="LVHAR"> F  </i>
   <i type="logical" name="LELF"> F  </i>
   <i type="logical" name="LOPTICS"> F  </i>
   <v name="STM">      0.00000000      0.00000000      0.00000000      0.00000000      0.00000000      0.00000000      0.00000000</v>
  </separator>
  <separator name="performance" >
   <i type="int" name="NPAR">     4</i>
   <i type="int" name="NSIM">     4</i>
   <i type="int" name="NBLK">    -1</i>
   <i type="logical" name="LPLANE"> T  </i>
   <i type="logical" name="LSCALAPACK"> T  </i>
   <i type="logical" name="LSCAAWARE"> F  </i>
   <i type="logical" name="LSCALU"> F  </i>
   <i type="logical" name="LASYNC"> F  </i>
   <i type="logical" name="LORBITALREAL"> F  </i>
  </separator>
  <separator name="miscellaneous" >
   <i type="int" name="IDIOT">     3</i>
   <i type="int" name="PHON_NSTRUCT">    -1</i>
   <i type="logical" name="LMUSIC"> F  </i>
   <v name="POMASS">     63.54600000      1.00000000</v>
   <v name="DARWINR">      0.00000000      0.00000000</v>
   <v name="DARWINV">      1.00000000      1.00000000</v>
   <i type="logical" name="LCORR"> T  </i>
  </separator>
  <i type="logical" name="GGA_COMPAT"> T  </i>
  <i type="logical" name="LBERRY"> F  </i>
  <i type="int" name="ICORELEVEL">     0</i>
  <i type="logical" name="LDAU"> F  </i>
  <i type="int" name="I_CONSTRAINED_M">     0</i>
  <separator name="electronic exchange-correlation" >
   <i type="string" name="GGA">PE</i>
   <i type="int" name="VOSKOWN">     0</i>
   <i type="logical" name="LHFCALC"> F  </i>
   <i type="string" name="PRECFOCK"></i>
   <i type="logical" name="LSYMGRAD"> F  </i>
   <i type="logical" name="LHFONE"> F  </i>
   <i type="logical" name="LRHFCALC"> F  </i>
   <i type="logical" name="LTHOMAS"> F  </i>
   <i type="logical" name="LMODELHF"> F  </i>
   <i type="logical" name="LFOCKACE"> F  </i>
   <i name="ENCUT4O">     -1.00000000</i>
   <i type="int" name="EXXOEP">     0</i>
   <i type="int" name="FOURORBIT">     0</i>
   <i name="AEXX">      0.00000000</i>
   <i name="HFALPHA">      0.00000000</i>
   <i name="MCALPHA">      0.00000000</i>
   <i name="ALDAX">      1.00000000</i>
   <i name="AGGAX">      1.00000000</i>
   <i name="ALDAC">      1.00000000</i>
   <i name="AGGAC">      1.00000000</i>
   <i type="int" name="NKREDX">     1</i>
   <i type="int" name="NKREDY">     1</i>
   <i type="int" name="NKREDZ">     1</i>
   <i type="logical" name="SHIFTRED"> F  </i>
   <i type="logical" name="ODDONLY"> F  </i>
   <i type="logical" name="EVENONLY"> F  </i>
   <i type="int" name="LMAXFOCK">     0</i>
   <i type="int" name="NMAXFOCKAE">     0</i>
   <i type="logical" name="LFOCKAEDFT"> F  </i>
   <i name="HFSCREEN">      0.00000000</i>
   <i name="HFSCREENC">      0.00000000</i>
   <i type="int" name="NBANDSGWLOW">     0</i>
  </separator>
  <separator name="vdW DFT" >
   <i type="logical" name="LUSE_VDW"> F  </i>
   <i name="Zab_VDW">     -0.84910000</i>
   <i name="PARAM1">      0.12340000</i>
   <i name="PARAM2">      1.00000000</i>
   <i name="PARAM3">      0.00000000</i>
  </separator>
  <separator name="model GW" >
   <i type="int" name="MODEL_GW">     0</i>
   <i name="MODEL_EPS0">     13.27512860</i>
   <i name="MODEL_ALPHA">      1.00000000</i>
  </separator>
  <separator name="linear response parameters" >
   <i type="logical" name="LEPSILON"> F  </i>
   <i type="logical" name="LRPA"> F  </i>
   <i type="logical" name="LNABLA"> F  </i>
   <i type="logical" name="LVEL"> F  </i>
   <i name="CSHIFT">      0.10000000</i>
   <i name="OMEGAMAX">     -1.00000000</i>
   <i name="DEG_THRESHOLD">      0.00200000</i>
   <i name="RTIME">     -0.10000000</i>
   <i name="WPLASMAI">      0.00000000</i>
   <v name="DFIELD">      0.00000000      0.00000000      0.00000000</v>
   <v name="WPLASMA">      0.00000000      0.00000000      0.00000000      0.00000000      0.00000000      0.00000000      0.00000000      0.00000000      0.00000000</v>
  </separator>
  <separator name="orbital magnetization" >
   <i type="logical" name="NUCIND"> F  </i>
   <v name="MAGPOS">      0.00000000      0.00000000      0.00000000</v>
   <i type="logical" name="LNICSALL"> T  </i>
   <i type="logical" name="ORBITALMAG"> F  </i>
   <i type="logical" name="LMAGBLOCH"> F  </i>
   <i type="logical" name="LCHIMAG"> F  </i>
   <i type="logical" name="LGAUGE"> T  </i>
   <i type="int" name="MAGATOM">     0</i>
   <v name="MAGDIPOL">      0.00000000      0.00000000      0.00000000</v>
   <v name="AVECCONST">      0.00000000      0.00000000      0.00000000</v>
  </separator>
  <separator name="response functions" >
   <i type="logical" name="LFINITE_TEMPERATURE"> F  </i>
   <i type="logical" name="LADDER"> F  </i>
   <i type="logical" name="LRPAFORCE"> F  </i>
   <i type="logical" name="LFXC"> F  </i>
   <i type="logical" name="LHARTREE"> T  </i>
   <i type="int" name="IBSE">     0</i>
   <v type="int" name="KPOINT">    -1     0     0     0</v>
   <i type="logical" name="LTCTC"> F  </i>
   <i type="logical" name="LTCTE"> F  </i>
   <i type="logical" name="LTETE"> F  </i>
   <i type="logical" name="LTRIPLET"> F  </i>
   <i type="logical" name="LFXCEPS"> F  </i>
   <i type="logical" name="LFXHEG"> F  </i>
   <i type="int" name="NATURALO">     2</i>
   <i type="logical" name="LHOLEGF"> F  </i>
   <i type="logical" name="L2ORDER"> F  </i>
   <i type="logical" name="LDMP1"> F  </i>
   <i type="logical" name="LMP2LT"> F  </i>
   <i type="logical" name="LSMP2LT"> F  </i>
   <i type="logical" name="LGWLF"> F  </i>
   <i name="ENCUTGW">     -2.00000000</i>
   <i name="ENCUTGWSOFT">     -2.00000000</i>
   <i name="ENCUTLF">     -1.00000000</i>
   <i type="logical" name="LESF_SPLINES"> F  </i>
   <i type="int" name="LMAXMP2">    -1</i>
   <i name="SCISSOR">      0.00000000</i>
   <i type="int" name="NOMEGA">     0</i>
   <i type="int" name="NOMEGAR">     0</i>
   <i type="int" name="NBANDSGW">    -1</i>
   <i type="int" name="NBANDSO">    -1</i>
   <i type="int" name="NBANDSV">    -1</i>
   <i type="int" name="NELMGW">     1</i>
   <i type="int" name="NELMHF">     1</i>
   <i type="int" name="DIM">     3</i>
   <i type="int" name="IESPILON">     4</i>
   <i type="int" name="ANTIRES">     0</i>
   <i name="OMEGAMAX">    -30.00000000</i>
   <i name="OMEGAMIN">    -30.00000000</i>
   <i name="OMEGATL">   -200.00000000</i>
   <i type="int" name="OMEGAGRID">     0</i>
   <i name="CSHIFT">     -0.10000000</i>
   <i type="logical" name="LSELFENERGY"> F  </i>
   <i type="logical" name="LSPECTRAL"> F  </i>
   <i type="logical" name="LSPECTRALGW"> F  </i>
   <i type="logical" name="LSINGLES"> F  </i>
   <i type="logical" name="LFERMIGW"> F  </i>
   <i type="logical" name="ODDONLYGW"> F  </i>
   <i type="logical" name="EVENONLYGW"> F  </i>
   <i type="int" name="NKREDLFX">     1</i>
   <i type="int" name="NKREDLFY">     1</i>
   <i type="int" name="NKREDLFZ">     1</i>
   <i type="int" name="MAXMEM">  2800</i>
   <i type="int" name="TELESCOPE">     0</i>
   <i type="int" name="NTAUPAR">    -1</i>
   <i type="int" name="NOMEGAPAR">    -1</i>
   <i name="DAMP_NEWTON">      0.80000001</i>
   <i name="LAMBDA">      1.00000000</i>
  </separator>
  <separator name="External order field" >
   <i name="OFIELD_KAPPA">      0.00000000</i>
   <v name="OFIELD_K">      0.00000000      0.00000000      0.00000000</v>
   <i name="OFIELD_Q6_NEAR">      0.00000000</i>
   <i name="OFIELD_Q6_FAR">      0.00000000</i>
   <i name="OFIELD_A">      0.00000000</i>
  </separator>
  <separator name="optional k-points parameters" >
   <i type="int" name="KPOINTS_OPT_MODE">     1</i>
   <i type="logical" name="LKPOINTS_OPT"> F  </i>
  </separator>
 </parameters>
 <atominfo>
  <atoms>      66 </atoms>
  <types>       2 </types>
  <array name="atoms" >
   <dimension dim="1">ion</dimension>
   <field type="string">element</field>
   <field type="int">atomtype</field>
   <set>
    <rc><c>Cu</c><c>   1</c></rc>
    <rc><c>Cu</c><c>   1</c></rc>
    <rc><c>Cu</c><c>   1</c></rc>
    <rc><c>Cu</c><c>   1</c></rc>
    <rc><c>Cu</c><c>   1</c></rc>
    <rc><c>Cu</c><c>   1</c></rc>
    <rc><c>Cu</c><c>   1</c></rc>
    <rc><c>Cu</c><c>   1</c></rc>
    <rc><c>Cu</c><c>   1</c></rc>
    <rc><c>Cu</c><c>   1</c></rc>
    <rc><c>Cu</c><c>   1</c></rc>
    <rc><c>Cu</c><c>   1</c></rc>
    <rc><c>Cu</c><c>   1</c></rc>
    <rc><c>Cu</c><c>   1</c></rc>
    <rc><c>Cu</c><c>   1</c></rc>
    <rc><c>Cu</c><c>   1</c></rc>
    <rc><c>Cu</c><c>   1</c></rc>
    <rc><c>Cu</c><c>   1</c></rc>
    <rc><c>Cu</c><c>   1</c></rc>
    <rc><c>Cu</c><c>   1</c></rc>
    <rc><c>Cu</c><c>   1</c></rc>
    <rc><c>Cu</c><c>   1</c></rc>
    <rc><c>Cu</c><c>   1</c></rc>
    <rc><c>Cu</c><c>   1</c></rc>
    <rc><c>Cu</c><c>   1</c></rc>
    <rc><c>Cu</c><c>   1</c></rc>
    <rc><c>Cu</c><c>   1</c></rc>
    <rc><c>Cu</c><c>   1</c></rc>
    <rc><c>Cu</c><c>   1</c></rc>
    <rc><c>Cu</c><c>   1</c></rc>
    <rc><c>Cu</c><c>   1</c></rc>
    <rc><c>Cu</c><c>   1</c></rc>
    <rc><c>Cu</c><c>   1</c></rc>
    <rc><c>Cu</c><c>   1</c></rc>
    <rc><c>Cu</c><c>   1</c></rc>
    <rc><c>Cu</c><c>   1</c></rc>
    <rc><c>Cu</c><c>   1</c></rc>
    <rc><c>Cu</c><c>   1</c></rc>
    <rc><c>Cu</c><c>   1</c></rc>
    <rc><c>Cu</c><c>   1</c></rc>
    <rc><c>Cu</c><c>   1</c></rc>
    <rc><c>Cu</c><c>   1</c></rc>
    <rc><c>Cu</c><c>   1</c></rc>
    <rc><c>Cu</c><c>   1</c></rc>
    <rc><c>Cu</c><c>   1</c></rc>
    <rc><c>Cu</c><c>   1</c></rc>
    <rc><c>Cu</c><c>   1</c></rc>
    <rc><c>Cu</c><c>   1</c></rc>
    <rc><c>Cu</c><c>   1</c></rc>
    <rc><c>Cu</c><c>   1</c></rc>
    <rc><c>Cu</c><c>   1</c></rc>
    <rc><c>Cu</c><c>   1</c></rc>
    <rc><c>Cu</c><c>   1</c></rc>
    <rc><c>Cu</c><c>   1</c></rc>
    <rc><c>Cu</c><c>   1</c></rc>
    <rc><c>Cu</c><c>   1</c></rc>
    <rc><c>Cu</c><c>   1</c></rc>
    <rc><c>Cu</c><c>   1</c></rc>
    <rc><c>Cu</c><c>   1</c></rc>
    <rc><c>Cu</c><c>   1</c></rc>
    <rc><c>Cu</c><c>   1</c></rc>
    <rc><c>Cu</c><c>   1</c></rc>
    <rc><c>Cu</c><c>   1</c></rc>
    <rc><c>Cu</c><c>   1</c></rc>
    <rc><c>H </c><c>   2</c></rc>
    <rc><c>H </c><c>   2</c></rc>
   </set>
  </array>
  <array name="atomtypes" >
   <dimension dim="1">type</dimension>
   <field type="int">atomspertype</field>
   <field type="string">element</field>
   <field>mass</field>
   <field>valence</field>
   <field type="string">pseudopotential</field>
   <set>
    <rc><c>  64</c><c>Cu</c><c>     63.54600000</c><c>     11.00000000</c><c>  PAW_PBE Cu 22Jun2005                  </c></rc>
    <rc><c>   2</c><c>H </c><c>      1.00000000</c><c>      1.00000000</c><c>  PAW_PBE H 15Jun2001                   </c></rc>
   </set>
  </array>
 </atominfo>
 <structure name="initialpos" >
  <crystal>
   <varray name="basis" >
    <v>       7.26000023       0.00000000       0.00000000 </v>
    <v>       0.00000000       7.26000023       0.00000000 </v>
    <v>       0.00000000       0.00000000      27.70499992 </v>
   </varray>
   <i name="volume">   1460.26414606 </i>
   <varray name="rec_basis" >
    <v>       0.13774104       0.00000000       0.00000000 </v>
    <v>       0.00000000       0.13774104       0.00000000 </v>
    <v>       0.00000000       0.00000000       0.03609457 </v>
   </varray>
  </crystal>
  <varray name="positions" >
   <v>       0.00000000       0.00000000       0.00000000 </v>
   <v>       0.00000000       0.50000000       0.00000000 </v>
   <v>       0.50000000       0.00000000       0.00000000 </v>
   <v>       0.50000000       0.50000000       0.00000000 </v>
   <v>       0.25000000       0.25000000       0.00000000 </v>
   <v>       0.25000000       0.75000000       0.00000000 </v>
   <v>       0.75000000       0.25000000       0.00000000 </v>
   <v>       0.75000000       0.75000000       0.00000000 </v>
   <v>       0.00000000       0.25000000       0.06551164 </v>
   <v>       0.00000000       0.75000000       0.06551164 </v>
   <v>       0.50000000       0.25000000       0.06551164 </v>
   <v>       0.50000000       0.75000000       0.06551164 </v>
   <v>       0.25000000       0.00000000       0.06551164 </v>
   <v>       0.25000000       0.50000000       0.06551164 </v>
   <v>       0.75000000       0.00000000       0.06551164 </v>
   <v>       0.75000000       0.50000000       0.06551164 </v>
   <v>       0.00000000       0.00000000       0.13164128 </v>
   <v>       0.00000000       0.50000000       0.13164128 </v>
   <v>       0.50000000       0.00000000       0.13164128 </v>
   <v>       0.50000000       0.50000000       0.13164128 </v>
   <v>       0.25000000       0.25000000       0.13164128 </v>
   <v>       0.25000000       0.75000000       0.13164128 </v>
   <v>       0.75000000       0.25000000       0.13164128 </v>
   <v>       0.75000000       0.75000000       0.13164128 </v>
   <v>       0.00000000       0.25000000       0.19677891 </v>
   <v>       0.00000000       0.75000000       0.19677891 </v>
   <v>       0.50000000       0.25000000       0.19677891 </v>
   <v>       0.50000000       0.75000000       0.19677891 </v>
   <v>       0.25000000       0.00000000       0.19677891 </v>
   <v>       0.25000000       0.50000000       0.19677891 </v>
   <v>       0.75000000       0.00000000       0.19677891 </v>
   <v>       0.75000000       0.50000000       0.19677891 </v>
   <v>       0.00000000       0.00000000       0.26184662 </v>
   <v>       0.00000000       0.50000000       0.26184662 </v>
   <v>       0.50000000       0.00000000       0.26184662 </v>
   <v>       0.50000000       0.50000000       0.26184662 </v>
   <v>       0.25000000       0.25000000       0.26184662 </v>
   <v>       0.25000000       0.75000000       0.26184662 </v>
   <v>       0.75000000       0.25000000       0.26184662 </v>
   <v>       0.75000000       0.75000000       0.26184662 </v>
   <v>       0.00000000       0.25000000       0.32758887 </v>
   <v>       0.00000000       0.75000000       0.32758887 </v>
   <v>       0.50000000       0.25000000       0.32758887 </v>
   <v>       0.50000000       0.75000000       0.32758887 </v>
   <v>       0.25000000       0.00000000       0.32758887 </v>
   <v>       0.25000000       0.50000000       0.32758887 </v>
   <v>       0.75000000       0.00000000       0.32758887 </v>
   <v>       0.75000000       0.50000000       0.32758887 </v>
   <v>       0.00000000       0.00000000       0.39185763 </v>
   <v>       0.00000000       0.50000000       0.39185763 </v>
   <v>       0.50000000       0.00000000       0.39185763 </v>
   <v>       0.50000000       0.50000000       0.39185763 </v>
   <v>       0.25000000       0.25000000       0.39185763 </v>
   <v>       0.25000000       0.75000000       0.39185763 </v>
   <v>       0.75000000       0.25000000       0.39185763 </v>
   <v>       0.75000000       0.75000000       0.39185763 </v>
   <v>       0.00000000       0.25000000       0.45475490 </v>
   <v>       0.00000000       0.75000000       0.45475490 </v>
   <v>       0.50000000       0.25000000       0.45475490 </v>
   <v>       0.50000000       0.75000000       0.45475490 </v>
   <v>       0.25000000       0.00000000       0.45475490 </v>
   <v>       0.25000000       0.50000000       0.45475490 </v>
   <v>       0.75000000       0.00000000       0.45475490 </v>
   <v>       0.75000000       0.50000000       0.45475490 </v>
   <v>       0.37500000       0.62500000       0.50150658 </v>
   <v>       0.37500000       0.72775482       0.50150658 </v>
  </varray>
 </structure>
 <calculation>
  <scstep>
   <time name="dav">   54.73   56.43</time>
   <time name="total">   54.86   56.57</time>
   <energy>
    <i name="alphaZ">   2059.53800561 </i>
    <i name="ewald"> 387830.23389488 </i>
    <i name="hartreedc">-475345.32696320 </i>
    <i name="XCdc">   2933.24951460 </i>
    <i name="pawpsdc">  78601.82840687 </i>
    <i name="pawaedc"> -85374.54502045 </i>
    <i name="eentropy">      0.00811004 </i>
    <i name="bandstr">   7102.64993995 </i>
    <i name="atom">  89046.24623812 </i>
    <i name="e_fr_energy">   6853.88212642 </i>
    <i name="e_wo_entrp">   6853.87401638 </i>
    <i name="e_0_energy">   6853.87942307 </i>
   </energy>
  </scstep>
  <scstep>
   <time name="dav">   56.64   57.90</time>
   <time name="total">   56.72   57.98</time>
   <energy>
    <i name="e_fr_energy">    962.67476882 </i>
    <i name="e_wo_entrp">    962.67321104 </i>
    <i name="e_0_energy">    962.67424956 </i>
   </energy>
  </scstep>
  <scstep>
   <time name="dav">   54.62   55.23</time>
   <time name="total">   54.63   55.24</time>
   <energy>
    <i name="e_fr_energy">   -179.75053612 </i>
    <i name="e_wo_entrp">   -179.83051948 </i>
    <i name="e_0_energy">   -179.77719724 </i>
   </energy>
  </scstep>
  <scstep>
   <time name="dav">   56.67   57.01</time>
   <time name="total">   56.67   57.02</time>
   <energy>
    <i name="e_fr_energy">   -272.19672519 </i>
    <i name="e_wo_entrp">   -272.30931561 </i>
    <i name="e_0_energy">   -272.23425533 </i>
   </energy>
  </scstep>
  <scstep>
   <time name="dav">   57.43   57.81</time>
   <time name="total">   58.21   58.59</time>
   <energy>
    <i name="e_fr_energy">   -274.60269401 </i>
    <i name="e_wo_entrp">   -274.71677385 </i>
    <i name="e_0_energy">   -274.64072062 </i>
   </energy>
  </scstep>
  <scstep>
   <time name="dav">   56.78   57.21</time>
   <time name="total">   57.72   58.16</time>
   <energy>
    <i name="e_fr_energy">   -224.10674008 </i>
    <i name="e_wo_entrp">   -224.12182031 </i>
    <i name="e_0_energy">   -224.11176683 </i>
   </energy>
  </scstep>
  <scstep>
   <time name="dav">   62.09   63.24</time>
   <time name="total">   62.98   64.14</time>
   <energy>
    <i name="e_fr_energy">   -197.66481526 </i>
    <i name="e_wo_entrp">   -197.73214456 </i>
    <i name="e_0_energy">   -197.68725836 </i>
   </energy>
  </scstep>
  <scstep>
   <time name="dav">   61.65   62.16</time>
   <time name="total">   62.53   63.04</time>
   <energy>
    <i name="e_fr_energy">   -199.49118834 </i>
    <i name="e_wo_entrp">   -199.64560397 </i>
    <i name="e_0_energy">   -199.54266022 </i>
   </energy>
  </scstep>
  <scstep>
   <time name="dav">   63.64   64.11</time>
   <time name="total">   64.54   65.02</time>
   <energy>
    <i name="e_fr_energy">   -197.24775502 </i>
    <i name="e_wo_entrp">   -197.31518588 </i>
    <i name="e_0_energy">   -197.27023197 </i>
   </energy>
  </scstep>
  <scstep>
   <time name="dav">   69.98   70.49</time>
   <time name="total">   70.84   71.37</time>
   <energy>
    <i name="e_fr_energy">   -193.50164422 </i>
    <i name="e_wo_entrp">   -193.55297892 </i>
    <i name="e_0_energy">   -193.51875579 </i>
   </energy>
  </scstep>
  <scstep>
   <time name="dav">   76.21   77.06</time>
   <time name="total">   77.10   77.96</time>
   <energy>
    <i name="e_fr_energy">   -194.73369849 </i>
    <i name="e_wo_entrp">   -194.79728555 </i>
    <i name="e_0_energy">   -194.75489417 </i>
   </energy>
  </scstep>
  <scstep>
   <time name="dav">   60.81   61.61</time>
   <time name="total">   61.69   62.50</time>
   <energy>
    <i name="e_fr_energy">   -200.13074987 </i>
    <i name="e_wo_entrp">   -200.15731102 </i>
    <i name="e_0_energy">   -200.13960359 </i>
   </energy>
  </scstep>
  <scstep>
   <time name="dav">   59.40   59.94</time>
   <time name="total">   60.27   60.82</time>
   <energy>
    <i name="e_fr_energy">   -203.31164184 </i>
    <i name="e_wo_entrp">   -203.33824815 </i>
    <i name="e_0_energy">   -203.32051061 </i>
   </energy>
  </scstep>
  <scstep>
   <time name="dav">   58.09   58.45</time>
   <time name="total">   58.98   59.35</time>
   <energy>
    <i name="e_fr_energy">   -209.97948334 </i>
    <i name="e_wo_entrp">   -209.98830403 </i>
    <i name="e_0_energy">   -209.98242357 </i>
   </energy>
  </scstep>
  <scstep>
   <time name="dav">   61.54   61.93</time>
   <time name="total">   62.42   62.81</time>
   <energy>
    <i name="e_fr_energy">   -215.78405169 </i>
    <i name="e_wo_entrp">   -215.81071699 </i>
    <i name="e_0_energy">   -215.79294012 </i>
   </energy>
  </scstep>
  <scstep>
   <time name="dav">   67.60   68.48</time>
   <time name="total">   68.47   69.37</time>
   <energy>
    <i name="e_fr_energy">   -223.50951782 </i>
    <i name="e_wo_entrp">   -223.48440695 </i>
    <i name="e_0_energy">   -223.50114753 </i>
   </energy>
  </scstep>
  <scstep>
   <time name="dav">   60.04   60.82</time>
   <time name="total">   61.43   62.27</time>
   <energy>
    <i name="e_fr_energy">   -225.75130702 </i>
    <i name="e_wo_entrp">   -225.70837550 </i>
    <i name="e_0_energy">   -225.73699651 </i>
   </energy>
  </scstep>
  <scstep>
   <time name="dav">   56.52   56.93</time>
   <time name="total">   57.42   57.84</time>
   <energy>
    <i name="e_fr_energy">   -226.83509843 </i>
    <i name="e_wo_entrp">   -226.77541750 </i>
    <i name="e_0_energy">   -226.81520479 </i>
   </energy>
  </scstep>
  <scstep>
   <time name="dav">   64.47   64.87</time>
   <time name="total">   65.35   65.75</time>
   <energy>
    <i name="e_fr_energy">   -228.76485844 </i>
    <i name="e_wo_entrp">   -228.67618885 </i>
    <i name="e_0_energy">   -228.73530191 </i>
   </energy>
  </scstep>
  <scstep>
   <time name="dav">   56.22   56.59</time>
   <time name="total">   57.10   57.49</time>
   <energy>
    <i name="e_fr_energy">   -230.62890544 </i>
    <i name="e_wo_entrp">   -230.51105915 </i>
    <i name="e_0_energy">   -230.58962334 </i>
   </energy>
  </scstep>
  <scstep>
   <time name="dav">   73.35   74.06</time>
   <time name="total">   74.79   75.52</time>
   <energy>
    <i name="e_fr_energy">   -231.73755578 </i>
    <i name="e_wo_entrp">   -231.59743902 </i>
    <i name="e_0_energy">   -231.69085019 </i>
   </energy>
  </scstep>
  <scstep>
   <time name="dav">   71.81   72.94</time>
   <time name="total">   72.87   74.01</time>
   <energy>
    <i name="e_fr_energy">   -232.68140816 </i>
    <i name="e_wo_entrp">   -232.52189136 </i>
    <i name="e_0_energy">   -232.62823590 </i>
   </energy>
  </scstep>
  <scstep>
   <time name="dav">   60.70   61.08</time>
   <time name="total">   61.55   61.94</time>
   <energy>
    <i name="e_fr_energy">   -233.33878706 </i>
    <i name="e_wo_entrp">   -233.18020651 </i>
    <i name="e_0_energy">   -233.28592688 </i>
   </energy>
  </scstep>
  <scstep>
   <time name="dav">   66.62   67.04</time>
   <time name="total">   67.50   67.93</time>
   <energy>
    <i name="e_fr_energy">   -233.72602571 </i>
    <i name="e_wo_entrp">   -233.56107674 </i>
    <i name="e_0_energy">   -233.67104272 </i>
   </energy>
  </scstep>
  <scstep>
   <time name="dav">   60.31   60.69</time>
   <time name="total">   61.76   62.21</time>
   <energy>
    <i name="e_fr_energy">   -234.11268069 </i>
    <i name="e_wo_entrp">   -233.95155649 </i>
    <i name="e_0_energy">   -234.05897262 </i>
   </energy>
  </scstep>
  <scstep>
   <time name="dav">   67.49   68.20</time>
   <time name="total">   68.94   69.71</time>
   <energy>
    <i name="e_fr_energy">   -234.31793119 </i>
    <i name="e_wo_entrp">   -234.15777901 </i>
    <i name="e_0_energy">   -234.26454713 </i>
   </energy>
  </scstep>
  <scstep>
   <time name="dav">   64.99   65.75</time>
   <time name="total">   65.92   66.68</time>
   <energy>
    <i name="e_fr_energy">   -234.58554671 </i>
    <i name="e_wo_entrp">   -234.42423814 </i>
    <i name="e_0_energy">   -234.53177719 </i>
   </energy>
  </scstep>
  <scstep>
   <time name="dav">   63.02   63.43</time>
   <time name="total">   63.90   64.32</time>
   <energy>
    <i name="e_fr_energy">   -234.77733081 </i>
    <i name="e_wo_entrp">   -234.61636760 </i>
    <i name="e_0_energy">   -234.72367641 </i>
   </energy>
  </scstep>
  <scstep>
   <time name="dav">   56.35   56.71</time>
   <time name="total">   57.21   57.58</time>
   <energy>
    <i name="e_fr_energy">   -234.82882114 </i>
    <i name="e_wo_entrp">   -234.66835229 </i>
    <i name="e_0_energy">   -234.77533152 </i>
   </energy>
  </scstep>
  <scstep>
   <time name="dav">   45.37   45.85</time>
   <time name="total">   46.22   46.71</time>
   <energy>
    <i name="e_fr_energy">   -234.84786361 </i>
    <i name="e_wo_entrp">   -234.68715036 </i>
    <i name="e_0_energy">   -234.79429252 </i>
   </energy>
  </scstep>
  <scstep>
   <time name="dav">   43.18   43.67</time>
   <time name="total">   44.04   44.53</time>
   <energy>
    <i name="e_fr_energy">   -234.85304517 </i>
    <i name="e_wo_entrp">   -234.69266656 </i>
    <i name="e_0_energy">   -234.79958563 </i>
   </energy>
  </scstep>
  <scstep>
   <time name="dav">   42.06   42.48</time>
   <time name="total">   42.95   43.37</time>
   <energy>
    <i name="e_fr_energy">   -234.85386167 </i>
    <i name="e_wo_entrp">   -234.69345033 </i>
    <i name="e_0_energy">   -234.80039123 </i>
   </energy>
  </scstep>
  <scstep>
   <time name="dav">   40.22   40.60</time>
   <time name="total">   41.08   41.47</time>
   <energy>
    <i name="e_fr_energy">   -234.85419296 </i>
    <i name="e_wo_entrp">   -234.69374479 </i>
    <i name="e_0_energy">   -234.80071023 </i>
   </energy>
  </scstep>
  <scstep>
   <time name="dav">   38.58   38.81</time>
   <time name="total">   39.43   39.67</time>
   <energy>
    <i name="e_fr_energy">   -234.85456276 </i>
    <i name="e_wo_entrp">   -234.69402164 </i>
    <i name="e_0_energy">   -234.80104906 </i>
   </energy>
  </scstep>
  <scstep>
   <time name="dav">   38.21   38.45</time>
   <time name="total">   39.10   39.35</time>
   <energy>
    <i name="e_fr_energy">   -234.85495240 </i>
    <i name="e_wo_entrp">   -234.69441135 </i>
    <i name="e_0_energy">   -234.80143872 </i>
   </energy>
  </scstep>
  <scstep>
   <time name="dav">   38.57   38.81</time>
   <time name="total">   39.43   39.68</time>
   <energy>
    <i name="e_fr_energy">   -234.85537825 </i>
    <i name="e_wo_entrp">   -234.69483293 </i>
    <i name="e_0_energy">   -234.80186314 </i>
   </energy>
  </scstep>
  <scstep>
   <time name="dav">   38.95   39.22</time>
   <time name="total">   39.81   40.09</time>
   <energy>
    <i name="e_fr_energy">   -234.85595568 </i>
    <i name="e_wo_entrp">   -234.69539513 </i>
    <i name="e_0_energy">   -234.80243550 </i>
   </energy>
  </scstep>
  <scstep>
   <time name="dav">   41.03   41.38</time>
   <time name="total">   41.90   42.26</time>
   <energy>
    <i name="e_fr_energy">   -234.85623357 </i>
    <i name="e_wo_entrp">   -234.69567562 </i>
    <i name="e_0_energy">   -234.80271426 </i>
   </energy>
  </scstep>
  <scstep>
   <time name="dav">   38.34   38.82</time>
   <time name="total">   38.47   38.97</time>
   <energy>
    <i name="alphaZ">   2059.53800561 </i>
    <i name="ewald"> 387830.23389488 </i>
    <i name="hartreedc">-474374.32431449 </i>
    <i name="XCdc">   2859.07068474 </i>
    <i name="pawpsdc">  83729.81483735 </i>
    <i name="pawaedc"> -90622.81170669 </i>
    <i name="eentropy">     -0.16056317 </i>
    <i name="bandstr">   -762.46339630 </i>
    <i name="atom">  89046.24623812 </i>
    <i name="e_fr_energy">   -234.85631995 </i>
    <i name="e_wo_entrp">   -234.69575678 </i>
    <i name="e_0_energy">   -234.80279889 </i>
   </energy>
  </scstep>
  <structure>
   <crystal>
    <varray name="basis" >
     <v>       7.26000023       0.00000000       0.00000000 </v>
     <v>       0.00000000       7.26000023       0.00000000 </v>
     <v>       0.00000000       0.00000000      27.70499992 </v>
    </varray>
    <i name="volume">   1460.26414606 </i>
    <varray name="rec_basis" >
     <v>       0.13774104       0.00000000       0.00000000 </v>
     <v>       0.00000000       0.13774104       0.00000000 </v>
     <v>       0.00000000       0.00000000       0.03609457 </v>
    </varray>
   </crystal>
   <varray name="positions" >
    <v>       0.00000000       0.00000000       0.00000000 </v>
    <v>       0.00000000       0.50000000       0.00000000 </v>
    <v>       0.50000000       0.00000000       0.00000000 </v>
    <v>       0.50000000       0.50000000       0.00000000 </v>
    <v>       0.25000000       0.25000000       0.00000000 </v>
    <v>       0.25000000       0.75000000       0.00000000 </v>
    <v>       0.75000000       0.25000000       0.00000000 </v>
    <v>       0.75000000       0.75000000       0.00000000 </v>
    <v>       0.00000000       0.25000000       0.06551164 </v>
    <v>       0.00000000       0.75000000       0.06551164 </v>
    <v>       0.50000000       0.25000000       0.06551164 </v>
    <v>       0.50000000       0.75000000       0.06551164 </v>
    <v>       0.25000000       0.00000000       0.06551164 </v>
    <v>       0.25000000       0.50000000       0.06551164 </v>
    <v>       0.75000000       0.00000000       0.06551164 </v>
    <v>       0.75000000       0.50000000       0.06551164 </v>
    <v>       0.00000000       0.00000000       0.13164128 </v>
    <v>       0.00000000       0.50000000       0.13164128 </v>
    <v>       0.50000000       0.00000000       0.13164128 </v>
    <v>       0.50000000       0.50000000       0.13164128 </v>
    <v>       0.25000000       0.25000000       0.13164128 </v>
    <v>       0.25000000       0.75000000       0.13164128 </v>
    <v>       0.75000000       0.25000000       0.13164128 </v>
    <v>       0.75000000       0.75000000       0.13164128 </v>
    <v>       0.00000000       0.25000000       0.19677891 </v>
    <v>       0.00000000       0.75000000       0.19677891 </v>
    <v>       0.50000000       0.25000000       0.19677891 </v>
    <v>       0.50000000       0.75000000       0.19677891 </v>
    <v>       0.25000000       0.00000000       0.19677891 </v>
    <v>       0.25000000       0.50000000       0.19677891 </v>
    <v>       0.75000000       0.00000000       0.19677891 </v>
    <v>       0.75000000       0.50000000       0.19677891 </v>
    <v>       0.00000000       0.00000000       0.26184662 </v>
    <v>       0.00000000       0.50000000       0.26184662 </v>
    <v>       0.50000000       0.00000000       0.26184662 </v>
    <v>       0.50000000       0.50000000       0.26184662 </v>
    <v>       0.25000000       0.25000000       0.26184662 </v>
    <v>       0.25000000       0.75000000       0.26184662 </v>
    <v>       0.75000000       0.25000000       0.26184662 </v>
    <v>       0.75000000       0.75000000       0.26184662 </v>
    <v>       0.00000000       0.25000000       0.32758887 </v>
    <v>       0.00000000       0.75000000       0.32758887 </v>
    <v>       0.50000000       0.25000000       0.32758887 </v>
    <v>       0.50000000       0.75000000       0.32758887 </v>
    <v>       0.25000000       0.00000000       0.32758887 </v>
    <v>       0.25000000       0.50000000       0.32758887 </v>
    <v>       0.75000000       0.00000000       0.32758887 </v>
    <v>       0.75000000       0.50000000       0.32758887 </v>
    <v>       0.00000000       0.00000000       0.39185763 </v>
    <v>       0.00000000       0.50000000       0.39185763 </v>
    <v>       0.50000000       0.00000000       0.39185763 </v>
    <v>       0.50000000       0.50000000       0.39185763 </v>
    <v>       0.25000000       0.25000000       0.39185763 </v>
    <v>       0.25000000       0.75000000       0.39185763 </v>
    <v>       0.75000000       0.25000000       0.39185763 </v>
    <v>       0.75000000       0.75000000       0.39185763 </v>
    <v>       0.00000000       0.25000000       0.45475490 </v>
    <v>       0.00000000       0.75000000       0.45475490 </v>
    <v>       0.50000000       0.25000000       0.45475490 </v>
    <v>       0.50000000       0.75000000       0.45475490 </v>
    <v>       0.25000000       0.00000000       0.45475490 </v>
    <v>       0.25000000       0.50000000       0.45475490 </v>
    <v>       0.75000000       0.00000000       0.45475490 </v>
    <v>       0.75000000       0.50000000       0.45475490 </v>
    <v>       0.37500000       0.62500000       0.50150658 </v>
    <v>       0.37500000       0.72775482       0.50150658 </v>
   </varray>
  </structure>
  <varray name="forces" >
   <v>       0.01198999      -0.01423191       0.31565324 </v>
   <v>       0.00430826       0.01653095       0.31987972 </v>
   <v>      -0.01483005       0.00358493       0.31645956 </v>
   <v>      -0.00157243      -0.00840777       0.31332047 </v>
   <v>       0.01788714      -0.00024624       0.31225795 </v>
   <v>      -0.01012217       0.00446771       0.30823261 </v>
   <v>      -0.01185250       0.00728015       0.31099713 </v>
   <v>       0.00414621      -0.00897454       0.31633838 </v>
   <v>       0.00161484       0.00598850      -0.06006070 </v>
   <v>       0.00282805      -0.00165132      -0.06726530 </v>
   <v>      -0.00579435       0.00753118      -0.06389797 </v>
   <v>       0.01951417       0.01607675      -0.04948943 </v>
   <v>       0.00533575      -0.00573008      -0.06739658 </v>
   <v>      -0.00915697      -0.01820163      -0.06163961 </v>
   <v>      -0.00807072      -0.00791500      -0.06084773 </v>
   <v>      -0.00628077       0.00394316      -0.06620492 </v>
   <v>       0.02148379      -0.02209380      -0.05673356 </v>
   <v>       0.01542759       0.01041574      -0.05703681 </v>
   <v>      -0.00469104      -0.00600509      -0.05632766 </v>
   <v>       0.00700926      -0.01252127      -0.06401161 </v>
   <v>       0.00768342       0.00920316      -0.06052204 </v>
   <v>      -0.01629680       0.00982781      -0.07487069 </v>
   <v>      -0.02280801       0.01398655      -0.06037493 </v>
   <v>      -0.00834621      -0.00260965      -0.06394345 </v>
   <v>       0.00719737       0.00574721       0.03046422 </v>
   <v>       0.00483648      -0.00479794       0.06113300 </v>
   <v>      -0.00742528       0.00728569       0.06575469 </v>
   <v>      -0.00826672       0.00000456       0.02172617 </v>
   <v>       0.01364159      -0.01518682       0.03727971 </v>
   <v>       0.01218769       0.00922838       0.01513104 </v>
   <v>      -0.01160944      -0.01337160       0.03465149 </v>
   <v>      -0.00987172       0.01091249       0.04469075 </v>
   <v>       0.00922577       0.00135785       0.01428568 </v>
   <v>       0.02090693      -0.00869412       0.00334842 </v>
   <v>       0.00574383      -0.02173722       0.01907380 </v>
   <v>       0.00429005      -0.00056732       0.05443832 </v>
   <v>      -0.01296389       0.01400862      -0.02286578 </v>
   <v>      -0.00512635       0.00637708       0.04734079 </v>
   <v>       0.00193096       0.00200515       0.00991876 </v>
   <v>      -0.02373214       0.00738271      -0.00019527 </v>
   <v>      -0.01798351      -0.00930940      -0.18215640 </v>
   <v>      -0.05223954      -0.00342387      -0.22304425 </v>
   <v>      -0.00761267      -0.03120511      -0.20273955 </v>
   <v>      -0.00540347      -0.00375536      -0.16304621 </v>
   <v>       0.00900327       0.04154178      -0.21587006 </v>
   <v>       0.00522629      -0.01107283      -0.19267526 </v>
   <v>       0.02432736       0.01634714      -0.20493472 </v>
   <v>       0.04018534       0.00147311      -0.22321760 </v>
   <v>       0.03762530      -0.01753268       0.00119379 </v>
   <v>       0.06525428       0.02262559       0.02082814 </v>
   <v>      -0.00569229      -0.06466424       0.02443981 </v>
   <v>       0.05837749      -0.07653539      -0.17696171 </v>
   <v>       0.01906259       0.05396140      -0.00153590 </v>
   <v>      -0.12568171       0.06576795      -0.30719322 </v>
   <v>      -0.00606986       0.01452361      -0.03612366 </v>
   <v>      -0.09839186      -0.01539745       0.02821829 </v>
   <v>       0.01963673       0.01375029      -0.00664260 </v>
   <v>      -0.18646023       0.01797968      -0.09414236 </v>
   <v>      -0.01706857      -0.05127501      -0.02124563 </v>
   <v>       0.67481808       0.19973570      -0.58825239 </v>
   <v>      -0.03277126       0.20871237      -0.07476035 </v>
   <v>      -0.34739076      -0.48974598      -0.28983008 </v>
   <v>      -0.01795187      -0.00915343      -0.00609584 </v>
   <v>       0.12180853      -0.03799965      -0.06484135 </v>
   <v>       0.34376128      -2.48103096       0.26821881 </v>
   <v>      -0.49874051       2.64547973       0.97371843 </v>
  </varray>
  <varray name="stress" >
   <v>     -44.58541268      -0.35804343      -0.09869223 </v>
   <v>      -0.35804350     -42.59463321       0.26241929 </v>
   <v>      -0.09869215       0.26241946     -23.40827409 </v>
  </varray>
  <energy>
   <i name="e_fr_energy">   -261.31583473 </i>
   <i name="e_wo_entrp">   -261.15527155 </i>
   <i name="e_0_energy">   -261.26231367 </i>
  </energy>
  <time name="totalsc"> 2357.89 2381.38</time>
 </calculation>
 <calculation>
  <scstep>
   <time name="dav">   53.22   53.60</time>
   <time name="total">   54.07   54.46</time>
   <energy>
    <i name="alphaZ">   2059.53800561 </i>
    <i name="ewald"> 388880.64193388 </i>
    <i name="hartreedc">-475427.22924984 </i>
    <i name="XCdc">   2859.05907394 </i>
    <i name="pawpsdc">  83729.84081471 </i>
    <i name="pawaedc"> -90622.83891644 </i>
    <i name="eentropy">     -0.15094098 </i>
    <i name="bandstr">   -760.04334316 </i>
    <i name="atom">  89046.24623812 </i>
    <i name="e_fr_energy">   -234.93638415 </i>
    <i name="e_wo_entrp">   -234.78544317 </i>
    <i name="e_0_energy">   -234.88607049 </i>
   </energy>
  </scstep>
  <scstep>
   <time name="dav">   72.65   73.44</time>
   <time name="total">   73.50   74.30</time>
   <energy>
    <i name="e_fr_energy">   -235.03534320 </i>
    <i name="e_wo_entrp">   -234.88436147 </i>
    <i name="e_0_energy">   -234.98501596 </i>
   </energy>
  </scstep>
  <scstep>
   <time name="dav">   61.86   63.00</time>
   <time name="total">   62.73   63.88</time>
   <energy>
    <i name="e_fr_energy">   -235.02902063 </i>
    <i name="e_wo_entrp">   -234.87667325 </i>
    <i name="e_0_energy">   -234.97823817 </i>
   </energy>
  </scstep>
  <scstep>
   <time name="dav">   58.41   59.13</time>
   <time name="total">   59.28   60.02</time>
   <energy>
    <i name="e_fr_energy">   -235.05896068 </i>
    <i name="e_wo_entrp">   -234.91285889 </i>
    <i name="e_0_energy">   -235.01026008 </i>
   </energy>
  </scstep>
  <scstep>
   <time name="dav">   68.41   68.85</time>
   <time name="total">   69.27   69.72</time>
   <energy>
    <i name="e_fr_energy">   -235.02992614 </i>
    <i name="e_wo_entrp">   -234.87781743 </i>
    <i name="e_0_energy">   -234.97922324 </i>
   </energy>
  </scstep>
  <scstep>
   <time name="dav">   82.23   82.78</time>
   <time name="total">   83.11   83.67</time>
   <energy>
    <i name="e_fr_energy">   -235.02216714 </i>
    <i name="e_wo_entrp">   -234.87109284 </i>
    <i name="e_0_energy">   -234.97180904 </i>
   </energy>
  </scstep>
  <scstep>
   <time name="dav">   73.58   74.18</time>
   <time name="total">   74.44   75.05</time>
   <energy>
    <i name="e_fr_energy">   -235.01859398 </i>
    <i name="e_wo_entrp">   -234.86520748 </i>
    <i name="e_0_energy">   -234.96746515 </i>
   </energy>
  </scstep>
  <scstep>
   <time name="dav">   59.90   60.90</time>
   <time name="total">   60.76   61.76</time>
   <energy>
    <i name="e_fr_energy">   -235.01933982 </i>
    <i name="e_wo_entrp">   -234.86606846 </i>
    <i name="e_0_energy">   -234.96824937 </i>
   </energy>
  </scstep>
  <scstep>
   <time name="dav">   55.19   55.55</time>
   <time name="total">   56.04   56.41</time>
   <energy>
    <i name="e_fr_energy">   -235.01951221 </i>
    <i name="e_wo_entrp">   -234.86627458 </i>
    <i name="e_0_energy">   -234.96843300 </i>
   </energy>
  </scstep>
  <scstep>
   <time name="dav">   37.66   37.90</time>
   <time name="total">   37.79   38.03</time>
   <energy>
    <i name="alphaZ">   2059.53800561 </i>
    <i name="ewald"> 388880.64193388 </i>
    <i name="hartreedc">-475411.88249076 </i>
    <i name="XCdc">   2858.78604465 </i>
    <i name="pawpsdc">  83737.96965521 </i>
    <i name="pawaedc"> -90631.29568982 </i>
    <i name="eentropy">     -0.15321790 </i>
    <i name="bandstr">   -774.87000911 </i>
    <i name="atom">  89046.24623812 </i>
    <i name="e_fr_energy">   -235.01953013 </i>
    <i name="e_wo_entrp">   -234.86631223 </i>
    <i name="e_0_energy">   -234.96845749 </i>
   </energy>
  </scstep>
  <structure>
   <crystal>
    <varray name="basis" >
     <v>       7.26000023       0.00000000       0.00000000 </v>
     <v>       0.00000000       7.26000023       0.00000000 </v>
     <v>       0.00000000       0.00000000      27.70499992 </v>
    </varray>
    <i name="volume">   1460.26414606 </i>
    <varray name="rec_basis" >
     <v>       0.13774104       0.00000000       0.00000000 </v>
     <v>       0.00000000       0.13774104       0.00000000 </v>
     <v>       0.00000000       0.00000000       0.03609457 </v>
    </varray>
   </crystal>
   <varray name="positions" >
    <v>       0.00007967      -0.00009457       0.00054965 </v>
    <v>       0.00002863       0.50010985       0.00055701 </v>
    <v>       0.49990145       0.00002382       0.00055105 </v>
    <v>       0.49998955       0.49994413       0.00054558 </v>
    <v>       0.25011886       0.24999836       0.00054373 </v>
    <v>       0.24993274       0.75002969       0.00053672 </v>
    <v>       0.74992124       0.25004838       0.00054154 </v>
    <v>       0.75002755       0.74994036       0.00055084 </v>
    <v>       0.00001073       0.25003979       0.06540706 </v>
    <v>       0.00001879       0.74998903       0.06539451 </v>
    <v>       0.49996150       0.25005004       0.06540038 </v>
    <v>       0.50012967       0.75010683       0.06542547 </v>
    <v>       0.25003546      -0.00003808       0.06539428 </v>
    <v>       0.24993915       0.49987905       0.06540431 </v>
    <v>       0.74994637      -0.00005260       0.06540569 </v>
    <v>       0.74995826       0.50002620       0.06539636 </v>
    <v>       0.00014276      -0.00014681       0.13154249 </v>
    <v>       0.00010252       0.50006921       0.13154196 </v>
    <v>       0.49996883      -0.00003990       0.13154320 </v>
    <v>       0.50004658       0.49991680       0.13152982 </v>
    <v>       0.25005106       0.25006115       0.13153589 </v>
    <v>       0.24989171       0.75006531       0.13151091 </v>
    <v>       0.74984844       0.25009294       0.13153615 </v>
    <v>       0.74994454       0.74998266       0.13152994 </v>
    <v>       0.00004783       0.25003819       0.19683196 </v>
    <v>       0.00003214       0.74996812       0.19688537 </v>
    <v>       0.49995066       0.25004841       0.19689341 </v>
    <v>       0.49994507       0.75000003       0.19681675 </v>
    <v>       0.25009065      -0.00010092       0.19684383 </v>
    <v>       0.25008099       0.50006132       0.19680526 </v>
    <v>       0.74992286      -0.00008885       0.19683925 </v>
    <v>       0.74993440       0.50007251       0.19685673 </v>
    <v>       0.00006131       0.00000902       0.26187150 </v>
    <v>       0.00013893       0.49994223       0.26185246 </v>
    <v>       0.50003817      -0.00014444       0.26187984 </v>
    <v>       0.50002851       0.49999623       0.26194142 </v>
    <v>       0.24991386       0.25009309       0.26180681 </v>
    <v>       0.24996594       0.75004238       0.26192906 </v>
    <v>       0.75001283       0.25001332       0.26186390 </v>
    <v>       0.74984230       0.75004906       0.26184628 </v>
    <v>      -0.00011950       0.24993814       0.32727168 </v>
    <v>      -0.00034713       0.74997725       0.32720048 </v>
    <v>       0.49994941       0.24979264       0.32723584 </v>
    <v>       0.49996409       0.74997505       0.32730496 </v>
    <v>       0.25005983       0.00027604       0.32721298 </v>
    <v>       0.25003473       0.49992642       0.32725337 </v>
    <v>       0.75016166       0.00010863       0.32723202 </v>
    <v>       0.75026703       0.50000979       0.32720018 </v>
    <v>       0.00025002      -0.00011650       0.39185970 </v>
    <v>       0.00043361       0.50015035       0.39189389 </v>
    <v>       0.49996217      -0.00042969       0.39190018 </v>
    <v>       0.50038792       0.49949142       0.39154948 </v>
    <v>       0.25012667       0.25035857       0.39185495 </v>
    <v>       0.24916485       0.75043703       0.39132271 </v>
    <v>       0.74995967       0.25009651       0.39179472 </v>
    <v>       0.74934619       0.74989768       0.39190676 </v>
    <v>       0.00013049       0.25009137       0.45474333 </v>
    <v>      -0.00123903       0.75011947       0.45459097 </v>
    <v>       0.49988658       0.24965928       0.45471790 </v>
    <v>       0.50448416       0.75132724       0.45373057 </v>
    <v>       0.24978224       0.00138689       0.45462472 </v>
    <v>       0.24769159       0.49674564       0.45425022 </v>
    <v>       0.74988071      -0.00006082       0.45474428 </v>
    <v>       0.75080942       0.49974749       0.45464199 </v>
    <v>       0.37728429       0.60851357       0.50197363 </v>
    <v>       0.37168587       0.74533401       0.50320211 </v>
   </varray>
  </structure>
  <varray name="forces" >
   <v>       0.00902123      -0.00798936       0.25014432 </v>
   <v>       0.00485045       0.00891819       0.25039455 </v>
   <v>      -0.01206585       0.00005737       0.24343126 </v>
   <v>      -0.00569705      -0.00048346       0.24112012 </v>
   <v>       0.01253490      -0.00067297       0.24051678 </v>
   <v>       0.00020442       0.00024629       0.23716271 </v>
   <v>      -0.00782435       0.00434121       0.24654833 </v>
   <v>      -0.00106655      -0.00535681       0.24605221 </v>
   <v>      -0.00236298       0.00226231      -0.00406743 </v>
   <v>      -0.00339189      -0.00065617      -0.01012539 </v>
   <v>      -0.00575140       0.00352632      -0.00716680 </v>
   <v>       0.00833521       0.00861773       0.00071593 </v>
   <v>       0.00534520      -0.00134492      -0.00970560 </v>
   <v>      -0.00209067      -0.01208277      -0.00633148 </v>
   <v>      -0.00047518      -0.00306975      -0.00490751 </v>
   <v>       0.00034227       0.00190112      -0.00904347 </v>
   <v>       0.01263424      -0.01124425      -0.03592288 </v>
   <v>       0.00745485       0.00866946      -0.03666012 </v>
   <v>      -0.00518776       0.00212170      -0.03294376 </v>
   <v>       0.00268183      -0.00736918      -0.03949308 </v>
   <v>       0.00647149       0.00173595      -0.03692146 </v>
   <v>      -0.00945869       0.00352102      -0.04894132 </v>
   <v>      -0.01354327       0.00585978      -0.03735616 </v>
   <v>      -0.00135521      -0.00405386      -0.03982164 </v>
   <v>       0.00426437       0.00272155       0.00676882 </v>
   <v>      -0.00057987      -0.00336326       0.03369787 </v>
   <v>      -0.00665660       0.00573663       0.03602622 </v>
   <v>      -0.00996031      -0.00071458       0.00558185 </v>
   <v>       0.01205954      -0.01223105       0.01422285 </v>
   <v>       0.01429410       0.00718315      -0.00011582 </v>
   <v>      -0.00709852      -0.00915666       0.01080737 </v>
   <v>      -0.00542225       0.00857134       0.02160060 </v>
   <v>       0.00868486       0.00448441      -0.01418615 </v>
   <v>       0.01697817      -0.00497867      -0.02084264 </v>
   <v>       0.00094109      -0.01577926      -0.00907516 </v>
   <v>      -0.00250142       0.00526751       0.01361801 </v>
   <v>      -0.00871634       0.00726768      -0.04473339 </v>
   <v>       0.00230963       0.00054374       0.00630407 </v>
   <v>       0.00170429      -0.00101592      -0.01898499 </v>
   <v>      -0.01983529       0.00338096      -0.02463304 </v>
   <v>      -0.01394030      -0.00286547      -0.11804304 </v>
   <v>      -0.06132469       0.00126644      -0.16230359 </v>
   <v>      -0.00507295      -0.03136475      -0.13256512 </v>
   <v>       0.00381523       0.00664028      -0.10466997 </v>
   <v>       0.00631187       0.04359825      -0.15219939 </v>
   <v>      -0.00360031      -0.02493212      -0.13443892 </v>
   <v>       0.02151932       0.00631788      -0.13206217 </v>
   <v>       0.04384291      -0.00079937      -0.15941416 </v>
   <v>       0.01605076      -0.00088557      -0.03726123 </v>
   <v>       0.01609630       0.01483572      -0.06457176 </v>
   <v>      -0.00811760       0.01826299      -0.07446497 </v>
   <v>       0.03035368      -0.05582735      -0.17267236 </v>
   <v>       0.00975830      -0.00870684      -0.09577301 </v>
   <v>      -0.07701708       0.02833257      -0.24193865 </v>
   <v>      -0.00032032      -0.00435841      -0.06161520 </v>
   <v>       0.00501240      -0.01675092      -0.10208063 </v>
   <v>      -0.02771761      -0.02730025      -0.02292266 </v>
   <v>      -0.10851266       0.02094417      -0.07863431 </v>
   <v>      -0.00397471       0.00331294      -0.00583375 </v>
   <v>      -0.15233947      -0.10665635       0.39158949 </v>
   <v>       0.04111701       0.00887889       0.03621572 </v>
   <v>      -0.01236501      -0.12755914       0.05205823 </v>
   <v>       0.02230382       0.04686651      -0.01728673 </v>
   <v>       0.09095511      -0.05910713      -0.06013364 </v>
   <v>       0.23624306       1.00343623      -0.08323208 </v>
   <v>      -0.06914774      -0.73095170       0.12151935 </v>
  </varray>
  <varray name="stress" >
   <v>     -44.13049283      -0.46785935       0.30552401 </v>
   <v>      -0.46785927     -44.77160741       0.42415111 </v>
   <v>       0.30552387       0.42415136     -23.57295504 </v>
  </varray>
  <energy>
   <i name="e_fr_energy">   -261.51310493 </i>
   <i name="e_wo_entrp">   -261.35988704 </i>
   <i name="e_0_energy">   -261.46203230 </i>
  </energy>
  <time name="totalsc">  751.13  758.24</time>
 </calculation>
 <calculation>
  <scstep>
   <time name="dav">   56.93   57.72</time>
   <time name="total">   57.78   58.57</time>
   <energy>
    <i name="alphaZ">   2059.53800561 </i>
    <i name="ewald"> 388507.18549099 </i>
    <i name="hartreedc">-475038.07828633 </i>
    <i name="XCdc">   2858.77896779 </i>
    <i name="pawpsdc">  83738.56710918 </i>
    <i name="pawaedc"> -90631.94886989 </i>
    <i name="eentropy">     -0.15730749 </i>
    <i name="bandstr">   -775.18049970 </i>
    <i name="atom">  89046.24623812 </i>
    <i name="e_fr_energy">   -235.04915173 </i>
    <i name="e_wo_entrp">   -234.89184424 </i>
    <i name="e_0_energy">   -234.99671590 </i>
   </energy>
  </scstep>
  <scstep>
   <time name="dav">   71.48   72.12</time>
   <time name="total">   72.34   72.99</time>
   <energy>
    <i name="e_fr_energy">   -235.06642876 </i>
    <i name="e_wo_entrp">   -234.90984192 </i>
    <i name="e_0_energy">   -235.01423315 </i>
   </energy>
  </scstep>
  <scstep>
   <time name="dav">   57.53   58.00</time>
   <time name="total">   58.39   58.88</time>
   <energy>
    <i name="e_fr_energy">   -235.06625017 </i>
    <i name="e_wo_entrp">   -234.90967388 </i>
    <i name="e_0_energy">   -235.01405807 </i>
   </energy>
  </scstep>
  <scstep>
   <time name="dav">   59.07   59.52</time>
   <time name="total">   59.93   60.39</time>
   <energy>
    <i name="e_fr_energy">   -235.06772048 </i>
    <i name="e_wo_entrp">   -234.91258396 </i>
    <i name="e_0_energy">   -235.01600831 </i>
   </energy>
  </scstep>
  <scstep>
   <time name="dav">   59.12   59.73</time>
   <time name="total">   59.98   60.59</time>
   <energy>
    <i name="e_fr_energy">   -235.06764513 </i>
    <i name="e_wo_entrp">   -234.91107919 </i>
    <i name="e_0_energy">   -235.01545649 </i>
   </energy>
  </scstep>
  <scstep>
   <time name="dav">   44.32   44.89</time>
   <time name="total">   45.18   45.75</time>
   <energy>
    <i name="e_fr_energy">   -235.06578119 </i>
    <i name="e_wo_entrp">   -234.91014314 </i>
    <i name="e_0_energy">   -235.01390184 </i>
   </energy>
  </scstep>
  <scstep>
   <time name="dav">   46.69   47.23</time>
   <time name="total">   47.54   48.08</time>
   <energy>
    <i name="e_fr_energy">   -235.06539399 </i>
    <i name="e_wo_entrp">   -234.90937175 </i>
    <i name="e_0_energy">   -235.01338657 </i>
   </energy>
  </scstep>
  <scstep>
   <time name="dav">   60.19   60.66</time>
   <time name="total">   60.32   60.80</time>
   <energy>
    <i name="alphaZ">   2059.53800561 </i>
    <i name="ewald"> 388507.18549099 </i>
    <i name="hartreedc">-475043.18387279 </i>
    <i name="XCdc">   2858.85918341 </i>
    <i name="pawpsdc">  83734.79714500 </i>
    <i name="pawaedc"> -90628.05769808 </i>
    <i name="eentropy">     -0.15597760 </i>
    <i name="bandstr">   -770.29402228 </i>
    <i name="atom">  89046.24623812 </i>
    <i name="e_fr_energy">   -235.06550763 </i>
    <i name="e_wo_entrp">   -234.90953002 </i>
    <i name="e_0_energy">   -235.01351509 </i>
   </energy>
  </scstep>
  <structure>
   <crystal>
    <varray name="basis" >
     <v>       7.26000023       0.00000000       0.00000000 </v>
     <v>       0.00000000       7.26000023       0.00000000 </v>
     <v>       0.00000000       0.00000000      27.70499992 </v>
    </varray>
    <i name="volume">   1460.26414606 </i>
    <varray name="rec_basis" >
     <v>       0.13774104       0.00000000       0.00000000 </v>
     <v>       0.00000000       0.13774104       0.00000000 </v>
     <v>       0.00000000       0.00000000       0.03609457 </v>
    </varray>
   </crystal>
   <varray name="positions" >
    <v>       0.00005142      -0.00006103       0.00035474 </v>
    <v>       0.00001848       0.50007089       0.00035948 </v>
    <v>       0.49993640       0.00001537       0.00035564 </v>
    <v>       0.49999326       0.49996394       0.00035211 </v>
    <v>       0.25007671       0.24999894       0.00035092 </v>
    <v>       0.24995659       0.75001916       0.00034640 </v>
    <v>       0.74994917       0.25003122       0.00034950 </v>
    <v>       0.75001778       0.74996151       0.00035551 </v>
    <v>       0.00000693       0.25002568       0.06544414 </v>
    <v>       0.00001213       0.74999292       0.06543605 </v>
    <v>       0.49997515       0.25003230       0.06543983 </v>
    <v>       0.50008369       0.75006895       0.06545602 </v>
    <v>       0.25002288      -0.00002457       0.06543590 </v>
    <v>       0.24996073       0.49992194       0.06544237 </v>
    <v>       0.74996539      -0.00003394       0.06544326 </v>
    <v>       0.74997306       0.50001691       0.06543724 </v>
    <v>       0.00009214      -0.00009475       0.13157752 </v>
    <v>       0.00006616       0.50004467       0.13157718 </v>
    <v>       0.49997988      -0.00002575       0.13157798 </v>
    <v>       0.50003006       0.49994630       0.13156934 </v>
    <v>       0.25003295       0.25003947       0.13157327 </v>
    <v>       0.24993011       0.75004215       0.13155714 </v>
    <v>       0.74990219       0.25005998       0.13157343 </v>
    <v>       0.74996421       0.74998881       0.13156942 </v>
    <v>       0.00003087       0.25002465       0.19681315 </v>
    <v>       0.00002074       0.74997942       0.19684762 </v>
    <v>       0.49996816       0.25003125       0.19685281 </v>
    <v>       0.49996455       0.75000002       0.19680333 </v>
    <v>       0.25005850      -0.00006513       0.19682081 </v>
    <v>       0.25005227       0.50003958       0.19679592 </v>
    <v>       0.74995021      -0.00005735       0.19681786 </v>
    <v>       0.74995766       0.50004680       0.19682914 </v>
    <v>       0.00003957       0.00000582       0.26186268 </v>
    <v>       0.00008966       0.49996271       0.26185039 </v>
    <v>       0.50002463      -0.00009322       0.26186806 </v>
    <v>       0.50001840       0.49999757       0.26190780 </v>
    <v>       0.24994440       0.25006008       0.26182093 </v>
    <v>       0.24997802       0.75002735       0.26189983 </v>
    <v>       0.75000828       0.25000860       0.26185777 </v>
    <v>       0.74989822       0.75003166       0.26184641 </v>
    <v>      -0.00007712       0.24996008       0.32738416 </v>
    <v>      -0.00022403       0.74998532       0.32733821 </v>
    <v>       0.49996735       0.24986617       0.32736103 </v>
    <v>       0.49997683       0.74998389       0.32740564 </v>
    <v>       0.25003861       0.00017816       0.32734627 </v>
    <v>       0.25002241       0.49995251       0.32737234 </v>
    <v>       0.75010433       0.00007011       0.32735856 </v>
    <v>       0.75017234       0.50000632       0.32733802 </v>
    <v>       0.00016136      -0.00007519       0.39185897 </v>
    <v>       0.00027985       0.50009703       0.39188103 </v>
    <v>       0.49997559      -0.00027732       0.39188509 </v>
    <v>       0.50025036       0.49967177       0.39165875 </v>
    <v>       0.25008175       0.25023142       0.39185590 </v>
    <v>       0.24946100       0.75028205       0.39151240 </v>
    <v>       0.74997397       0.25006229       0.39181703 </v>
    <v>       0.74957804       0.74993397       0.39188934 </v>
    <v>       0.00008421       0.25005897       0.45474743 </v>
    <v>      -0.00079965       0.75007711       0.45464910 </v>
    <v>       0.49992680       0.24978010       0.45473102 </v>
    <v>       0.50289402       0.75085659       0.45409381 </v>
    <v>       0.24985946       0.00089508       0.45467088 </v>
    <v>       0.24851018       0.49789968       0.45442918 </v>
    <v>       0.74992301      -0.00003926       0.45474805 </v>
    <v>       0.75052239       0.49983703       0.45468203 </v>
    <v>       0.37647425       0.61435985       0.50180801 </v>
    <v>       0.37286110       0.73910022       0.50260086 </v>
   </varray>
  </structure>
  <varray name="forces" >
   <v>       0.01026331      -0.01025068       0.27398001 </v>
   <v>       0.00485593       0.01180950       0.27560469 </v>
   <v>      -0.01323385       0.00125618       0.26961590 </v>
   <v>      -0.00435082      -0.00326904       0.26707225 </v>
   <v>       0.01468074      -0.00037675       0.26612068 </v>
   <v>      -0.00332407       0.00181463       0.26257923 </v>
   <v>      -0.00922954       0.00547879       0.26990711 </v>
   <v>       0.00079215      -0.00666074       0.27128929 </v>
   <v>      -0.00079007       0.00376630      -0.02241909 </v>
   <v>      -0.00103712      -0.00105295      -0.02893031 </v>
   <v>      -0.00597388       0.00513002      -0.02566013 </v>
   <v>       0.01265767       0.01173724      -0.01511783 </v>
   <v>       0.00567326      -0.00293159      -0.02868081 </v>
   <v>      -0.00462282      -0.01466491      -0.02432008 </v>
   <v>      -0.00346480      -0.00484830      -0.02321093 </v>
   <v>      -0.00214811       0.00277828      -0.02789035 </v>
   <v>       0.01644307      -0.01565414      -0.04216435 </v>
   <v>       0.01075824       0.00950613      -0.04288857 </v>
   <v>      -0.00527814      -0.00090616      -0.04036680 </v>
   <v>       0.00423991      -0.00949289      -0.04758738 </v>
   <v>       0.00737333       0.00469840      -0.04452469 </v>
   <v>      -0.01203332       0.00613590      -0.05778625 </v>
   <v>      -0.01747851       0.00921420      -0.04445780 </v>
   <v>      -0.00409451      -0.00350194      -0.04762319 </v>
   <v>       0.00560880       0.00400076       0.01677277 </v>
   <v>       0.00158673      -0.00401805       0.04573702 </v>
   <v>      -0.00712012       0.00643131       0.04916239 </v>
   <v>      -0.00962889      -0.00044694       0.01288384 </v>
   <v>       0.01314073      -0.01351884       0.02435957 </v>
   <v>       0.01392743       0.00830298       0.00667948 </v>
   <v>      -0.00904470      -0.01094090       0.02091180 </v>
   <v>      -0.00724942       0.00975036       0.03170499 </v>
   <v>       0.00916198       0.00332360      -0.00344559 </v>
   <v>       0.01901501      -0.00649057      -0.01185161 </v>
   <v>       0.00269433      -0.01850316       0.00156154 </v>
   <v>      -0.00002967       0.00313613       0.02983458 </v>
   <v>      -0.01029439       0.01018656      -0.03734035 </v>
   <v>      -0.00020876       0.00289818       0.02222363 </v>
   <v>       0.00177040       0.00027645      -0.00820553 </v>
   <v>      -0.02185571       0.00510572      -0.01568847 </v>
   <v>      -0.01524841      -0.00533221      -0.14215050 </v>
   <v>      -0.05934577      -0.00067757      -0.18635270 </v>
   <v>      -0.00630433      -0.03253567      -0.15985498 </v>
   <v>       0.00068918       0.00276030      -0.12746083 </v>
   <v>       0.00773152       0.04452360      -0.17734079 </v>
   <v>      -0.00031425      -0.02018450      -0.15757362 </v>
   <v>       0.02267567       0.01027281      -0.15962806 </v>
   <v>       0.04347994       0.00041946      -0.18444498 </v>
   <v>       0.02384779      -0.00709058      -0.02374699 </v>
   <v>       0.03406738       0.01817039      -0.03453436 </v>
   <v>      -0.00730515      -0.01402193      -0.03746426 </v>
   <v>       0.04112556      -0.06525361      -0.17596762 </v>
   <v>       0.01383846       0.01563303      -0.06295961 </v>
   <v>      -0.09611619       0.04332223      -0.26734542 </v>
   <v>      -0.00189804       0.00266416      -0.05342284 </v>
   <v>      -0.03507420      -0.01629713      -0.05438195 </v>
   <v>      -0.00979631      -0.01203771      -0.01514727 </v>
   <v>      -0.13774236       0.02043835      -0.08499941 </v>
   <v>      -0.00940038      -0.01753559      -0.01064547 </v>
   <v>       0.10657431      -0.02552798       0.08082003 </v>
   <v>       0.01363237       0.08519603      -0.00955712 </v>
   <v>      -0.11973333      -0.24148428      -0.05895231 </v>
   <v>       0.00636528       0.02589588      -0.01139908 </v>
   <v>       0.10358924      -0.05283652      -0.06190243 </v>
   <v>       0.29095742       0.45380792      -0.00713301 </v>
   <v>      -0.21244722      -0.21149798       0.40570494 </v>
  </varray>
  <varray name="stress" >
   <v>     -44.77694144      -0.48544656       0.18189068 </v>
   <v>      -0.48544661     -44.94021702       0.38965193 </v>
   <v>       0.18189078       0.38965199     -24.09310020 </v>
  </varray>
  <energy>
   <i name="e_fr_energy">   -261.54323670 </i>
   <i name="e_wo_entrp">   -261.38725910 </i>
   <i name="e_0_energy">   -261.49124416 </i>
  </energy>
  <time name="totalsc">  581.42  586.79</time>
 </calculation>
 <calculation>
  <scstep>
   <time name="dav">   56.40   57.11</time>
   <time name="total">   57.24   57.96</time>
   <energy>
    <i name="alphaZ">   2059.53800561 </i>
    <i name="ewald"> 389342.72533362 </i>
    <i name="hartreedc">-475877.68930795 </i>
    <i name="XCdc">   2859.02532190 </i>
    <i name="pawpsdc">  83734.74278431 </i>
    <i name="pawaedc"> -90627.99859890 </i>
    <i name="eentropy">     -0.15827175 </i>
    <i name="bandstr">   -771.51566882 </i>
    <i name="atom">  89046.24623812 </i>
    <i name="e_fr_energy">   -235.08416388 </i>
    <i name="e_wo_entrp">   -234.92589212 </i>
    <i name="e_0_energy">   -235.03140663 </i>
   </energy>
  </scstep>
  <scstep>
   <time name="dav">   74.12   75.19</time>
   <time name="total">   74.98   76.07</time>
   <energy>
    <i name="e_fr_energy">   -235.11350247 </i>
    <i name="e_wo_entrp">   -234.95549395 </i>
    <i name="e_0_energy">   -235.06083297 </i>
   </energy>
  </scstep>
  <scstep>
   <time name="dav">   54.61   54.97</time>
   <time name="total">   55.49   55.87</time>
   <energy>
    <i name="e_fr_energy">   -235.11253657 </i>
    <i name="e_wo_entrp">   -234.95461683 </i>
    <i name="e_0_energy">   -235.05989666 </i>
   </energy>
  </scstep>
  <scstep>
   <time name="dav">   55.58   55.93</time>
   <time name="total">   56.45   56.80</time>
   <energy>
    <i name="e_fr_energy">   -235.11246109 </i>
    <i name="e_wo_entrp">   -234.95454744 </i>
    <i name="e_0_energy">   -235.05982321 </i>
   </energy>
  </scstep>
  <scstep>
   <time name="dav">   53.21   53.54</time>
   <time name="total">   53.34   53.67</time>
[...]
       <r>    12.9405     0.0000   456.0000 </r>
       <r>    13.0168     0.0000   456.0000 </r>
       <r>    13.0931     0.0000   456.0000 </r>
       <r>    13.1694     0.0000   456.0000 </r>
       <r>    13.2457     0.0000   456.0000 </r>
       <r>    13.3220     0.0000   456.0000 </r>
       <r>    13.3983     0.0000   456.0000 </r>
      </set>
      <set comment="spin 2">
       <r>    -9.4940     0.0000     0.0000 </r>
       <r>    -9.4177     0.0000     0.0000 </r>
       <r>    -9.3414     0.0000     0.0000 </r>
       <r>    -9.2651     0.0000     0.0000 </r>
       <r>    -9.1888     0.0000     0.0000 </r>
       <r>    -9.1125    -0.0000    -0.0000 </r>
       <r>    -9.0362    -0.0000    -0.0000 </r>
       <r>    -8.9599    -0.0000    -0.0000 </r>
       <r>    -8.8836    -0.0000    -0.0000 </r>
       <r>    -8.8073    -0.0000    -0.0000 </r>
       <r>    -8.7310    -0.0000    -0.0000 </r>
       <r>    -8.6546    -0.0000    -0.0000 </r>
       <r>    -8.5783    -0.0000    -0.0000 </r>
       <r>    -8.5020    -0.0000    -0.0000 </r>
       <r>    -8.4257    -0.0000    -0.0000 </r>
       <r>    -8.3494    -0.0000    -0.0000 </r>
       <r>    -8.2731    -0.0000    -0.0000 </r>
       <r>    -8.1968    -0.0000    -0.0000 </r>
       <r>    -8.1205    -0.0001    -0.0000 </r>
       <r>    -8.0442    -0.0004    -0.0000 </r>
       <r>    -7.9679    -0.0025    -0.0002 </r>
       <r>    -7.8916    -0.0092    -0.0009 </r>
       <r>    -7.8153    -0.0212    -0.0025 </r>
       <r>    -7.7390    -0.0195    -0.0040 </r>
       <r>    -7.6626     0.0450    -0.0006 </r>
       <r>    -7.5863     0.1951     0.0143 </r>
       <r>    -7.5100     0.3374     0.0400 </r>
       <r>    -7.4337     0.3528     0.0670 </r>
       <r>    -7.3574     0.3684     0.0951 </r>
       <r>    -7.2811     0.7055     0.1489 </r>
       <r>    -7.2048     1.3308     0.2505 </r>
       <r>    -7.1285     1.7146     0.3813 </r>
       <r>    -7.0522     1.6604     0.5080 </r>
       <r>    -6.9759     1.8481     0.6490 </r>
       <r>    -6.8996     2.9260     0.8723 </r>
       <r>    -6.8233     4.3879     1.2071 </r>
       <r>    -6.7470     5.0239     1.5905 </r>
       <r>    -6.6706     4.3910     1.9256 </r>
       <r>    -6.5943     3.2032     2.1700 </r>
       <r>    -6.5180     2.2305     2.3402 </r>
       <r>    -6.4417     1.6544     2.4664 </r>
       <r>    -6.3654     1.6481     2.5922 </r>
       <r>    -6.2891     2.3800     2.7738 </r>
       <r>    -6.2128     3.1900     3.0172 </r>
       <r>    -6.1365     3.1370     3.2566 </r>
       <r>    -6.0602     2.5467     3.4509 </r>
       <r>    -5.9839     2.6487     3.6530 </r>
       <r>    -5.9076     3.6547     3.9319 </r>
       <r>    -5.8313     4.5207     4.2769 </r>
       <r>    -5.7550     4.5292     4.6225 </r>
       <r>    -5.6786     3.9258     4.9221 </r>
       <r>    -5.6023     3.3342     5.1765 </r>
       <r>    -5.5260     3.4165     5.4372 </r>
       <r>    -5.4497     4.3139     5.7664 </r>
       <r>    -5.3734     4.9674     6.1454 </r>
       <r>    -5.2971     4.1633     6.4631 </r>
       <r>    -5.2208     2.3449     6.6421 </r>
       <r>    -5.1445     1.1645     6.7309 </r>
       <r>    -5.0682     1.3913     6.8371 </r>
       <r>    -4.9919     2.3318     7.0150 </r>
       <r>    -4.9156     3.1697     7.2569 </r>
       <r>    -4.8393     4.0534     7.5662 </r>
       <r>    -4.7630     5.6796     7.9996 </r>
       <r>    -4.6866     8.0195     8.6116 </r>
       <r>    -4.6103     9.8173     9.3607 </r>
       <r>    -4.5340     9.7770    10.1068 </r>
       <r>    -4.4577     7.9359    10.7123 </r>
       <r>    -4.3814     5.4443    11.1278 </r>
       <r>    -4.3051     3.5119    11.3958 </r>
       <r>    -4.2288     2.9085    11.6177 </r>
       <r>    -4.1525     3.7386    11.9030 </r>
       <r>    -4.0762     5.1823    12.2984 </r>
       <r>    -3.9999     6.2682    12.7768 </r>
       <r>    -3.9236     7.0974    13.3183 </r>
       <r>    -3.8473     8.2062    13.9445 </r>
       <r>    -3.7709     9.4556    14.6661 </r>
       <r>    -3.6946    10.7623    15.4873 </r>
       <r>    -3.6183    12.3487    16.4296 </r>
       <r>    -3.5420    13.6698    17.4727 </r>
       <r>    -3.4657    13.8520    18.5298 </r>
       <r>    -3.3894    12.9019    19.5143 </r>
       <r>    -3.3131    11.5732    20.3974 </r>
       <r>    -3.2368    11.3298    21.2620 </r>
       <r>    -3.1605    14.5569    22.3728 </r>
       <r>    -3.0842    22.5944    24.0969 </r>
       <r>    -3.0079    32.5669    26.5820 </r>
       <r>    -2.9316    38.2361    29.4997 </r>
       <r>    -2.8553    36.5989    32.2925 </r>
       <r>    -2.7789    32.3544    34.7614 </r>
       <r>    -2.7026    32.5211    37.2430 </r>
       <r>    -2.6263    38.0069    40.1432 </r>
       <r>    -2.5500    44.5747    43.5446 </r>
       <r>    -2.4737    51.0256    47.4383 </r>
       <r>    -2.3974    60.7893    52.0770 </r>
       <r>    -2.3211    73.6202    57.6948 </r>
       <r>    -2.2448    81.1283    63.8855 </r>
       <r>    -2.1685    75.9049    69.6776 </r>
       <r>    -2.0922    62.3839    74.4380 </r>
       <r>    -2.0159    52.7796    78.4655 </r>
       <r>    -1.9396    53.7582    82.5677 </r>
       <r>    -1.8633    61.8790    87.2895 </r>
       <r>    -1.7869    69.9986    92.6310 </r>
       <r>    -1.7106    73.8480    98.2661 </r>
       <r>    -1.6343    74.0176   103.9143 </r>
       <r>    -1.5580    74.6590   109.6113 </r>
       <r>    -1.4817    79.7692   115.6983 </r>
       <r>    -1.4054    89.4280   122.5224 </r>
       <r>    -1.3291    99.5457   130.1185 </r>
       <r>    -1.2528   105.9011   138.1996 </r>
       <r>    -1.1765   108.5845   146.4854 </r>
       <r>    -1.1002   110.3347   154.9048 </r>
       <r>    -1.0239   110.7496   163.3559 </r>
       <r>    -0.9476   107.2568   171.5404 </r>
       <r>    -0.8713   100.9713   179.2453 </r>
       <r>    -0.7949    95.5585   186.5372 </r>
       <r>    -0.7186    93.2536   193.6532 </r>
       <r>    -0.6423    95.9538   200.9752 </r>
       <r>    -0.5660   104.1245   208.9207 </r>
       <r>    -0.4897   112.9790   217.5419 </r>
       <r>    -0.4134   116.4624   226.4289 </r>
       <r>    -0.3371   114.8616   235.1937 </r>
       <r>    -0.2608   113.1325   243.8266 </r>
       <r>    -0.1845   113.4695   252.4852 </r>
       <r>    -0.1082   114.8349   261.2480 </r>
       <r>    -0.0319   118.7429   270.3090 </r>
       <r>     0.0444   129.7511   280.2101 </r>
       <r>     0.1207   147.2019   291.4427 </r>
       <r>     0.1971   160.0387   303.6549 </r>
       <r>     0.2734   154.6625   315.4569 </r>
       <r>     0.3497   127.1864   325.1622 </r>
       <r>     0.4260    87.0184   331.8024 </r>
       <r>     0.5023    49.9579   335.6146 </r>
       <r>     0.5786    26.5782   337.6427 </r>
       <r>     0.6549    16.4060   338.8946 </r>
       <r>     0.7312    13.3921   339.9165 </r>
       <r>     0.8075    13.1830   340.9225 </r>
       <r>     0.8838    13.8486   341.9792 </r>
       <r>     0.9601    14.5118   343.0866 </r>
       <r>     1.0364    15.1511   344.2428 </r>
       <r>     1.1128    15.4620   345.4226 </r>
       <r>     1.1891    14.2255   346.5081 </r>
       <r>     1.2654    11.0022   347.3477 </r>
       <r>     1.3417     7.1425   347.8927 </r>
       <r>     1.4180     4.2984   348.2207 </r>
       <r>     1.4943     2.9430   348.4453 </r>
       <r>     1.5706     2.8046   348.6593 </r>
       <r>     1.6469     4.0529   348.9686 </r>
       <r>     1.7232     7.3426   349.5289 </r>
       <r>     1.7995    12.6440   350.4937 </r>
       <r>     1.8758    18.3068   351.8907 </r>
       <r>     1.9521    21.4430   353.5269 </r>
       <r>     2.0284    19.8273   355.0399 </r>
       <r>     2.1048    14.0595   356.1127 </r>
       <r>     2.1811     7.5012   356.6851 </r>
       <r>     2.2574     3.6008   356.9599 </r>
       <r>     2.3337     3.3148   357.2129 </r>
       <r>     2.4100     5.0073   357.5949 </r>
       <r>     2.4863     6.6797   358.1047 </r>
       <r>     2.5626     7.8706   358.7052 </r>
       <r>     2.6389     9.1252   359.4016 </r>
       <r>     2.7152    10.6790   360.2165 </r>
       <r>     2.7915    11.9594   361.1291 </r>
       <r>     2.8678    11.6432   362.0175 </r>
       <r>     2.9441     9.2245   362.7214 </r>
       <r>     3.0204     6.8390   363.2433 </r>
       <r>     3.0968     7.4697   363.8133 </r>
       <r>     3.1731    11.1099   364.6611 </r>
       <r>     3.2494    14.4984   365.7674 </r>
       <r>     3.3257    14.7320   366.8916 </r>
       <r>     3.4020    11.9442   367.8030 </r>
       <r>     3.4783     8.2665   368.4338 </r>
       <r>     3.5546     5.3503   368.8421 </r>
       <r>     3.6309     4.0214   369.1490 </r>
       <r>     3.7072     5.0437   369.5338 </r>
       <r>     3.7835     7.9886   370.1434 </r>
       <r>     3.8598    10.3797   370.9355 </r>
       <r>     3.9361    10.0781   371.7045 </r>
       <r>     4.0124     7.7298   372.2944 </r>
       <r>     4.0888     5.7899   372.7362 </r>
       <r>     4.1651     5.8078   373.1794 </r>
       <r>     4.2414     6.9934   373.7130 </r>
       <r>     4.3177     7.5074   374.2859 </r>
       <r>     4.3940     6.9074   374.8130 </r>
       <r>     4.4703     6.1897   375.2853 </r>
       <r>     4.5466     6.0974   375.7506 </r>
       <r>     4.6229     6.9368   376.2799 </r>
       <r>     4.6992     8.8185   376.9528 </r>
       <r>     4.7755    10.8065   377.7775 </r>
       <r>     4.8518    11.1886   378.6312 </r>
       <r>     4.9281     9.5472   379.3598 </r>
       <r>     5.0045     7.6371   379.9425 </r>
       <r>     5.0808     7.3702   380.5049 </r>
       <r>     5.1571     8.4985   381.1534 </r>
       <r>     5.2334     9.1936   381.8550 </r>
       <r>     5.3097     8.6087   382.5119 </r>
       <r>     5.3860     8.0554   383.1266 </r>
       <r>     5.4623     9.2464   383.8321 </r>
       <r>     5.5386    11.4471   384.7056 </r>
       <r>     5.6149    11.6425   385.5941 </r>
       <r>     5.6912     8.5138   386.2437 </r>
       <r>     5.7675     4.7601   386.6070 </r>
       <r>     5.8438     4.0840   386.9186 </r>
       <r>     5.9201     6.9341   387.4477 </r>
       <r>     5.9965    10.3884   388.2404 </r>
       <r>     6.0728    11.6622   389.1304 </r>
       <r>     6.1491    10.5453   389.9350 </r>
       <r>     6.2254     8.7480   390.6026 </r>
       <r>     6.3017     8.3325   391.2384 </r>
       <r>     6.3780    10.3952   392.0317 </r>
       <r>     6.4543    13.9020   393.0925 </r>
       <r>     6.5306    16.3082   394.3369 </r>
       <r>     6.6069    16.0221   395.5595 </r>
       <r>     6.6832    13.7519   396.6089 </r>
       <r>     6.7595    11.6074   397.4947 </r>
       <r>     6.8358    11.1719   398.3472 </r>
       <r>     6.9121    11.8722   399.2531 </r>
       <r>     6.9885    11.6896   400.1451 </r>
       <r>     7.0648     9.9307   400.9029 </r>
       <r>     7.1411     8.0909   401.5203 </r>
       <r>     7.2174     7.7394   402.1109 </r>
       <r>     7.2937     8.7716   402.7802 </r>
       <r>     7.3700    10.0027   403.5435 </r>
       <r>     7.4463    10.7794   404.3661 </r>
       <r>     7.5226    11.4457   405.2395 </r>
       <r>     7.5989    12.4231   406.1874 </r>
       <r>     7.6752    13.5686   407.2228 </r>
       <r>     7.7515    14.6298   408.3392 </r>
       <r>     7.8278    15.8095   409.5456 </r>
       <r>     7.9041    17.1530   410.8545 </r>
       <r>     7.9805    17.4050   412.1826 </r>
       <r>     8.0568    14.8755   413.3177 </r>
       <r>     8.1331    10.0764   414.0867 </r>
       <r>     8.2094     6.3667   414.5725 </r>
       <r>     8.2857     7.1031   415.1145 </r>
       <r>     8.3620    11.9733   416.0282 </r>
       <r>     8.4383    16.5793   417.2933 </r>
       <r>     8.5146    16.8250   418.5772 </r>
       <r>     8.5909    13.4270   419.6017 </r>
       <r>     8.6672    10.2884   420.3868 </r>
       <r>     8.7435     9.4102   421.1049 </r>
       <r>     8.8198    10.1227   421.8773 </r>
       <r>     8.8961    11.8369   422.7806 </r>
       <r>     8.9725    14.4096   423.8802 </r>
       <r>     9.0488    16.9139   425.1708 </r>
       <r>     9.1251    18.1629   426.5568 </r>
       <r>     9.2014    17.8619   427.9198 </r>
       <r>     9.2777    16.5956   429.1862 </r>
       <r>     9.3540    15.1483   430.3421 </r>
       <r>     9.4303    14.1012   431.4181 </r>
       <r>     9.5066    13.7667   432.4686 </r>
       <r>     9.5829    13.9290   433.5315 </r>
       <r>     9.6592    13.7821   434.5832 </r>
       <r>     9.7355    12.8941   435.5671 </r>
       <r>     9.8118    11.9589   436.4797 </r>
       <r>     9.8882    11.8073   437.3807 </r>
       <r>     9.9645    12.1600   438.3086 </r>
       <r>    10.0408    12.0861   439.2309 </r>
       <r>    10.1171    11.5008   440.1085 </r>
       <r>    10.1934    11.6885   441.0004 </r>
       <r>    10.2697    14.0843   442.0751 </r>
       <r>    10.3460    18.5203   443.4884 </r>
       <r>    10.4223    22.5900   445.2122 </r>
       <r>    10.4986    23.1716   446.9803 </r>
       <r>    10.5749    19.3956   448.4604 </r>
       <r>    10.6512    13.7595   449.5103 </r>
       <r>    10.7275     9.5294   450.2375 </r>
       <r>    10.8038     7.7871   450.8317 </r>
       <r>    10.8802     7.8739   451.4325 </r>
       <r>    10.9565     9.2284   452.1367 </r>
       <r>    11.0328    10.9891   452.9753 </r>
       <r>    11.1091    11.2858   453.8365 </r>
       <r>    11.1854     9.2198   454.5400 </r>
       <r>    11.2617     6.3954   455.0281 </r>
       <r>    11.3380     4.7285   455.3889 </r>
       <r>    11.4143     3.9962   455.6938 </r>
       <r>    11.4906     2.9162   455.9163 </r>
       <r>    11.5669     1.3635   456.0204 </r>
       <r>    11.6432     0.1952   456.0353 </r>
       <r>    11.7195    -0.2058   456.0196 </r>
       <r>    11.7958    -0.1689   456.0067 </r>
       <r>    11.8722    -0.0672   456.0016 </r>
       <r>    11.9485    -0.0171   456.0003 </r>
       <r>    12.0248    -0.0030   456.0000 </r>
       <r>    12.1011    -0.0004   456.0000 </r>
       <r>    12.1774    -0.0000   456.0000 </r>
       <r>    12.2537    -0.0000   456.0000 </r>
       <r>    12.3300    -0.0000   456.0000 </r>
       <r>    12.4063    -0.0000   456.0000 </r>
       <r>    12.4826    -0.0000   456.0000 </r>
       <r>    12.5589    -0.0000   456.0000 </r>
       <r>    12.6352    -0.0000   456.0000 </r>
       <r>    12.7115     0.0000   456.0000 </r>
       <r>    12.7878     0.0000   456.0000 </r>
       <r>    12.8642     0.0000   456.0000 </r>
       <r>    12.9405     0.0000   456.0000 </r>
       <r>    13.0168     0.0000   456.0000 </r>
       <r>    13.0931     0.0000   456.0000 </r>
       <r>    13.1694     0.0000   456.0000 </r>
       <r>    13.2457     0.0000   456.0000 </r>
       <r>    13.3220     0.0000   456.0000 </r>
       <r>    13.3983     0.0000   456.0000 </r>
      </set>
     </set>
    </array>
   </total>
  </dos>
 </calculation>
 <structure name="finalpos" >
  <crystal>
   <varray name="basis" >
    <v>       7.26000023       0.00000000       0.00000000 </v>
    <v>       0.00000000       7.26000023       0.00000000 </v>
    <v>       0.00000000       0.00000000      27.70499992 </v>
   </varray>
   <i name="volume">   1460.26414606 </i>
   <varray name="rec_basis" >
    <v>       0.13774104       0.00000000       0.00000000 </v>
    <v>       0.00000000       0.13774104       0.00000000 </v>
    <v>       0.00000000       0.00000000       0.03609457 </v>
   </varray>
  </crystal>
  <varray name="positions" >
   <v>      -0.00221286      -0.00165710       0.00858936 </v>
   <v>      -0.00224371       0.49878931       0.00858306 </v>
   <v>       0.49765507      -0.00136603       0.00855177 </v>
   <v>       0.49772088       0.49849033       0.00854895 </v>
   <v>       0.24800389       0.24855309       0.00856490 </v>
   <v>       0.24765925       0.74856567       0.00855452 </v>
   <v>       0.74749394       0.24858664       0.00857281 </v>
   <v>       0.74781124       0.74849904       0.00855827 </v>
   <v>      -0.00220355       0.24860038       0.07078188 </v>
   <v>      -0.00230763       0.74858752       0.07067903 </v>
   <v>       0.49769992       0.24860367       0.07068651 </v>
   <v>       0.49788812       0.74866279       0.07083798 </v>
   <v>       0.24782668      -0.00136252       0.07069539 </v>
   <v>       0.24777541       0.49854363       0.07069043 </v>
   <v>       0.74772904      -0.00143289       0.07071600 </v>
   <v>       0.74771180       0.49870516       0.07070582 </v>
   <v>      -0.00230541      -0.00178909       0.13433092 </v>
   <v>      -0.00244610       0.49883370       0.13431764 </v>
   <v>       0.49753207      -0.00118497       0.13429151 </v>
   <v>       0.49762505       0.49825843       0.13426407 </v>
   <v>       0.24790519       0.24847236       0.13432039 </v>
   <v>       0.24726708       0.74859546       0.13424052 </v>
   <v>       0.74726223       0.24862194       0.13433424 </v>
   <v>       0.74777831       0.74851375       0.13427044 </v>
   <v>      -0.00259027       0.24849371       0.19690743 </v>
   <v>      -0.00262774       0.74839573       0.19742369 </v>
   <v>       0.49737997       0.24849329       0.19743974 </v>
   <v>       0.49734507       0.74844126       0.19706612 </v>
   <v>       0.24781910      -0.00197564       0.19710737 </v>
   <v>       0.24779268       0.49887311       0.19707617 </v>
   <v>       0.74705623      -0.00187061       0.19708701 </v>
   <v>       0.74698478       0.49882757       0.19710644 </v>
   <v>      -0.00297810      -0.00143341       0.25949821 </v>
   <v>      -0.00288569       0.49801990       0.25949826 </v>
   <v>       0.49710944      -0.00188659       0.25974919 </v>
   <v>       0.49710474       0.49838574       0.25979724 </v>
   <v>       0.24674221       0.24839171       0.25944973 </v>
   <v>       0.24709427       0.74836681       0.25977957 </v>
   <v>       0.74726168       0.24827077       0.25948717 </v>
   <v>       0.74677879       0.74833545       0.25972033 </v>
   <v>      -0.00334240       0.24811014       0.32239953 </v>
   <v>      -0.00391073       0.74815046       0.32242720 </v>
   <v>       0.49672012       0.24782995       0.32246868 </v>
   <v>       0.49663032       0.74813663       0.32262192 </v>
   <v>       0.24680303      -0.00167018       0.32227053 </v>
   <v>       0.24676050       0.49811898       0.32229271 </v>
   <v>       0.74656713      -0.00198323       0.32235894 </v>
   <v>       0.74677412       0.49826034       0.32230700 </v>
   <v>      -0.00377617      -0.00231563       0.38574006 </v>
   <v>      -0.00411970       0.49831106       0.38565410 </v>
   <v>       0.49606495      -0.00384600       0.38651556 </v>
   <v>       0.49620730       0.49909365       0.38635811 </v>
   <v>       0.24675418       0.24766046       0.38558966 </v>
   <v>       0.24724103       0.74797327       0.38622237 </v>
   <v>       0.74598416       0.24798690       0.38576051 </v>
   <v>       0.74392420       0.74783935       0.38648811 </v>
   <v>      -0.00459867       0.24761136       0.44805314 </v>
   <v>      -0.00435584       0.74778825       0.44804692 </v>
   <v>       0.49590788       0.24761632       0.44825699 </v>
   <v>       0.49559186       0.74771276       0.45082716 </v>
   <v>       0.24384736      -0.00001296       0.44821516 </v>
   <v>       0.24231220       0.49392827       0.44775198 </v>
   <v>       0.74802797      -0.00005827       0.44818957 </v>
   <v>       0.74741203       0.49606594       0.44833084 </v>
   <v>       0.50113100       0.68461469       0.51233458 </v>
   <v>       0.44342913       0.78001328       0.51249054 </v>
  </varray>
 </structure>
</modeling>
