unknown system                          
           1
     7.260000    0.000000    0.000000
     0.000000    7.260000    0.000000
     0.000000    0.000000   27.705000
   Cu   H 
    64     2
Direct configuration=     1
   0.00000000  0.00000000  0.00000000
   0.00000000  0.50000000  0.00000000
   0.50000000  0.00000000  0.00000000
   0.50000000  0.50000000  0.00000000
   0.25000000  0.25000000  0.00000000
   0.25000000  0.75000000  0.00000000
   0.75000000  0.25000000  0.00000000
   0.75000000  0.75000000  0.00000000
   0.00000000  0.25000000  0.06551164
   0.00000000  0.75000000  0.06551164
   0.50000000  0.25000000  0.06551164
   0.50000000  0.75000000  0.06551164
   0.25000000  0.00000000  0.06551164
   0.25000000  0.50000000  0.06551164
   0.75000000  0.00000000  0.06551164
   0.75000000  0.50000000  0.06551164
   0.00000000  0.00000000  0.13164128
   0.00000000  0.50000000  0.13164128
   0.50000000  0.00000000  0.13164128
   0.50000000  0.50000000  0.13164128
   0.25000000  0.25000000  0.13164128
   0.25000000  0.75000000  0.13164128
   0.75000000  0.25000000  0.13164128
   0.75000000  0.75000000  0.13164128
   0.00000000  0.25000000  0.19677891
   0.00000000  0.75000000  0.19677891
   0.50000000  0.25000000  0.19677891
   0.50000000  0.75000000  0.19677891
   0.25000000  0.00000000  0.19677891
   0.25000000  0.50000000  0.19677891
   0.75000000  0.00000000  0.19677891
   0.75000000  0.50000000  0.19677891
   0.00000000  0.00000000  0.26184662
   0.00000000  0.50000000  0.26184662
   0.50000000  0.00000000  0.26184662
   0.50000000  0.50000000  0.26184662
   0.25000000  0.25000000  0.26184662
   0.25000000  0.75000000  0.26184662
   0.75000000  0.25000000  0.26184662
   0.75000000  0.75000000  0.26184662
   0.00000000  0.25000000  0.32758887
   0.00000000  0.75000000  0.32758887
   0.50000000  0.25000000  0.32758887
   0.50000000  0.75000000  0.32758887
   0.25000000  0.00000000  0.32758887
   0.25000000  0.50000000  0.32758887
   0.75000000  0.00000000  0.32758887
   0.75000000  0.50000000  0.32758887
   0.00000000  0.00000000  0.39185763
   0.00000000  0.50000000  0.39185763
   0.50000000  0.00000000  0.39185763
   0.50000000  0.50000000  0.39185763
   0.25000000  0.25000000  0.39185763
   0.25000000  0.75000000  0.39185763
   0.75000000  0.25000000  0.39185763
   0.75000000  0.75000000  0.39185763
   0.00000000  0.25000000  0.45475490
   0.00000000  0.75000000  0.45475490
   0.50000000  0.25000000  0.45475490
   0.50000000  0.75000000  0.45475490
   0.25000000  0.00000000  0.45475490
   0.25000000  0.50000000  0.45475490
   0.75000000  0.00000000  0.45475490
   0.75000000  0.50000000  0.45475490
   0.37500000  0.62500000  0.50150658
   0.37500000  0.72775482  0.50150658
Direct configuration=     2
   0.00007967 -0.00009457  0.00054965
   0.00002863  0.50010985  0.00055701
   0.49990145  0.00002382  0.00055105
   0.49998955  0.49994413  0.00054558
   0.25011886  0.24999836  0.00054373
   0.24993274  0.75002969  0.00053672
   0.74992124  0.25004838  0.00054154
   0.75002755  0.74994036  0.00055084
   0.00001073  0.25003979  0.06540706
   0.00001879  0.74998903  0.06539451
   0.49996150  0.25005004  0.06540038
   0.50012967  0.75010683  0.06542547
   0.25003546 -0.00003808  0.06539428
   0.24993915  0.49987905  0.06540431
   0.74994637 -0.00005260  0.06540569
   0.74995826  0.50002620  0.06539636
   0.00014276 -0.00014681  0.13154249
   0.00010252  0.50006921  0.13154196
   0.49996883 -0.00003990  0.13154320
   0.50004658  0.49991680  0.13152982
   0.25005106  0.25006115  0.13153589
   0.24989171  0.75006531  0.13151091
   0.74984844  0.25009294  0.13153615
   0.74994454  0.74998266  0.13152994
   0.00004783  0.25003819  0.19683196
   0.00003214  0.74996812  0.19688537
   0.49995066  0.25004841  0.19689341
   0.49994507  0.75000003  0.19681675
   0.25009065 -0.00010092  0.19684383
   0.25008099  0.50006132  0.19680526
   0.74992286 -0.00008885  0.19683925
   0.74993440  0.50007251  0.19685673
   0.00006131  0.00000902  0.26187150
   0.00013893  0.49994223  0.26185246
   0.50003817 -0.00014444  0.26187984
   0.50002851  0.49999623  0.26194142
   0.24991386  0.25009309  0.26180681
   0.24996594  0.75004238  0.26192906
   0.75001283  0.25001332  0.26186390
   0.74984230  0.75004906  0.26184628
  -0.00011950  0.24993814  0.32727168
  -0.00034713  0.74997725  0.32720048
   0.49994941  0.24979264  0.32723584
   0.49996409  0.74997505  0.32730496
   0.25005983  0.00027604  0.32721298
   0.25003473  0.49992642  0.32725337
   0.75016166  0.00010863  0.32723202
   0.75026703  0.50000979  0.32720018
   0.00025002 -0.00011650  0.39185970
   0.00043361  0.50015035  0.39189389
   0.49996217 -0.00042969  0.39190018
   0.50038792  0.49949142  0.39154948
   0.25012667  0.25035857  0.39185495
   0.24916485  0.75043703  0.39132271
   0.74995967  0.25009651  0.39179472
   0.74934619  0.74989768  0.39190676
   0.00013049  0.25009137  0.45474333
  -0.00123903  0.75011947  0.45459097
   0.49988658  0.24965928  0.45471790
   0.50448416  0.75132724  0.45373057
   0.24978224  0.00138689  0.45462472
   0.24769159  0.49674564  0.45425022
   0.74988071 -0.00006082  0.45474428
   0.75080942  0.49974749  0.45464199
   0.37728429  0.60851357  0.50197363
   0.37168587  0.74533401  0.50320211
Direct configuration=     3
   0.00005142 -0.00006103  0.00035474
   0.00001848  0.50007089  0.00035948
   0.49993640  0.00001537  0.00035564
   0.49999326  0.49996394  0.00035211
   0.25007671  0.24999894  0.00035092
   0.24995659  0.75001916  0.00034640
   0.74994917  0.25003122  0.00034950
   0.75001778  0.74996151  0.00035551
   0.00000693  0.25002568  0.06544414
   0.00001213  0.74999292  0.06543605
   0.49997515  0.25003230  0.06543983
   0.50008369  0.75006895  0.06545602
   0.25002288 -0.00002457  0.06543590
   0.24996073  0.49992194  0.06544237
   0.74996539 -0.00003394  0.06544326
   0.74997306  0.50001691  0.06543724
   0.00009214 -0.00009475  0.13157752
   0.00006616  0.50004467  0.13157718
   0.49997988 -0.00002575  0.13157798
   0.50003006  0.49994630  0.13156934
   0.25003295  0.25003947  0.13157327
   0.24993011  0.75004215  0.13155714
   0.74990219  0.25005998  0.13157343
   0.74996421  0.74998881  0.13156942
   0.00003087  0.25002465  0.19681315
   0.00002074  0.74997942  0.19684762
   0.49996816  0.25003125  0.19685281
   0.49996455  0.75000002  0.19680333
   0.25005850 -0.00006513  0.19682081
   0.25005227  0.50003958  0.19679592
   0.74995021 -0.00005735  0.19681786
   0.74995766  0.50004680  0.19682914
   0.00003957  0.00000582  0.26186268
   0.00008966  0.49996271  0.26185039
   0.50002463 -0.00009322  0.26186806
   0.50001840  0.49999757  0.26190780
   0.24994440  0.25006008  0.26182093
   0.24997802  0.75002735  0.26189983
   0.75000828  0.25000860  0.26185777
   0.74989822  0.75003166  0.26184641
  -0.00007712  0.24996008  0.32738416
  -0.00022403  0.74998532  0.32733821
   0.49996735  0.24986617  0.32736103
   0.49997683  0.74998389  0.32740564
   0.25003861  0.00017816  0.32734627
   0.25002241  0.49995251  0.32737234
   0.75010433  0.00007011  0.32735856
   0.75017234  0.50000632  0.32733802
   0.00016136 -0.00007519  0.39185897
   0.00027985  0.50009703  0.39188103
   0.49997559 -0.00027732  0.39188509
   0.50025036  0.49967177  0.39165875
   0.25008175  0.25023142  0.39185590
   0.24946100  0.75028205  0.39151240
   0.74997397  0.25006229  0.39181703
   0.74957804  0.74993397  0.39188934
   0.00008421  0.25005897  0.45474743
  -0.00079965  0.75007711  0.45464910
   0.49992680  0.24978010  0.45473102
   0.50289402  0.75085659  0.45409381
   0.24985946  0.00089508  0.45467088
   0.24851018  0.49789968  0.45442918
   0.74992301 -0.00003926  0.45474805
   0.75052239  0.49983703  0.45468203
   0.37647425  0.61435985  0.50180801
   0.37286110  0.73910022  0.50260086
Direct configuration=     4
   0.00012050 -0.00013111  0.00083745
   0.00005051  0.50015169  0.00084536
   0.49984762  0.00002484  0.00083140
   0.49996565  0.49993975  0.00082337
   0.25017588  0.24999650  0.00082050
   0.24993124  0.75003250  0.00080974
   0.74988653  0.25006852  0.00082505
   0.75002465  0.74991611  0.00083396
   0.00000282  0.25005179  0.06540036
   0.00000708  0.74998563  0.06538083
   0.49993550  0.25006756  0.06539033
   0.50017115  0.75014908  0.06542538
   0.25006045 -0.00004541  0.06538107
   0.24992782  0.49982272  0.06539532
   0.74994015 -0.00006765  0.06539810
   0.74995681  0.50003594  0.06538384
   0.00020390 -0.00020194  0.13150222
   0.00013994  0.50010833  0.13150066
   0.49994506 -0.00003421  0.13150563
   0.50005958  0.49988172  0.13148435
   0.25008214  0.25007287  0.13149367
   0.24984804  0.75008472  0.13145429
   0.74978339  0.25012354  0.13149396
   0.74993494  0.74996594  0.13148438
   0.00006893  0.25005209  0.19684410
   0.00003285  0.74995233  0.19692925
   0.49992065  0.25007443  0.19694057
   0.49990116  0.74999726  0.19682689
   0.25014614 -0.00015584  0.19686488
   0.25014407  0.50009524  0.19680862
   0.74988883 -0.00013127  0.19685602
   0.74990820  0.50011220  0.19688602
   0.00010053  0.00002699  0.26185889
   0.00021703  0.49991849  0.26183163
   0.50004401 -0.00021783  0.26187297
   0.50002026  0.50001666  0.26196288
   0.24987466  0.25012965  0.26175766
   0.24997428  0.75004828  0.26194170
   0.75002013  0.25001126  0.26184574
   0.74975197  0.75006671  0.26182100
  -0.00017985  0.24992271  0.32713141
  -0.00061535  0.74997950  0.32700884
   0.49992480  0.24965042  0.32707706
   0.49997850  0.74999914  0.32717904
   0.25009064  0.00047286  0.32703238
   0.25002297  0.49982262  0.32709332
   0.75025593  0.00014133  0.32707469
   0.75045995  0.50000961  0.32701171
   0.00032654 -0.00012733  0.39182070
   0.00052131  0.50022001  0.39182777
   0.49992777 -0.00039475  0.39182754
   0.50053211  0.49923239  0.39135194
   0.25017628  0.25035368  0.39175385
   0.24880763  0.75058090  0.39104147
   0.74995935  0.25008566  0.39172608
   0.74931454  0.74982600  0.39180489
   0.00003311  0.24999121  0.45472209
  -0.00173902  0.75021187  0.45449981
   0.49986062  0.24964737  0.45471114
   0.50387402  0.75079430  0.45415100
   0.24992798  0.00152066  0.45464607
   0.24760520  0.49617510  0.45429756
   0.74995374  0.00011625  0.45472884
   0.75122005  0.49949270  0.45457377
   0.37843459  0.61597753  0.50183001
   0.37131150  0.73905698  0.50337897
Direct configuration=     5
   0.00018143 -0.00019291  0.00126315
   0.00007876  0.50022294  0.00127384
   0.49976933  0.00003319  0.00125096
   0.49994130  0.49991841  0.00123894
   0.25026334  0.24999435  0.00123460
   0.24990888  0.75004425  0.00121835
   0.74983130  0.25010141  0.00124442
   0.75003071  0.74987607  0.00125589
  -0.00000080  0.25007482  0.06536176
   0.00000262  0.74997920  0.06533214
   0.49990054  0.25009866  0.06534667
   0.50024827  0.75021975  0.06539835
   0.25009359 -0.00006378  0.06533272
   0.24989880  0.49973522  0.06535382
   0.74991789 -0.00009738  0.06535828
   0.74994247  0.50005273  0.06533675
   0.00030247 -0.00029646  0.13143580
   0.00020501  0.50016447  0.13143319
   0.49991435 -0.00004167  0.13144183
   0.50008561  0.49982477  0.13140940
   0.25012552  0.25010232  0.13142347
   0.24977567  0.75012226  0.13136359
   0.74967864  0.25017959  0.13142387
   0.74990914  0.74994578  0.13140939
   0.00010249  0.25007629  0.19687138
   0.00004352  0.74992843  0.19700125
   0.49987877  0.25011251  0.19701796
   0.49984525  0.74999483  0.19684767
   0.25022342 -0.00023583  0.19690375
   0.25022502  0.50014433  0.19681982
   0.74983470 -0.00019647  0.19688968
   0.74986457  0.50016988  0.19693618
   0.00015430  0.00004566  0.26185555
   0.00032936  0.49987950  0.26181509
   0.50006109 -0.00032771  0.26187730
   0.50002191  0.50003349  0.26201145
   0.24981316  0.25019101  0.26170186
   0.24997099  0.75006675  0.26197863
   0.75003058  0.25001361  0.26183512
   0.74962299  0.75009761  0.26179860
  -0.00027043  0.24988977  0.32690852
  -0.00096043  0.74997437  0.32671837
   0.49988727  0.24946015  0.32682664
   0.49997998  0.75001259  0.32697921
   0.25013652  0.00073274  0.32675556
   0.25002346  0.49970806  0.32684727
   0.75038963  0.00020414  0.32682435
   0.75071358  0.50001251  0.32672395
   0.00047222 -0.00017332  0.39178695
   0.00073425  0.50032846  0.39178080
   0.49988560 -0.00049830  0.39177678
   0.50078058  0.49884491  0.39108138
   0.25025965  0.25046151  0.39166386
   0.24823145  0.75084444  0.39062618
   0.74994647  0.25010628  0.39164588
   0.74908218  0.74973080  0.39173041
  -0.00001197  0.24993146  0.45469975
  -0.00256741  0.75033071  0.45436816
   0.49980226  0.24953032  0.45469361
   0.50473825  0.75073938  0.45420143
   0.24998841  0.00207234  0.45462419
   0.24680713  0.49465427  0.45418149
   0.74998084  0.00025338  0.45471191
   0.75183529  0.49918905  0.45447831
   0.38016334  0.61740409  0.50184941
   0.36994497  0.73901884  0.50406517
Direct configuration=     6
   0.00030327 -0.00031651  0.00211453
   0.00013526  0.50036545  0.00213079
   0.49961275  0.00004988  0.00209006
   0.49989260  0.49987574  0.00207010
   0.25043825  0.24999004  0.00206281
   0.24986417  0.75006777  0.00203557
   0.74972082  0.25016720  0.00208315
   0.75004282  0.74979599  0.00209974
  -0.00000805  0.25012087  0.06528454
  -0.00000629  0.74996635  0.06523476
   0.49983062  0.25016086  0.06525936
   0.50040252  0.75036108  0.06534430
   0.25015985 -0.00010052  0.06523602
   0.24984075  0.49956021  0.06527083
   0.74987337 -0.00015683  0.06527863
   0.74991379  0.50008630  0.06524256
   0.00049959 -0.00048551  0.13130298
   0.00033514  0.50027674  0.13129823
   0.49985293 -0.00005660  0.13131422
   0.50013768  0.49971086  0.13125950
   0.25021227  0.25016123  0.13128308
   0.24963093  0.75019734  0.13118219
   0.74946912  0.25029170  0.13128370
   0.74985753  0.74990545  0.13125940
   0.00016962  0.25012469  0.19692596
   0.00006487  0.74988064  0.19714524
   0.49979499  0.25018867  0.19717274
   0.49973345  0.74998997  0.19688922
   0.25037799 -0.00039582  0.19698147
   0.25038693  0.50024251  0.19684221
   0.74972645 -0.00032685  0.19695699
   0.74977733  0.50028523  0.19703650
   0.00026182  0.00008299  0.26184887
   0.00055400  0.49980151  0.26178202
   0.50009527 -0.00054749  0.26188597
   0.50002519  0.50006716  0.26210858
   0.24969016  0.25031372  0.26159028
   0.24996440  0.75010367  0.26205248
   0.75005149  0.25001831  0.26181390
   0.74936503  0.75015942  0.26175379
  -0.00045160  0.24982387  0.32646274
  -0.00165060  0.74996411  0.32613745
   0.49981222  0.24907961  0.32632580
   0.49998294  0.75003949  0.32657956
   0.25022829  0.00125251  0.32620193
   0.25002443  0.49947896  0.32635516
   0.75065701  0.00032975  0.32632367
   0.75122085  0.50001832  0.32614843
   0.00076356 -0.00026528  0.39171946
   0.00116012  0.50054535  0.39168685
   0.49980127 -0.00070541  0.39167528
   0.50127753  0.49806997  0.39054025
   0.25042638  0.25067715  0.39148387
   0.24707908  0.75137152  0.38979559
   0.74992069  0.25014752  0.39148548
   0.74861745  0.74954038  0.39158147
  -0.00010211  0.24981196  0.45465507
  -0.00422419  0.75056839  0.45410487
   0.49968553  0.24929623  0.45465855
   0.50646669  0.75062953  0.45430229
   0.25010926  0.00317568  0.45458043
   0.24521099  0.49161259  0.45394936
   0.75003504  0.00052765  0.45467804
   0.75306577  0.49858174  0.45428738
   0.38362084  0.62025722  0.50188822
   0.36721190  0.73894258  0.50543755
Direct configuration=     7
   0.00034775 -0.00036162  0.00242531
   0.00015589  0.50041747  0.00244360
   0.49955559  0.00005598  0.00239637
   0.49987482  0.49986016  0.00237351
   0.25050210  0.24998846  0.00236514
   0.24984784  0.75007636  0.00233388
   0.74968049  0.25019121  0.00238932
   0.75004725  0.74976675  0.00240778
  -0.00001069  0.25013768  0.06525635
  -0.00000955  0.74996165  0.06519921
   0.49980509  0.25018357  0.06522749
   0.50045883  0.75041268  0.06532457
   0.25018404 -0.00011394  0.06520072
   0.24981957  0.49949633  0.06524054
   0.74985711 -0.00017854  0.06524955
   0.74990332  0.50009856  0.06520818
   0.00057155 -0.00055452  0.13125450
   0.00038264  0.50031773  0.13124897
   0.49983051 -0.00006204  0.13126764
   0.50015669  0.49966928  0.13120478
   0.25024394  0.25018273  0.13123183
   0.24957809  0.75022475  0.13111598
   0.74939264  0.25033262  0.13123253
   0.74983869  0.74989073  0.13120464
   0.00019413  0.25014236  0.19694588
   0.00007266  0.74986320  0.19719780
   0.49976440  0.25021647  0.19722924
   0.49969264  0.74998819  0.19690439
   0.25043442 -0.00045422  0.19700985
   0.25044604  0.50027834  0.19685039
   0.74968693 -0.00037445  0.19698156
   0.74974548  0.50032734  0.19707312
   0.00030107  0.00009662  0.26184643
   0.00063601  0.49977304  0.26176994
   0.50010774 -0.00062771  0.26188913
   0.50002639  0.50007946  0.26214404
   0.24964525  0.25035851  0.26154954
   0.24996199  0.75011715  0.26207944
   0.75005912  0.25002002  0.26180615
   0.74927087  0.75018198  0.26173743
  -0.00051774  0.24979981  0.32630001
  -0.00190254  0.74996036  0.32592539
   0.49978482  0.24894070  0.32614298
   0.49998402  0.75004930  0.32643367
   0.25026178  0.00144225  0.32599984
   0.25002479  0.49939533  0.32617552
   0.75075462  0.00037561  0.32614091
   0.75140602  0.50002044  0.32593834
   0.00086991 -0.00029885  0.39169482
   0.00131558  0.50062453  0.39165256
   0.49977048 -0.00078101  0.39163822
   0.50145893  0.49778708  0.39034272
   0.25048724  0.25075587  0.39141817
   0.24665842  0.75156392  0.38949240
   0.74991128  0.25016257  0.39142693
   0.74844781  0.74947087  0.39152710
  -0.00013501  0.24976834  0.45463875
  -0.00482897  0.75065515  0.45400875
   0.49964292  0.24921077  0.45464575
   0.50709764  0.75058943  0.45433911
   0.25015338  0.00357844  0.45456446
   0.24462834  0.49050228  0.45386462
   0.75005483  0.00062777  0.45466567
   0.75351494  0.49836005  0.45421768
   0.38488295  0.62129871  0.50190238
   0.36621424  0.73891474  0.50593852
Direct configuration=     8
   0.00035831 -0.00033481  0.00297013
   0.00019558  0.50041528  0.00297408
   0.49954533  0.00003277  0.00291732
   0.49979193  0.49997285  0.00290322
   0.25048784  0.24997639  0.00287502
   0.24993687  0.74999787  0.00285890
   0.74967180  0.25016290  0.00292752
   0.75000165  0.74977039  0.00292947
  -0.00006875  0.25004678  0.06571747
  -0.00004566  0.74994851  0.06564749
   0.49981773  0.25012954  0.06568024
   0.50039038  0.75032020  0.06577158
   0.25017825 -0.00004482  0.06564897
   0.24989354  0.49957769  0.06568086
   0.74990786 -0.00008458  0.06570311
   0.74991280  0.50010632  0.06566068
   0.00051596 -0.00051459  0.13131967
   0.00030436  0.50035280  0.13131662
   0.49981311  0.00004343  0.13132951
   0.50014216  0.49969934  0.13124084
   0.25026523  0.25009702  0.13129687
   0.24958698  0.75016837  0.13112249
   0.74942318  0.25028981  0.13130299
   0.74991888  0.74986329  0.13127243
   0.00012614  0.25009253  0.19676104
   0.00006680  0.74986250  0.19711554
   0.49980009  0.25021186  0.19716222
   0.49957666  0.74984910  0.19677322
   0.25045356 -0.00051436  0.19688963
   0.25057907  0.50045914  0.19671689
   0.74970738 -0.00034314  0.19683676
   0.74970448  0.50036970  0.19696780
   0.00030012  0.00019697  0.26151963
   0.00074202  0.49969385  0.26143504
   0.50016210 -0.00070807  0.26161789
   0.50000025  0.50013871  0.26191819
   0.24959306  0.25040321  0.26121111
   0.24999769  0.75008381  0.26186984
   0.75010253  0.24995753  0.26149897
   0.74907375  0.75022121  0.26142092
  -0.00045908  0.24979246  0.32621380
  -0.00253054  0.75004913  0.32565220
   0.49995923  0.24853931  0.32591338
   0.50020522  0.75019573  0.32625924
   0.25014459  0.00199572  0.32574598
   0.24980636  0.49904364  0.32590788
   0.75075333  0.00038753  0.32604241
   0.75170789  0.49988381  0.32573493
   0.00069283  0.00002761  0.39129869
   0.00104902  0.50060439  0.39106191
   0.49963941 -0.00108585  0.39133943
   0.50107084  0.49820068  0.39015292
   0.25056991  0.25002107  0.39079279
   0.24720238  0.75117978  0.38939224
   0.75012004  0.24978178  0.39099384
   0.74807803  0.74946654  0.39102124
  -0.00085953  0.24881769  0.45447685
  -0.00467517  0.75088016  0.45370822
   0.50005883  0.24939233  0.45443698
   0.50504325  0.74963603  0.45478376
   0.25010377  0.00335147  0.45431071
   0.24484622  0.49029653  0.45355154
   0.75010285  0.00128665  0.45447284
   0.75348770  0.49770374  0.45396239
   0.38836495  0.62614939  0.50213305
   0.36558666  0.73719023  0.50671059
Direct configuration=     9
   0.00036596 -0.00031538  0.00336496
   0.00022435  0.50041369  0.00335853
   0.49953790  0.00001596  0.00329486
   0.49973185  0.50005452  0.00328711
   0.25047750  0.24996764  0.00324454
   0.25000138  0.74994098  0.00323940
   0.74966550  0.25014237  0.00331755
   0.74996861  0.74977303  0.00330755
  -0.00011083  0.24998091  0.06605165
  -0.00007183  0.74993899  0.06597237
   0.49982689  0.25009038  0.06600836
   0.50034078  0.75025318  0.06609554
   0.25017406  0.00000527  0.06597382
   0.24994715  0.49963665  0.06599996
   0.74994464 -0.00001650  0.06603181
   0.74991967  0.50011196  0.06598862
   0.00047568 -0.00048565  0.13136690
   0.00024762  0.50037823  0.13136565
   0.49980050  0.00011987  0.13137434
   0.50013163  0.49972113  0.13126697
   0.25028066  0.25003490  0.13134401
   0.24959343  0.75012751  0.13112721
   0.74944531  0.25025878  0.13135405
   0.74997699  0.74984340  0.13132156
   0.00007688  0.25005642  0.19662709
   0.00006255  0.74986200  0.19705592
   0.49982595  0.25020852  0.19711365
   0.49949262  0.74974829  0.19667817
   0.25046743 -0.00055795  0.19680251
   0.25067548  0.50059016  0.19662014
   0.74972220 -0.00032045  0.19673182
   0.74967476  0.50040040  0.19689148
   0.00029943  0.00026970  0.26128279
   0.00081884  0.49963646  0.26119233
   0.50020150 -0.00076631  0.26142131
   0.49998131  0.50018165  0.26175451
   0.24955524  0.25043560  0.26096585
   0.25002355  0.75005964  0.26171793
   0.75013400  0.24991225  0.26127636
   0.74893090  0.75024964  0.26119154
  -0.00041657  0.24978714  0.32615132
  -0.00298566  0.75011345  0.32545421
   0.50008562  0.24824842  0.32574698
   0.50036553  0.75030185  0.32613283
   0.25005966  0.00239683  0.32556201
   0.24964806  0.49878877  0.32571392
   0.75075240  0.00039616  0.32597103
   0.75192665  0.49978480  0.32558752
   0.00056451  0.00026420  0.39101160
   0.00085584  0.50058979  0.39063386
   0.49954441 -0.00130677  0.39112289
   0.50078960  0.49850043  0.39001538
   0.25062982  0.24948855  0.39033957
   0.24759659  0.75090138  0.38931966
   0.75027132  0.24950582  0.39067998
   0.74781004  0.74946340  0.39065464
  -0.00138460  0.24812874  0.45435952
  -0.00456371  0.75104323  0.45349042
   0.50036025  0.24952392  0.45428567
   0.50355441  0.74894509  0.45510601
   0.25006782  0.00318698  0.45412681
   0.24500411  0.49014742  0.45332464
   0.75013765  0.00176414  0.45433309
   0.75346797  0.49722809  0.45377739
   0.39088840  0.62966472  0.50230021
   0.36513185  0.73594046  0.50727011
Direct configuration=    10
   0.00035194 -0.00028903  0.00365480
   0.00023348  0.50038252  0.00364136
   0.49956447 -0.00000017  0.00357608
   0.49970606  0.50010654  0.00357331
   0.25043816  0.24996723  0.00352180
   0.25004212  0.74990772  0.00352724
   0.74967178  0.25012401  0.00360670
   0.74994417  0.74979431  0.00358827
  -0.00012620  0.24994367  0.06639860
  -0.00009085  0.74993724  0.06630953
   0.49984338  0.25005724  0.06634688
   0.50030312  0.75020473  0.06643065
   0.25015822  0.00004724  0.06631143
   0.24997597  0.49968192  0.06633353
   0.74996022  0.00002348  0.06637357
   0.74992586  0.50010635  0.06632916
   0.00042294 -0.00045950  0.13147476
   0.00019235  0.50037894  0.13147532
   0.49980809  0.00016702  0.13148014
   0.50012627  0.49973512  0.13136148
   0.25028190  0.24999522  0.13145460
   0.24960546  0.75009853  0.13120842
   0.74947427  0.25023621  0.13146732
   0.75001976  0.74984670  0.13143426
   0.00003141  0.25003224  0.19648590
   0.00007797  0.74987539  0.19696264
   0.49986245  0.25020712  0.19702838
   0.49943915  0.74967975  0.19657127
   0.25045948 -0.00059321  0.19669706
   0.25072216  0.50067753  0.19651537
   0.74973414 -0.00029169  0.19661365
   0.74964572  0.50039993  0.19679190
   0.00025134  0.00034216  0.26106524
   0.00081971  0.49958112  0.26096820
   0.50023319 -0.00079064  0.26122898
   0.49998421  0.50019707  0.26158702
   0.24953394  0.25044358  0.26074874
   0.25002952  0.75005803  0.26156839
   0.75019433  0.24986517  0.26107520
   0.74885181  0.75026741  0.26098223
  -0.00039051  0.24977146  0.32604836
  -0.00308908  0.75021549  0.32531506
   0.50025628  0.24815542  0.32561086
   0.50039427  0.75034703  0.32600137
   0.24995331  0.00243278  0.32541518
   0.24957738  0.49870916  0.32554762
   0.75069230  0.00038738  0.32588720
   0.75189087  0.49965442  0.32546927
   0.00045568  0.00030664  0.39074251
   0.00067704  0.50053365  0.39029769
   0.49949389 -0.00159960  0.39097419
   0.50050989  0.49882586  0.38995245
   0.25067132  0.24909869  0.39000231
   0.24800989  0.75060482  0.38933400
   0.75029016  0.24934222  0.39040137
   0.74746981  0.74948593  0.39044395
  -0.00167765  0.24766735  0.45418849
  -0.00429100  0.75108921  0.45325064
   0.50057493  0.24961303  0.45407422
   0.50245828  0.74869958  0.45517344
   0.24993804  0.00304328  0.45388478
   0.24506404  0.49012012  0.45300986
   0.75000661  0.00189221  0.45415206
   0.75326510  0.49702412  0.45357117
   0.39356000  0.62975022  0.50250554
   0.36453566  0.73764015  0.50782900
Direct configuration=    11
   0.00033470 -0.00025662  0.00401128
   0.00024470  0.50034419  0.00398923
   0.49959715 -0.00002001  0.00392194
   0.49967433  0.50017051  0.00392531
   0.25038977  0.24996673  0.00386281
   0.25009221  0.74986682  0.00388127
   0.74967951  0.25010143  0.00396233
   0.74991412  0.74982049  0.00393352
  -0.00014509  0.24989787  0.06682532
  -0.00011424  0.74993509  0.06672421
   0.49986367  0.25001648  0.06676324
   0.50025680  0.75014514  0.06684281
   0.25013875  0.00009887  0.06672666
   0.25001140  0.49973760  0.06674377
   0.74997940  0.00007264  0.06679392
   0.74993348  0.50009946  0.06674800
   0.00035807 -0.00042732  0.13160741
   0.00012437  0.50037982  0.13161021
   0.49981743  0.00022501  0.13161027
   0.50011968  0.49975232  0.13147770
   0.25028342  0.24994641  0.13159061
   0.24962026  0.75006288  0.13130829
   0.74950989  0.25020845  0.13160662
   0.75007237  0.74985075  0.13157287
  -0.00002450  0.25000250  0.19631225
   0.00009694  0.74989186  0.19684792
   0.49990734  0.25020540  0.19692351
   0.49937339  0.74959544  0.19643979
   0.25044970 -0.00063658  0.19656737
   0.25077956  0.50078498  0.19638652
   0.74974881 -0.00025631  0.19646832
   0.74960999  0.50039936  0.19666943
   0.00019220  0.00043129  0.26079768
   0.00082078  0.49951307  0.26069253
   0.50027217 -0.00082055  0.26099243
   0.49998778  0.50021603  0.26138102
   0.24950774  0.25045339  0.26048172
   0.25003687  0.75005604  0.26138447
   0.75026854  0.24980726  0.26082780
   0.74875453  0.75028928  0.26072479
  -0.00035847  0.24975218  0.32592174
  -0.00321626  0.75034098  0.32514392
   0.50046618  0.24804104  0.32544344
   0.50042961  0.75040259  0.32583970
   0.24982251  0.00247701  0.32523459
   0.24949046  0.49861125  0.32534308
   0.75061838  0.00037658  0.32578408
   0.75184686  0.49949407  0.32532383
   0.00032183  0.00035883  0.39041155
   0.00045714  0.50046460  0.38988424
   0.49943176 -0.00195976  0.39079129
   0.50016589  0.49922610  0.38987506
   0.25072237  0.24861920  0.38958752
   0.24851822  0.75024007  0.38935164
   0.75031333  0.24914100  0.39005870
   0.74705135  0.74951363  0.39018482
  -0.00203809  0.24709989  0.45397813
  -0.00395558  0.75114576  0.45295574
   0.50083896  0.24972264  0.45381415
   0.50111014  0.74839763  0.45525638
   0.24977844  0.00286654  0.45358711
   0.24513775  0.49008655  0.45262270
   0.74984545  0.00204972  0.45392940
   0.75301559  0.49677325  0.45331755
   0.39684580  0.62985538  0.50275808
   0.36380240  0.73973059  0.50851638
Direct configuration=    12
   0.00030021 -0.00019180  0.00472423
   0.00026715  0.50026752  0.00468495
   0.49966252 -0.00005969  0.00461367
   0.49961088  0.50029845  0.00462932
   0.25029299  0.24996573  0.00454482
   0.25019241  0.74978501  0.00458932
   0.74969496  0.25005627  0.00467359
   0.74985401  0.74987284  0.00462403
  -0.00018289  0.24980627  0.06767876
  -0.00016102  0.74993079  0.06755356
   0.49990425  0.24993496  0.06759594
   0.50016416  0.75002596  0.06766712
   0.25009980  0.00020212  0.06755712
   0.25008228  0.49984894  0.06756427
   0.75001774  0.00017097  0.06763460
   0.74994870  0.50008568  0.06758567
   0.00022834 -0.00036298  0.13187271
  -0.00001159  0.50038158  0.13187999
   0.49983611  0.00034099  0.13187052
   0.50010651  0.49978673  0.13171016
   0.25028647  0.24984880  0.13186263
   0.24964986  0.74999158  0.13150804
   0.74958113  0.25015292  0.13188523
   0.75017758  0.74985887  0.13185010
  -0.00013633  0.24994302  0.19596495
   0.00013489  0.74992479  0.19661847
   0.49999712  0.25020196  0.19671376
   0.49924187  0.74942683  0.19617684
   0.25043014 -0.00072332  0.19630799
   0.25089438  0.50099989  0.19612882
   0.74977816 -0.00018555  0.19617767
   0.74953855  0.50039823  0.19642450
   0.00007391  0.00060955  0.26026256
   0.00082291  0.49937695  0.26014119
   0.50035012 -0.00088037  0.26051934
   0.49999491  0.50025396  0.26096904
   0.24945534  0.25047302  0.25994768
   0.25005155  0.75005207  0.26101663
   0.75041694  0.24969145  0.26033299
   0.74855997  0.75033301  0.26020992
  -0.00029438  0.24971363  0.32566849
  -0.00347064  0.75059198  0.32480165
   0.50088597  0.24781227  0.32510861
   0.50050030  0.75051372  0.32551635
   0.24956091  0.00256546  0.32487341
   0.24931661  0.49841542  0.32493400
   0.75047055  0.00035498  0.32557786
   0.75175884  0.49917337  0.32503295
   0.00005413  0.00046321  0.38974962