  34  34   0   0
  0.1991679E+02  0.5133596E-09  0.5133596E-09  0.2967047E-08  0.5000000E-15
  1.000000000000000E-004
  CAR 
 unknown system                          
     14.83824295     -9.11695436  301      2.17654459      1.00000000
     -9.117  0.0000E+00  0.0000E+00  0.0000E+00  0.0000E+00
     -9.037  0.0000E+00  0.0000E+00  0.0000E+00  0.0000E+00
     -8.957  0.0000E+00  0.0000E+00  0.0000E+00  0.0000E+00
     -8.877  0.0000E+00  0.0000E+00  0.0000E+00  0.0000E+00
     -8.798  0.0000E+00  0.0000E+00  0.0000E+00  0.0000E+00
     -8.718 -0.5933E-30 -0.5933E-30 -0.4738E-31 -0.4738E-31
     -8.638 -0.2861E-27 -0.2861E-27 -0.2289E-28 -0.2289E-28
     -8.558 -0.1002E-24 -0.1002E-24 -0.8020E-26 -0.8020E-26
     -8.478 -0.2540E-22 -0.2540E-22 -0.2036E-23 -0.2036E-23
     -8.398 -0.4666E-20 -0.4666E-20 -0.3746E-21 -0.3746E-21
     -8.318 -0.6204E-18 -0.6204E-18 -0.4991E-19 -0.4991E-19
     -8.239 -0.5772E-16 -0.5772E-16 -0.4659E-17 -0.4659E-17
     -8.159 -0.3994E-14 -0.3994E-14 -0.3236E-15 -0.3236E-15
     -8.079 -0.1989E-12 -0.1989E-12 -0.1621E-13 -0.1621E-13
     -7.999 -0.7125E-11 -0.7125E-11 -0.5851E-12 -0.5851E-12
     -7.919 -0.1829E-09 -0.1829E-09 -0.1519E-10 -0.1519E-10
     -7.839 -0.3352E-08 -0.3352E-08 -0.2828E-09 -0.2828E-09
     -7.759 -0.4354E-07 -0.4354E-07 -0.3760E-08 -0.3760E-08
     -7.680 -0.3966E-06 -0.3966E-06 -0.3543E-07 -0.3543E-07
     -7.600 -0.2486E-05 -0.2486E-05 -0.2340E-06 -0.2340E-06
     -7.520 -0.1032E-04 -0.1032E-04 -0.1058E-05 -0.1058E-05
     -7.440 -0.2562E-04 -0.2562E-04 -0.3103E-05 -0.3103E-05
     -7.360 -0.2284E-04 -0.2284E-04 -0.4927E-05 -0.4927E-05
     -7.280  0.7112E-04  0.7112E-04  0.7515E-06  0.7515E-06
     -7.201  0.2975E-03  0.2975E-03  0.2451E-04  0.2451E-04
     -7.121  0.5214E-03  0.5214E-03  0.6614E-04  0.6614E-04
     -7.041  0.5190E-03  0.5190E-03  0.1076E-03  0.1076E-03
     -6.961  0.3039E-03  0.3039E-03  0.1319E-03  0.1319E-03
     -6.881  0.1656E-03  0.1656E-03  0.1451E-03  0.1451E-03
     -6.801  0.2887E-03  0.2887E-03  0.1681E-03  0.1681E-03
     -6.721  0.4933E-03  0.4933E-03  0.2075E-03  0.2075E-03
     -6.642  0.4580E-03  0.4580E-03  0.2441E-03  0.2441E-03
     -6.562  0.1464E-03  0.1464E-03  0.2558E-03  0.2558E-03
     -6.482 -0.4391E-04 -0.4391E-04  0.2523E-03  0.2523E-03
     -6.402  0.4865E-03  0.4865E-03  0.2911E-03  0.2911E-03
     -6.322  0.1899E-02  0.1899E-02  0.4427E-03  0.4427E-03
     -6.242  0.3263E-02  0.3263E-02  0.7033E-03  0.7033E-03
     -6.162  0.3322E-02  0.3322E-02  0.9686E-03  0.9686E-03
     -6.083  0.2294E-02  0.2294E-02  0.1152E-02  0.1152E-02
     -6.003  0.1775E-02  0.1775E-02  0.1293E-02  0.1293E-02
     -5.923  0.2516E-02  0.2516E-02  0.1494E-02  0.1494E-02
     -5.843  0.3334E-02  0.3334E-02  0.1761E-02  0.1761E-02
     -5.763  0.2831E-02  0.2831E-02  0.1987E-02  0.1987E-02
     -5.683  0.1314E-02  0.1314E-02  0.2092E-02  0.2092E-02
     -5.604  0.5088E-04  0.5088E-04  0.2096E-02  0.2096E-02
     -5.524 -0.3780E-03 -0.3780E-03  0.2065E-02  0.2065E-02
     -5.444  0.7374E-04  0.7374E-04  0.2071E-02  0.2071E-02
     -5.364  0.1507E-02  0.1507E-02  0.2192E-02  0.2192E-02
     -5.284  0.3328E-02  0.3328E-02  0.2457E-02  0.2457E-02
     -5.204  0.3991E-02  0.3991E-02  0.2776E-02  0.2776E-02
     -5.124  0.2808E-02  0.2808E-02  0.3000E-02  0.3000E-02
     -5.045  0.9581E-03  0.9581E-03  0.3077E-02  0.3077E-02
     -4.965 -0.1872E-03 -0.1872E-03  0.3062E-02  0.3062E-02
     -4.885 -0.3504E-03 -0.3504E-03  0.3034E-02  0.3034E-02
     -4.805  0.3541E-03  0.3541E-03  0.3062E-02  0.3062E-02
     -4.725  0.1801E-02  0.1801E-02  0.3206E-02  0.3206E-02
     -4.645  0.3365E-02  0.3365E-02  0.3475E-02  0.3475E-02
     -4.565  0.4436E-02  0.4436E-02  0.3829E-02  0.3829E-02
     -4.486  0.5270E-02  0.5270E-02  0.4250E-02  0.4250E-02
     -4.406  0.6021E-02  0.6021E-02  0.4730E-02  0.4730E-02
     -4.326  0.5814E-02  0.5814E-02  0.5195E-02  0.5195E-02
     -4.246  0.4180E-02  0.4180E-02  0.5528E-02  0.5528E-02
     -4.166  0.2419E-02  0.2419E-02  0.5722E-02  0.5722E-02
     -4.086  0.2116E-02  0.2116E-02  0.5891E-02  0.5891E-02
     -4.007  0.3161E-02  0.3161E-02  0.6143E-02  0.6143E-02
     -3.927  0.4698E-02  0.4698E-02  0.6518E-02  0.6518E-02
     -3.847  0.6596E-02  0.6596E-02  0.7045E-02  0.7045E-02
     -3.767  0.8406E-02  0.8406E-02  0.7716E-02  0.7716E-02
     -3.687  0.8907E-02  0.8907E-02  0.8427E-02  0.8427E-02
     -3.607  0.8043E-02  0.8043E-02  0.9070E-02  0.9070E-02
     -3.527  0.7283E-02  0.7283E-02  0.9651E-02  0.9651E-02
     -3.448  0.7276E-02  0.7276E-02  0.1023E-01  0.1023E-01
     -3.368  0.7058E-02  0.7058E-02  0.1080E-01  0.1080E-01
     -3.288  0.5975E-02  0.5975E-02  0.1127E-01  0.1127E-01
     -3.208  0.4556E-02  0.4556E-02  0.1164E-01  0.1164E-01
     -3.128  0.3610E-02  0.3610E-02  0.1192E-01  0.1192E-01
     -3.048  0.3889E-02  0.3889E-02  0.1224E-01  0.1224E-01
     -2.968  0.5585E-02  0.5585E-02  0.1268E-01  0.1268E-01
     -2.889  0.7762E-02  0.7762E-02  0.1330E-01  0.1330E-01
     -2.809  0.1003E-01  0.1003E-01  0.1410E-01  0.1410E-01
     -2.729  0.1371E-01  0.1371E-01  0.1520E-01  0.1520E-01
     -2.649  0.1954E-01  0.1954E-01  0.1676E-01  0.1676E-01
     -2.569  0.2611E-01  0.2611E-01  0.1884E-01  0.1884E-01
     -2.489  0.3118E-01  0.3118E-01  0.2133E-01  0.2133E-01
     -2.409  0.3268E-01  0.3268E-01  0.2394E-01  0.2394E-01
     -2.330  0.2966E-01  0.2966E-01  0.2631E-01  0.2631E-01
     -2.250  0.2464E-01  0.2464E-01  0.2828E-01  0.2828E-01
     -2.170  0.2248E-01  0.2248E-01  0.3007E-01  0.3007E-01
     -2.090  0.2573E-01  0.2573E-01  0.3213E-01  0.3213E-01
     -2.010  0.3309E-01  0.3309E-01  0.3477E-01  0.3477E-01
     -1.930  0.4128E-01  0.4128E-01  0.3806E-01  0.3806E-01
     -1.851  0.4676E-01  0.4676E-01  0.4180E-01  0.4180E-01
     -1.771  0.4784E-01  0.4784E-01  0.4562E-01  0.4562E-01
     -1.691  0.4527E-01  0.4527E-01  0.4923E-01  0.4923E-01
     -1.611  0.4073E-01  0.4073E-01  0.5249E-01  0.5249E-01
     -1.531  0.3667E-01  0.3667E-01  0.5541E-01  0.5541E-01
     -1.451  0.3528E-01  0.3528E-01  0.5823E-01  0.5823E-01
     -1.371  0.3702E-01  0.3702E-01  0.6119E-01  0.6119E-01
     -1.292  0.4230E-01  0.4230E-01  0.6456E-01  0.6456E-01
     -1.212  0.5088E-01  0.5088E-01  0.6863E-01  0.6863E-01
     -1.132  0.5875E-01  0.5875E-01  0.7332E-01  0.7332E-01
     -1.052  0.6154E-01  0.6154E-01  0.7823E-01  0.7823E-01
     -0.972  0.6201E-01  0.6201E-01  0.8318E-01  0.8318E-01
     -0.892  0.6682E-01  0.6682E-01  0.8852E-01  0.8852E-01
     -0.812  0.7518E-01  0.7518E-01  0.9452E-01  0.9452E-01
     -0.733  0.7983E-01  0.7983E-01  0.1009E+00  0.1009E+00
     -0.653  0.7828E-01  0.7828E-01  0.1071E+00  0.1071E+00
     -0.573  0.7429E-01  0.7429E-01  0.1131E+00  0.1131E+00
     -0.493  0.7113E-01  0.7113E-01  0.1188E+00  0.1188E+00
     -0.413  0.6927E-01  0.6927E-01  0.1243E+00  0.1243E+00
     -0.333  0.6848E-01  0.6848E-01  0.1298E+00  0.1298E+00
     -0.254  0.6779E-01  0.6779E-01  0.1352E+00  0.1352E+00
     -0.174  0.6545E-01  0.6545E-01  0.1404E+00  0.1404E+00
     -0.094  0.6246E-01  0.6246E-01  0.1454E+00  0.1454E+00
     -0.014  0.6119E-01  0.6119E-01  0.1503E+00  0.1503E+00
      0.066  0.6193E-01  0.6193E-01  0.1552E+00  0.1552E+00
      0.146  0.6655E-01  0.6655E-01  0.1605E+00  0.1605E+00
      0.226  0.7715E-01  0.7715E-01  0.1667E+00  0.1667E+00
      0.305  0.8836E-01  0.8836E-01  0.1737E+00  0.1737E+00
      0.385  0.9279E-01  0.9279E-01  0.1812E+00  0.1812E+00
      0.465  0.9223E-01  0.9223E-01  0.1885E+00  0.1885E+00
      0.545  0.9206E-01  0.9206E-01  0.1959E+00  0.1959E+00
      0.625  0.8836E-01  0.8836E-01  0.2029E+00  0.2029E+00
      0.705  0.7185E-01  0.7185E-01  0.2087E+00  0.2087E+00
      0.785  0.4339E-01  0.4339E-01  0.2121E+00  0.2121E+00
      0.864  0.1609E-01  0.1609E-01  0.2134E+00  0.2134E+00
      0.944  0.1136E-02  0.1136E-02  0.2135E+00  0.2135E+00
      1.024 -0.1652E-02 -0.1652E-02  0.2134E+00  0.2134E+00
      1.104  0.7915E-03  0.7915E-03  0.2134E+00  0.2134E+00
      1.184  0.3044E-02  0.3044E-02  0.2137E+00  0.2137E+00
      1.264  0.4025E-02  0.4025E-02  0.2140E+00  0.2140E+00
      1.343  0.4877E-02  0.4877E-02  0.2144E+00  0.2144E+00
      1.423  0.5990E-02  0.5990E-02  0.2149E+00  0.2149E+00
      1.503  0.6286E-02  0.6286E-02  0.2154E+00  0.2154E+00
      1.583  0.4823E-02  0.4823E-02  0.2158E+00  0.2158E+00
      1.663  0.2715E-02  0.2715E-02  0.2160E+00  0.2160E+00
      1.743  0.2710E-02  0.2710E-02  0.2162E+00  0.2162E+00
      1.823  0.6220E-02  0.6220E-02  0.2167E+00  0.2167E+00
      1.902  0.1135E-01  0.1135E-01  0.2176E+00  0.2176E+00
      1.982  0.1452E-01  0.1452E-01  0.2187E+00  0.2187E+00
      2.062  0.1414E-01  0.1414E-01  0.2199E+00  0.2199E+00
      2.142  0.1224E-01  0.1224E-01  0.2209E+00  0.2209E+00
      2.222  0.1127E-01  0.1127E-01  0.2218E+00  0.2218E+00
      2.302  0.1016E-01  0.1016E-01  0.2226E+00  0.2226E+00
      2.382  0.6919E-02  0.6919E-02  0.2231E+00  0.2231E+00
      2.461  0.3266E-02  0.3266E-02  0.2234E+00  0.2234E+00
      2.541  0.2476E-02  0.2476E-02  0.2236E+00  0.2236E+00
      2.621  0.4729E-02  0.4729E-02  0.2240E+00  0.2240E+00
      2.701  0.7553E-02  0.7553E-02  0.2246E+00  0.2246E+00
      2.781  0.8719E-02  0.8719E-02  0.2253E+00  0.2253E+00
      2.861  0.7573E-02  0.7573E-02  0.2259E+00  0.2259E+00
      2.940  0.5527E-02  0.5527E-02  0.2263E+00  0.2263E+00
      3.020  0.4628E-02  0.4628E-02  0.2267E+00  0.2267E+00
      3.100  0.4650E-02  0.4650E-02  0.2270E+00  0.2270E+00
      3.180  0.3980E-02  0.3980E-02  0.2274E+00  0.2274E+00
      3.260  0.2899E-02  0.2899E-02  0.2276E+00  0.2276E+00
      3.340  0.3093E-02  0.3093E-02  0.2278E+00  0.2278E+00
      3.420  0.5189E-02  0.5189E-02  0.2283E+00  0.2283E+00
      3.499  0.8455E-02  0.8455E-02  0.2289E+00  0.2289E+00
      3.579  0.1152E-01  0.1152E-01  0.2298E+00  0.2298E+00
      3.659  0.1267E-01  0.1267E-01  0.2309E+00  0.2309E+00
      3.739  0.1096E-01  0.1096E-01  0.2317E+00  0.2317E+00
      3.819  0.7430E-02  0.7430E-02  0.2323E+00  0.2323E+00
      3.899  0.4548E-02  0.4548E-02  0.2327E+00  0.2327E+00
      3.979  0.3428E-02  0.3428E-02  0.2330E+00  0.2330E+00
      4.058  0.2854E-02  0.2854E-02  0.2332E+00  0.2332E+00
      4.138  0.1674E-02  0.1674E-02  0.2333E+00  0.2333E+00
      4.218  0.3439E-03  0.3439E-03  0.2334E+00  0.2334E+00
      4.298 -0.4251E-03 -0.4251E-03  0.2333E+00  0.2333E+00
      4.378 -0.4914E-03 -0.4914E-03  0.2333E+00  0.2333E+00
      4.458  0.5498E-03  0.5498E-03  0.2333E+00  0.2333E+00
      4.538  0.3147E-02  0.3147E-02  0.2336E+00  0.2336E+00
      4.617  0.6114E-02  0.6114E-02  0.2341E+00  0.2341E+00
      4.697  0.7165E-02  0.7165E-02  0.2346E+00  0.2346E+00
      4.777  0.5989E-02  0.5989E-02  0.2351E+00  0.2351E+00
      4.857  0.4305E-02  0.4305E-02  0.2355E+00  0.2355E+00
      4.937  0.2929E-02  0.2929E-02  0.2357E+00  0.2357E+00
      5.017  0.1527E-02  0.1527E-02  0.2358E+00  0.2358E+00
      5.096  0.2245E-03  0.2245E-03  0.2358E+00  0.2358E+00
      5.176 -0.4002E-03 -0.4002E-03  0.2358E+00  0.2358E+00
      5.256  0.1667E-03  0.1667E-03  0.2358E+00  0.2358E+00
      5.336  0.2245E-02  0.2245E-02  0.2360E+00  0.2360E+00
      5.416  0.5204E-02  0.5204E-02  0.2364E+00  0.2364E+00
      5.496  0.7402E-02  0.7402E-02  0.2370E+00  0.2370E+00
      5.576  0.8165E-02  0.8165E-02  0.2377E+00  0.2377E+00
      5.655  0.8642E-02  0.8642E-02  0.2383E+00  0.2383E+00
      5.735  0.9370E-02  0.9370E-02  0.2391E+00  0.2391E+00
      5.815  0.9109E-02  0.9109E-02  0.2398E+00  0.2398E+00
      5.895  0.7310E-02  0.7310E-02  0.2404E+00  0.2404E+00
      5.975  0.5097E-02  0.5097E-02  0.2408E+00  0.2408E+00
      6.055  0.3376E-02  0.3376E-02  0.2411E+00  0.2411E+00
      6.135  0.2255E-02  0.2255E-02  0.2413E+00  0.2413E+00
      6.214  0.2308E-02  0.2308E-02  0.2414E+00  0.2414E+00
      6.294  0.4582E-02  0.4582E-02  0.2418E+00  0.2418E+00
      6.374  0.8246E-02  0.8246E-02  0.2425E+00  0.2425E+00
      6.454  0.1016E-01  0.1016E-01  0.2433E+00  0.2433E+00
      6.534  0.8909E-02  0.8909E-02  0.2440E+00  0.2440E+00
      6.614  0.6454E-02  0.6454E-02  0.2445E+00  0.2445E+00
      6.693  0.4654E-02  0.4654E-02  0.2449E+00  0.2449E+00
      6.773  0.3871E-02  0.3871E-02  0.2452E+00  0.2452E+00
      6.853  0.4514E-02  0.4514E-02  0.2455E+00  0.2455E+00
      6.933  0.6210E-02  0.6210E-02  0.2460E+00  0.2460E+00
      7.013  0.7405E-02  0.7405E-02  0.2466E+00  0.2466E+00
      7.093  0.7925E-02  0.7925E-02  0.2473E+00  0.2473E+00
      7.173  0.8883E-02  0.8883E-02  0.2480E+00  0.2480E+00
      7.252  0.1009E-01  0.1009E-01  0.2488E+00  0.2488E+00
      7.332  0.1070E-01  0.1070E-01  0.2496E+00  0.2496E+00
      7.412  0.1045E-01  0.1045E-01  0.2505E+00  0.2505E+00
      7.492  0.8862E-02  0.8862E-02  0.2512E+00  0.2512E+00
      7.572  0.6053E-02  0.6053E-02  0.2517E+00  0.2517E+00
      7.652  0.3797E-02  0.3797E-02  0.2520E+00  0.2520E+00
      7.732  0.3661E-02  0.3661E-02  0.2523E+00  0.2523E+00
      7.811  0.5643E-02  0.5643E-02  0.2527E+00  0.2527E+00
      7.891  0.8660E-02  0.8660E-02  0.2534E+00  0.2534E+00
      7.971  0.1081E-01  0.1081E-01  0.2543E+00  0.2543E+00
      8.051  0.1036E-01  0.1036E-01  0.2551E+00  0.2551E+00
      8.131  0.7672E-02  0.7672E-02  0.2557E+00  0.2557E+00
      8.211  0.5144E-02  0.5144E-02  0.2561E+00  0.2561E+00
      8.290  0.4444E-02  0.4444E-02  0.2565E+00  0.2565E+00
      8.370  0.5465E-02  0.5465E-02  0.2569E+00  0.2569E+00
      8.450  0.7818E-02  0.7818E-02  0.2575E+00  0.2575E+00
      8.530  0.1087E-01  0.1087E-01  0.2584E+00  0.2584E+00
      8.610  0.1261E-01  0.1261E-01  0.2594E+00  0.2594E+00
      8.690  0.1100E-01  0.1100E-01  0.2603E+00  0.2603E+00
      8.770  0.6864E-02  0.6864E-02  0.2608E+00  0.2608E+00
      8.849  0.3731E-02  0.3731E-02  0.2611E+00  0.2611E+00
      8.929  0.3990E-02  0.3990E-02  0.2614E+00  0.2614E+00
      9.009  0.6053E-02  0.6053E-02  0.2619E+00  0.2619E+00
      9.089  0.6691E-02  0.6691E-02  0.2625E+00  0.2625E+00
      9.169  0.5592E-02  0.5592E-02  0.2629E+00  0.2629E+00
      9.249  0.5476E-02  0.5476E-02  0.2633E+00  0.2633E+00
      9.329  0.7750E-02  0.7750E-02  0.2640E+00  0.2640E+00
      9.408  0.1051E-01  0.1051E-01  0.2648E+00  0.2648E+00
      9.488  0.1107E-01  0.1107E-01  0.2657E+00  0.2657E+00
      9.568  0.8866E-02  0.8866E-02  0.2664E+00  0.2664E+00
      9.648  0.5924E-02  0.5924E-02  0.2669E+00  0.2669E+00
      9.728  0.4720E-02  0.4720E-02  0.2672E+00  0.2672E+00
      9.808  0.5548E-02  0.5548E-02  0.2677E+00  0.2677E+00
      9.888  0.7033E-02  0.7033E-02  0.2683E+00  0.2683E+00
      9.967  0.8694E-02  0.8694E-02  0.2689E+00  0.2689E+00
     10.047  0.1060E-01  0.1060E-01  0.2698E+00  0.2698E+00
     10.127  0.1145E-01  0.1145E-01  0.2707E+00  0.2707E+00
     10.207  0.9984E-02  0.9984E-02  0.2715E+00  0.2715E+00
     10.287  0.7425E-02  0.7425E-02  0.2721E+00  0.2721E+00
     10.367  0.5880E-02  0.5880E-02  0.2726E+00  0.2726E+00
     10.446  0.5916E-02  0.5916E-02  0.2730E+00  0.2730E+00
     10.526  0.7159E-02  0.7159E-02  0.2736E+00  0.2736E+00
     10.606  0.9198E-02  0.9198E-02  0.2743E+00  0.2743E+00
     10.686  0.1091E-01  0.1091E-01  0.2752E+00  0.2752E+00
     10.766  0.1106E-01  0.1106E-01  0.2761E+00  0.2761E+00
     10.846  0.1035E-01  0.1035E-01  0.2769E+00  0.2769E+00
     10.926  0.1045E-01  0.1045E-01  0.2778E+00  0.2778E+00
     11.005  0.1079E-01  0.1079E-01  0.2786E+00  0.2786E+00
     11.085  0.9882E-02  0.9882E-02  0.2794E+00  0.2794E+00
     11.165  0.8848E-02  0.8848E-02  0.2801E+00  0.2801E+00
     11.245  0.1006E-01  0.1006E-01  0.2809E+00  0.2809E+00
     11.325  0.1304E-01  0.1304E-01  0.2820E+00  0.2820E+00
     11.405  0.1454E-01  0.1454E-01  0.2831E+00  0.2831E+00
     11.485  0.1275E-01  0.1275E-01  0.2841E+00  0.2841E+00
     11.564  0.9311E-02  0.9311E-02  0.2849E+00  0.2849E+00
     11.644  0.6894E-02  0.6894E-02  0.2854E+00  0.2854E+00
     11.724  0.6620E-02  0.6620E-02  0.2860E+00  0.2860E+00
     11.804  0.7865E-02  0.7865E-02  0.2866E+00  0.2866E+00
     11.884  0.8797E-02  0.8797E-02  0.2873E+00  0.2873E+00
     11.964  0.7688E-02  0.7688E-02  0.2879E+00  0.2879E+00
     12.043  0.4880E-02  0.4880E-02  0.2883E+00  0.2883E+00
     12.123  0.2335E-02  0.2335E-02  0.2885E+00  0.2885E+00
     12.203  0.1133E-02  0.1133E-02  0.2886E+00  0.2886E+00
     12.283  0.9461E-03  0.9461E-03  0.2886E+00  0.2886E+00
     12.363  0.1232E-02  0.1232E-02  0.2887E+00  0.2887E+00
     12.443  0.1621E-02  0.1621E-02  0.2889E+00  0.2889E+00
     12.523  0.1848E-02  0.1848E-02  0.2890E+00  0.2890E+00
     12.602  0.1926E-02  0.1926E-02  0.2892E+00  0.2892E+00
     12.682  0.2111E-02  0.2111E-02  0.2893E+00  0.2893E+00
     12.762  0.2493E-02  0.2493E-02  0.2895E+00  0.2895E+00
     12.842  0.2656E-02  0.2656E-02  0.2898E+00  0.2898E+00
     12.922  0.2093E-02  0.2093E-02  0.2899E+00  0.2899E+00
     13.002  0.1021E-02  0.1021E-02  0.2900E+00  0.2900E+00
     13.082  0.1767E-03  0.1767E-03  0.2900E+00  0.2900E+00
     13.161 -0.1185E-03 -0.1185E-03  0.2900E+00  0.2900E+00
     13.241 -0.1002E-03 -0.1002E-03  0.2900E+00  0.2900E+00
     13.321 -0.3740E-04 -0.3739E-04  0.2900E+00  0.2900E+00
     13.401 -0.8616E-05 -0.8615E-05  0.2900E+00  0.2900E+00
     13.481 -0.1328E-05 -0.1328E-05  0.2900E+00  0.2900E+00
     13.561 -0.1416E-06 -0.1416E-06  0.2900E+00  0.2900E+00
     13.640 -0.1062E-07 -0.1062E-07  0.2900E+00  0.2900E+00
     13.720 -0.5656E-09 -0.5656E-09  0.2900E+00  0.2900E+00
     13.800 -0.2154E-10 -0.2153E-10  0.2900E+00  0.2900E+00
     13.880 -0.5886E-12 -0.5885E-12  0.2900E+00  0.2900E+00
     13.960 -0.1158E-13 -0.1158E-13  0.2900E+00  0.2900E+00
     14.040 -0.1638E-15 -0.1638E-15  0.2900E+00  0.2900E+00
     14.120 -0.2317E-17 -0.2317E-17  0.2900E+00  0.2900E+00
     14.199  0.0000E+00  0.0000E+00  0.2900E+00  0.2900E+00
     14.279  0.0000E+00  0.0000E+00  0.2900E+00  0.2900E+00
     14.359  0.0000E+00  0.0000E+00  0.2900E+00  0.2900E+00
     14.439  0.0000E+00  0.0000E+00  0.2900E+00  0.2900E+00
     14.519  0.0000E+00  0.0000E+00  0.2900E+00  0.2900E+00
     14.599  0.0000E+00  0.0000E+00  0.2900E+00  0.2900E+00
     14.679  0.0000E+00  0.0000E+00  0.2900E+00  0.2900E+00
     14.758  0.0000E+00  0.0000E+00  0.2900E+00  0.2900E+00
     14.838  0.0000E+00  0.0000E+00  0.2900E+00  0.2900E+00
