   34   34  800    2
  0.1991679E+02  0.5133595E-09  0.5133595E-09  0.2967047E-08  0.5000000E-15
  1.000000000000000E-004
  CAR 
 unknown system                          
    354      4    232
 
  0.0000000E+00  0.0000000E+00  0.0000000E+00  0.1111111E+00
      1         -7.116954       -7.116954   1.000000   1.000000
      2         -6.720883       -6.720883   1.000000   1.000000
      3         -6.084719       -6.084719   1.000000   1.000000
      4         -5.244978       -5.244978   1.000000   1.000000
      5         -4.328225       -4.328225   1.000000   1.000000
      6         -3.661740       -3.661740   1.000000   1.000000
      7         -3.417578       -3.417578   1.000000   1.000000
      8         -3.015797       -3.015797   1.000000   1.000000
      9         -2.890717       -2.890717   1.000000   1.000000
     10         -2.890616       -2.890616   1.000000   1.000000
     11         -2.889313       -2.889313   1.000000   1.000000
     12         -2.884986       -2.884986   1.000000   1.000000
     13         -2.705349       -2.705349   1.000000   1.000000
     14         -2.704995       -2.704995   1.000000   1.000000
     15         -2.704910       -2.704910   1.000000   1.000000
     16         -2.684576       -2.684576   1.000000   1.000000
     17         -2.684440       -2.684440   1.000000   1.000000
     18         -2.683727       -2.683727   1.000000   1.000000
     19         -2.567199       -2.567199   1.000000   1.000000
     20         -2.566774       -2.566774   1.000000   1.000000
     21         -2.565922       -2.565922   1.000000   1.000000
     22         -2.425858       -2.425858   1.000000   1.000000
     23         -2.425356       -2.425356   1.000000   1.000000
     24         -2.424850       -2.424850   1.000000   1.000000
     25         -2.379173       -2.379173   1.000000   1.000000
     26         -2.378695       -2.378695   1.000000   1.000000
     27         -2.378141       -2.378141   1.000000   1.000000
     28         -2.231885       -2.231885   1.000000   1.000000
     29         -2.231830       -2.231830   1.000000   1.000000
     30         -2.231597       -2.231597   1.000000   1.000000
     31         -2.115934       -2.115934   1.000000   1.000000
     32         -2.115904       -2.115904   1.000000   1.000000
     33         -2.115411       -2.115411   1.000000   1.000000
     34         -2.113058       -2.113058   1.000000   1.000000
     35         -2.110899       -2.110899   1.000000   1.000000
     36         -2.110696       -2.110696   1.000000   1.000000
     37         -2.101846       -2.101846   1.000000   1.000000
     38         -2.101186       -2.101186   1.000000   1.000000
     39         -2.100775       -2.100775   1.000000   1.000000
     40         -1.926718       -1.926718   1.000000   1.000000
     41         -1.926603       -1.926603   1.000000   1.000000
     42         -1.926040       -1.926040   1.000000   1.000000
     43         -1.681808       -1.681808   1.000000   1.000000
     44         -1.681596       -1.681596   1.000000   1.000000
     45         -1.681469       -1.681469   1.000000   1.000000
     46         -1.367086       -1.367086   1.000000   1.000000
     47         -1.366359       -1.366359   1.000000   1.000000
     48         -1.365999       -1.365999   1.000000   1.000000
     49         -1.063125       -1.063125   1.000000   1.000000
     50         -1.062177       -1.062177   1.000000   1.000000
     51         -1.062126       -1.062126   1.000000   1.000000
     52         -0.955632       -0.955632   1.000000   1.000000
     53         -0.943604       -0.943604   1.000000   1.000000
     54         -0.924042       -0.924042   1.000000   1.000000
     55         -0.923086       -0.923086   1.000000   1.000000
     56         -0.921996       -0.921996   1.000000   1.000000
     57         -0.869773       -0.869773   1.000000   1.000000
     58         -0.869490       -0.869490   1.000000   1.000000
     59         -0.867857       -0.867857   1.000000   1.000000
     60         -0.866687       -0.866687   1.000000   1.000000
     61         -0.866571       -0.866571   1.000000   1.000000
     62         -0.865125       -0.865125   1.000000   1.000000
     63         -0.865084       -0.865084   1.000000   1.000000
     64         -0.804970       -0.804970   1.000000   1.000000
     65         -0.796450       -0.796450   1.000000   1.000000
     66         -0.796363       -0.796363   1.000000   1.000000
     67         -0.792895       -0.792895   1.000000   1.000000
     68         -0.779190       -0.779190   1.000000   1.000000
     69         -0.777439       -0.777439   1.000000   1.000000
     70         -0.776645       -0.776645   1.000000   1.000000
     71         -0.774251       -0.774251   1.000000   1.000000
     72         -0.774033       -0.774033   1.000000   1.000000
     73         -0.773155       -0.773155   1.000000   1.000000
     74         -0.771618       -0.771618   1.000000   1.000000
     75         -0.771604       -0.771604   1.000000   1.000000
     76         -0.771242       -0.771242   1.000000   1.000000
     77         -0.770625       -0.770625   1.000000   1.000000
     78         -0.770114       -0.770114   1.000000   1.000000
     79         -0.725241       -0.725241   1.000000   1.000000
     80         -0.725216       -0.725216   1.000000   1.000000
     81         -0.717256       -0.717256   1.000000   1.000000
     82         -0.684728       -0.684728   1.000000   1.000000
     83         -0.684479       -0.684479   1.000000   1.000000
     84         -0.673927       -0.673927   1.000000   1.000000
     85         -0.672582       -0.672582   1.000000   1.000000
     86         -0.671712       -0.671712   1.000000   1.000000
     87         -0.597000       -0.597000   1.000000   1.000000
     88         -0.596740       -0.596740   1.000000   1.000000
     89         -0.579748       -0.579748   1.000000   1.000000
     90         -0.579691       -0.579691   1.000000   1.000000
     91         -0.541441       -0.541441   1.000000   1.000000
     92         -0.540093       -0.540093   1.000000   1.000000
     93         -0.539395       -0.539395   1.000000   1.000000
     94         -0.456527       -0.456527   1.000000   1.000000
     95         -0.454614       -0.454614   1.000000   1.000000
     96         -0.452252       -0.452252   1.000000   1.000000
     97         -0.448720       -0.448720   1.000000   1.000000
     98         -0.250628       -0.250628   1.000000   1.000000
     99         -0.248759       -0.248759   1.000000   1.000000
    100         -0.247492       -0.247492   1.000000   1.000000
    101         -0.194182       -0.194182   1.000000   1.000000
    102         -0.193211       -0.193211   1.000000   1.000000
    103         -0.191176       -0.191176   1.000000   1.000000
    104         -0.014642       -0.014642   1.000000   1.000000
    105         -0.014060       -0.014060   1.000000   1.000000
    106         -0.008375       -0.008375   1.000000   1.000000
    107         -0.004948       -0.004948   1.000000   1.000000
    108          0.026877        0.026877   1.000000   1.000000
    109          0.026910        0.026910   1.000000   1.000000
    110          0.029513        0.029513   1.000000   1.000000
    111          0.030206        0.030206   1.000000   1.000000
    112          0.031129        0.031129   1.000000   1.000000
    113          0.037759        0.037759   1.000000   1.000000
    114          0.038939        0.038939   1.000000   1.000000
    115          0.040182        0.040182   1.000000   1.000000
    116          0.088282        0.088282   1.000000   1.000000
    117          0.089273        0.089273   1.000000   1.000000
    118          0.242239        0.242239   1.000000   1.000000
    119          0.243398        0.243398   1.000000   1.000000
    120          0.291896        0.291896   1.000000   1.000000
    121          0.293058        0.293058   1.000000   1.000000
    122          0.293257        0.293257   1.000000   1.000000
    123          0.321993        0.321993   1.000000   1.000000
    124          0.322369        0.322369   1.000000   1.000000
    125          0.324340        0.324340   1.000000   1.000000
    126          0.390624        0.390624   1.000000   1.000000
    127          0.397131        0.397131   1.000000   1.000000
    128          0.397279        0.397279   1.000000   1.000000
    129          0.486880        0.486880   1.000000   1.000000
    130          0.488405        0.488405   1.000000   1.000000
    131          0.488558        0.488558   1.000000   1.000000
    132          0.508244        0.508244   1.000000   1.000000
    133          0.509720        0.509720   1.000000   1.000000
    134          0.510427        0.510427   1.000000   1.000000
    135          0.533425        0.533425   1.000000   1.000000
    136          0.534563        0.534563   1.000000   1.000000
    137          0.557702        0.557702   1.000000   1.000000
    138          0.558524        0.558524   1.000000   1.000000
    139          0.558705        0.558705   1.000000   1.000000
    140          0.559772        0.559772   1.000000   1.000000
    141          0.560520        0.560520   1.000000   1.000000
    142          0.560617        0.560617   1.000000   1.000000
    143          0.585624        0.585624   1.000000   1.000000
    144          0.586561        0.586561   1.000000   1.000000
    145          0.586641        0.586641   1.000000   1.000000
    146          0.591750        0.591750   1.000000   1.000000
    147          0.593134        0.593134   1.000000   1.000000
    148          0.593651        0.593651   1.000000   1.000000
    149          0.613597        0.613597   1.000000   1.000000
    150          0.614144        0.614144   1.000000   1.000000
    151          0.614577        0.614577   1.000000   1.000000
    152          0.614597        0.614597   1.000000   1.000000
    153          0.616352        0.616352   1.000000   1.000000
    154          0.658677        0.658677   1.000000   1.000000
    155          0.659467        0.659467   1.000000   1.000000
    156          0.660960        0.660960   1.000000   1.000000
    157          0.666805        0.666805   1.000000   1.000000
    158          0.668400        0.668400   1.000000   1.000000
    159          0.668937        0.668937   1.000000   1.000000
    160          0.686552        0.686552   1.000000   1.000000
    161          0.687796        0.687796   1.000000   1.000000
    162          0.689098        0.689098   1.000000   1.000000
    163          0.710608        0.710608   1.000000   1.000000
    164          0.711486        0.711486   1.000000   1.000000
    165          0.712265        0.712265   1.000000   1.000000
    166          0.749117        0.749117   1.000000   1.000000
    167          0.750042        0.750042   1.000000   1.000000
    168          0.750555        0.750555   1.000000   1.000000
    169          1.487085        1.487085   1.000006   1.000006
    170          1.487697        1.487697   1.000006   1.000006
    171          1.491044        1.491044   1.000007   1.000007
    172          1.649169        1.649169   1.000615   1.000615
    173          1.988581        1.988581   1.017702   1.017702
    174          2.114040        2.114040   0.750702   0.750702
    175          2.115516        2.115516   0.745386   0.745386
    176          2.117363        2.117363   0.738675   0.738675
    177          2.653622        2.653622  -0.001903  -0.001903
    178          2.656971        2.656971  -0.001773  -0.001773
    179          2.657490        2.657490  -0.001754  -0.001754
    180          3.042390        3.042390  -0.000000  -0.000000
    181          3.045425        3.045425  -0.000000  -0.000000
    182          3.046554        3.046554  -0.000000  -0.000000
    183          3.303031        3.303031  -0.000000  -0.000000
    184          3.306990        3.306990  -0.000000  -0.000000
    185          3.308141        3.308141  -0.000000  -0.000000
    186          3.498184        3.498184  -0.000000  -0.000000
    187          3.500314        3.500314  -0.000000  -0.000000
    188          3.501115        3.501115  -0.000000  -0.000000
    189          3.656532        3.656532  -0.000000  -0.000000
    190          3.661869        3.661869  -0.000000  -0.000000
    191          3.662684        3.662684  -0.000000  -0.000000
    192          3.737903        3.737903  -0.000000  -0.000000
    193          3.748083        3.748083  -0.000000  -0.000000
    194          3.748607        3.748607  -0.000000  -0.000000
    195          6.130909        6.130909  -0.000000  -0.000000
    196          6.131290        6.131290  -0.000000  -0.000000
    197          6.140132        6.140132  -0.000000  -0.000000
    198          6.416228        6.416224  -0.000000  -0.000000
    199          6.550113        6.550113  -0.000000  -0.000000
    200          6.550807        6.550805  -0.000000  -0.000000
    201          6.561588        6.561588  -0.000000  -0.000000
    202          6.659389        6.659388  -0.000000  -0.000000
    203          7.090931        7.090931  -0.000000  -0.000000
    204          7.111245        7.111245  -0.000000  -0.000000
    205          7.136056        7.136055  -0.000000  -0.000000
    206          7.396765        7.396763  -0.000000  -0.000000
    207          7.672627        7.672627   0.000000   0.000000
    208          7.675676        7.675675   0.000000   0.000000
    209          7.700744        7.700744   0.000000   0.000000
    210          7.918520        7.918514   0.000000   0.000000
    211          8.363771        8.363771   0.000000   0.000000
    212          8.423942        8.423942   0.000000   0.000000
    213          8.487116        8.487116   0.000000   0.000000
    214          8.851283        8.851282   0.000000   0.000000
    215          9.290265        9.290262   0.000000   0.000000
    216          9.430233        9.430233   0.000000   0.000000
    217          9.446049        9.446048   0.000000   0.000000
    218          9.476516        9.476515   0.000000   0.000000
    219         10.011830       10.011830   0.000000   0.000000
    220         10.090631       10.090631   0.000000   0.000000
    221         10.134893       10.134893   0.000000   0.000000
    222         10.269769       10.269768   0.000000   0.000000
    223         10.710065       10.710065   0.000000   0.000000
    224         10.725554       10.725554   0.000000   0.000000
    225         10.870567       10.870566   0.000000   0.000000
    226         11.177140       11.177140   0.000000   0.000000
    227         11.213245       11.213243   0.000000   0.000000
    228         11.362162       11.362161   0.000000   0.000000
    229         11.502658       11.502657   0.000000   0.000000
    230         11.541344       11.541342   0.000000   0.000000
    231         11.882771       11.882771   0.000000   0.000000
    232         12.021429       12.021429   0.000000   0.000000
 
  0.3333333E+00  0.5551115E-16  0.0000000E+00  0.4444444E+00
      1         -6.247016       -6.247016   1.000000   1.000000
      2         -5.866774       -5.866774   1.000000   1.000000
      3         -5.258455       -5.258455   1.000000   1.000000
      4         -4.464290       -4.464290   1.000000   1.000000
      5         -4.023835       -4.023835   1.000000   1.000000
      6         -3.765406       -3.765406   1.000000   1.000000
      7         -3.676402       -3.676402   1.000000   1.000000
      8         -3.483427       -3.483427   1.000000   1.000000
      9         -3.380225       -3.380225   1.000000   1.000000
     10         -2.966829       -2.966829   1.000000   1.000000
     11         -2.847974       -2.847974   1.000000   1.000000
     12         -2.693807       -2.693807   1.000000   1.000000
     13         -2.692675       -2.692675   1.000000   1.000000
     14         -2.594076       -2.594076   1.000000   1.000000
     15         -2.545422       -2.545422   1.000000   1.000000
     16         -2.544472       -2.544472   1.000000   1.000000
     17         -2.479606       -2.479606   1.000000   1.000000
     18         -2.444198       -2.444198   1.000000   1.000000
     19         -2.442903       -2.442903   1.000000   1.000000
     20         -2.401510       -2.401510   1.000000   1.000000
     21         -2.395493       -2.395493   1.000000   1.000000
     22         -2.394627       -2.394627   1.000000   1.000000
     23         -2.279667       -2.279667   1.000000   1.000000
     24         -2.277959       -2.277959   1.000000   1.000000
     25         -2.277452       -2.277452   1.000000   1.000000
     26         -2.111499       -2.111499   1.000000   1.000000
     27         -2.110719       -2.110719   1.000000   1.000000
     28         -2.006595       -2.006595   1.000000   1.000000
     29         -2.003128       -2.003128   1.000000   1.000000
     30         -2.002857       -2.002857   1.000000   1.000000
     31         -1.999306       -1.999306   1.000000   1.000000
     32         -1.902493       -1.902493   1.000000   1.000000
     33         -1.901520       -1.901520   1.000000   1.000000
     34         -1.878551       -1.878551   1.000000   1.000000
     35         -1.878225       -1.878225   1.000000   1.000000
     36         -1.873733       -1.873733   1.000000   1.000000
     37         -1.843951       -1.843951   1.000000   1.000000
     38         -1.713555       -1.713555   1.000000   1.000000
     39         -1.712842       -1.712842   1.000000   1.000000
     40         -1.687561       -1.687561   1.000000   1.000000
     41         -1.682439       -1.682439   1.000000   1.000000
     42         -1.681769       -1.681769   1.000000   1.000000
     43         -1.516439       -1.516439   1.000000   1.000000
     44         -1.515622       -1.515622   1.000000   1.000000
     45         -1.511459       -1.511459   1.000000   1.000000
     46         -1.449049       -1.449049   1.000000   1.000000
     47         -1.448448       -1.448448   1.000000   1.000000
     48         -1.393754       -1.393754   1.000000   1.000000
     49         -1.329133       -1.329133   1.000000   1.000000
     50         -1.293268       -1.293268   1.000000   1.000000
     51         -1.292167       -1.292167   1.000000   1.000000
     52         -1.268900       -1.268900   1.000000   1.000000
     53         -1.237171       -1.237171   1.000000   1.000000
     54         -1.180623       -1.180623   1.000000   1.000000
     55         -1.180006       -1.180006   1.000000   1.000000
     56         -1.178892       -1.178892   1.000000   1.000000
     57         -1.148519       -1.148519   1.000000   1.000000
     58         -1.147204       -1.147204   1.000000   1.000000
     59         -1.117908       -1.117908   1.000000   1.000000
     60         -1.116272       -1.116272   1.000000   1.000000
     61         -1.095248       -1.095248   1.000000   1.000000
     62         -1.093564       -1.093564   1.000000   1.000000
     63         -1.083310       -1.083310   1.000000   1.000000
     64         -1.078098       -1.078098   1.000000   1.000000
     65         -1.032247       -1.032247   1.000000   1.000000
     66         -0.987609       -0.987609   1.000000   1.000000
     67         -0.986047       -0.986047   1.000000   1.000000
     68         -0.918567       -0.918567   1.000000   1.000000
     69         -0.879919       -0.879919   1.000000   1.000000
     70         -0.868449       -0.868449   1.000000   1.000000
     71         -0.846717       -0.846717   1.000000   1.000000
     72         -0.845334       -0.845334   1.000000   1.000000
     73         -0.831547       -0.831547   1.000000   1.000000
     74         -0.819984       -0.819984   1.000000   1.000000
     75         -0.805104       -0.805104   1.000000   1.000000
     76         -0.804273       -0.804273   1.000000   1.000000
     77         -0.765046       -0.765046   1.000000   1.000000
     78         -0.753859       -0.753859   1.000000   1.000000
     79         -0.708916       -0.708916   1.000000   1.000000
     80         -0.691031       -0.691031   1.000000   1.000000
     81         -0.685278       -0.685278   1.000000   1.000000
     82         -0.681692       -0.681692   1.000000   1.000000
     83         -0.657659       -0.657659   1.000000   1.000000
     84         -0.656987       -0.656987   1.000000   1.000000
     85         -0.650406       -0.650406   1.000000   1.000000
     86         -0.638210       -0.638210   1.000000   1.000000
     87         -0.633045       -0.633045   1.000000   1.000000
     88         -0.585001       -0.585001   1.000000   1.000000
     89         -0.584236       -0.584236   1.000000   1.000000
     90         -0.578838       -0.578838   1.000000   1.000000
     91         -0.574988       -0.574988   1.000000   1.000000
     92         -0.555068       -0.555068   1.000000   1.000000
     93         -0.518052       -0.518052   1.000000   1.000000
     94         -0.483926       -0.483926   1.000000   1.000000
     95         -0.474513       -0.474513   1.000000   1.000000
     96         -0.461730       -0.461730   1.000000   1.000000
     97         -0.460544       -0.460544   1.000000   1.000000
     98         -0.459945       -0.459945   1.000000   1.000000
     99         -0.454885       -0.454885   1.000000   1.000000
    100         -0.445725       -0.445725   1.000000   1.000000
    101         -0.435240       -0.435240   1.000000   1.000000
    102         -0.432846       -0.432846   1.000000   1.000000
    103         -0.357142       -0.357142   1.000000   1.000000
    104         -0.343692       -0.343692   1.000000   1.000000
    105         -0.341632       -0.341632   1.000000   1.000000
    106         -0.311043       -0.311043   1.000000   1.000000
    107         -0.283989       -0.283989   1.000000   1.000000
    108         -0.272560       -0.272560   1.000000   1.000000
    109         -0.261692       -0.261692   1.000000   1.000000
    110         -0.259346       -0.259346   1.000000   1.000000
    111         -0.248927       -0.248927   1.000000   1.000000
    112         -0.246818       -0.246818   1.000000   1.000000
    113         -0.245401       -0.245401   1.000000   1.000000
    114         -0.191187       -0.191187   1.000000   1.000000
    115         -0.176818       -0.176818   1.000000   1.000000
    116         -0.164894       -0.164894   1.000000   1.000000
    117         -0.121564       -0.121564   1.000000   1.000000
    118         -0.119987       -0.119987   1.000000   1.000000
    119         -0.075121       -0.075121   1.000000   1.000000
    120         -0.051704       -0.051704   1.000000   1.000000
    121         -0.045730       -0.045730   1.000000   1.000000
    122         -0.005803       -0.005803   1.000000   1.000000
    123          0.029333        0.029333   1.000000   1.000000
    124          0.030341        0.030341   1.000000   1.000000
    125          0.037519        0.037519   1.000000   1.000000
    126          0.083681        0.083681   1.000000   1.000000
    127          0.105534        0.105534   1.000000   1.000000
    128          0.162752        0.162752   1.000000   1.000000
    129          0.163549        0.163549   1.000000   1.000000
    130          0.169357        0.169357   1.000000   1.000000
    131          0.208093        0.208093   1.000000   1.000000
    132          0.221585        0.221585   1.000000   1.000000
    133          0.222526        0.222526   1.000000   1.000000
    134          0.232049        0.232049   1.000000   1.000000
    135          0.237616        0.237616   1.000000   1.000000
    136          0.238682        0.238682   1.000000   1.000000
    137          0.247053        0.247053   1.000000   1.000000
    138          0.254429        0.254429   1.000000   1.000000
    139          0.266621        0.266621   1.000000   1.000000
    140          0.266703        0.266703   1.000000   1.000000
    141          0.268022        0.268022   1.000000   1.000000
    142          0.289515        0.289515   1.000000   1.000000
    143          0.328307        0.328307   1.000000   1.000000
    144          0.329448        0.329448   1.000000   1.000000
    145          0.336111        0.336111   1.000000   1.000000
    146          0.354918        0.354918   1.000000   1.000000
    147          0.356978        0.356978   1.000000   1.000000
    148          0.382950        0.382950   1.000000   1.000000
    149          0.387542        0.387542   1.000000   1.000000
    150          0.411250        0.411250   1.000000   1.000000
    151          0.432273        0.432273   1.000000   1.000000
    152          0.446469        0.446469   1.000000   1.000000
    153          0.447551        0.447551   1.000000   1.000000
    154          0.465661        0.465661   1.000000   1.000000
    155          0.553247        0.553247   1.000000   1.000000
    156          0.553991        0.553991   1.000000   1.000000
    157          0.554335        0.554335   1.000000   1.000000
    158          0.583059        0.583059   1.000000   1.000000
    159          0.588286        0.588286   1.000000   1.000000
    160          0.597670        0.597670   1.000000   1.000000
    161          0.598303        0.598303   1.000000   1.000000
    162          0.617607        0.617607   1.000000   1.000000
    163          0.618632        0.618632   1.000000   1.000000
    164          0.641313        0.641313   1.000000   1.000000
    165          0.664925        0.664925   1.000000   1.000000
    166          0.665890        0.665890   1.000000   1.000000
    167          0.687140        0.687140   1.000000   1.000000
    168          0.687831        0.687831   1.000000   1.000000
    169          0.726396        0.726396   1.000000   1.000000
    170          0.728018        0.728018   1.000000   1.000000
    171          1.123856        1.123856   1.000000   1.000000
    172          1.500272        1.500272   1.000009   1.000009
    173          1.860303        1.860303   1.023936   1.023936
    174          1.861260        1.861260   1.024157   1.024157
    175          1.963298        1.963298   1.030705   1.030705
    176          2.014944        2.014944   0.992067   0.992067
    177          2.016169        2.016169   0.990527   0.990527
    178          2.275147        2.275147   0.133764   0.133764
    179          2.276841        2.276841   0.129088   0.129088
    180          2.610913        2.610913  -0.004414  -0.004414
    181          2.793367        2.793367  -0.000058  -0.000058
    182          2.795529        2.795529  -0.000054  -0.000054
    183          3.083778        3.083778  -0.000000  -0.000000
    184          3.595119        3.595119  -0.000000  -0.000000
    185          3.599562        3.599562  -0.000000  -0.000000
    186          3.738682        3.738682  -0.000000  -0.000000
    187          3.985843        3.985843  -0.000000  -0.000000
    188          4.624286        4.624286  -0.000000  -0.000000
    189          4.631487        4.631487  -0.000000  -0.000000
    190          5.494752        5.494752  -0.000000  -0.000000
    191          5.720755        5.720755  -0.000000  -0.000000
    192          5.731909        5.731909  -0.000000  -0.000000
    193          6.382168        6.382168  -0.000000  -0.000000
    194          6.391478        6.391478  -0.000000  -0.000000
    195          6.688533        6.688533  -0.000000  -0.000000
    196          6.936463        6.936463  -0.000000  -0.000000
    197          6.943107        6.943107  -0.000000  -0.000000
    198          7.171349        7.171347  -0.000000  -0.000000
    199          7.242526        7.242524  -0.000000  -0.000000
    200          7.423869        7.423869  -0.000000  -0.000000
    201          7.455036        7.455035  -0.000000  -0.000000
    202          7.865936        7.865934   0.000000   0.000000
    203          7.990568        7.990567   0.000000   0.000000
    204          8.052112        8.052111   0.000000   0.000000
    205          8.268874        8.268869   0.000000   0.000000
    206          8.505923        8.505923   0.000000   0.000000
    207          8.566687        8.566687   0.000000   0.000000
    208          8.653514        8.653514   0.000000   0.000000
    209          9.005825        9.005823   0.000000   0.000000
    210          9.040434        9.040432   0.000000   0.000000
    211          9.318067        9.318067   0.000000   0.000000
    212          9.425990        9.425989   0.000000   0.000000
    213          9.500151        9.500149   0.000000   0.000000
    214          9.767391        9.767389   0.000000   0.000000
    215         10.019049       10.019048   0.000000   0.000000
    216         10.087576       10.087573   0.000000   0.000000
    217         10.165254       10.165253   0.000000   0.000000
    218         10.337880       10.337876   0.000000   0.000000
    219         10.456904       10.456902   0.000000   0.000000
    220         10.606881       10.606880   0.000000   0.000000
    221         10.691541       10.691541   0.000000   0.000000
    222         10.723117       10.723117   0.000000   0.000000
    223         10.953740       10.953736   0.000000   0.000000
    224         10.990935       10.990935   0.000000   0.000000
    225         11.002110       11.002109   0.000000   0.000000
    226         11.166198       11.166197   0.000000   0.000000
    227         11.308855       11.308855   0.000000   0.000000
    228         11.346596       11.346595   0.000000   0.000000
    229         11.574000       11.573997   0.000000   0.000000
    230         11.728953       11.728953   0.000000   0.000000
    231         11.856986       11.856985   0.000000   0.000000