       N       E                     dE             d eps       ncg     rms          rms(c)
DAV:   1     0.344806076875E+04    0.34481E+04   -0.12525E+05  3712   0.193E+03
DAV:   2     0.486067545736E+03   -0.29620E+04   -0.28268E+04  3712   0.448E+02
DAV:   3    -0.926397344110E+02   -0.57871E+03   -0.52609E+03  3720   0.230E+02
DAV:   4    -0.138056830615E+03   -0.45417E+02   -0.43649E+02  4112   0.895E+01
DAV:   5    -0.139158067065E+03   -0.11012E+01   -0.10974E+01  4136   0.140E+01    0.525E+01
DAV:   6    -0.115132028534E+03    0.24026E+02   -0.30818E+02  4240   0.124E+02    0.272E+01
DAV:   7    -0.102961140911E+03    0.12171E+02   -0.78655E+01  4296   0.102E+02    0.170E+01
DAV:   8    -0.108239396742E+03   -0.52783E+01   -0.69877E+01  4856   0.128E+02    0.215E+01
DAV:   9    -0.990867641895E+02    0.91526E+01   -0.27580E+01  5208   0.656E+01    0.122E+01
DAV:  10    -0.100188188535E+03   -0.11014E+01   -0.63316E+00  5032   0.412E+01    0.114E+01
DAV:  11    -0.102641483993E+03   -0.24533E+01   -0.11920E+01  4528   0.539E+01    0.121E+01
DAV:  12    -0.101369726573E+03    0.12718E+01   -0.11023E+01  4512   0.536E+01    0.987E+00
DAV:  13    -0.102851745368E+03   -0.14820E+01   -0.53673E+00  5920   0.356E+01    0.789E+00
DAV:  14    -0.105450099139E+03   -0.25984E+01   -0.60065E+00  5784   0.349E+01    0.703E+00
DAV:  15    -0.109503053951E+03   -0.40530E+01   -0.32707E+00  4912   0.215E+01    0.454E+00
DAV:  16    -0.112293141025E+03   -0.27901E+01   -0.31025E+00  4512   0.198E+01    0.277E+00
DAV:  17    -0.113961400101E+03   -0.16683E+01   -0.16189E+00  4888   0.114E+01    0.235E+00
DAV:  18    -0.115005040212E+03   -0.10436E+01   -0.10607E+00  4352   0.104E+01    0.208E+00
DAV:  19    -0.115697970026E+03   -0.69293E+00   -0.52002E-01  4352   0.660E+00    0.181E+00
DAV:  20    -0.116512706277E+03   -0.81474E+00   -0.48398E-01  5184   0.590E+00    0.158E+00
DAV:  21    -0.117340011395E+03   -0.82731E+00   -0.66137E-01  5048   0.790E+00    0.156E+00
DAV:  22    -0.117671094715E+03   -0.33108E+00   -0.23609E-01  4936   0.523E+00    0.121E+00
DAV:  23    -0.118092985717E+03   -0.42189E+00   -0.17733E-01  4952   0.412E+00    0.105E+00
DAV:  24    -0.118674400795E+03   -0.58142E+00   -0.20102E-01  4576   0.393E+00    0.760E-01
DAV:  25    -0.119751055787E+03   -0.10767E+01   -0.14734E-01  5104   0.373E+00    0.627E-01
DAV:  26    -0.120439952505E+03   -0.68890E+00   -0.60160E-02  4800   0.281E+00    0.359E-01
DAV:  27    -0.120695701580E+03   -0.25575E+00   -0.22365E-02  4128   0.197E+00    0.200E-01
DAV:  28    -0.120754392785E+03   -0.58691E-01   -0.77314E-03  4064   0.753E-01    0.155E-01
DAV:  29    -0.120759385145E+03   -0.49924E-02   -0.37812E-03  4128   0.740E-01    0.107E-01
DAV:  30    -0.120765687768E+03   -0.63026E-02   -0.10513E-03  3936   0.453E-01    0.905E-02
DAV:  31    -0.120770702681E+03   -0.50149E-02   -0.42656E-04  2752   0.283E-01    0.707E-02
DAV:  32    -0.120770575952E+03    0.12673E-03   -0.42609E-04  2584   0.291E-01
   1 F= -.13479577E+03 E0= -.13479153E+03  d E =-.134796E+03  mag=     0.0092
       N       E                     dE             d eps       ncg     rms          rms(c)
DAV:   1    -0.120744410442E+03    0.26292E-01   -0.11925E+01  3912   0.698E+00    0.745E-01
DAV:   2    -0.120767070096E+03   -0.22660E-01   -0.31564E-01  5416   0.277E+00    0.616E-01
DAV:   3    -0.120796420274E+03   -0.29350E-01   -0.15866E-01  4568   0.686E+00    0.112E+00
DAV:   4    -0.120771438991E+03    0.24981E-01   -0.21213E-01  4632   0.760E+00    0.581E-01
DAV:   5    -0.120770138622E+03    0.13004E-02   -0.37304E-02  6040   0.463E+00    0.514E-01
DAV:   6    -0.120765003170E+03    0.51355E-02   -0.23019E-02  5800   0.407E+00    0.268E-01
DAV:   7    -0.120763507571E+03    0.14956E-02   -0.69265E-03  6392   0.192E+00    0.126E-01
DAV:   8    -0.120763409541E+03    0.98031E-04   -0.25262E-03  4272   0.828E-01    0.493E-02
DAV:   9    -0.120763531151E+03   -0.12161E-03   -0.13425E-03  3672   0.314E-01
   2 F= -.13481760E+03 E0= -.13481274E+03  d E =-.218204E-01  mag=     0.0060
       N       E                     dE             d eps       ncg     rms          rms(c)
DAV:   1    -0.120794758231E+03   -0.31349E-01   -0.23801E+00  3824   0.313E+00    0.299E-01
DAV:   2    -0.120799716113E+03   -0.49579E-02   -0.62805E-02  5336   0.102E+00    0.255E-01
DAV:   3    -0.120806238059E+03   -0.65219E-02   -0.33827E-02  4632   0.314E+00    0.523E-01
DAV:   4    -0.120799772444E+03    0.64656E-02   -0.36032E-02  4120   0.304E+00    0.178E-01
DAV:   5    -0.120801207694E+03   -0.14352E-02   -0.77142E-03  3448   0.202E+00    0.278E-01
DAV:   6    -0.120799313864E+03    0.18938E-02   -0.43449E-03  4016   0.180E+00    0.968E-02
DAV:   7    -0.120799228098E+03    0.85766E-04   -0.12481E-03  4480   0.549E-01
   3 F= -.13483334E+03 E0= -.13482878E+03  d E =-.375664E-01  mag=     0.0043
       N       E                     dE             d eps       ncg     rms          rms(c)
DAV:   1    -0.120805830726E+03   -0.65169E-02   -0.77967E+00  4088   0.581E+00    0.241E-01
DAV:   2    -0.120820794942E+03   -0.14964E-01   -0.15409E-01  5360   0.187E+00    0.309E-01
DAV:   3    -0.120821390831E+03   -0.59589E-03   -0.16832E-02  4240   0.232E+00    0.323E-01
DAV:   4    -0.120820894896E+03    0.49593E-03   -0.94177E-03  4216   0.188E+00    0.229E-01
DAV:   5    -0.120820530266E+03    0.36463E-03   -0.78224E-03  3288   0.148E+00    0.197E-01
DAV:   6    -0.120819990054E+03    0.54021E-03   -0.27673E-03  3176   0.988E-01    0.137E-01
DAV:   7    -0.120819977774E+03    0.12279E-04   -0.23522E-03  4808   0.783E-01    0.959E-02
DAV:   8    -0.120819981402E+03   -0.36279E-05   -0.87475E-04  3584   0.534E-01
   4 F= -.13485997E+03 E0= -.13485478E+03  d E =-.266295E-01  mag=     0.0030
       N       E                     dE             d eps       ncg     rms          rms(c)
DAV:   1    -0.120803244316E+03    0.16733E-01   -0.13087E+01  4088   0.758E+00    0.329E-01
DAV:   2    -0.120830625378E+03   -0.27381E-01   -0.27678E-01  5528   0.282E+00    0.478E-01
DAV:   3    -0.120835667801E+03   -0.50424E-02   -0.87178E-02  4336   0.482E+00    0.610E-01
DAV:   4    -0.120828614985E+03    0.70528E-02   -0.36056E-02  4352   0.313E+00    0.264E-01
DAV:   5    -0.120828747519E+03   -0.13253E-03   -0.56948E-03  5376   0.157E+00    0.243E-01
DAV:   6    -0.120828194946E+03    0.55257E-03   -0.45311E-03  5216   0.129E+00    0.178E-01
DAV:   7    -0.120828025906E+03    0.16904E-03   -0.33138E-03  4016   0.108E+00    0.122E-01
DAV:   8    -0.120828068693E+03   -0.42787E-04   -0.17461E-03  4264   0.731E-01
   5 F= -.13487562E+03 E0= -.13486973E+03  d E =-.422772E-01  mag=     0.0021
       N       E                     dE             d eps       ncg     rms          rms(c)
DAV:   1    -0.120831311949E+03   -0.32860E-02   -0.28292E+00  3800   0.364E+00    0.223E-01
DAV:   2    -0.120841566429E+03   -0.10254E-01   -0.80300E-02  6488   0.265E+00    0.480E-01
DAV:   3    -0.120837923156E+03    0.36433E-02   -0.36062E-02  6192   0.294E+00    0.217E-01
DAV:   4    -0.120837338927E+03    0.58423E-03   -0.56029E-03  4088   0.130E+00    0.183E-01
DAV:   5    -0.120837613080E+03   -0.27415E-03   -0.28108E-03  4096   0.130E+00    0.186E-01
DAV:   6    -0.120837393615E+03    0.21947E-03   -0.35404E-03  4312   0.141E+00    0.147E-01
DAV:   7    -0.120837073297E+03    0.32032E-03   -0.15242E-03  3744   0.835E-01    0.643E-02
DAV:   8    -0.120837093594E+03   -0.20297E-04   -0.53947E-04  2672   0.275E-01
   6 F= -.13488943E+03 E0= -.13488366E+03  d E =-.138067E-01  mag=     0.0015
       N       E                     dE             d eps       ncg     rms          rms(c)
DAV:   1    -0.120831924803E+03    0.51485E-02   -0.18064E+00  3800   0.288E+00    0.183E-01
DAV:   2    -0.120836311419E+03   -0.43866E-02   -0.44178E-02  5544   0.129E+00    0.248E-01
DAV:   3    -0.120836679190E+03   -0.36777E-03   -0.13460E-02  4352   0.190E+00    0.232E-01
DAV:   4    -0.120835950106E+03    0.72908E-03   -0.77100E-03  4152   0.156E+00    0.172E-01
DAV:   5    -0.120835766730E+03    0.18338E-03   -0.20440E-03  3272   0.113E+00    0.130E-01
DAV:   6    -0.120835602204E+03    0.16453E-03   -0.15124E-03  3640   0.980E-01
   7 F= -.13489234E+03 E0= -.13488640E+03  d E =-.167203E-01  mag=     0.0011
       N       E                     dE             d eps       ncg     rms          rms(c)
DAV:   1    -0.120837274149E+03   -0.15074E-02   -0.28885E-01  4472   0.132E+00    0.699E-02
DAV:   2    -0.120839501729E+03   -0.22276E-02   -0.10892E-02  5368   0.149E+00    0.259E-01
DAV:   3    -0.120837786685E+03    0.17150E-02   -0.88213E-03  4144   0.152E+00    0.713E-02
DAV:   4    -0.120837774596E+03    0.12089E-04   -0.75874E-04  3176   0.427E-01
   8 F= -.13489675E+03 E0= -.13489098E+03  d E =-.441058E-02  mag=     0.0010
       N       E                     dE             d eps       ncg     rms          rms(c)
DAV:   1    -0.120838008837E+03   -0.22215E-03   -0.25650E+00  3784   0.338E+00    0.195E-01
DAV:   2    -0.120843238287E+03   -0.52294E-02   -0.56007E-02  5240   0.115E+00    0.211E-01
DAV:   3    -0.120844209444E+03   -0.97116E-03   -0.88196E-03  4176   0.162E+00    0.258E-01
DAV:   4    -0.120843225789E+03    0.98365E-03   -0.92484E-03  3728   0.167E+00    0.162E-01
DAV:   5    -0.120843359609E+03   -0.13382E-03   -0.29747E-03  2624   0.119E+00    0.167E-01
DAV:   6    -0.120843058359E+03    0.30125E-03   -0.19045E-03  2728   0.125E+00    0.136E-01
DAV:   7    -0.120842784317E+03    0.27404E-03   -0.10299E-03  3760   0.648E-01    0.261E-02
DAV:   8    -0.120842796771E+03   -0.12454E-04   -0.33477E-04  2352   0.172E-01
   9 F= -.13490849E+03 E0= -.13490263E+03  d E =-.161531E-01  mag=     0.0007
       N       E                     dE             d eps       ncg     rms          rms(c)
DAV:   1    -0.120824079418E+03    0.18705E-01   -0.10285E+01  3776   0.679E+00    0.367E-01
DAV:   2    -0.120845933536E+03   -0.21854E-01   -0.22537E-01  5360   0.258E+00    0.460E-01
DAV:   3    -0.120850549226E+03   -0.46157E-02   -0.52478E-02  4200   0.384E+00    0.533E-01
DAV:   4    -0.120844787845E+03    0.57614E-02   -0.35456E-02  4392   0.333E+00    0.295E-01
DAV:   5    -0.120845156990E+03   -0.36914E-03   -0.56973E-03  4752   0.193E+00    0.291E-01
DAV:   6    -0.120844549703E+03    0.60729E-03   -0.71099E-03  4920   0.217E+00    0.227E-01
DAV:   7    -0.120843733969E+03    0.81573E-03   -0.42741E-03  4992   0.135E+00    0.794E-02
DAV:   8    -0.120843743082E+03   -0.91139E-05   -0.17465E-03  4064   0.563E-01
  10 F= -.13492292E+03 E0= -.13491693E+03  d E =-.305778E-01  mag=     0.0005
       N       E                     dE             d eps       ncg     rms          rms(c)
DAV:   1    -0.120726443268E+03    0.11729E+00   -0.41345E+01  3776   0.137E+01    0.758E-01
DAV:   2    -0.120819538273E+03   -0.93095E-01   -0.96234E-01  5456   0.577E+00    0.973E-01
DAV:   3    -0.120842011163E+03   -0.22473E-01   -0.23149E-01  4288   0.818E+00    0.111E+00
DAV:   4    -0.120811463379E+03    0.30548E-01   -0.14179E-01  4512   0.662E+00    0.550E-01
DAV:   5    -0.120810594429E+03    0.86895E-03   -0.13604E-02  5288   0.271E+00    0.472E-01
DAV:   6    -0.120817633662E+03   -0.70392E-02   -0.28261E-02  4632   0.449E+00    0.639E-01
DAV:   7    -0.120808574755E+03    0.90589E-02   -0.22518E-02  4560   0.401E+00    0.204E-01
DAV:   8    -0.120808406484E+03    0.16827E-03   -0.93299E-03  5040   0.129E+00    0.992E-02
DAV:   9    -0.120808593588E+03   -0.18710E-03   -0.39564E-03  3968   0.641E-01    0.565E-02
DAV:  10    -0.120808676914E+03   -0.83326E-04   -0.13725E-03  3816   0.341E-01
  11 F= -.13491510E+03 E0= -.13490906E+03  d E =-.227660E-01  mag=     0.0003
       N       E                     dE             d eps       ncg     rms          rms(c)
DAV:   1    -0.120798460886E+03    0.10133E-01   -0.21615E+01  3776   0.987E+00    0.534E-01
DAV:   2    -0.120843264036E+03   -0.44803E-01   -0.47519E-01  5296   0.331E+00    0.606E-01
DAV:   3    -0.120844318989E+03   -0.10550E-02   -0.31768E-02  4272   0.366E+00    0.551E-01
DAV:   4    -0.120845016174E+03   -0.69719E-03   -0.44022E-02  4432   0.381E+00    0.509E-01
DAV:   5    -0.120845064918E+03   -0.48744E-04   -0.54304E-02  4656   0.407E+00    0.479E-01
DAV:   6    -0.120840964353E+03    0.41006E-02   -0.21177E-02  5984   0.337E+00    0.305E-01
DAV:   7    -0.120839280860E+03    0.16835E-02   -0.73993E-03  6576   0.177E+00    0.116E-01
DAV:   8    -0.120839099148E+03    0.18171E-03   -0.23727E-03  4368   0.831E-01    0.791E-02
DAV:   9    -0.120839120015E+03   -0.20867E-04   -0.12259E-03  3832   0.364E-01
  12 F= -.13492576E+03 E0= -.13491980E+03  d E =-.334191E-01  mag=     0.0002
       N       E                     dE             d eps       ncg     rms          rms(c)
DAV:   1    -0.120846168598E+03   -0.70694E-02   -0.61253E-01  3840   0.168E+00    0.950E-02
DAV:   2    -0.120847827621E+03   -0.16590E-02   -0.14307E-02  6000   0.945E-01    0.168E-01
DAV:   3    -0.120847491905E+03    0.33572E-03   -0.41674E-03  4016   0.113E+00    0.105E-01
DAV:   4    -0.120847510165E+03   -0.18260E-04   -0.17615E-03  3088   0.799E-01
  13 F= -.13493566E+03 E0= -.13492947E+03  d E =-.990563E-02  mag=     0.0002
       N       E                     dE             d eps       ncg     rms          rms(c)
DAV:   1    -0.120847590819E+03   -0.98914E-04   -0.41286E+00  3840   0.434E+00    0.277E-01
DAV:   2    -0.120855721203E+03   -0.81304E-02   -0.90859E-02  5440   0.148E+00    0.284E-01
DAV:   3    -0.120857644707E+03   -0.19235E-02   -0.14590E-02  4256   0.232E+00    0.342E-01
DAV:   4    -0.120856486432E+03    0.11583E-02   -0.20610E-02  4248   0.252E+00    0.267E-01
DAV:   5    -0.120856210448E+03    0.27598E-03   -0.83930E-03  3744   0.188E+00    0.242E-01
DAV:   6    -0.120855386526E+03    0.82392E-03   -0.37575E-03  3720   0.173E+00    0.141E-01
DAV:   7    -0.120854991860E+03    0.39467E-03   -0.19214E-03  4368   0.966E-01    0.463E-02
DAV:   8    -0.120855011250E+03   -0.19390E-04   -0.84676E-04  3312   0.325E-01
  14 F= -.13494791E+03 E0= -.13494129E+03  d E =-.221563E-01  mag=     0.0001
       N       E                     dE             d eps       ncg     rms          rms(c)
DAV:   1    -0.120863764126E+03   -0.87723E-02   -0.89113E-01  3792   0.202E+00    0.118E-01
DAV:   2    -0.120866844784E+03   -0.30807E-02   -0.23691E-02  6456   0.142E+00    0.246E-01
DAV:   3    -0.120865678812E+03    0.11660E-02   -0.99784E-03  5280   0.171E+00    0.126E-01
DAV:   4    -0.120865602752E+03    0.76060E-04   -0.16621E-03  3696   0.759E-01
  15 F= -.13495769E+03 E0= -.13495062E+03  d E =-.977550E-02  mag=     0.0001
       N       E                     dE             d eps       ncg     rms          rms(c)
DAV:   1    -0.120862175675E+03    0.35031E-02   -0.80172E+00  3792   0.603E+00    0.393E-01
DAV:   2    -0.120881129894E+03   -0.18954E-01   -0.18619E-01  5952   0.284E+00    0.514E-01
DAV:   3    -0.120882803265E+03   -0.16734E-02   -0.67556E-02  4528   0.452E+00    0.556E-01
DAV:   4    -0.120878674637E+03    0.41286E-02   -0.31348E-02  4544   0.316E+00    0.349E-01
DAV:   5    -0.120878042693E+03    0.63194E-03   -0.10599E-02  4536   0.238E+00    0.293E-01
DAV:   6    -0.120877034824E+03    0.10079E-02   -0.54810E-03  5104   0.183E+00    0.189E-01
DAV:   7    -0.120876696470E+03    0.33835E-03   -0.36094E-03  4608   0.115E+00    0.613E-02
DAV:   8    -0.120876807693E+03   -0.11122E-03   -0.17545E-03  3936   0.449E-01
  16 F= -.13496806E+03 E0= -.13496016E+03  d E =-.201495E-01  mag=     0.0001
       N       E                     dE             d eps       ncg     rms          rms(c)
DAV:   1    -0.120876704790E+03   -0.83194E-05   -0.25288E-01  3808   0.110E+00    0.677E-02
DAV:   2    -0.120877229939E+03   -0.52515E-03   -0.57797E-03  5280   0.465E-01    0.830E-02
DAV:   3    -0.120877317279E+03   -0.87339E-04   -0.11743E-03  2640   0.611E-01
  17 F= -.13496859E+03 E0= -.13496098E+03  d E =-.206793E-01  mag=     0.0001
       N       E                     dE             d eps       ncg     rms          rms(c)
DAV:   1    -0.120880712494E+03   -0.34826E-02   -0.10587E+00  3736   0.225E+00    0.120E-01
DAV:   2    -0.120889877239E+03   -0.91647E-02   -0.44738E-02  6592   0.281E+00    0.475E-01
DAV:   3    -0.120882513797E+03    0.73634E-02   -0.28875E-02  6568   0.282E+00    0.103E-01
DAV:   4    -0.120882765427E+03   -0.25163E-03   -0.22751E-03  4608   0.521E-01    0.101E-01
DAV:   5    -0.120882843918E+03   -0.78491E-04   -0.15679E-03  3856   0.770E-01
  18 F= -.13497511E+03 E0= -.13496703E+03  d E =-.651245E-02  mag=     0.0001
       N       E                     dE             d eps       ncg     rms          rms(c)
DAV:   1    -0.120875883721E+03    0.68817E-02   -0.95594E+00  3744   0.659E+00    0.403E-01
DAV:   2    -0.120897034499E+03   -0.21151E-01   -0.20180E-01  5744   0.302E+00    0.532E-01
DAV:   3    -0.120894953094E+03    0.20814E-02   -0.27002E-02  4312   0.349E+00    0.383E-01
DAV:   4    -0.120901209801E+03   -0.62567E-02   -0.46223E-02  4448   0.354E+00    0.595E-01
DAV:   5    -0.120893286671E+03    0.79231E-02   -0.42587E-02  4640   0.333E+00    0.219E-01
DAV:   6    -0.120893353629E+03   -0.66958E-04   -0.70605E-03  5536   0.175E+00    0.201E-01
DAV:   7    -0.120892863621E+03    0.49001E-03   -0.38967E-03  4312   0.136E+00    0.820E-02
DAV:   8    -0.120892949923E+03   -0.86302E-04   -0.17504E-03  3824   0.393E-01
  19 F= -.13498825E+03 E0= -.13497912E+03  d E =-.196593E-01  mag=     0.0000
       N       E                     dE             d eps       ncg     rms          rms(c)
DAV:   1    -0.120812535468E+03    0.80328E-01   -0.38388E+01  3744   0.132E+01    0.778E-01
DAV:   2    -0.120895802473E+03   -0.83267E-01   -0.84598E-01  5504   0.543E+00    0.977E-01
DAV:   3    -0.120893773354E+03    0.20291E-02   -0.83077E-02  4256   0.619E+00    0.785E-01
DAV:   4    -0.120894149681E+03   -0.37633E-03   -0.79692E-02  4448   0.519E+00    0.696E-01
DAV:   5    -0.120900145875E+03   -0.59962E-02   -0.15937E-01  5040   0.618E+00    0.815E-01
DAV:   6    -0.120886162544E+03    0.13983E-01   -0.60860E-02  6352   0.449E+00    0.381E-01
DAV:   7    -0.120884063468E+03    0.20991E-02   -0.14041E-02  5904   0.244E+00    0.196E-01
DAV:   8    -0.120884102085E+03   -0.38617E-04   -0.63448E-03  4448   0.101E+00    0.115E-01
DAV:   9    -0.120884042536E+03    0.59550E-04   -0.20971E-03  3872   0.575E-01    0.378E-02
DAV:  10    -0.120884113206E+03   -0.70670E-04   -0.80181E-04  3344   0.229E-01
  20 F= -.13498604E+03 E0= -.13497487E+03  d E =-.174515E-01  mag=     0.0000
       N       E                     dE             d eps       ncg     rms          rms(c)
DAV:   1    -0.120867298294E+03    0.16744E-01   -0.14536E+01  3744   0.807E+00    0.468E-01
DAV:   2    -0.120903998712E+03   -0.36700E-01   -0.32442E-01  6048   0.438E+00    0.772E-01
DAV:   3    -0.120901649614E+03    0.23491E-02   -0.11734E-01  5072   0.523E+00    0.611E-01
DAV:   4    -0.120897733681E+03    0.39159E-02   -0.55149E-02  4464   0.378E+00    0.446E-01
DAV:   5    -0.120895240313E+03    0.24934E-02   -0.13839E-02  4736   0.267E+00    0.318E-01
DAV:   6    -0.120894890207E+03    0.35011E-03   -0.89592E-03  4656   0.220E+00    0.275E-01
DAV:   7    -0.120894033764E+03    0.85644E-03   -0.62648E-03  4592   0.140E+00    0.750E-02
DAV:   8    -0.120894154791E+03   -0.12103E-03   -0.22132E-03  4272   0.488E-01    0.493E-02
DAV:   9    -0.120894167982E+03   -0.13191E-04   -0.69754E-04  3256   0.287E-01
  21 F= -.13499192E+03 E0= -.13498197E+03  d E =-.233229E-01  mag=     0.0000
       N       E                     dE             d eps       ncg     rms          rms(c)
DAV:   1    -0.120899157253E+03   -0.50025E-02   -0.13842E+00  3712   0.245E+00    0.175E-01
DAV:   2    -0.120902277949E+03   -0.31207E-02   -0.32194E-02  5616   0.108E+00    0.210E-01
DAV:   3    -0.120902704780E+03   -0.42683E-03   -0.11650E-02  4272   0.180E+00    0.233E-01
DAV:   4    -0.120902039121E+03    0.66566E-03   -0.59041E-03  3776   0.134E+00    0.155E-01
DAV:   5    -0.120901843206E+03    0.19592E-03   -0.23433E-03  2800   0.116E+00    0.125E-01
DAV:   6    -0.120901590477E+03    0.25273E-03   -0.10130E-03  3280   0.785E-01    0.647E-02
DAV:   7    -0.120901565371E+03    0.25106E-04   -0.60373E-04  3120   0.398E-01
  22 F= -.13500079E+03 E0= -.13499062E+03  d E =-.887344E-02  mag=     0.0000
       N       E                     dE             d eps       ncg     rms          rms(c)
DAV:   1    -0.120890297908E+03    0.11293E-01   -0.12513E+01  3712   0.735E+00    0.534E-01
DAV:   2    -0.120917178090E+03   -0.26880E-01   -0.29922E-01  5168   0.255E+00    0.532E-01
DAV:   3    -0.120920696495E+03   -0.35184E-02   -0.37257E-02  4272   0.385E+00    0.596E-01
DAV:   4    -0.120922169206E+03   -0.14727E-02   -0.70570E-02  4416   0.433E+00    0.574E-01
DAV:   5    -0.120919209756E+03    0.29594E-02   -0.80421E-02  4816   0.435E+00    0.452E-01
DAV:   6    -0.120915176078E+03    0.40337E-02   -0.18979E-02  6032   0.286E+00    0.217E-01
DAV:   7    -0.120914175986E+03    0.10001E-02   -0.51641E-03  5376   0.166E+00    0.113E-01
DAV:   8    -0.120914178158E+03   -0.21726E-05   -0.21761E-03  4592   0.656E-01    0.700E-02
DAV:   9    -0.120914186187E+03   -0.80290E-05   -0.86236E-04  3568   0.288E-01
  23 F= -.13501822E+03 E0= -.13500775E+03  d E =-.263066E-01  mag=     0.0000
       N       E                     dE             d eps       ncg     rms          rms(c)
DAV:   1    -0.120796575511E+03    0.11760E+00   -0.50489E+01  3712   0.148E+01    0.112E+00
DAV:   2    -0.120911146052E+03   -0.11457E+00   -0.12521E+00  5264   0.607E+00    0.118E+00
DAV:   3    -0.120928988718E+03   -0.17843E-01   -0.18211E-01  4288   0.892E+00    0.126E+00
DAV:   4    -0.120937573714E+03   -0.85850E-02   -0.45117E-01  4608   0.949E+00    0.137E+00
DAV:   5    -0.120902999053E+03    0.34575E-01   -0.24555E-01  4880   0.764E+00    0.729E-01
DAV:   6    -0.120896496810E+03    0.65022E-02   -0.45398E-02  6688   0.481E+00    0.396E-01
DAV:   7    -0.120894034730E+03    0.24621E-02   -0.21270E-02  4896   0.328E+00    0.238E-01
DAV:   8    -0.120893888802E+03    0.14593E-03   -0.94367E-03  4344   0.136E+00    0.105E-01
DAV:   9    -0.120894070627E+03   -0.18182E-03   -0.36925E-03  3968   0.459E-01    0.618E-02
DAV:  10    -0.120894075061E+03   -0.44339E-05   -0.78855E-04  3528   0.346E-01
  24 F= -.13500879E+03 E0= -.13499847E+03  d E =-.168702E-01  mag=     0.0000
       N       E                     dE             d eps       ncg     rms          rms(c)
DAV:   1    -0.120871200579E+03    0.22870E-01   -0.24631E+01  3712   0.103E+01    0.803E-01
DAV:   2    -0.120920241132E+03   -0.49041E-01   -0.56254E-01  5120   0.329E+00    0.708E-01
DAV:   3    -0.120954903893E+03   -0.34663E-01   -0.21935E-01  4400   0.795E+00    0.123E+00
DAV:   4    -0.120929806988E+03    0.25097E-01   -0.27061E-01  4768   0.789E+00    0.761E-01
DAV:   5    -0.120919986372E+03    0.98206E-02   -0.58749E-02  5360   0.559E+00    0.492E-01
DAV:   6    -0.120915707718E+03    0.42787E-02   -0.22661E-02  6672   0.334E+00    0.261E-01
DAV:   7    -0.120914596303E+03    0.11114E-02   -0.75572E-03  4768   0.177E+00    0.102E-01
DAV:   8    -0.120914594445E+03    0.18577E-05   -0.35081E-03  4064   0.795E-01    0.727E-02
DAV:   9    -0.120914686677E+03   -0.92232E-04   -0.14961E-03  3760   0.321E-01
  25 F= -.13502185E+03 E0= -.13501130E+03  d E =-.299311E-01  mag=     0.0000
       N       E                     dE             d eps       ncg     rms          rms(c)
DAV:   1    -0.120918915992E+03   -0.43215E-02   -0.10252E+00  3712   0.208E+00    0.170E-01
DAV:   2    -0.120921868489E+03   -0.29525E-02   -0.26466E-02  6192   0.135E+00    0.242E-01
DAV:   3    -0.120921425216E+03    0.44327E-03   -0.14152E-02  4864   0.185E+00    0.192E-01
DAV:   4    -0.120920793476E+03    0.63174E-03   -0.36714E-03  3456   0.105E+00    0.108E-01
DAV:   5    -0.120921128985E+03   -0.33551E-03   -0.20801E-03  3304   0.109E+00    0.146E-01
DAV:   6    -0.120920780211E+03    0.34877E-03   -0.16663E-03  3704   0.102E+00    0.853E-02
DAV:   7    -0.120920679642E+03    0.10057E-03   -0.46403E-04  2784   0.455E-01
  26 F= -.13502963E+03 E0= -.13501915E+03  d E =-.777851E-02  mag=     0.0000
       N       E                     dE             d eps       ncg     rms          rms(c)
DAV:   1    -0.120910896273E+03    0.98839E-02   -0.92092E+00  3712   0.616E+00    0.508E-01
DAV:   2    -0.120931951742E+03   -0.21055E-01   -0.21756E-01  5904   0.299E+00    0.573E-01
DAV:   3    -0.120938655941E+03   -0.67042E-02   -0.10142E-01  4864   0.521E+00    0.677E-01
DAV:   4    -0.120930728157E+03    0.79278E-02   -0.68193E-02  4544   0.423E+00    0.424E-01
DAV:   5    -0.120929564343E+03    0.11638E-02   -0.19953E-02  4864   0.331E+00    0.353E-01
DAV:   6    -0.120927578630E+03    0.19857E-02   -0.90413E-03  4800   0.237E+00    0.199E-01
DAV:   7    -0.120927298244E+03    0.28039E-03   -0.41880E-03  4512   0.114E+00    0.634E-02
DAV:   8    -0.120927361217E+03   -0.62972E-04   -0.18599E-03  3776   0.475E-01
  27 F= -.13504199E+03 E0= -.13503181E+03  d E =-.201414E-01  mag=     0.0000
       N       E                     dE             d eps       ncg     rms          rms(c)
DAV:   1    -0.120926161226E+03    0.11370E-02   -0.32563E-01  3712   0.118E+00    0.953E-02
DAV:   2    -0.120926881629E+03   -0.72040E-03   -0.77960E-03  5312   0.409E-01    0.844E-02
DAV:   3    -0.120927568033E+03   -0.68640E-03   -0.43286E-03  2768   0.109E+00    0.170E-01
DAV:   4    -0.120926865020E+03    0.70301E-03   -0.38780E-03  2592   0.969E-01    0.562E-02
DAV:   5    -0.120926970230E+03   -0.10521E-03   -0.65281E-04  2448   0.564E-01
  28 F= -.13504273E+03 E0= -.13503280E+03  d E =-.208873E-01  mag=     0.0000
       N       E                     dE             d eps       ncg     rms          rms(c)
DAV:   1    -0.120932397016E+03   -0.55320E-02   -0.12443E+00  3712   0.230E+00    0.202E-01
DAV:   2    -0.120935084128E+03   -0.26871E-02   -0.29089E-02  5440   0.952E-01    0.190E-01
DAV:   3    -0.120936841198E+03   -0.17571E-02   -0.14624E-02  4240   0.214E+00    0.310E-01
DAV:   4    -0.120936023984E+03    0.81721E-03   -0.16675E-02  3824   0.206E+00    0.236E-01
DAV:   5    -0.120934692472E+03    0.13315E-02   -0.56867E-03  2704   0.150E+00    0.867E-02
DAV:   6    -0.120934669668E+03    0.22803E-04   -0.84949E-04  2880   0.616E-01
  29 F= -.13505130E+03 E0= -.13504164E+03  d E =-.856292E-02  mag=     0.0000
       N       E                     dE             d eps       ncg     rms          rms(c)
DAV:   1    -0.120928970473E+03    0.57220E-02   -0.11235E+01  3712   0.675E+00    0.581E-01
DAV:   2    -0.120954622575E+03   -0.25652E-01   -0.27649E-01  5440   0.292E+00    0.608E-01
DAV:   3    -0.120967534782E+03   -0.12912E-01   -0.13970E-01  4368   0.593E+00    0.827E-01
DAV:   4    -0.120951525362E+03    0.16009E-01   -0.94482E-02  4800   0.465E+00    0.361E-01
DAV:   5    -0.120954776588E+03   -0.32512E-02   -0.15751E-02  4560   0.343E+00    0.464E-01
DAV:   6    -0.120951563920E+03    0.32127E-02   -0.22844E-02  4768   0.360E+00    0.289E-01
DAV:   7    -0.120949875002E+03    0.16889E-02   -0.67464E-03  4944   0.173E+00    0.637E-02
DAV:   8    -0.120950028134E+03   -0.15313E-03   -0.31437E-03  4208   0.523E-01    0.506E-02
DAV:   9    -0.120950113545E+03   -0.85412E-04   -0.11176E-03  3616   0.248E-01
  30 F= -.13506922E+03 E0= -.13506043E+03  d E =-.264842E-01  mag=     0.0000
       N       E                     dE             d eps       ncg     rms          rms(c)
DAV:   1    -0.120860578218E+03    0.89450E-01   -0.45126E+01  3712   0.135E+01    0.120E+00
DAV:   2    -0.120977420932E+03   -0.11684E+00   -0.11588E+00  6064   0.756E+00    0.145E+00
DAV:   3    -0.120995892469E+03   -0.18472E-01   -0.59669E-01  5216   0.119E+01    0.147E+00
DAV:   4    -0.120950940363E+03    0.44952E-01   -0.26999E-01  5152   0.807E+00    0.802E-01
DAV:   5    -0.120959291851E+03   -0.83515E-02   -0.37389E-02  4672   0.673E+00    0.884E-01
DAV:   6    -0.120953113630E+03    0.61782E-02   -0.94099E-02  4608   0.744E+00    0.700E-01
DAV:   7    -0.120942721018E+03    0.10393E-01   -0.34454E-02  5408   0.396E+00    0.144E-01
DAV:   8    -0.120943598443E+03   -0.87743E-03   -0.14563E-02  4584   0.119E+00    0.107E-01
DAV:   9    -0.120943902926E+03   -0.30448E-03   -0.49304E-03  4000   0.607E-01    0.624E-02
DAV:  10    -0.120943956566E+03   -0.53640E-04   -0.13349E-03  3760   0.359E-01
  31 F= -.13506693E+03 E0= -.13506011E+03  d E =-.241941E-01  mag=     0.0000
       N       E                     dE             d eps       ncg     rms          rms(c)
DAV:   1    -0.120927975666E+03    0.15927E-01   -0.15256E+01  3728   0.773E+00    0.716E-01
DAV:   2    -0.120957644127E+03   -0.29668E-01   -0.34618E-01  5120   0.250E+00    0.601E-01
DAV:   3    -0.120998776652E+03   -0.41133E-01   -0.23251E-01  4352   0.828E+00    0.131E+00
DAV:   4    -0.120953667146E+03    0.45110E-01   -0.18009E-01  4832   0.665E+00    0.285E-01
DAV:   5    -0.120954408594E+03   -0.74145E-03   -0.13940E-02  6576   0.215E+00    0.218E-01
DAV:   6    -0.120954460442E+03   -0.51848E-04   -0.94889E-03  4608   0.214E+00    0.220E-01
DAV:   7    -0.120953581005E+03    0.87944E-03   -0.48086E-03  4240   0.135E+00    0.841E-02
DAV:   8    -0.120953639664E+03   -0.58659E-04   -0.15550E-03  3776   0.431E-01
  32 F= -.13507458E+03 E0= -.13506664E+03  d E =-.318406E-01  mag=     0.0000
       N       E                     dE             d eps       ncg     rms          rms(c)
DAV:   1    -0.120961417240E+03   -0.78362E-02   -0.35202E+00  3744   0.373E+00    0.332E-01
DAV:   2    -0.120972726965E+03   -0.11310E-01   -0.89047E-02  6592   0.295E+00    0.527E-01
DAV:   3    -0.120968658917E+03    0.40680E-02   -0.55363E-02  6224   0.362E+00    0.328E-01
DAV:   4    -0.120969721069E+03   -0.10622E-02   -0.19073E-02  4320   0.263E+00    0.377E-01
DAV:   5    -0.120966779168E+03    0.29419E-02   -0.78860E-03  4416   0.223E+00    0.135E-01
DAV:   6    -0.120966948874E+03   -0.16971E-03   -0.34332E-03  4592   0.117E+00    0.132E-01
DAV:   7    -0.120966764044E+03    0.18483E-03   -0.16825E-03  4080   0.766E-01
  33 F= -.13508697E+03 E0= -.13507924E+03  d E =-.123934E-01  mag=     0.0000
       N       E                     dE             d eps       ncg     rms          rms(c)
DAV:   1    -0.120956397081E+03    0.10552E-01   -0.12447E+01  3744   0.706E+00    0.608E-01
DAV:   2    -0.120985561592E+03   -0.29165E-01   -0.28430E-01  6096   0.367E+00    0.702E-01
DAV:   3    -0.120991236765E+03   -0.56752E-02   -0.14792E-01  4704   0.615E+00    0.778E-01
DAV:   4    -0.120986961263E+03    0.42755E-02   -0.10294E-01  4416   0.534E+00    0.663E-01
DAV:   5    -0.120978562331E+03    0.83989E-02   -0.20722E-02  4624   0.407E+00    0.290E-01
DAV:   6    -0.120978531908E+03    0.30423E-04   -0.11362E-02  4816   0.235E+00    0.245E-01
DAV:   7    -0.120977878920E+03    0.65299E-03   -0.62311E-03  4288   0.151E+00    0.660E-02
DAV:   8    -0.120978102170E+03   -0.22325E-03   -0.29528E-03  3968   0.513E-01    0.483E-02
DAV:   9    -0.120978137836E+03   -0.35666E-04   -0.73425E-04  3328   0.256E-01
  34 F= -.13509687E+03 E0= -.13508954E+03  d E =-.222931E-01  mag=     0.0000
       N       E                     dE             d eps       ncg     rms          rms(c)
DAV:   1    -0.120984866412E+03   -0.67642E-02   -0.30561E+00  3728   0.354E+00    0.290E-01
DAV:   2    -0.120992799752E+03   -0.79333E-02   -0.75403E-02  6064   0.191E+00    0.358E-01
DAV:   3    -0.120993088772E+03   -0.28902E-03   -0.27848E-02  4496   0.287E+00    0.352E-01
DAV:   4    -0.120993020217E+03    0.68555E-04   -0.22351E-02  4304   0.262E+00    0.333E-01
DAV:   5    -0.120990774302E+03    0.22459E-02   -0.68889E-03  4224   0.189E+00    0.131E-01
DAV:   6    -0.120990850505E+03   -0.76203E-04   -0.27358E-03  4576   0.868E-01    0.100E-01
DAV:   7    -0.120990785866E+03    0.64639E-04   -0.14085E-03  3936   0.620E-01
  35 F= -.13510577E+03 E0= -.13509869E+03  d E =-.889806E-02  mag=     0.0000
       N       E                     dE             d eps       ncg     rms          rms(c)
DAV:   1    -0.120992231179E+03   -0.13807E-02   -0.12109E+00  3712   0.223E+00    0.184E-01
DAV:   2    -0.120995102176E+03   -0.28710E-02   -0.30592E-02  5360   0.936E-01    0.186E-01
DAV:   3    -0.120995391190E+03   -0.28901E-03   -0.43257E-03  4240   0.144E+00    0.195E-01
DAV:   4    -0.120995499187E+03   -0.10800E-03   -0.50716E-03  3536   0.143E+00    0.188E-01
DAV:   5    -0.120995250438E+03    0.24875E-03   -0.77548E-03  2560   0.155E+00    0.147E-01
DAV:   6    -0.120994778072E+03    0.47237E-03   -0.25912E-03  2584   0.997E-01    0.651E-02
DAV:   7    -0.120994728929E+03    0.49143E-04   -0.37526E-04  2608   0.385E-01
  36 F= -.13510748E+03 E0= -.13510051E+03  d E =-.106153E-01  mag=     0.0000
       N       E                     dE             d eps       ncg     rms          rms(c)
DAV:   1    -0.120994320939E+03    0.45713E-03   -0.29425E-02  3808   0.367E-01    0.383E-02
DAV:   2    -0.120994423155E+03   -0.10222E-03   -0.62732E-04  2848   0.404E-01
  37 F= -.13510752E+03 E0= -.13510058E+03  d E =-.106539E-01  mag=     0.0000
       N       E                     dE             d eps       ncg     rms          rms(c)
DAV:   1    -0.120994611356E+03   -0.29042E-03   -0.12031E-02  5328   0.509E-01    0.330E-02
DAV:   2    -0.120998358214E+03   -0.37469E-02   -0.14306E-02  2704   0.209E+00    0.347E-01
DAV:   3    -0.120994544044E+03    0.38142E-02   -0.12146E-02  2624   0.185E+00    0.186E-02
DAV:   4    -0.120994606348E+03   -0.62304E-04   -0.10733E-04  2352   0.194E-01
  38 F= -.13510749E+03 E0= -.13510048E+03  d E =-.106198E-01  mag=     0.0000
       N       E                     dE             d eps       ncg     rms          rms(c)
DAV:   1    -0.120994495329E+03    0.48715E-04   -0.29556E-03  5200   0.175E-01    0.121E-02
DAV:   2    -0.120994508494E+03   -0.13165E-04   -0.55292E-05  2416   0.148E-01
  39 F= -.13510750E+03 E0= -.13510057E+03  d E =-.106305E-01  mag=     0.0000
       N       E                     dE             d eps       ncg     rms          rms(c)
DAV:   1    -0.120994513539E+03   -0.18210E-04   -0.54117E-04  2448   0.173E-01    0.200E-02
DAV:   2    -0.120994669088E+03   -0.15555E-03   -0.68841E-04  2576   0.484E-01
  40 F= -.13510759E+03 E0= -.13510064E+03  d E =-.107214E-01  mag=     0.0000
       N       E                     dE             d eps       ncg     rms          rms(c)
DAV:   1    -0.120994534895E+03   -0.21356E-04   -0.87994E-04  2688   0.499E-01    0.332E-02
DAV:   2    -0.120997733807E+03   -0.31989E-02   -0.11807E-02  2640   0.193E+00    0.322E-01
DAV:   3    -0.120994477072E+03    0.32567E-02   -0.11012E-02  2528   0.174E+00    0.274E-02
DAV:   4    -0.120994513947E+03   -0.36875E-04   -0.80711E-05  2336   0.225E-01
  41 F= -.13510749E+03 E0= -.13510055E+03  d E =-.106260E-01  mag=     0.0000
       N       E                     dE             d eps       ncg     rms          rms(c)
DAV:   1    -0.120994538919E+03   -0.61846E-04   -0.76525E-05  2480   0.996E-02    0.648E-03
DAV:   2    -0.120994544035E+03   -0.51164E-05   -0.41465E-05  2000   0.856E-02
  42 F= -.13510749E+03 E0= -.13510054E+03  d E =-.106262E-01  mag=     0.0000
       N       E                     dE             d eps       ncg     rms          rms(c)
DAV:   1    -0.120994532207E+03    0.67113E-05   -0.22122E-05  2032   0.788E-02    0.475E-03
DAV:   2    -0.120994559269E+03   -0.27062E-04   -0.79664E-05  2288   0.192E-01
  43 F= -.13510752E+03 E0= -.13510057E+03  d E =-.106544E-01  mag=     0.0000
       N       E                     dE             d eps       ncg     rms          rms(c)
DAV:   1    -0.120998265137E+03   -0.37329E-02   -0.25455E-01  3728   0.108E+00    0.611E-02
DAV:   2    -0.120999138125E+03   -0.87299E-03   -0.53836E-03  5376   0.864E-01    0.147E-01
DAV:   3    -0.120998717070E+03    0.42106E-03   -0.42287E-03  4496   0.977E-01    0.714E-02
DAV:   4    -0.120998733932E+03   -0.16862E-04   -0.60288E-04  2400   0.477E-01
  44 F= -.13510952E+03 E0= -.13510264E+03  d E =-.199653E-02  mag=     0.0000
       N       E                     dE             d eps       ncg     rms          rms(c)
DAV:   1    -0.121004928815E+03   -0.62117E-02   -0.22828E+00  3728   0.322E+00    0.200E-01
DAV:   2    -0.121010852640E+03   -0.59238E-02   -0.51650E-02  6400   0.180E+00    0.326E-01
DAV:   3    -0.121009500079E+03    0.13526E-02   -0.20915E-02  5360   0.226E+00    0.208E-01
DAV:   4    -0.121009202325E+03    0.29775E-03   -0.38303E-03  4048   0.108E+00    0.150E-01
DAV:   5    -0.121009485233E+03   -0.28291E-03   -0.32565E-03  4144   0.131E+00    0.173E-01
DAV:   6    -0.121009094192E+03    0.39104E-03   -0.20482E-03  4160   0.107E+00    0.104E-01
DAV:   7    -0.121008966686E+03    0.12751E-03   -0.76040E-04  3488   0.581E-01
  45 F= -.13511324E+03 E0= -.13510634E+03  d E =-.571858E-02  mag=     0.0000
       N       E                     dE             d eps       ncg     rms          rms(c)
DAV:   1    -0.121002463501E+03    0.66307E-02   -0.91356E+00  3744   0.640E+00    0.357E-01
DAV:   2    -0.121021743970E+03   -0.19280E-01   -0.19461E-01  5520   0.245E+00    0.449E-01
DAV:   3    -0.121024531645E+03   -0.27877E-02   -0.57502E-02  4320   0.385E+00    0.486E-01
DAV:   4    -0.121021505414E+03    0.30262E-02   -0.35611E-02  4368   0.308E+00    0.328E-01
DAV:   5    -0.121020191690E+03    0.13137E-02   -0.92931E-03  4384   0.212E+00    0.237E-01
DAV:   6    -0.121019940909E+03    0.25078E-03   -0.46528E-03  5648   0.150E+00    0.170E-01
DAV:   7    -0.121019558609E+03    0.38230E-03   -0.32121E-03  4184   0.124E+00    0.680E-02
DAV:   8    -0.121019582697E+03   -0.24087E-04   -0.13218E-03  3808   0.389E-01
  46 F= -.13511095E+03 E0= -.13510417E+03  d E =-.342793E-02  mag=     0.0000
       N       E                     dE             d eps       ncg     rms          rms(c)
DAV:   1    -0.121005547530E+03    0.14011E-01   -0.46503E+00  3728   0.456E+00    0.260E-01
DAV:   2    -0.121017550053E+03   -0.12003E-01   -0.10084E-01  6640   0.282E+00    0.481E-01
DAV:   3    -0.121014459359E+03    0.30907E-02   -0.42227E-02  5728   0.326E+00    0.274E-01
DAV:   4    -0.121014186247E+03    0.27311E-03   -0.10027E-02  4272   0.175E+00    0.245E-01
DAV:   5    -0.121013598948E+03    0.58730E-03   -0.48026E-03  4208   0.149E+00    0.172E-01
DAV:   6    -0.121013519793E+03    0.79155E-04   -0.31854E-03  4192   0.107E+00    0.137E-01
DAV:   7    -0.121013382000E+03    0.13779E-03   -0.17886E-03  4128   0.764E-01
  47 F= -.13511394E+03 E0= -.13510712E+03  d E =-.641973E-02  mag=     0.0000
       N       E                     dE             d eps       ncg     rms          rms(c)
DAV:   1    -0.121020746672E+03   -0.72269E-02   -0.77996E-01  3824   0.185E+00    0.107E-01
DAV:   2    -0.121022872334E+03   -0.21257E-02   -0.17366E-02  6624   0.123E+00    0.213E-01
DAV:   3    -0.121022092720E+03    0.77961E-03   -0.83315E-03  4896   0.142E+00    0.108E-01
DAV:   4    -0.121021947184E+03    0.14554E-03   -0.10782E-03  3152   0.468E-01
  48 F= -.13511642E+03 E0= -.13510965E+03  d E =-.248157E-02  mag=     0.0000
       N       E                     dE             d eps       ncg     rms          rms(c)
DAV:   1    -0.121030016474E+03   -0.79238E-02   -0.69962E+00  3824   0.552E+00    0.338E-01
DAV:   2    -0.121048582586E+03   -0.18566E-01   -0.15259E-01  6544   0.335E+00    0.598E-01
DAV:   3    -0.121044156269E+03    0.44263E-02   -0.69289E-02  5888   0.394E+00    0.381E-01
DAV:   4    -0.121043598125E+03    0.55814E-03   -0.26473E-02  4512   0.275E+00    0.369E-01
DAV:   5    -0.121041595510E+03    0.20026E-02   -0.74565E-03  4384   0.174E+00    0.189E-01
DAV:   6    -0.121041870674E+03   -0.27516E-03   -0.43445E-03  4640   0.138E+00    0.185E-01
DAV:   7    -0.121041520949E+03    0.34973E-03   -0.32150E-03  4160   0.121E+00    0.689E-02
DAV:   8    -0.121041525935E+03   -0.49864E-05   -0.12414E-03  3616   0.418E-01
  49 F= -.13511796E+03 E0= -.13511152E+03  d E =-.402243E-02  mag=     0.0000
       N       E                     dE             d eps       ncg     rms          rms(c)
DAV:   1    -0.121036105226E+03    0.54157E-02   -0.56495E-01  3808   0.157E+00    0.920E-02
DAV:   2    -0.121037057096E+03   -0.95187E-03   -0.10446E-02  5344   0.521E-01    0.103E-01
DAV:   3    -0.121037174801E+03   -0.11770E-03   -0.18094E-03  3248   0.764E-01
  50 F= -.13511870E+03 E0= -.13511224E+03  d E =-.475745E-02  mag=     0.0000
       N       E                     dE             d eps       ncg     rms          rms(c)
DAV:   1    -0.121039974335E+03   -0.29172E-02   -0.10840E-01  5312   0.993E-01    0.706E-02
DAV:   2    -0.121051759192E+03   -0.11785E-01   -0.49783E-02  3728   0.369E+00    0.624E-01
DAV:   3    -0.121039982110E+03    0.11777E-01   -0.46028E-02  2992   0.322E+00    0.729E-02
DAV:   4    -0.121039984673E+03   -0.25622E-05   -0.63931E-04  2480   0.553E-01
  51 F= -.13511928E+03 E0= -.13511282E+03  d E =-.584641E-03  mag=     0.0000
       N       E                     dE             d eps       ncg     rms          rms(c)
DAV:   1    -0.121045070784E+03   -0.50887E-02   -0.38708E-01  3856   0.130E+00    0.709E-02
DAV:   2    -0.121045825892E+03   -0.75511E-03   -0.77597E-03  5608   0.507E-01    0.918E-02
DAV:   3    -0.121045933373E+03   -0.10748E-03   -0.25353E-03  3184   0.810E-01    0.102E-01
DAV:   4    -0.121045725402E+03    0.20797E-03   -0.98176E-04  2416   0.526E-01    0.477E-02
DAV:   5    -0.121045798472E+03   -0.73070E-04   -0.29600E-04  2472   0.408E-01
  52 F= -.13512090E+03 E0= -.13511430E+03  d E =-.219885E-02  mag=     0.0000
       N       E                     dE             d eps       ncg     rms          rms(c)
DAV:   1    -0.121053854754E+03   -0.81294E-02   -0.15352E+00  3872   0.261E+00    0.146E-01
DAV:   2    -0.121057007419E+03   -0.31527E-02   -0.29751E-02  5840   0.117E+00    0.192E-01
DAV:   3    -0.121056758611E+03    0.24881E-03   -0.54653E-03  4112   0.142E+00    0.164E-01
DAV:   4    -0.121057068368E+03   -0.30976E-03   -0.52857E-03  3616   0.116E+00    0.177E-01
DAV:   5    -0.121056533902E+03    0.53447E-03   -0.45521E-03  3184   0.112E+00    0.955E-02
DAV:   6    -0.121056521834E+03    0.12068E-04   -0.97126E-04  2704   0.718E-01
  53 F= -.13512324E+03 E0= -.13511681E+03  d E =-.454243E-02  mag=     0.0000
       N       E                     dE             d eps       ncg     rms          rms(c)
DAV:   1    -0.121064952415E+03   -0.84185E-02   -0.61318E+00  3840   0.516E+00    0.272E-01
DAV:   2    -0.121078350994E+03   -0.13399E-01   -0.12345E-01  6272   0.251E+00    0.439E-01
DAV:   3    -0.121077404423E+03    0.94657E-03   -0.44086E-02  5600   0.329E+00    0.326E-01
DAV:   4    -0.121075907899E+03    0.14965E-02   -0.12790E-02  4432   0.188E+00    0.229E-01
DAV:   5    -0.121075729848E+03    0.17805E-03   -0.43767E-03  4240   0.144E+00    0.198E-01
DAV:   6    -0.121075468066E+03    0.26178E-03   -0.39976E-03  4272   0.135E+00    0.138E-01
DAV:   7    -0.121075350160E+03    0.11791E-03   -0.19347E-03  4224   0.711E-01
  54 F= -.13512539E+03 E0= -.13511905E+03  d E =-.669252E-02  mag=    -0.0000
       N       E                     dE             d eps       ncg     rms          rms(c)
DAV:   1    -0.121078461905E+03   -0.29938E-02   -0.12354E-01  4352   0.855E-01    0.443E-02
DAV:   2    -0.121079135740E+03   -0.67384E-03   -0.33712E-03  3600   0.101E+00    0.148E-01
DAV:   3    -0.121078671441E+03    0.46430E-03   -0.44682E-03  3968   0.103E+00    0.611E-02
DAV:   4    -0.121078634265E+03    0.37176E-04   -0.46628E-04  2288   0.356E-01
  55 F= -.13512676E+03 E0= -.13512051E+03  d E =-.136666E-02  mag=    -0.0000
       N       E                     dE             d eps       ncg     rms          rms(c)
DAV:   1    -0.121085493375E+03   -0.68219E-02   -0.10069E+00  3904   0.216E+00    0.103E-01
DAV:   2    -0.121087489243E+03   -0.19959E-02   -0.19717E-02  5760   0.832E-01    0.151E-01
DAV:   3    -0.121087556344E+03   -0.67101E-04   -0.49581E-03  4016   0.111E+00    0.136E-01
DAV:   4    -0.121087327318E+03    0.22903E-03   -0.23489E-03  3280   0.831E-01    0.956E-02
DAV:   5    -0.121087282970E+03    0.44348E-04   -0.60552E-04  2576   0.509E-01
  56 F= -.13512996E+03 E0= -.13512371E+03  d E =-.456825E-02  mag=     0.0000
       N       E                     dE             d eps       ncg     rms          rms(c)
DAV:   1    -0.121092907985E+03   -0.55807E-02   -0.40109E+00  3888   0.431E+00    0.204E-01
DAV:   2    -0.121100222009E+03   -0.73140E-02   -0.74739E-02  5704   0.150E+00    0.248E-01
DAV:   3    -0.121101459563E+03   -0.12376E-02   -0.20825E-02  4320   0.233E+00    0.308E-01
DAV:   4    -0.121099901063E+03    0.15585E-02   -0.10045E-02  4000   0.155E+00    0.165E-01
DAV:   5    -0.121099945209E+03   -0.44146E-04   -0.21103E-03  3664   0.948E-01    0.152E-01
DAV:   6    -0.121100019342E+03   -0.74133E-04   -0.28130E-03  4016   0.127E+00    0.154E-01
DAV:   7    -0.121099545708E+03    0.47363E-03   -0.14505E-03  4032   0.861E-01    0.220E-02
DAV:   8    -0.121099589784E+03   -0.44076E-04   -0.58279E-04  2752   0.201E-01
  57 F= -.13513148E+03 E0= -.13512506E+03  d E =-.609000E-02  mag=    -0.0000
       N       E                     dE             d eps       ncg     rms          rms(c)
DAV:   1    -0.121095596547E+03    0.39492E-02   -0.41870E-01  3904   0.139E+00    0.629E-02
DAV:   2    -0.121096591345E+03   -0.99480E-03   -0.87095E-03  6512   0.758E-01    0.132E-01
DAV:   3    -0.121096339682E+03    0.25166E-03   -0.29893E-03  3536   0.848E-01    0.707E-02
DAV:   4    -0.121096292292E+03    0.47391E-04   -0.41633E-04  2304   0.273E-01
  58 F= -.13513166E+03 E0= -.13512530E+03  d E =-.626667E-02  mag=    -0.0000
       N       E                     dE             d eps       ncg     rms          rms(c)
DAV:   1    -0.121100987976E+03   -0.46483E-02   -0.31293E-01  3904   0.122E+00    0.680E-02
DAV:   2    -0.121102973475E+03   -0.19855E-02   -0.10262E-02  6512   0.148E+00    0.238E-01
DAV:   3    -0.121101629410E+03    0.13441E-02   -0.86731E-03  3200   0.155E+00    0.100E-01
DAV:   4    -0.121101522389E+03    0.10702E-03   -0.21442E-03  3536   0.757E-01    0.679E-02
DAV:   5    -0.121101484991E+03    0.37398E-04   -0.49516E-04  2544   0.308E-01
  59 F= -.13513343E+03 E0= -.13512698E+03  d E =-.176871E-02  mag=    -0.0000
       N       E                     dE             d eps       ncg     rms          rms(c)
DAV:   1    -0.121106225624E+03   -0.47032E-02   -0.27442E+00  3888   0.355E+00    0.180E-01
DAV:   2    -0.121111646997E+03   -0.54214E-02   -0.54523E-02  5712   0.131E+00    0.245E-01
DAV:   3    -0.121111632276E+03    0.14721E-04   -0.11511E-02  4288   0.168E+00    0.217E-01
DAV:   4    -0.121111474763E+03    0.15751E-03   -0.73629E-03  4000   0.141E+00    0.183E-01
DAV:   5    -0.121111011104E+03    0.46366E-03   -0.29773E-03  2992   0.107E+00    0.128E-01
DAV:   6    -0.121110898028E+03    0.11308E-03   -0.11159E-03  3648   0.762E-01
  60 F= -.13513292E+03 E0= -.13512674E+03  d E =-.126341E-02  mag=    -0.0000
       N       E                     dE             d eps       ncg     rms          rms(c)
DAV:   1    -0.121105447609E+03    0.55635E-02   -0.84551E-01  3904   0.205E+00    0.107E-01
DAV:   2    -0.121108898467E+03   -0.34509E-02   -0.24104E-02  6880   0.173E+00    0.295E-01
DAV:   3    -0.121107023553E+03    0.18749E-02   -0.14332E-02  5888   0.182E+00    0.121E-01
DAV:   4    -0.121106890803E+03    0.13275E-03   -0.12512E-03  2960   0.619E-01
  61 F= -.13513438E+03 E0= -.13512789E+03  d E =-.272432E-02  mag=    -0.0000
       N       E                     dE             d eps       ncg     rms          rms(c)
DAV:   1    -0.121105905691E+03    0.11179E-02   -0.26734E-02  5568   0.634E-01    0.920E-02
DAV:   2    -0.121107318914E+03   -0.14132E-02   -0.38994E-03  3984   0.154E+00    0.243E-01
DAV:   3    -0.121105812201E+03    0.15067E-02   -0.29741E-03  2784   0.138E+00    0.504E-02
DAV:   4    -0.121106642328E+03   -0.83013E-03   -0.38935E-03  2688   0.102E+00    0.172E-01
DAV:   5    -0.121105786257E+03    0.85607E-03   -0.40687E-03  2432   0.100E+00    0.365E-02
DAV:   6    -0.121105778977E+03    0.72803E-05   -0.19037E-04  2304   0.218E-01
  62 F= -.13513425E+03 E0= -.13512780E+03  d E =-.259084E-02  mag=    -0.0000
       N       E                     dE             d eps       ncg     rms          rms(c)
DAV:   1    -0.121106256595E+03   -0.47034E-03   -0.53937E-03  4112   0.175E-01    0.162E-02
DAV:   2    -0.121106286832E+03   -0.30238E-04   -0.17877E-04  2240   0.243E-01
  63 F= -.13513433E+03 E0= -.13512786E+03  d E =-.266613E-02  mag=    -0.0000
       N       E                     dE             d eps       ncg     rms          rms(c)
DAV:   1    -0.121108106345E+03   -0.18498E-02   -0.68360E-02  4352   0.633E-01    0.303E-02
DAV:   2    -0.121110321486E+03   -0.22151E-02   -0.10039E-02  2656   0.157E+00    0.273E-01
DAV:   3    -0.121108078004E+03    0.22435E-02   -0.81082E-03  2496   0.139E+00    0.197E-02
DAV:   4    -0.121108171832E+03   -0.93828E-04   -0.62720E-04  2928   0.254E-01
  64 F= -.13513486E+03 E0= -.13512850E+03  d E =-.530289E-03  mag=    -0.0000
       N       E                     dE             d eps       ncg     rms          rms(c)
DAV:   1    -0.121112126525E+03   -0.40485E-02   -0.43452E-01  3984   0.142E+00    0.588E-02
DAV:   2    -0.121113828417E+03   -0.17019E-02   -0.11392E-02  6720   0.120E+00    0.207E-01
DAV:   3    -0.121112821485E+03    0.10069E-02   -0.57831E-03  4080   0.116E+00    0.718E-02
DAV:   4    -0.121112831087E+03   -0.96026E-05   -0.70790E-04  2928   0.335E-01
  65 F= -.13513610E+03 E0= -.13512978E+03  d E =-.177485E-02  mag=    -0.0000
       N       E                     dE             d eps       ncg     rms          rms(c)
DAV:   1    -0.121118134695E+03   -0.53132E-02   -0.17173E+00  3984   0.280E+00    0.123E-01
DAV:   2    -0.121121436385E+03   -0.33017E-02   -0.32647E-02  5872   0.102E+00    0.194E-01
DAV:   3    -0.121121162552E+03    0.27383E-03   -0.64389E-03  4320   0.118E+00    0.138E-01
DAV:   4    -0.121121029368E+03    0.13318E-03   -0.13093E-03  3312   0.572E-01
  66 F= -.13513749E+03 E0= -.13513122E+03  d E =-.316374E-02  mag=    -0.0000
       N       E                     dE             d eps       ncg     rms          rms(c)
DAV:   1    -0.121124319700E+03   -0.31571E-02   -0.25909E-01  5280   0.130E+00    0.149E-01
DAV:   2    -0.121130384923E+03   -0.60652E-02   -0.15466E-02  4640   0.305E+00    0.494E-01
DAV:   3    -0.121124070132E+03    0.63148E-02   -0.12595E-02  4160   0.269E+00    0.856E-02
DAV:   4    -0.121125395929E+03   -0.13258E-02   -0.76123E-03  2768   0.138E+00    0.231E-01
DAV:   5    -0.121124024487E+03    0.13714E-02   -0.68786E-03  2784   0.135E+00    0.688E-02
DAV:   6    -0.121123968250E+03    0.56237E-04   -0.50201E-04  2688   0.456E-01
  67 F= -.13513796E+03 E0= -.13513175E+03  d E =-.469727E-03  mag=    -0.0000
       N       E                     dE             d eps       ncg     rms          rms(c)
DAV:   1    -0.121126362106E+03   -0.23376E-02   -0.28095E-01  3904   0.115E+00    0.471E-02
DAV:   2    -0.121126995583E+03   -0.63348E-03   -0.57390E-03  5520   0.482E-01    0.810E-02
DAV:   3    -0.121126921025E+03    0.74558E-04   -0.10872E-03  2560   0.569E-01
  68 F= -.13513834E+03 E0= -.13513217E+03  d E =-.851562E-03  mag=    -0.0000
       N       E                     dE             d eps       ncg     rms          rms(c)
DAV:   1    -0.121126053127E+03    0.94246E-03   -0.27732E-02  5504   0.562E-01    0.466E-02
DAV:   2    -0.121130720628E+03   -0.46675E-02   -0.19968E-02  2688   0.235E+00    0.400E-01
DAV:   3    -0.121126078244E+03    0.46424E-02   -0.19100E-02  2576   0.209E+00    0.572E-02
DAV:   4    -0.121126022952E+03    0.55292E-04   -0.30475E-04  2320   0.377E-01
  69 F= -.13513825E+03 E0= -.13513210E+03  d E =-.761369E-03  mag=    -0.0000
       N       E                     dE             d eps       ncg     rms          rms(c)
DAV:   1    -0.121126569278E+03   -0.49103E-03   -0.11313E-02  4016   0.256E-01    0.172E-02
DAV:   2    -0.121126580965E+03   -0.11686E-04   -0.12995E-04  2416   0.146E-01
  70 F= -.13513829E+03 E0= -.13513214E+03  d E =-.803062E-03  mag=    -0.0000
       N       E                     dE             d eps       ncg     rms          rms(c)
DAV:   1    -0.121128289058E+03   -0.17198E-02   -0.64956E-02  4064   0.606E-01    0.394E-02
DAV:   2    -0.121130936980E+03   -0.26479E-02   -0.11896E-02  2688   0.176E+00    0.303E-01
DAV:   3    -0.121128279641E+03    0.26573E-02   -0.11049E-02  2544   0.162E+00    0.311E-02
DAV:   4    -0.121128322032E+03   -0.42391E-04   -0.38819E-04  2432   0.252E-01
  71 F= -.13513864E+03 E0= -.13513253E+03  d E =-.352728E-03  mag=    -0.0000
       N       E                     dE             d eps       ncg     rms          rms(c)
DAV:   1    -0.121131764582E+03   -0.34849E-02   -0.34907E-01  3904   0.128E+00    0.586E-02
DAV:   2    -0.121132592382E+03   -0.82780E-03   -0.69411E-03  6432   0.744E-01    0.124E-01
DAV:   3    -0.121132370321E+03    0.22206E-03   -0.16464E-03  2880   0.702E-01    0.761E-02
DAV:   4    -0.121132339931E+03    0.30390E-04   -0.70661E-04  2400   0.412E-01
  72 F= -.13513944E+03 E0= -.13513340E+03  d E =-.114981E-02  mag=    -0.0000
       N       E                     dE             d eps       ncg     rms          rms(c)
DAV:   1    -0.121137012028E+03   -0.46417E-02   -0.13796E+00  3888   0.253E+00    0.123E-01
DAV:   2    -0.121139435738E+03   -0.24237E-02   -0.26114E-02  5248   0.715E-01    0.139E-01
DAV:   3    -0.121139539031E+03   -0.10329E-03   -0.27785E-03  4032   0.880E-01    0.144E-01
DAV:   4    -0.121139466617E+03    0.72414E-04   -0.30384E-03  2560   0.886E-01    0.123E-01
DAV:   5    -0.121139380915E+03    0.85701E-04   -0.18837E-03  2528   0.806E-01
  73 F= -.13514008E+03 E0= -.13513403E+03  d E =-.178987E-02  mag=    -0.0000
       N       E                     dE             d eps       ncg     rms          rms(c)
DAV:   1    -0.121137059291E+03    0.24073E-02   -0.15108E-01  5376   0.111E+00    0.829E-02
DAV:   2    -0.121138197078E+03   -0.11378E-02   -0.41972E-03  4176   0.167E+00    0.223E-01
DAV:   3    -0.121137454119E+03    0.74296E-03   -0.56476E-03  3472   0.149E+00    0.138E-01
DAV:   4    -0.121137180963E+03    0.27316E-03   -0.38110E-03  2560   0.107E+00    0.894E-02
DAV:   5    -0.121136992765E+03    0.18820E-03   -0.73503E-04  2432   0.467E-01
  74 F= -.13513980E+03 E0= -.13513381E+03  d E =-.151269E-02  mag=    -0.0000
       N       E                     dE             d eps       ncg     rms          rms(c)
DAV:   1    -0.121138078259E+03   -0.89730E-03   -0.41383E-02  3952   0.457E-01    0.202E-02
DAV:   2    -0.121138178937E+03   -0.10068E-03   -0.49153E-04  2720   0.378E-01
  75 F= -.13513988E+03 E0= -.13513388E+03  d E =-.158760E-02  mag=    -0.0000
       N       E                     dE             d eps       ncg     rms          rms(c)
DAV:   1    -0.121137548509E+03    0.52975E-03   -0.12126E-02  5552   0.444E-01    0.259E-02
DAV:   2    -0.121139900113E+03   -0.23516E-02   -0.10642E-02  2576   0.166E+00    0.282E-01
DAV:   3    -0.121137529230E+03    0.23709E-02   -0.89199E-03  2544   0.147E+00    0.212E-02
DAV:   4    -0.121137541753E+03   -0.12524E-04   -0.72873E-05  2288   0.161E-01
  76 F= -.13513984E+03 E0= -.13513387E+03  d E =-.154566E-02  mag=    -0.0000
       N       E                     dE             d eps       ncg     rms          rms(c)
DAV:   1    -0.121137860292E+03   -0.33106E-03   -0.30326E-03  5104   0.154E-01    0.117E-02
DAV:   2    -0.121137899799E+03   -0.39507E-04   -0.17943E-04  2336   0.243E-01
  77 F= -.13513990E+03 E0= -.13513392E+03  d E =-.160603E-02  mag=    -0.0000
       N       E                     dE             d eps       ncg     rms          rms(c)
DAV:   1    -0.121140468320E+03   -0.26080E-02   -0.13798E-01  3952   0.832E-01    0.345E-02
DAV:   2    -0.121140884296E+03   -0.41598E-03   -0.22711E-03  2832   0.654E-01    0.123E-01
DAV:   3    -0.121140635040E+03    0.24926E-03   -0.29659E-03  4480   0.709E-01    0.324E-02
DAV:   4    -0.121140687016E+03   -0.51976E-04   -0.60245E-04  2848   0.191E-01
  78 F= -.13514028E+03 E0= -.13513436E+03  d E =-.379323E-03  mag=    -0.0000
       N       E                     dE             d eps       ncg     rms          rms(c)
DAV:   1    -0.121147046256E+03   -0.64112E-02   -0.12416E+00  3904   0.238E+00    0.103E-01
DAV:   2    -0.121149457412E+03   -0.24112E-02   -0.22156E-02  6112   0.992E-01    0.173E-01
DAV:   3    -0.121149136133E+03    0.32128E-03   -0.38624E-03  4096   0.103E+00    0.119E-01
DAV:   4    -0.121149155357E+03   -0.19225E-04   -0.21180E-03  3376   0.714E-01    0.114E-01
DAV:   5    -0.121149030383E+03    0.12497E-03   -0.10573E-03  2512   0.546E-01
  79 F= -.13514142E+03 E0= -.13513555E+03  d E =-.152302E-02  mag=    -0.0000
       N       E                     dE             d eps       ncg     rms          rms(c)
DAV:   1    -0.121156091541E+03   -0.69362E-02   -0.49539E+00  3904   0.477E+00    0.202E-01
DAV:   2    -0.121164818639E+03   -0.87271E-02   -0.89104E-02  5280   0.138E+00    0.246E-01
DAV:   3    -0.121165599481E+03   -0.78084E-03   -0.12425E-02  4208   0.176E+00    0.282E-01
DAV:   4    -0.121164686135E+03    0.91335E-03   -0.10439E-02  4096   0.166E+00    0.184E-01
DAV:   5    -0.121164506251E+03    0.17988E-03   -0.27699E-03  3296   0.103E+00    0.163E-01
DAV:   6    -0.121164331685E+03    0.17457E-03   -0.15956E-03  2832   0.948E-01
  80 F= -.13514244E+03 E0= -.13513677E+03  d E =-.254161E-02  mag=    -0.0000
       N       E                     dE             d eps       ncg     rms          rms(c)
DAV:   1    -0.121153661620E+03    0.10845E-01   -0.14394E+00  3920   0.275E+00    0.113E-01
DAV:   2    -0.121159390251E+03   -0.57286E-02   -0.36345E-02  6880   0.229E+00    0.349E-01
DAV:   3    -0.121156677608E+03    0.27126E-02   -0.17564E-02  5936   0.224E+00    0.175E-01
DAV:   4    -0.121156239433E+03    0.43817E-03   -0.38349E-03  3808   0.960E-01    0.110E-01
DAV:   5    -0.121156244960E+03   -0.55267E-05   -0.14865E-03  3872   0.418E-01
  81 F= -.13514205E+03 E0= -.13513630E+03  d E =-.214954E-02  mag=    -0.0000
       N       E                     dE             d eps       ncg     rms          rms(c)
DAV:   1    -0.121160905703E+03   -0.46663E-02   -0.46693E-01  3872   0.148E+00    0.802E-02
DAV:   2    -0.121163816518E+03   -0.29108E-02   -0.15368E-02  6832   0.173E+00    0.290E-01
DAV:   3    -0.121162117227E+03    0.16993E-02   -0.13885E-02  4656   0.184E+00    0.131E-01
DAV:   4    -0.121161771495E+03    0.34573E-03   -0.33748E-03  2976   0.103E+00    0.807E-02
DAV:   5    -0.121161719060E+03    0.52436E-04   -0.88286E-04  3344   0.465E-01
  82 F= -.13514278E+03 E0= -.13513694E+03  d E =-.730522E-03  mag=    -0.0000
       N       E                     dE             d eps       ncg     rms          rms(c)
DAV:   1    -0.121166736709E+03   -0.49652E-02   -0.10394E+00  3856   0.218E+00    0.108E-01
DAV:   2    -0.121168972976E+03   -0.22363E-02   -0.21077E-02  6208   0.959E-01    0.174E-01
DAV:   3    -0.121168656387E+03    0.31659E-03   -0.55853E-03  4320   0.113E+00    0.123E-01
DAV:   4    -0.121168538178E+03    0.11821E-03   -0.11639E-03  3360   0.511E-01
  83 F= -.13514257E+03 E0= -.13513670E+03  d E =-.520798E-03  mag=    -0.0000
       N       E                     dE             d eps       ncg     rms          rms(c)
DAV:   1    -0.121164550006E+03    0.41064E-02   -0.32164E-01  4464   0.137E+00    0.868E-02
DAV:   2    -0.121169947813E+03   -0.53978E-02   -0.15265E-02  5856   0.268E+00    0.423E-01
DAV:   3    -0.121164844041E+03    0.51038E-02   -0.94146E-03  4448   0.229E+00    0.438E-02
DAV:   4    -0.121165058650E+03   -0.21461E-03   -0.20658E-03  2960   0.682E-01    0.951E-02
DAV:   5    -0.121164884709E+03    0.17394E-03   -0.10151E-03  2512   0.499E-01
  84 F= -.13514281E+03 E0= -.13513702E+03  d E =-.761416E-03  mag=    -0.0000
       N       E                     dE             d eps       ncg     rms          rms(c)
DAV:   1    -0.121166808181E+03   -0.17495E-02   -0.70835E-02  3904   0.586E-01    0.236E-02
DAV:   2    -0.121166917927E+03   -0.10975E-03   -0.69399E-04  2752   0.322E-01
  85 F= -.13514307E+03 E0= -.13513730E+03  d E =-.257008E-03  mag=    -0.0000
       N       E                     dE             d eps       ncg     rms          rms(c)
DAV:   1    -0.121166674697E+03    0.13348E-03   -0.21391E-03  4624   0.433E-01    0.270E-02
DAV:   2    -0.121167832519E+03   -0.11578E-02   -0.51481E-03  2512   0.119E+00    0.203E-01
DAV:   3    -0.121166676409E+03    0.11561E-02   -0.50124E-03  2544   0.110E+00    0.232E-02
DAV:   4    -0.121166680458E+03   -0.40490E-05   -0.10272E-04  2272   0.178E-01
  86 F= -.13514306E+03 E0= -.13513723E+03  d E =-.246374E-03  mag=    -0.0000
       N       E                     dE             d eps       ncg     rms          rms(c)
DAV:   1    -0.121166878735E+03   -0.20233E-03   -0.45733E-04  2720   0.135E-01    0.183E-02
DAV:   2    -0.121167004651E+03   -0.12592E-03   -0.65776E-04  2432   0.424E-01
  87 F= -.13514317E+03 E0= -.13513727E+03  d E =-.365512E-03  mag=    -0.0000
       N       E                     dE             d eps       ncg     rms          rms(c)
DAV:   1    -0.121166807188E+03    0.71547E-04   -0.77711E-04  2512   0.458E-01    0.282E-02
DAV:   2    -0.121168716942E+03   -0.19098E-02   -0.84385E-03  2624   0.148E+00    0.253E-01
DAV:   3    -0.121166801731E+03    0.19152E-02   -0.78596E-03  2464   0.137E+00    0.289E-02
DAV:   4    -0.121166798227E+03    0.35038E-05   -0.11715E-04  2288   0.239E-01
  88 F= -.13514308E+03 E0= -.13513728E+03  d E =-.271903E-03  mag=    -0.0000
       N       E                     dE             d eps       ncg     rms          rms(c)
DAV:   1    -0.121166852170E+03   -0.50439E-04   -0.31835E-05  2256   0.915E-02    0.589E-03
DAV:   2    -0.121166859804E+03   -0.76346E-05   -0.32520E-05  2048   0.114E-01
  89 F= -.13514309E+03 E0= -.13513723E+03  d E =-.277072E-03  mag=    -0.0000
       N       E                     dE             d eps       ncg     rms          rms(c)
DAV:   1    -0.121166846945E+03    0.52252E-05   -0.52182E-05  2176   0.124E-01    0.101E-02
DAV:   2    -0.121166951054E+03   -0.10411E-03   -0.43858E-04  2432   0.369E-01
  90 F= -.13514319E+03 E0= -.13513728E+03  d E =-.378425E-03  mag=    -0.0000
       N       E                     dE             d eps       ncg     rms          rms(c)
DAV:   1    -0.121166958707E+03   -0.11176E-03   -0.12412E-03  2656   0.372E-01    0.237E-02
DAV:   2    -0.121167585427E+03   -0.62672E-03   -0.27920E-03  2640   0.889E-01    0.150E-01
DAV:   3    -0.121166978742E+03    0.60668E-03   -0.27196E-03  2560   0.831E-01    0.291E-02
DAV:   4    -0.121166975625E+03    0.31172E-05   -0.18455E-04  2304   0.205E-01
  91 F= -.13514329E+03 E0= -.13513741E+03  d E =-.101426E-03  mag=    -0.0000
       N       E                     dE             d eps       ncg     rms          rms(c)
DAV:   1    -0.121167077226E+03   -0.98484E-04   -0.13906E-03  4400   0.123E-01    0.163E-02
DAV:   2    -0.121167254709E+03   -0.17748E-03   -0.81738E-04  2416   0.474E-01
  92 F= -.13514361E+03 E0= -.13513778E+03  d E =-.419619E-03  mag=    -0.0000
       N       E                     dE             d eps       ncg     rms          rms(c)
DAV:   1    -0.121167052970E+03    0.24255E-04   -0.14979E-03  2640   0.458E-01    0.243E-02
DAV:   2    -0.121167257710E+03   -0.20474E-03   -0.90758E-04  2640   0.527E-01    0.910E-02
DAV:   3    -0.121167079830E+03    0.17788E-03   -0.11651E-03  2464   0.546E-01
  93 F= -.13514351E+03 E0= -.13513756E+03  d E =-.325339E-03  mag=    -0.0000
       N       E                     dE             d eps       ncg     rms          rms(c)
DAV:   1    -0.121167119167E+03    0.13854E-03   -0.39761E-04  2656   0.235E-01    0.261E-02
DAV:   2    -0.121167411957E+03   -0.29279E-03   -0.93390E-04  2496   0.652E-01    0.106E-01
DAV:   3    -0.121167164403E+03    0.24755E-03   -0.13673E-03  2448   0.653E-01    0.446E-02
DAV:   4    -0.121167111484E+03    0.52918E-04   -0.24544E-04  2304   0.260E-01
  94 F= -.13514356E+03 E0= -.13513770E+03  d E =-.456971E-04  mag=    -0.0000
