<?xml version="1.0" encoding="ISO-8859-1"?>
<modeling>
 <generator>
  <i name="program" type="string">vasp </i>
  <i name="version" type="string">6.3.2  </i>
  <i name="subversion" type="string">27Jun22 (build Aug 17 2022 15:43:34) complex                          parallel </i>
  <i name="platform" type="string">tv2STDVTST </i>
  <i name="date" type="string">2025 02 17 </i>
  <i name="time" type="string">19:50:57 </i>
 </generator>
 <incar>
  <i type="int" name="ISTART">     0</i>
  <i type="string" name="PREC">Normal</i>
  <i type="int" name="ISPIN">     2</i>
  <i type="int" name="ICHARG">     2</i>
  <i type="int" name="IBRION">     2</i>
  <i name="EDIFF">      0.00020000</i>
  <i name="EDIFFG">     -0.03000000</i>
  <i type="int" name="NSW">   800</i>
  <i type="int" name="ISIF">     2</i>
  <i type="int" name="ISYM">     1</i>
  <i name="ENCUT">    400.00000000</i>
  <i name="POTIM">      0.50000000</i>
  <i type="logical" name="LREAL"> F  </i>
  <i type="int" name="ISMEAR">     1</i>
  <i name="SIGMA">      0.20000000</i>
  <i type="logical" name="LWAVE"> F  </i>
  <i type="logical" name="LCHARG"> F  </i>
  <i type="string" name="GGA">PE</i>
  <i type="int" name="IVDW">    11</i>
 </incar>
 <primitive_cell>
  <structure name="primitive_cell" >
   <crystal>
    <varray name="basis" >
     <v>       5.13359547       0.00000000       0.00000000 </v>
     <v>       2.56679773       4.44582409       0.00000000 </v>
     <v>       0.00000000       0.00000000      29.67047119 </v>
    </varray>
    <i name="volume">    677.17101477 </i>
    <varray name="rec_basis" >
     <v>       0.19479525      -0.11246509       0.00000000 </v>
     <v>       0.00000000       0.22493018       0.00000000 </v>
     <v>       0.00000000       0.00000000       0.03370354 </v>
    </varray>
   </crystal>
   <varray name="positions" >
    <v>       0.00000000       0.00000000       0.00000000 </v>
    <v>       1.00000000       0.50000000       0.00000000 </v>
    <v>       0.50000000       0.00000000       0.00000000 </v>
    <v>       0.50000000       0.50000000       0.00000000 </v>
    <v>       0.16666667       0.16666667       0.07063526 </v>
    <v>       0.16666667       0.66666667       0.07063526 </v>
    <v>       0.66666667       0.16666667       0.07063526 </v>
    <v>       0.66666667       0.66666667       0.07063526 </v>
    <v>       0.33333333       0.33333333       0.13847021 </v>
    <v>       0.33333333       0.83333333       0.13847021 </v>
    <v>       0.83333333       0.33333333       0.13847021 </v>
    <v>       0.83333333       0.83333333       0.13847021 </v>
    <v>       0.00000000       0.00000000       0.20667428 </v>
    <v>       1.00000000       0.50000000       0.20667428 </v>
    <v>       0.50000000       0.00000000       0.20667428 </v>
    <v>       0.50000000       0.50000000       0.20667428 </v>
    <v>       0.16666667       0.16666667       0.27488859 </v>
    <v>       0.16666667       0.66666667       0.27488859 </v>
    <v>       0.66666667       0.16666667       0.27488859 </v>
    <v>       0.66666667       0.66666667       0.27488859 </v>
    <v>       0.33333333       0.33333333       0.34319917 </v>
    <v>       0.33333333       0.83333333       0.34319917 </v>
    <v>       0.83333333       0.33333333       0.34319917 </v>
    <v>       0.83333333       0.83333333       0.34319917 </v>
    <v>       0.00000000       0.00000000       0.41105828 </v>
    <v>       1.00000000       0.50000000       0.41105828 </v>
    <v>       0.50000000       0.00000000       0.41105828 </v>
    <v>       0.50000000       0.50000000       0.41105828 </v>
    <v>       0.16666667       0.16666667       0.48054462 </v>
    <v>       0.16666667       0.66666667       0.48054462 </v>
    <v>       0.66666667       0.16666667       0.48054462 </v>
    <v>       0.66666667       0.66666667       0.48054462 </v>
    <v>       0.91666667       0.66666667       0.53425930 </v>
    <v>       0.85734115       0.78531771       0.55203798 </v>
   </varray>
  </structure>
  <varray name="primitive_index" >
   <v type="int" >        1 </v>
   <v type="int" >        2 </v>
   <v type="int" >        3 </v>
   <v type="int" >        4 </v>
   <v type="int" >        5 </v>
   <v type="int" >        6 </v>
   <v type="int" >        7 </v>
   <v type="int" >        8 </v>
   <v type="int" >        9 </v>
   <v type="int" >       10 </v>
   <v type="int" >       11 </v>
   <v type="int" >       12 </v>
   <v type="int" >       13 </v>
   <v type="int" >       14 </v>
   <v type="int" >       15 </v>
   <v type="int" >       16 </v>
   <v type="int" >       17 </v>
   <v type="int" >       18 </v>
   <v type="int" >       19 </v>
   <v type="int" >       20 </v>
   <v type="int" >       21 </v>
   <v type="int" >       22 </v>
   <v type="int" >       23 </v>
   <v type="int" >       24 </v>
   <v type="int" >       25 </v>
   <v type="int" >       26 </v>
   <v type="int" >       27 </v>
   <v type="int" >       28 </v>
   <v type="int" >       29 </v>
   <v type="int" >       30 </v>
   <v type="int" >       31 </v>
   <v type="int" >       32 </v>
   <v type="int" >       33 </v>
   <v type="int" >       34 </v>
  </varray>
 </primitive_cell>
 <kpoints>
  <generation param="Monkhorst-Pack">
   <v type="int" name="divisions">       3        3        1 </v>
   <v name="usershift">      0.00000000       0.00000000       0.00000000 </v>
   <v name="genvec1">      0.33333333       0.00000000       0.00000000 </v>
   <v name="genvec2">      0.00000000       0.33333333       0.00000000 </v>
   <v name="genvec3">      0.00000000       0.00000000       1.00000000 </v>
   <v name="shift">      0.00000000       0.00000000       0.00000000 </v>
  </generation>
  <varray name="kpointlist" >
   <v>       0.00000000       0.00000000       0.00000000 </v>
   <v>       0.33333333       0.00000000       0.00000000 </v>
   <v>       0.00000000       0.33333333       0.00000000 </v>
   <v>      -0.33333333       0.33333333       0.00000000 </v>
  </varray>
  <varray name="weights" >
   <v>       0.11111111 </v>
   <v>       0.44444444 </v>
   <v>       0.22222222 </v>
   <v>       0.22222222 </v>
  </varray>
 </kpoints>
 <parameters>
  <separator name="general" >
   <i type="string" name="SYSTEM">unknown system</i>
   <i type="logical" name="LCOMPAT"> F  </i>
  </separator>
  <separator name="electronic" >
   <i type="string" name="PREC">normal</i>
   <i name="ENMAX">    400.00000000</i>
   <i name="ENAUG">    586.98000000</i>
   <i name="EDIFF">      0.00020000</i>
   <i type="int" name="IALGO">    38</i>
   <i type="int" name="IWAVPR">    11</i>
   <i type="int" name="NBANDS">   232</i>
   <i type="int" name="NBANDSLOW">    -1</i>
   <i type="int" name="NBANDSHIGH">    -1</i>
   <i name="NELECT">    354.00000000</i>
   <i type="int" name="TURBO">     0</i>
   <i type="int" name="IRESTART">     0</i>
   <i type="int" name="NREBOOT">     0</i>
   <i type="int" name="NMIN">     0</i>
   <i name="EREF">      0.00000000</i>
   <separator name="electronic smearing" >
    <i type="int" name="ISMEAR">     1</i>
    <i name="SIGMA">      0.20000000</i>
    <i name="KSPACING">      0.50000000</i>
    <i type="logical" name="KGAMMA"> T  </i>
    <i type="logical" name="KBLOWUP"> T  </i>
   </separator>
   <separator name="electronic projectors" >
    <i type="logical" name="LREAL"> F  </i>
    <v name="ROPT">      0.00000000      0.00000000</v>
    <i type="int" name="LMAXPAW">  -100</i>
    <i type="int" name="LMAXMIX">     2</i>
    <i type="logical" name="NLSPLINE"> F  </i>
   </separator>
   <separator name="electronic startup" >
    <i type="int" name="ISTART">     0</i>
    <i type="int" name="ICHARG">     2</i>
    <i type="int" name="INIWAV">     1</i>
   </separator>
   <separator name="electronic spin" >
    <i type="int" name="ISPIN">     2</i>
    <i type="logical" name="LNONCOLLINEAR"> F  </i>
    <v name="MAGMOM">      1.00000000      1.00000000      1.00000000      1.00000000      1.00000000      1.00000000      1.00000000      1.00000000      1.00000000      1.00000000      1.00000000      1.00000000      1.00000000      1.00000000      1.00000000      1.00000000      1.00000000      1.00000000      1.00000000      1.00000000
      1.00000000      1.00000000      1.00000000      1.00000000      1.00000000      1.00000000      1.00000000      1.00000000      1.00000000      1.00000000      1.00000000      1.00000000      1.00000000      1.00000000</v>
    <i name="NUPDOWN">     -1.00000000</i>
    <i type="logical" name="LSORBIT"> F  </i>
    <v name="SAXIS">      0.00000000      0.00000000      1.00000000</v>
    <i type="logical" name="LSPIRAL"> F  </i>
    <v name="QSPIRAL">      0.00000000      0.00000000      0.00000000</v>
    <i type="logical" name="LZEROZ"> F  </i>
   </separator>
   <separator name="electronic exchange-correlation" >
    <i type="logical" name="LASPH"> F  </i>
    <i type="logical" name="LMETAGGA"> F  </i>
   </separator>
   <separator name="electronic convergence" >
    <i type="int" name="NELM">    60</i>
    <i type="int" name="NELMDL">    -5</i>
    <i type="int" name="NELMIN">     2</i>
    <i name="ENINI">    400.00000000</i>
    <separator name="electronic convergence detail" >
     <i type="logical" name="LDIAG"> T  </i>
     <i type="logical" name="LSUBROT"> F  </i>
     <i name="WEIMIN">      0.00100000</i>
     <i name="EBREAK">      0.00000022</i>
     <i name="DEPER">      0.30000000</i>
     <i type="int" name="NRMM">     4</i>
     <i name="TIME">      0.40000000</i>
    </separator>
   </separator>
   <separator name="electronic mixer" >
    <i name="AMIX">      0.40000000</i>
    <i name="BMIX">      1.00000000</i>
    <i name="AMIN">      0.10000000</i>
    <i name="AMIX_MAG">      1.60000000</i>
    <i name="BMIX_MAG">      1.00000000</i>
    <separator name="electronic mixer details" >
     <i type="int" name="IMIX">     4</i>
     <i type="logical" name="MIXFIRST"> F  </i>
     <i type="int" name="MAXMIX">   -45</i>
     <i name="WC">    100.00000000</i>
     <i type="int" name="INIMIX">     1</i>
     <i type="int" name="MIXPRE">     1</i>
     <i type="int" name="MREMOVE">     5</i>
    </separator>
   </separator>
   <separator name="electronic dipolcorrection" >
    <i type="logical" name="LDIPOL"> F  </i>
    <i type="logical" name="LMONO"> F  </i>
    <i type="int" name="IDIPOL">     0</i>
    <i name="EPSILON">      1.00000000</i>
    <v name="DIPOL">   -100.00000000   -100.00000000   -100.00000000</v>
    <i name="EFIELD">      0.00000000</i>
   </separator>
  </separator>
  <separator name="grids" >
   <i type="int" name="NGX">    28</i>
   <i type="int" name="NGY">    28</i>
   <i type="int" name="NGZ">   150</i>
   <i type="int" name="NGXF">    56</i>
   <i type="int" name="NGYF">    56</i>
   <i type="int" name="NGZF">   300</i>
   <i type="logical" name="ADDGRID"> F  </i>
  </separator>
  <separator name="ionic" >
   <i type="int" name="NSW">   800</i>
   <i type="int" name="IBRION">     2</i>
   <i type="int" name="MDALGO">     0</i>
   <i type="int" name="ISIF">     2</i>
   <i name="PSTRESS">      0.00000000</i>
   <i name="EDIFFG">     -0.03000000</i>
   <i type="int" name="NFREE">     1</i>
   <i name="POTIM">      0.50000000</i>
   <i name="SMASS">     -3.00000000</i>
   <i name="SCALEE">      1.00000000</i>
  </separator>
  <separator name="ionic md" >
   <i name="TEBEG">      0.00010000</i>
   <i name="TEEND">      0.00010000</i>
   <i type="int" name="NBLOCK">     1</i>
   <i type="int" name="KBLOCK">   800</i>
   <i type="int" name="NPACO">   256</i>
   <i name="APACO">     10.00000000</i>
  </separator>
  <separator name="symmetry" >
   <i type="int" name="ISYM">     1</i>
   <i name="SYMPREC">      0.00001000</i>
  </separator>
  <separator name="dos" >
   <i type="int" name="LORBIT">     0</i>
   <v name="RWIGS">     -1.00000000     -1.00000000</v>
   <i type="int" name="NEDOS">   301</i>
   <i name="EMIN">     10.00000000</i>
   <i name="EMAX">    -10.00000000</i>
   <i name="EFERMI">      0.00000000</i>
  </separator>
  <separator name="writing" >
   <i type="int" name="NWRITE">     2</i>
   <i type="logical" name="LWAVE"> F  </i>
   <i type="logical" name="LDOWNSAMPLE"> F  </i>
   <i type="logical" name="LCHARG"> F  </i>
   <i type="logical" name="LPARD"> F  </i>
   <i type="logical" name="LVTOT"> F  </i>
   <i type="logical" name="LVHAR"> F  </i>
   <i type="logical" name="LELF"> F  </i>
   <i type="logical" name="LOPTICS"> F  </i>
   <v name="STM">      0.00000000      0.00000000      0.00000000      0.00000000      0.00000000      0.00000000      0.00000000</v>
  </separator>
  <separator name="performance" >
   <i type="int" name="NPAR">     4</i>
   <i type="int" name="NSIM">     4</i>
   <i type="int" name="NBLK">    -1</i>
   <i type="logical" name="LPLANE"> T  </i>
   <i type="logical" name="LSCALAPACK"> T  </i>
   <i type="logical" name="LSCAAWARE"> F  </i>
   <i type="logical" name="LSCALU"> F  </i>
   <i type="logical" name="LASYNC"> F  </i>
   <i type="logical" name="LORBITALREAL"> F  </i>
  </separator>
  <separator name="miscellaneous" >
   <i type="int" name="IDIOT">     3</i>
   <i type="int" name="PHON_NSTRUCT">    -1</i>
   <i type="logical" name="LMUSIC"> F  </i>
   <v name="POMASS">     63.54600000      1.00000000</v>
   <v name="DARWINR">      0.00000000      0.00000000</v>
   <v name="DARWINV">      1.00000000      1.00000000</v>
   <i type="logical" name="LCORR"> T  </i>
  </separator>
  <i type="logical" name="GGA_COMPAT"> T  </i>
  <i type="logical" name="LBERRY"> F  </i>
  <i type="int" name="ICORELEVEL">     0</i>
  <i type="logical" name="LDAU"> F  </i>
  <i type="int" name="I_CONSTRAINED_M">     0</i>
  <separator name="electronic exchange-correlation" >
   <i type="string" name="GGA">PE</i>
   <i type="int" name="VOSKOWN">     0</i>
   <i type="logical" name="LHFCALC"> F  </i>
   <i type="string" name="PRECFOCK"></i>
   <i type="logical" name="LSYMGRAD"> F  </i>
   <i type="logical" name="LHFONE"> F  </i>
   <i type="logical" name="LRHFCALC"> F  </i>
   <i type="logical" name="LTHOMAS"> F  </i>
   <i type="logical" name="LMODELHF"> F  </i>
   <i type="logical" name="LFOCKACE"> F  </i>
   <i name="ENCUT4O">     -1.00000000</i>
   <i type="int" name="EXXOEP">     0</i>
   <i type="int" name="FOURORBIT">     0</i>
   <i name="AEXX">      0.00000000</i>
   <i name="HFALPHA">      0.00000000</i>
   <i name="MCALPHA">      0.00000000</i>
   <i name="ALDAX">      1.00000000</i>
   <i name="AGGAX">      1.00000000</i>
   <i name="ALDAC">      1.00000000</i>
   <i name="AGGAC">      1.00000000</i>
   <i type="int" name="NKREDX">     1</i>
   <i type="int" name="NKREDY">     1</i>
   <i type="int" name="NKREDZ">     1</i>
   <i type="logical" name="SHIFTRED"> F  </i>
   <i type="logical" name="ODDONLY"> F  </i>
   <i type="logical" name="EVENONLY"> F  </i>
   <i type="int" name="LMAXFOCK">     0</i>
   <i type="int" name="NMAXFOCKAE">     0</i>
   <i type="logical" name="LFOCKAEDFT"> F  </i>
   <i name="HFSCREEN">      0.00000000</i>
   <i name="HFSCREENC">      0.00000000</i>
   <i type="int" name="NBANDSGWLOW">     0</i>
  </separator>
  <separator name="vdW DFT" >
   <i type="logical" name="LUSE_VDW"> F  </i>
   <i name="Zab_VDW">     -0.84910000</i>
   <i name="PARAM1">      0.12340000</i>
   <i name="PARAM2">      1.00000000</i>
   <i name="PARAM3">      0.00000000</i>
  </separator>
  <separator name="model GW" >
   <i type="int" name="MODEL_GW">     0</i>
   <i name="MODEL_EPS0">     11.95007673</i>
   <i name="MODEL_ALPHA">      1.00000000</i>
  </separator>
  <separator name="linear response parameters" >
   <i type="logical" name="LEPSILON"> F  </i>
   <i type="logical" name="LRPA"> F  </i>
   <i type="logical" name="LNABLA"> F  </i>
   <i type="logical" name="LVEL"> F  </i>
   <i name="CSHIFT">      0.10000000</i>
   <i name="OMEGAMAX">     -1.00000000</i>
   <i name="DEG_THRESHOLD">      0.00200000</i>
   <i name="RTIME">     -0.10000000</i>
   <i name="WPLASMAI">      0.00000000</i>
   <v name="DFIELD">      0.00000000      0.00000000      0.00000000</v>
   <v name="WPLASMA">      0.00000000      0.00000000      0.00000000      0.00000000      0.00000000      0.00000000      0.00000000      0.00000000      0.00000000</v>
  </separator>
  <separator name="orbital magnetization" >
   <i type="logical" name="NUCIND"> F  </i>
   <v name="MAGPOS">      0.00000000      0.00000000      0.00000000</v>
   <i type="logical" name="LNICSALL"> T  </i>
   <i type="logical" name="ORBITALMAG"> F  </i>
   <i type="logical" name="LMAGBLOCH"> F  </i>
   <i type="logical" name="LCHIMAG"> F  </i>
   <i type="logical" name="LGAUGE"> T  </i>
   <i type="int" name="MAGATOM">     0</i>
   <v name="MAGDIPOL">      0.00000000      0.00000000      0.00000000</v>
   <v name="AVECCONST">      0.00000000      0.00000000      0.00000000</v>
  </separator>
  <separator name="response functions" >
   <i type="logical" name="LFINITE_TEMPERATURE"> F  </i>
   <i type="logical" name="LADDER"> F  </i>
   <i type="logical" name="LRPAFORCE"> F  </i>
   <i type="logical" name="LFXC"> F  </i>
   <i type="logical" name="LHARTREE"> T  </i>
   <i type="int" name="IBSE">     0</i>
   <v type="int" name="KPOINT">    -1     0     0     0</v>
   <i type="logical" name="LTCTC"> F  </i>
   <i type="logical" name="LTCTE"> F  </i>
   <i type="logical" name="LTETE"> F  </i>
   <i type="logical" name="LTRIPLET"> F  </i>
   <i type="logical" name="LFXCEPS"> F  </i>
   <i type="logical" name="LFXHEG"> F  </i>
   <i type="int" name="NATURALO">     2</i>
   <i type="logical" name="LHOLEGF"> F  </i>
   <i type="logical" name="L2ORDER"> F  </i>
   <i type="logical" name="LDMP1"> F  </i>
   <i type="logical" name="LMP2LT"> F  </i>
   <i type="logical" name="LSMP2LT"> F  </i>
   <i type="logical" name="LGWLF"> F  </i>
   <i name="ENCUTGW">     -2.00000000</i>
   <i name="ENCUTGWSOFT">     -2.00000000</i>
   <i name="ENCUTLF">     -1.00000000</i>
   <i type="logical" name="LESF_SPLINES"> F  </i>
   <i type="int" name="LMAXMP2">    -1</i>
   <i name="SCISSOR">      0.00000000</i>
   <i type="int" name="NOMEGA">     0</i>
   <i type="int" name="NOMEGAR">     0</i>
   <i type="int" name="NBANDSGW">    -1</i>
   <i type="int" name="NBANDSO">    -1</i>
   <i type="int" name="NBANDSV">    -1</i>
   <i type="int" name="NELMGW">     1</i>
   <i type="int" name="NELMHF">     1</i>
   <i type="int" name="DIM">     3</i>
   <i type="int" name="IESPILON">     4</i>
   <i type="int" name="ANTIRES">     0</i>
   <i name="OMEGAMAX">    -30.00000000</i>
   <i name="OMEGAMIN">    -30.00000000</i>
   <i name="OMEGATL">   -200.00000000</i>
   <i type="int" name="OMEGAGRID">     0</i>
   <i name="CSHIFT">     -0.10000000</i>
   <i type="logical" name="LSELFENERGY"> F  </i>
   <i type="logical" name="LSPECTRAL"> F  </i>
   <i type="logical" name="LSPECTRALGW"> F  </i>
   <i type="logical" name="LSINGLES"> F  </i>
   <i type="logical" name="LFERMIGW"> F  </i>
   <i type="logical" name="ODDONLYGW"> F  </i>
   <i type="logical" name="EVENONLYGW"> F  </i>
   <i type="int" name="NKREDLFX">     1</i>
   <i type="int" name="NKREDLFY">     1</i>
   <i type="int" name="NKREDLFZ">     1</i>
   <i type="int" name="MAXMEM">  2800</i>
   <i type="int" name="TELESCOPE">     0</i>
   <i type="int" name="NTAUPAR">    -1</i>
   <i type="int" name="NOMEGAPAR">    -1</i>
   <i name="DAMP_NEWTON">      0.80000001</i>
   <i name="LAMBDA">      1.00000000</i>
  </separator>
  <separator name="External order field" >
   <i name="OFIELD_KAPPA">      0.00000000</i>
   <v name="OFIELD_K">      0.00000000      0.00000000      0.00000000</v>
   <i name="OFIELD_Q6_NEAR">      0.00000000</i>
   <i name="OFIELD_Q6_FAR">      0.00000000</i>
   <i name="OFIELD_A">      0.00000000</i>
  </separator>
  <separator name="optional k-points parameters" >
   <i type="int" name="KPOINTS_OPT_MODE">     1</i>
   <i type="logical" name="LKPOINTS_OPT"> F  </i>
  </separator>
 </parameters>
 <atominfo>
  <atoms>      34 </atoms>
  <types>       2 </types>
  <array name="atoms" >
   <dimension dim="1">ion</dimension>
   <field type="string">element</field>
   <field type="int">atomtype</field>
   <set>
    <rc><c>Cu</c><c>   1</c></rc>
    <rc><c>Cu</c><c>   1</c></rc>
    <rc><c>Cu</c><c>   1</c></rc>
    <rc><c>Cu</c><c>   1</c></rc>
    <rc><c>Cu</c><c>   1</c></rc>
    <rc><c>Cu</c><c>   1</c></rc>
    <rc><c>Cu</c><c>   1</c></rc>
    <rc><c>Cu</c><c>   1</c></rc>
    <rc><c>Cu</c><c>   1</c></rc>
    <rc><c>Cu</c><c>   1</c></rc>
    <rc><c>Cu</c><c>   1</c></rc>
    <rc><c>Cu</c><c>   1</c></rc>
    <rc><c>Cu</c><c>   1</c></rc>
    <rc><c>Cu</c><c>   1</c></rc>
    <rc><c>Cu</c><c>   1</c></rc>
    <rc><c>Cu</c><c>   1</c></rc>
    <rc><c>Cu</c><c>   1</c></rc>
    <rc><c>Cu</c><c>   1</c></rc>
    <rc><c>Cu</c><c>   1</c></rc>
    <rc><c>Cu</c><c>   1</c></rc>
    <rc><c>Cu</c><c>   1</c></rc>
    <rc><c>Cu</c><c>   1</c></rc>
    <rc><c>Cu</c><c>   1</c></rc>
    <rc><c>Cu</c><c>   1</c></rc>
    <rc><c>Cu</c><c>   1</c></rc>
    <rc><c>Cu</c><c>   1</c></rc>
    <rc><c>Cu</c><c>   1</c></rc>
    <rc><c>Cu</c><c>   1</c></rc>
    <rc><c>Cu</c><c>   1</c></rc>
    <rc><c>Cu</c><c>   1</c></rc>
    <rc><c>Cu</c><c>   1</c></rc>
    <rc><c>Cu</c><c>   1</c></rc>
    <rc><c>H </c><c>   2</c></rc>
    <rc><c>H </c><c>   2</c></rc>
   </set>
  </array>
  <array name="atomtypes" >
   <dimension dim="1">type</dimension>
   <field type="int">atomspertype</field>
   <field type="string">element</field>
   <field>mass</field>
   <field>valence</field>
   <field type="string">pseudopotential</field>
   <set>
    <rc><c>  32</c><c>Cu</c><c>     63.54600000</c><c>     11.00000000</c><c>  PAW_PBE Cu 22Jun2005                  </c></rc>
    <rc><c>   2</c><c>H </c><c>      1.00000000</c><c>      1.00000000</c><c>  PAW_PBE H 15Jun2001                   </c></rc>
   </set>
  </array>
 </atominfo>
 <structure name="initialpos" >
  <crystal>
   <varray name="basis" >
    <v>       5.13359547       0.00000000       0.00000000 </v>
    <v>       2.56679773       4.44582409       0.00000000 </v>
    <v>       0.00000000       0.00000000      29.67047119 </v>
   </varray>
   <i name="volume">    677.17101477 </i>
   <varray name="rec_basis" >
    <v>       0.19479525      -0.11246509       0.00000000 </v>
    <v>       0.00000000       0.22493018       0.00000000 </v>
    <v>       0.00000000       0.00000000       0.03370354 </v>
   </varray>
  </crystal>
  <varray name="positions" >
   <v>       0.00000000       0.00000000       0.00000000 </v>
   <v>       1.00000000       0.50000000       0.00000000 </v>
   <v>       0.50000000       0.00000000       0.00000000 </v>
   <v>       0.50000000       0.50000000       0.00000000 </v>
   <v>       0.16666667       0.16666667       0.07063526 </v>
   <v>       0.16666667       0.66666667       0.07063526 </v>
   <v>       0.66666667       0.16666667       0.07063526 </v>
   <v>       0.66666667       0.66666667       0.07063526 </v>
   <v>       0.33333333       0.33333333       0.13847021 </v>
   <v>       0.33333333       0.83333333       0.13847021 </v>
   <v>       0.83333333       0.33333333       0.13847021 </v>
   <v>       0.83333333       0.83333333       0.13847021 </v>
   <v>       0.00000000       0.00000000       0.20667428 </v>
   <v>       1.00000000       0.50000000       0.20667428 </v>
   <v>       0.50000000       0.00000000       0.20667428 </v>
   <v>       0.50000000       0.50000000       0.20667428 </v>
   <v>       0.16666667       0.16666667       0.27488859 </v>
   <v>       0.16666667       0.66666667       0.27488859 </v>
   <v>       0.66666667       0.16666667       0.27488859 </v>
   <v>       0.66666667       0.66666667       0.27488859 </v>
   <v>       0.33333333       0.33333333       0.34319917 </v>
   <v>       0.33333333       0.83333333       0.34319917 </v>
   <v>       0.83333333       0.33333333       0.34319917 </v>
   <v>       0.83333333       0.83333333       0.34319917 </v>
   <v>       0.00000000       0.00000000       0.41105828 </v>
   <v>       1.00000000       0.50000000       0.41105828 </v>
   <v>       0.50000000       0.00000000       0.41105828 </v>
   <v>       0.50000000       0.50000000       0.41105828 </v>
   <v>       0.16666667       0.16666667       0.48054462 </v>
   <v>       0.16666667       0.66666667       0.48054462 </v>
   <v>       0.66666667       0.16666667       0.48054462 </v>
   <v>       0.66666667       0.66666667       0.48054462 </v>
   <v>       0.91666667       0.66666667       0.53425930 </v>
   <v>       0.85734115       0.78531771       0.55203798 </v>
  </varray>
 </structure>
 <calculation>
  <scstep>
   <time name="dav">    6.13    6.19</time>
   <time name="total">    6.22    6.27</time>
   <energy>
    <i name="alphaZ">   1114.72537883 </i>
    <i name="ewald"> 216278.32983924 </i>
    <i name="hartreedc">-260309.73558343 </i>
    <i name="XCdc">   1471.94426801 </i>
    <i name="pawpsdc">  39302.70853331 </i>
    <i name="pawaedc"> -42689.07521165 </i>
    <i name="eentropy">     -0.01012962 </i>
    <i name="bandstr">   3743.57192235 </i>
    <i name="atom">  44535.60175172 </i>
    <i name="e_fr_energy">   3448.06076875 </i>
    <i name="e_wo_entrp">   3448.07089837 </i>
    <i name="e_0_energy">   3448.06414529 </i>
   </energy>
  </scstep>
  <scstep>
   <time name="dav">    6.02    6.07</time>
   <time name="total">    6.02    6.08</time>
   <energy>
    <i name="e_fr_energy">    486.06754574 </i>
    <i name="e_wo_entrp">    486.06242852 </i>
    <i name="e_0_energy">    486.06584000 </i>
   </energy>
  </scstep>
  <scstep>
   <time name="dav">    6.05    6.10</time>
   <time name="total">    6.05    6.11</time>
   <energy>
    <i name="e_fr_energy">    -92.63973441 </i>
    <i name="e_wo_entrp">    -92.64429714 </i>
    <i name="e_0_energy">    -92.64125532 </i>
   </energy>
  </scstep>
  <scstep>
   <time name="dav">    6.49    6.55</time>
   <time name="total">    6.50    6.55</time>
   <energy>
    <i name="e_fr_energy">   -138.05683062 </i>
    <i name="e_wo_entrp">   -138.08112731 </i>
    <i name="e_0_energy">   -138.06492951 </i>
   </energy>
  </scstep>
  <scstep>
   <time name="dav">    6.52    6.58</time>
   <time name="total">    6.91    6.97</time>
   <energy>
    <i name="e_fr_energy">   -139.15806707 </i>
    <i name="e_wo_entrp">   -139.18426349 </i>
    <i name="e_0_energy">   -139.16679921 </i>
   </energy>
  </scstep>
  <scstep>
   <time name="dav">    6.68    6.73</time>
   <time name="total">    7.15    7.21</time>
   <energy>
    <i name="e_fr_energy">   -115.13202853 </i>
    <i name="e_wo_entrp">   -115.08976095 </i>
    <i name="e_0_energy">   -115.11793934 </i>
   </energy>
  </scstep>
  <scstep>
   <time name="dav">    6.70    6.76</time>
   <time name="total">    7.16    7.22</time>
   <energy>
    <i name="e_fr_energy">   -102.96114091 </i>
    <i name="e_wo_entrp">   -102.94300035 </i>
    <i name="e_0_energy">   -102.95509406 </i>
   </energy>
  </scstep>
  <scstep>
   <time name="dav">    7.37    7.44</time>
   <time name="total">    7.83    7.89</time>
   <energy>
    <i name="e_fr_energy">   -108.23939674 </i>
    <i name="e_wo_entrp">   -108.29076290 </i>
    <i name="e_0_energy">   -108.25651880 </i>
   </energy>
  </scstep>
  <scstep>
   <time name="dav">    7.80    7.87</time>
   <time name="total">    8.25    8.32</time>
   <energy>
    <i name="e_fr_energy">    -99.08676419 </i>
    <i name="e_wo_entrp">    -99.03762524 </i>
    <i name="e_0_energy">    -99.07038454 </i>
   </energy>
  </scstep>
  <scstep>
   <time name="dav">    7.63    7.70</time>
   <time name="total">    8.10    8.17</time>
   <energy>
    <i name="e_fr_energy">   -100.18818853 </i>
    <i name="e_wo_entrp">   -100.21552079 </i>
    <i name="e_0_energy">   -100.19729929 </i>
   </energy>
  </scstep>
  <scstep>
   <time name="dav">    6.91    6.97</time>
   <time name="total">    7.35    7.41</time>
   <energy>
    <i name="e_fr_energy">   -102.64148399 </i>
    <i name="e_wo_entrp">   -102.70617811 </i>
    <i name="e_0_energy">   -102.66304870 </i>
   </energy>
  </scstep>
  <scstep>
   <time name="dav">    6.88    6.94</time>
   <time name="total">    7.33    7.40</time>
   <energy>
    <i name="e_fr_energy">   -101.36972657 </i>
    <i name="e_wo_entrp">   -101.38877489 </i>
    <i name="e_0_energy">   -101.37607601 </i>
   </energy>
  </scstep>
  <scstep>
   <time name="dav">    8.57    8.65</time>
   <time name="total">    9.02    9.10</time>
   <energy>
    <i name="e_fr_energy">   -102.85174537 </i>
    <i name="e_wo_entrp">   -102.89165948 </i>
    <i name="e_0_energy">   -102.86505007 </i>
   </energy>
  </scstep>
  <scstep>
   <time name="dav">    8.42    8.49</time>
   <time name="total">    8.87    8.95</time>
   <energy>
    <i name="e_fr_energy">   -105.45009914 </i>
    <i name="e_wo_entrp">   -105.45633180 </i>
    <i name="e_0_energy">   -105.45217669 </i>
   </energy>
  </scstep>
  <scstep>
   <time name="dav">    7.36    7.43</time>
   <time name="total">    7.81    7.87</time>
   <energy>
    <i name="e_fr_energy">   -109.50305395 </i>
    <i name="e_wo_entrp">   -109.50856459 </i>
    <i name="e_0_energy">   -109.50489083 </i>
   </energy>
  </scstep>
  <scstep>
   <time name="dav">    6.89    6.95</time>
   <time name="total">    7.35    7.41</time>
   <energy>
    <i name="e_fr_energy">   -112.29314103 </i>
    <i name="e_wo_entrp">   -112.28860264 </i>
    <i name="e_0_energy">   -112.29162823 </i>
   </energy>
  </scstep>
  <scstep>
   <time name="dav">    7.34    7.40</time>
   <time name="total">    7.79    7.86</time>
   <energy>
    <i name="e_fr_energy">   -113.96140010 </i>
    <i name="e_wo_entrp">   -113.94456317 </i>
    <i name="e_0_energy">   -113.95578779 </i>
   </energy>
  </scstep>
  <scstep>
   <time name="dav">    6.69    6.75</time>
   <time name="total">    7.14    7.20</time>
   <energy>
    <i name="e_fr_energy">   -115.00504021 </i>
    <i name="e_wo_entrp">   -114.98620710 </i>
    <i name="e_0_energy">   -114.99876251 </i>
   </energy>
  </scstep>
  <scstep>
   <time name="dav">    6.69    6.75</time>
   <time name="total">    7.15    7.21</time>
   <energy>
    <i name="e_fr_energy">   -115.69797003 </i>
    <i name="e_wo_entrp">   -115.67427706 </i>
    <i name="e_0_energy">   -115.69007237 </i>
   </energy>
  </scstep>
  <scstep>
   <time name="dav">    7.68    7.75</time>
   <time name="total">    8.13    8.20</time>
   <energy>
    <i name="e_fr_energy">   -116.51270628 </i>
    <i name="e_wo_entrp">   -116.48770743 </i>
    <i name="e_0_energy">   -116.50437333 </i>
   </energy>
  </scstep>
  <scstep>
   <time name="dav">    7.52    7.59</time>
   <time name="total">    7.97    8.04</time>
   <energy>
    <i name="e_fr_energy">   -117.34001139 </i>
    <i name="e_wo_entrp">   -117.31842251 </i>
    <i name="e_0_energy">   -117.33281510 </i>
   </energy>
  </scstep>
  <scstep>
   <time name="dav">    7.39    7.45</time>
   <time name="total">    7.83    7.91</time>
   <energy>
    <i name="e_fr_energy">   -117.67109471 </i>
    <i name="e_wo_entrp">   -117.64865321 </i>
    <i name="e_0_energy">   -117.66361421 </i>
   </energy>
  </scstep>
  <scstep>
   <time name="dav">    7.40    7.47</time>
   <time name="total">    7.85    7.92</time>
   <energy>
    <i name="e_fr_energy">   -118.09298572 </i>
    <i name="e_wo_entrp">   -118.08023927 </i>
    <i name="e_0_energy">   -118.08873690 </i>
   </energy>
  </scstep>
  <scstep>
   <time name="dav">    7.01    7.07</time>
   <time name="total">    7.45    7.52</time>
   <energy>
    <i name="e_fr_energy">   -118.67440080 </i>
    <i name="e_wo_entrp">   -118.65972888 </i>
    <i name="e_0_energy">   -118.66951016 </i>
   </energy>
  </scstep>
  <scstep>
   <time name="dav">    7.61    7.68</time>
   <time name="total">    8.06    8.13</time>
   <energy>
    <i name="e_fr_energy">   -119.75105579 </i>
    <i name="e_wo_entrp">   -119.73754918 </i>
    <i name="e_0_energy">   -119.74655358 </i>
   </energy>
  </scstep>
  <scstep>
   <time name="dav">    7.25    7.31</time>
   <time name="total">    7.70    7.77</time>
   <energy>
    <i name="e_fr_energy">   -120.43995250 </i>
    <i name="e_wo_entrp">   -120.42670161 </i>
    <i name="e_0_energy">   -120.43553554 </i>
   </energy>
  </scstep>
  <scstep>
   <time name="dav">    6.44    6.49</time>
   <time name="total">    6.88    6.94</time>
   <energy>
    <i name="e_fr_energy">   -120.69570158 </i>
    <i name="e_wo_entrp">   -120.68241465 </i>
    <i name="e_0_energy">   -120.69127260 </i>
   </energy>
  </scstep>
  <scstep>
   <time name="dav">    6.37    6.42</time>
   <time name="total">    6.82    6.88</time>
   <energy>
    <i name="e_fr_energy">   -120.75439278 </i>
    <i name="e_wo_entrp">   -120.74081015 </i>
    <i name="e_0_energy">   -120.74986524 </i>
   </energy>
  </scstep>
  <scstep>
   <time name="dav">    6.45    6.51</time>
   <time name="total">    6.90    6.96</time>
   <energy>
    <i name="e_fr_energy">   -120.75938515 </i>
    <i name="e_wo_entrp">   -120.74678732 </i>
    <i name="e_0_energy">   -120.75518587 </i>
   </energy>
  </scstep>
  <scstep>
   <time name="dav">    6.21    6.27</time>
   <time name="total">    6.67    6.73</time>
   <energy>
    <i name="e_fr_energy">   -120.76568777 </i>
    <i name="e_wo_entrp">   -120.75313011 </i>
    <i name="e_0_energy">   -120.76150188 </i>
   </energy>
  </scstep>
  <scstep>
   <time name="dav">    4.84    4.88</time>
   <time name="total">    5.28    5.33</time>
   <energy>
    <i name="e_fr_energy">   -120.77070268 </i>
    <i name="e_wo_entrp">   -120.75803514 </i>
    <i name="e_0_energy">   -120.76648017 </i>
   </energy>
  </scstep>
  <scstep>
   <time name="dav">    4.64    4.69</time>
   <time name="total">    4.72    4.77</time>
   <energy>
    <i name="alphaZ">   1114.72537883 </i>
    <i name="ewald"> 216278.32983924 </i>
    <i name="hartreedc">-259811.05196025 </i>
    <i name="XCdc">   1433.81222500 </i>
    <i name="pawpsdc">  42129.28142557 </i>
    <i name="pawaedc"> -45581.05484587 </i>
    <i name="eentropy">     -0.01274212 </i>
    <i name="bandstr">   -220.40164807 </i>
    <i name="atom">  44535.60175172 </i>
    <i name="e_fr_energy">   -120.77057595 </i>
    <i name="e_wo_entrp">   -120.75783383 </i>
    <i name="e_0_energy">   -120.76632858 </i>
   </energy>
  </scstep>
  <structure>
   <crystal>
    <varray name="basis" >
     <v>       5.13359547       0.00000000       0.00000000 </v>
     <v>       2.56679773       4.44582409       0.00000000 </v>
     <v>       0.00000000       0.00000000      29.67047119 </v>
    </varray>
    <i name="volume">    677.17101477 </i>
    <varray name="rec_basis" >
     <v>       0.19479525      -0.11246509       0.00000000 </v>
     <v>       0.00000000       0.22493018       0.00000000 </v>
     <v>       0.00000000       0.00000000       0.03370354 </v>
    </varray>
   </crystal>
   <varray name="positions" >
    <v>       0.00000000       0.00000000       0.00000000 </v>
    <v>       1.00000000       0.50000000       0.00000000 </v>
    <v>       0.50000000       0.00000000       0.00000000 </v>
    <v>       0.50000000       0.50000000       0.00000000 </v>
    <v>       0.16666667       0.16666667       0.07063526 </v>
    <v>       0.16666667       0.66666667       0.07063526 </v>
    <v>       0.66666667       0.16666667       0.07063526 </v>
    <v>       0.66666667       0.66666667       0.07063526 </v>
    <v>       0.33333333       0.33333333       0.13847021 </v>
    <v>       0.33333333       0.83333333       0.13847021 </v>
    <v>       0.83333333       0.33333333       0.13847021 </v>
    <v>       0.83333333       0.83333333       0.13847021 </v>
    <v>       0.00000000       0.00000000       0.20667428 </v>
    <v>       1.00000000       0.50000000       0.20667428 </v>
    <v>       0.50000000       0.00000000       0.20667428 </v>
    <v>       0.50000000       0.50000000       0.20667428 </v>
    <v>       0.16666667       0.16666667       0.27488859 </v>
    <v>       0.16666667       0.66666667       0.27488859 </v>
    <v>       0.66666667       0.16666667       0.27488859 </v>
    <v>       0.66666667       0.66666667       0.27488859 </v>
    <v>       0.33333333       0.33333333       0.34319917 </v>
    <v>       0.33333333       0.83333333       0.34319917 </v>
    <v>       0.83333333       0.33333333       0.34319917 </v>
    <v>       0.83333333       0.83333333       0.34319917 </v>
    <v>       0.00000000       0.00000000       0.41105828 </v>
    <v>       1.00000000       0.50000000       0.41105828 </v>
    <v>       0.50000000       0.00000000       0.41105828 </v>
    <v>       0.50000000       0.50000000       0.41105828 </v>
    <v>       0.16666667       0.16666667       0.48054462 </v>
    <v>       0.16666667       0.66666667       0.48054462 </v>
    <v>       0.66666667       0.16666667       0.48054462 </v>
    <v>       0.66666667       0.66666667       0.48054462 </v>
    <v>       0.91666667       0.66666667       0.53425930 </v>
    <v>       0.85734115       0.78531771       0.55203798 </v>
   </varray>
  </structure>
  <varray name="forces" >
   <v>       0.01917251       0.00663336       0.14992123 </v>
   <v>       0.00000000      -0.01575150       0.15306991 </v>
   <v>      -0.01917251       0.00663336       0.14992123 </v>
   <v>       0.00000000       0.00504077       0.13963948 </v>
   <v>       0.00000000       0.00319025      -0.13589422 </v>
   <v>       0.00240243      -0.00438578      -0.13136833 </v>
   <v>       0.00000000       0.00519771      -0.14225619 </v>
   <v>      -0.00240243      -0.00438578      -0.13136833 </v>
   <v>       0.00390154      -0.00741838      -0.00683604 </v>
   <v>       0.00000000       0.00251121      -0.01042099 </v>
   <v>      -0.00390154      -0.00741838      -0.00683604 </v>
   <v>       0.00000000       0.00930962      -0.02859806 </v>
   <v>       0.01381176       0.00871645       0.01869877 </v>
   <v>       0.00000000      -0.01487556       0.02171793 </v>
   <v>      -0.01381176       0.00871645       0.01869877 </v>
   <v>       0.00000000      -0.00418720      -0.02691397 </v>
   <v>       0.00000000      -0.00607573      -0.02483042 </v>
   <v>       0.03987416      -0.01585795       0.02257946 </v>
   <v>      -0.00000000       0.04032877       0.00849860 </v>
   <v>      -0.03987416      -0.01585795       0.02257946 </v>
   <v>       0.00828215      -0.01013448       0.03673105 </v>
   <v>       0.00000000       0.00275759       0.03619743 </v>
   <v>      -0.00828215      -0.01013448       0.03673105 </v>
   <v>       0.00000000       0.02316090      -0.04440334 </v>
   <v>      -0.02673585      -0.02071857       0.06603851 </v>
   <v>       0.00000000       0.04067052       0.02198420 </v>
   <v>       0.02673585      -0.02071857       0.06603851 </v>
   <v>       0.00000000       0.00280667       0.09916167 </v>
   <v>      -0.00000000      -0.10040899      -0.15907018 </v>
   <v>       0.27164952      -0.05004174      -0.28786088 </v>
   <v>       0.00000000       0.25171179      -0.28744396 </v>
   <v>      -0.27164952      -0.05004174      -0.28786088 </v>
   <v>      -0.00000000      -0.82416443      -0.36878866 </v>
   <v>       0.00000000       0.76519177       1.01254324 </v>
  </varray>
  <varray name="stress" >
   <v>     -31.97143783       0.00000000       0.00000000 </v>
   <v>       0.00000000     -30.47414243       0.62301116 </v>
   <v>       0.00000000       0.62301685      -6.46104233 </v>
  </varray>
  <energy>
   <i name="e_fr_energy">   -134.79577471 </i>
   <i name="e_wo_entrp">   -134.78303259 </i>
   <i name="e_0_energy">   -134.79152734 </i>
  </energy>
  <time name="totalsc">  243.80  245.97</time>
 </calculation>
 <calculation>
  <scstep>
   <time name="dav">    6.22    6.27</time>
   <time name="total">    6.67    6.73</time>
   <energy>
    <i name="alphaZ">   1114.72537883 </i>
    <i name="ewald"> 216546.21322980 </i>
    <i name="hartreedc">-260079.19960215 </i>
    <i name="XCdc">   1433.81030491 </i>
    <i name="pawpsdc">  42129.30292798 </i>
    <i name="pawaedc"> -45581.14556923 </i>
    <i name="eentropy">     -0.01480209 </i>
    <i name="bandstr">   -220.03803021 </i>
    <i name="atom">  44535.60175172 </i>
    <i name="e_fr_energy">   -120.74441044 </i>
    <i name="e_wo_entrp">   -120.72960835 </i>
    <i name="e_0_energy">   -120.73947641 </i>
   </energy>
  </scstep>
  <scstep>
   <time name="dav">    7.99    8.06</time>
   <time name="total">    8.45    8.52</time>
   <energy>
    <i name="e_fr_energy">   -120.76707010 </i>
    <i name="e_wo_entrp">   -120.75228181 </i>
    <i name="e_0_energy">   -120.76214067 </i>
   </energy>
  </scstep>
  <scstep>
   <time name="dav">    6.99    7.05</time>
   <time name="total">    7.45    7.51</time>
   <energy>
    <i name="e_fr_energy">   -120.79642027 </i>
    <i name="e_wo_entrp">   -120.78181261 </i>
    <i name="e_0_energy">   -120.79155105 </i>
   </energy>
  </scstep>
  <scstep>
   <time name="dav">    7.07    7.13</time>
   <time name="total">    7.53    7.60</time>
   <energy>
    <i name="e_fr_energy">   -120.77143899 </i>
    <i name="e_wo_entrp">   -120.75687578 </i>
    <i name="e_0_energy">   -120.76658459 </i>
   </energy>
  </scstep>
  <scstep>
   <time name="dav">    8.82    8.90</time>
   <time name="total">    9.28    9.36</time>
   <energy>
    <i name="e_fr_energy">   -120.77013862 </i>
    <i name="e_wo_entrp">   -120.75525168 </i>
    <i name="e_0_energy">   -120.76517631 </i>
   </energy>
  </scstep>
  <scstep>
   <time name="dav">    8.49    8.56</time>
   <time name="total">    8.93    9.01</time>
   <energy>
    <i name="e_fr_energy">   -120.76500317 </i>
    <i name="e_wo_entrp">   -120.75121728 </i>
    <i name="e_0_energy">   -120.76040787 </i>
   </energy>
  </scstep>
  <scstep>
   <time name="dav">    9.22    9.30</time>
   <time name="total">    9.68    9.77</time>
   <energy>
    <i name="e_fr_energy">   -120.76350757 </i>
    <i name="e_wo_entrp">   -120.74878000 </i>
    <i name="e_0_energy">   -120.75859838 </i>
   </energy>
  </scstep>
  <scstep>
   <time name="dav">    6.64    6.70</time>
   <time name="total">    7.09    7.15</time>
   <energy>
    <i name="e_fr_energy">   -120.76340954 </i>
    <i name="e_wo_entrp">   -120.74895473 </i>
    <i name="e_0_energy">   -120.75859127 </i>
   </energy>
  </scstep>
  <scstep>
   <time name="dav">    5.92    5.98</time>
   <time name="total">    6.00    6.05</time>
   <energy>
    <i name="alphaZ">   1114.72537883 </i>
    <i name="ewald"> 216546.21322980 </i>
    <i name="hartreedc">-260073.44612602 </i>
    <i name="XCdc">   1433.65834533 </i>
    <i name="pawpsdc">  42134.12546703 </i>
    <i name="pawaedc"> -45586.18380048 </i>
    <i name="eentropy">     -0.01457423 </i>
    <i name="bandstr">   -225.44320312 </i>
    <i name="atom">  44535.60175172 </i>
    <i name="e_fr_energy">   -120.76353115 </i>
    <i name="e_wo_entrp">   -120.74895692 </i>
    <i name="e_0_energy">   -120.75867307 </i>
   </energy>
  </scstep>
  <structure>
   <crystal>
    <varray name="basis" >
     <v>       5.13359547       0.00000000       0.00000000 </v>
     <v>       2.56679773       4.44582409       0.00000000 </v>
     <v>       0.00000000       0.00000000      29.67047119 </v>
    </varray>
    <i name="volume">    677.17101477 </i>
    <varray name="rec_basis" >
     <v>       0.19479525      -0.11246509       0.00000000 </v>
     <v>       0.00000000       0.22493018       0.00000000 </v>
     <v>       0.00000000       0.00000000       0.03370354 </v>
    </varray>
   </crystal>
   <varray name="positions" >
    <v>       0.00014418       0.00007198       0.00024376 </v>
    <v>       0.00008546       0.49982908       0.00024888 </v>
    <v>       0.49978384       0.00007198       0.00024376 </v>
    <v>       0.49997265       0.50005470       0.00022705 </v>
    <v>       0.16664936       0.16670128       0.07041431 </v>
    <v>       0.16671304       0.66661908       0.07042167 </v>
    <v>       0.66663847       0.16672307       0.07040396 </v>
    <v>       0.66666789       0.66661908       0.07042167 </v>
    <v>       0.33341025       0.33325283       0.13845910 </v>
    <v>       0.33331971       0.83336058       0.13845327 </v>
    <v>       0.83333692       0.33325283       0.13845910 </v>
    <v>       0.83328282       0.83343435       0.13842371 </v>
    <v>       0.00008250       0.00009458       0.20670468 </v>
    <v>       0.00008071       0.49983858       0.20670959 </v>
    <v>       0.49982291       0.00009458       0.20670468 </v>
    <v>       0.50002272       0.49995456       0.20663052 </v>
    <v>       0.16669963       0.16660074       0.27484821 </v>
    <v>       0.16712742       0.66649459       0.27492530 </v>
    <v>       0.66644786       0.16710428       0.27490241 </v>
    <v>       0.66637799       0.66649459       0.27492530 </v>
    <v>       0.33346615       0.33322336       0.34325889 </v>
    <v>       0.33331837       0.83336326       0.34325803 </v>
    <v>       0.83331049       0.33322336       0.34325889 </v>
    <v>       0.83320767       0.83358466       0.34312697 </v>
    <v>      -0.00013884      -0.00022482       0.41116565 </v>
    <v>       0.99977934       0.50044133       0.41109402 </v>
    <v>       0.50036366      -0.00022482       0.41116565 </v>
    <v>       0.49998477       0.50003046       0.41121951 </v>
    <v>       0.16721145       0.16557711       0.48028598 </v>
    <v>       0.16949098       0.66612365       0.48007657 </v>
    <v>       0.66530098       0.16939805       0.48007725 </v>
    <v>       0.66438536       0.66612365       0.48007657 </v>
    <v>       0.92113827       0.65772347       0.53365967 </v>
    <v>       0.85318951       0.79362098       0.55368432 </v>
   </varray>
  </structure>
  <varray name="forces" >
   <v>       0.01083776       0.00406399       0.09293013 </v>
   <v>       0.00000000      -0.00859035       0.09573770 </v>
   <v>      -0.01083776       0.00406399       0.09293013 </v>
   <v>       0.00000000       0.00286295       0.08430279 </v>
   <v>       0.00000000       0.00219526      -0.05471050 </v>
   <v>       0.00081840      -0.00248801      -0.05573168 </v>
   <v>       0.00000000       0.00268851      -0.06343580 </v>
   <v>      -0.00081840      -0.00248801      -0.05573168 </v>
   <v>      -0.00125964      -0.00312065      -0.03087402 </v>
   <v>       0.00000000       0.00222847      -0.03265270 </v>
   <v>       0.00125964      -0.00312065      -0.03087402 </v>
   <v>       0.00000000       0.00251301      -0.03705281 </v>
   <v>       0.00240386       0.00066441       0.00880637 </v>
   <v>       0.00000000      -0.00071866       0.00973167 </v>
   <v>      -0.00240386       0.00066441       0.00880637 </v>
   <v>       0.00000000      -0.00192382      -0.01953461 </v>
   <v>       0.00000000      -0.00085473      -0.00299427 </v>
   <v>       0.01933361      -0.00990293       0.00984149 </v>
   <v>      -0.00000000       0.02232053      -0.00206462 </v>
   <v>      -0.01933361      -0.00990293       0.00984149 </v>
   <v>       0.00223025      -0.00431087       0.03817296 </v>
   <v>       0.00000000       0.00094024       0.03898052 </v>
   <v>      -0.00223025      -0.00431087       0.03817296 </v>
   <v>       0.00000000       0.01208982      -0.01718354 </v>
   <v>      -0.01497826      -0.00854735       0.00296255 </v>
   <v>       0.00000000       0.02330478      -0.01821060 </v>
   <v>       0.01497826      -0.00854735       0.00296255 </v>
   <v>       0.00000000      -0.00015553      -0.01295255 </v>
   <v>       0.00000000      -0.02261365      -0.10662825 </v>
   <v>       0.07806467      -0.01910603      -0.14227501 </v>
   <v>       0.00000000       0.10266660      -0.16775630 </v>
   <v>      -0.07806467      -0.01910603      -0.14227501 </v>
   <v>       0.00000000       0.52516529       0.85124608 </v>
   <v>       0.00000000      -0.57862382      -0.39248779 </v>
  </varray>
  <varray name="stress" >
   <v>     -31.66737536       0.00000000       0.00000000 </v>
   <v>       0.00000000     -31.92680221      -1.12147190 </v>
   <v>       0.00000000      -1.12146623      -8.16523077 </v>
  </varray>
  <energy>
   <i name="e_fr_energy">   -134.81759515 </i>
   <i name="e_wo_entrp">   -134.80302091 </i>
   <i name="e_0_energy">   -134.81273707 </i>
  </energy>
  <time name="totalsc">   82.62   83.31</time>
 </calculation>
 <calculation>
  <scstep>
   <time name="dav">    6.10    6.16</time>
   <time name="total">    6.56    6.62</time>
   <energy>
    <i name="alphaZ">   1114.72537883 </i>
    <i name="ewald"> 216425.40494020 </i>
    <i name="hartreedc">-259952.19397457 </i>
    <i name="XCdc">   1433.65765202 </i>
    <i name="pawpsdc">  42134.29436866 </i>
    <i name="pawaedc"> -45586.35441523 </i>
    <i name="eentropy">     -0.01341357 </i>
    <i name="bandstr">   -225.91704631 </i>
    <i name="atom">  44535.60175172 </i>
    <i name="e_fr_energy">   -120.79475823 </i>
    <i name="e_wo_entrp">   -120.78134466 </i>
    <i name="e_0_energy">   -120.79028704 </i>
   </energy>
  </scstep>
  <scstep>
   <time name="dav">    7.96    8.03</time>
   <time name="total">    8.42    8.49</time>
   <energy>
    <i name="e_fr_energy">   -120.79971611 </i>
    <i name="e_wo_entrp">   -120.78576727 </i>
    <i name="e_0_energy">   -120.79506650 </i>
   </energy>
  </scstep>
  <scstep>
   <time name="dav">    7.08    7.14</time>
   <time name="total">    7.52    7.59</time>
   <energy>
    <i name="e_fr_energy">   -120.80623806 </i>
    <i name="e_wo_entrp">   -120.79176376 </i>
    <i name="e_0_energy">   -120.80141329 </i>
   </energy>
  </scstep>
  <scstep>
   <time name="dav">    6.49    6.54</time>
   <time name="total">    6.93    6.99</time>
   <energy>
    <i name="e_fr_energy">   -120.79977244 </i>
    <i name="e_wo_entrp">   -120.78650431 </i>
    <i name="e_0_energy">   -120.79534973 </i>
   </energy>
  </scstep>
  <scstep>
   <time name="dav">    5.70    5.75</time>
   <time name="total">    6.15    6.20</time>
   <energy>
    <i name="e_fr_energy">   -120.80120769 </i>
    <i name="e_wo_entrp">   -120.78839994 </i>
    <i name="e_0_energy">   -120.79693844 </i>
   </energy>
  </scstep>
  <scstep>
   <time name="dav">    6.36    6.42</time>
   <time name="total">    6.81    6.86</time>
   <energy>
    <i name="e_fr_energy">   -120.79931386 </i>
    <i name="e_wo_entrp">   -120.78522281 </i>
    <i name="e_0_energy">   -120.79461684 </i>
   </energy>
  </scstep>
  <scstep>
   <time name="dav">    6.90    6.96</time>
   <time name="total">    6.98    7.04</time>
   <energy>
    <i name="alphaZ">   1114.72537883 </i>
    <i name="ewald"> 216425.40494020 </i>
    <i name="hartreedc">-259952.20919159 </i>
    <i name="XCdc">   1433.71582744 </i>
    <i name="pawpsdc">  42132.06174423 </i>
    <i name="pawaedc"> -45584.04278272 </i>
    <i name="eentropy">     -0.01367624 </i>
    <i name="bandstr">   -226.04321998 </i>
    <i name="atom">  44535.60175172 </i>
    <i name="e_fr_energy">   -120.79922810 </i>
    <i name="e_wo_entrp">   -120.78555186 </i>
    <i name="e_0_energy">   -120.79466935 </i>
   </energy>
  </scstep>
  <structure>
   <crystal>
    <varray name="basis" >
     <v>       5.13359547       0.00000000       0.00000000 </v>
     <v>       2.56679773       4.44582409       0.00000000 </v>
     <v>       0.00000000       0.00000000      29.67047119 </v>
    </varray>
    <i name="volume">    677.17101477 </i>
    <varray name="rec_basis" >
     <v>       0.19479525      -0.11246509       0.00000000 </v>
     <v>       0.00000000       0.22493018       0.00000000 </v>
     <v>       0.00000000       0.00000000       0.03370354 </v>
    </varray>
   </crystal>
   <varray name="positions" >
    <v>       0.00007933       0.00003960       0.00013411 </v>
    <v>       0.00004702       0.49990596       0.00013693 </v>
    <v>       0.49988107       0.00003960       0.00013411 </v>
    <v>       0.49998495       0.50003009       0.00012492 </v>
    <v>       0.16665714       0.16668571       0.07051370 </v>
    <v>       0.16669218       0.66664048       0.07051775 </v>
    <v>       0.66665115       0.16669770       0.07050801 </v>
    <v>       0.66666734       0.66664048       0.07051775 </v>
    <v>       0.33337565       0.33328904       0.13846410 </v>
    <v>       0.33332584       0.83334833       0.13846089 </v>
    <v>       0.83333531       0.33328904       0.13846410 </v>
    <v>       0.83330554       0.83338891       0.13844463 </v>
    <v>       0.00004539       0.00005204       0.20669101 </v>
    <v>       0.00004440       0.49991119       0.20669371 </v>
    <v>       0.49990257       0.00005204       0.20669101 </v>
    <v>       0.50001250       0.49997500       0.20665020 </v>
    <v>       0.16668480       0.16663039       0.27486638 </v>
    <v>       0.16692016       0.66657199       0.27490879 </v>
    <v>       0.66654628       0.16690743       0.27489619 </v>
    <v>       0.66650784       0.66657199       0.27490879 </v>
    <v>       0.33340641       0.33327283       0.34323203 </v>
    <v>       0.33332510       0.83334980       0.34323155 </v>
    <v>       0.83332076       0.33327283       0.34323203 </v>
    <v>       0.83326420       0.83347161       0.34315945 </v>
    <v>      -0.00007639      -0.00012369       0.41111735 </v>
    <v>       0.99987860       0.50024281       0.41107794 </v>
    <v>       0.50020008      -0.00012369       0.41111735 </v>
    <v>       0.49999162       0.50001676       0.41114699 </v>
    <v>       0.16696639       0.16606721       0.48040232 </v>
    <v>       0.16822055       0.66636791       0.48028711 </v>
    <v>       0.66591529       0.16816942       0.48028748 </v>
    <v>       0.66541154       0.66636791       0.48028711 </v>
    <v>       0.91912685       0.66174629       0.53392940 </v>
    <v>       0.85505700       0.78988601       0.55294376 </v>
   </varray>
  </structure>
  <varray name="forces" >
   <v>       0.01596826       0.00580622       0.12582499 </v>
   <v>      -0.00000000      -0.01313462       0.12936296 </v>
   <v>      -0.01596826       0.00580622       0.12582499 </v>
   <v>      -0.00000000       0.00400317       0.11603086 </v>
   <v>      -0.00000000       0.00289741      -0.10439840 </v>
   <v>       0.00163303      -0.00379125      -0.10203278 </v>
   <v>      -0.00000000       0.00420283      -0.11219773 </v>
   <v>      -0.00163303      -0.00379125      -0.10203278 </v>
   <v>       0.00146513      -0.00609233      -0.01929092 </v>
   <v>      -0.00000000       0.00276354      -0.02217296 </v>
   <v>      -0.00146513      -0.00609233      -0.01929092 </v>
   <v>      -0.00000000       0.00669190      -0.03512140 </v>
   <v>       0.00921519       0.00535209       0.01621070 </v>
   <v>      -0.00000000      -0.00902670       0.01845665 </v>
   <v>      -0.00921519       0.00535209       0.01621070 </v>
   <v>      -0.00000000      -0.00349600      -0.02438232 </v>
   <v>      -0.00000000      -0.00418147      -0.01743164 </v>
   <v>       0.03270613      -0.01403545       0.01633796 </v>
   <v>      -0.00000000       0.03436503       0.00240055 </v>
   <v>      -0.03270613      -0.01403545       0.01633796 </v>
   <v>       0.00568658      -0.00800144       0.04321607 </v>
   <v>      -0.00000000       0.00203302       0.04354667 </v>
   <v>      -0.00568658      -0.00800144       0.04321607 </v>
   <v>      -0.00000000       0.01910550      -0.03042675 </v>
   <v>      -0.02207271      -0.01551645       0.04125989 </v>
   <v>      -0.00000000       0.03400036       0.00594271 </v>
   <v>       0.02207271      -0.01551645       0.04125989 </v>
   <v>      -0.00000000       0.00129549       0.05196122 </v>
   <v>      -0.00000000      -0.06603444      -0.13868643 </v>
   <v>       0.17712709      -0.03523879      -0.21259262 </v>
   <v>      -0.00000000       0.18398022      -0.23464181 </v>
   <v>      -0.17712709      -0.03523879      -0.21259262 </v>
   <v>       0.00000000       0.16132840       0.54138775 </v>
   <v>      -0.00000000      -0.21775885      -0.00749652 </v>
  </varray>
  <varray name="stress" >
   <v>     -31.48427308       0.00000000       0.00000000 </v>
   <v>       0.00000000     -31.19234272      -0.60506473 </v>
   <v>       0.00000000      -0.60505905      -7.24931467 </v>
  </varray>
  <energy>
   <i name="e_fr_energy">   -134.83334115 </i>
   <i name="e_wo_entrp">   -134.81966491 </i>
   <i name="e_0_energy">   -134.82878241 </i>
  </energy>
  <time name="totalsc">   60.91   61.47</time>
 </calculation>
 <calculation>
  <scstep>
   <time name="dav">    6.43    6.48</time>
   <time name="total">    6.88    6.94</time>
   <energy>
    <i name="alphaZ">   1114.72537883 </i>
    <i name="ewald"> 216683.32210518 </i>
    <i name="hartreedc">-260209.68857666 </i>
    <i name="XCdc">   1433.79827643 </i>
    <i name="pawpsdc">  42132.10068263 </i>
    <i name="pawaedc"> -45584.08778403 </i>
    <i name="eentropy">     -0.01559088 </i>
    <i name="bandstr">   -226.56207396 </i>
    <i name="atom">  44535.60175172 </i>
    <i name="e_fr_energy">   -120.80583073 </i>
    <i name="e_wo_entrp">   -120.79023985 </i>
    <i name="e_0_energy">   -120.80063377 </i>
   </energy>
  </scstep>
  <scstep>
   <time name="dav">    7.97    8.05</time>
   <time name="total">    8.42    8.50</time>
   <energy>
    <i name="e_fr_energy">   -120.82079494 </i>
    <i name="e_wo_entrp">   -120.80485427 </i>
    <i name="e_0_energy">   -120.81548139 </i>
   </energy>
  </scstep>
  <scstep>
   <time name="dav">    6.61    6.67</time>
   <time name="total">    7.05    7.11</time>
   <energy>
    <i name="e_fr_energy">   -120.82139083 </i>
    <i name="e_wo_entrp">   -120.80624241 </i>
    <i name="e_0_energy">   -120.81634136 </i>
   </energy>
  </scstep>
  <scstep>
   <time name="dav">    6.59    6.65</time>
   <time name="total">    7.04    7.11</time>
   <energy>
    <i name="e_fr_energy">   -120.82089490 </i>
    <i name="e_wo_entrp">   -120.80555294 </i>
    <i name="e_0_energy">   -120.81578091 </i>
   </energy>
  </scstep>
  <scstep>
   <time name="dav">    5.51    5.56</time>
   <time name="total">    5.95    6.01</time>
   <energy>
    <i name="e_fr_energy">   -120.82053027 </i>
    <i name="e_wo_entrp">   -120.80486944 </i>
    <i name="e_0_energy">   -120.81530999 </i>
   </energy>
  </scstep>
  <scstep>
   <time name="dav">    5.37    5.42</time>
   <time name="total">    5.82    5.87</time>
   <energy>
    <i name="e_fr_energy">   -120.81999005 </i>
    <i name="e_wo_entrp">   -120.80482895 </i>
    <i name="e_0_energy">   -120.81493635 </i>
   </energy>
  </scstep>
  <scstep>
   <time name="dav">    7.30    7.37</time>
   <time name="total">    7.74    7.81</time>
   <energy>
    <i name="e_fr_energy">   -120.81997777 </i>
    <i name="e_wo_entrp">   -120.80478338 </i>
    <i name="e_0_energy">   -120.81491298 </i>
   </energy>
  </scstep>
  <scstep>
   <time name="dav">    5.84    5.89</time>
   <time name="total">    5.91    5.97</time>
   <energy>
    <i name="alphaZ">   1114.72537883 </i>
    <i name="ewald"> 216683.32210518 </i>
    <i name="hartreedc">-260208.00314431 </i>
    <i name="XCdc">   1433.79057599 </i>
    <i name="pawpsdc">  42142.79068696 </i>
    <i name="pawaedc"> -45595.05341210 </i>
    <i name="eentropy">     -0.01558064 </i>
    <i name="bandstr">   -227.97834302 </i>
    <i name="atom">  44535.60175172 </i>
    <i name="e_fr_energy">   -120.81998140 </i>
    <i name="e_wo_entrp">   -120.80440076 </i>
    <i name="e_0_energy">   -120.81478785 </i>
   </energy>
  </scstep>
  <structure>
   <crystal>
    <varray name="basis" >
     <v>       5.13359547       0.00000000       0.00000000 </v>
     <v>       2.56679773       4.44582409       0.00000000 </v>
     <v>       0.00000000       0.00000000      29.67047119 </v>
    </varray>
    <i name="volume">    677.17101477 </i>
    <varray name="rec_basis" >
     <v>       0.19479525      -0.11246509       0.00000000 </v>
     <v>       0.00000000       0.22493018       0.00000000 </v>
     <v>       0.00000000       0.00000000       0.03370354 </v>
    </varray>
   </crystal>
   <varray name="positions" >
    <v>       0.00021854       0.00011258       0.00037325 </v>
    <v>       0.00013044       0.49973913       0.00038241 </v>
    <v>       0.49966888       0.00011258       0.00037325 </v>
    <v>       0.49995925       0.50008151       0.00034593 </v>
    <v>       0.16663908       0.16672184       0.07031122 </v>
    <v>       0.16673494       0.66659271       0.07032037 </v>
    <v>       0.66662427       0.16675145       0.07029174 </v>
    <v>       0.66667236       0.66659271       0.07032037 </v>
    <v>       0.33343497       0.33321140       0.13843314 </v>
    <v>       0.33330923       0.83338153       0.13842440 </v>
    <v>       0.83335364       0.33321140       0.13843314 </v>
    <v>       0.83326153       0.83347694       0.13838256 </v>
    <v>       0.00011570       0.00012544       0.20672160 </v>
    <v>       0.00010651       0.49978699       0.20672869 </v>
    <v>       0.49975887       0.00012544       0.20672160 </v>
    <v>       0.50003470       0.49993061       0.20660462 </v>
    <v>       0.16671261       0.16657478       0.27483181 </v>
    <v>       0.16736926       0.66639601       0.27494094 </v>
    <v>       0.66632907       0.16734185       0.27490274 </v>
    <v>       0.66623473       0.66639601       0.27494094 </v>
    <v>       0.33352340       0.33316993       0.34330895 </v>
    <v>       0.33331181       0.83337637       0.34330877 </v>
    <v>       0.83330668       0.33316993       0.34330895 </v>
    <v>       0.83314257       0.83371487       0.34309874 </v>
    <v>      -0.00021870      -0.00032576       0.41120173 </v>
    <v>       0.99966278       0.50067443       0.41109450 </v>
    <v>       0.50054446      -0.00032576       0.41120173 </v>
    <v>       0.49998192       0.50003617       0.41125890 </v>
    <v>       0.16741078       0.16517843       0.48014092 </v>
    <v>       0.17052287       0.66590197       0.47987087 </v>
    <v>       0.66471021       0.17057957       0.47983876 </v>
    <v>       0.66357516       0.66590197       0.47987087 </v>
    <v>       0.91930167       0.66139665       0.53460021 </v>
    <v>       0.85523031       0.78953938       0.55329031 </v>
   </varray>
  </structure>
  <varray name="forces" >
   <v>       0.00590440       0.00211819       0.06951143 </v>
   <v>      -0.00000000      -0.00363938       0.07209773 </v>
   <v>      -0.00590440       0.00211819       0.06951143 </v>
   <v>      -0.00000000       0.00225991       0.06325025 </v>
   <v>       0.00000000       0.00119667      -0.02042694 </v>
   <v>       0.00034896      -0.00114228      -0.02365375 </v>
   <v>      -0.00000000       0.00116572      -0.03065068 </v>
   <v>      -0.00034896      -0.00114228      -0.02365375 </v>
   <v>      -0.00237168      -0.00198282      -0.03878141 </v>
   <v>      -0.00000000       0.00191007      -0.03900258 </v>
   <v>       0.00237168      -0.00198282      -0.03878141 </v>
   <v>      -0.00000000       0.00088360      -0.03831092 </v>
   <v>      -0.00224787      -0.00325921       0.00240669 </v>
   <v>       0.00000000       0.00593463       0.00434145 </v>
   <v>       0.00224787      -0.00325921       0.00240669 </v>
   <v>      -0.00000000      -0.00002085      -0.01705473 </v>
   <v>      -0.00000000       0.00021290       0.01232220 </v>
   <v>       0.00817239      -0.00410225       0.01015581 </v>
   <v>       0.00000000       0.01030822       0.00156078 </v>
   <v>      -0.00817239      -0.00410225       0.01015581 </v>
   <v>      -0.00021556      -0.00270990       0.02717173 </v>
   <v>      -0.00000000       0.00208869       0.03153546 </v>
   <v>       0.00021556      -0.00270990       0.02717173 </v>
   <v>      -0.00000000       0.00856879      -0.01189301 </v>
   <v>      -0.01141002      -0.00284459      -0.02725430 </v>
   <v>      -0.00000000       0.01463623      -0.02707438 </v>
   <v>       0.01141002      -0.00284459      -0.02725430 </v>
   <v>      -0.00000000      -0.00175484      -0.07122342 </v>
   <v>      -0.00000000      -0.00755435      -0.09011636 </v>
   <v>       0.02710715      -0.00276697      -0.12227926 </v>
   <v>      -0.00000000       0.04881146      -0.13449959 </v>
   <v>      -0.02710715      -0.00276697      -0.12227926 </v>
   <v>      -0.00000000       0.12671652       0.46831057 </v>
   <v>       0.00000000      -0.17834434       0.03228031 </v>
  </varray>
  <varray name="stress" >
   <v>     -31.55058880       0.00000000       0.00000000 </v>
   <v>       0.00000000     -31.24663821      -0.54341125 </v>
   <v>       0.00000000      -0.54340566      -6.73617784 </v>
  </varray>
  <energy>
   <i name="e_fr_energy">   -134.85997068 </i>
   <i name="e_wo_entrp">   -134.84439004 </i>
   <i name="e_0_energy">   -134.85477713 </i>
  </energy>
  <time name="totalsc">   66.41   67.04</time>
 </calculation>
 <calculation>
  <scstep>
   <time name="dav">    6.45    6.51</time>
   <time name="total">    6.90    6.96</time>
   <energy>
    <i name="alphaZ">   1114.72537883 </i>
    <i name="ewald"> 217019.05347143 </i>
    <i name="hartreedc">-260543.06476294 </i>
    <i name="XCdc">   1433.90539499 </i>
    <i name="pawpsdc">  42143.09542027 </i>
    <i name="pawaedc"> -45595.35499316 </i>
    <i name="eentropy">     -0.01762423 </i>
    <i name="bandstr">   -228.74728123 </i>
    <i name="atom">  44535.60175172 </i>
    <i name="e_fr_energy">   -120.80324432 </i>
    <i name="e_wo_entrp">   -120.78562008 </i>
    <i name="e_0_energy">   -120.79736957 </i>
   </energy>
  </scstep>
  <scstep>
   <time name="dav">    8.16    8.24</time>
   <time name="total">    8.61    8.70</time>
   <energy>
    <i name="e_fr_energy">   -120.83062538 </i>
    <i name="e_wo_entrp">   -120.81327721 </i>
    <i name="e_0_energy">   -120.82484266 </i>
   </energy>
  </scstep>
  <scstep>
   <time name="dav">    6.73    6.80</time>
   <time name="total">    7.18    7.25</time>
   <energy>
    <i name="e_fr_energy">   -120.83566780 </i>
    <i name="e_wo_entrp">   -120.81742445 </i>
    <i name="e_0_energy">   -120.82958669 </i>
   </energy>
  </scstep>
  <scstep>
   <time name="dav">    6.76    6.82</time>
   <time name="total">    7.21    7.28</time>
   <energy>
    <i name="e_fr_energy">   -120.82861498 </i>
    <i name="e_wo_entrp">   -120.81201135 </i>
    <i name="e_0_energy">   -120.82308044 </i>
   </energy>
  </scstep>
  <scstep>
   <time name="dav">    8.00    8.08</time>
   <time name="total">    8.44    8.52</time>
   <energy>
    <i name="e_fr_energy">   -120.82874752 </i>
    <i name="e_wo_entrp">   -120.81109917 </i>
    <i name="e_0_energy">   -120.82286474 </i>
   </energy>
  </scstep>
  <scstep>
   <time name="dav">    7.78    7.85</time>
   <time name="total">    8.22    8.30</time>
   <energy>
    <i name="e_fr_energy">   -120.82819495 </i>
    <i name="e_wo_entrp">   -120.81094723 </i>
    <i name="e_0_energy">   -120.82244571 </i>
   </energy>
  </scstep>
  <scstep>
   <time name="dav">    6.35    6.41</time>
   <time name="total">    6.80    6.86</time>
   <energy>
    <i name="e_fr_energy">   -120.82802591 </i>
    <i name="e_wo_entrp">   -120.81115217 </i>
    <i name="e_0_energy">   -120.82240133 </i>
   </energy>
  </scstep>
  <scstep>
   <time name="dav">    6.65    6.71</time>
   <time name="total">    6.73    6.79</time>
   <energy>
    <i name="alphaZ">   1114.72537883 </i>
    <i name="ewald"> 217019.05347143 </i>
    <i name="hartreedc">-260541.65128804 </i>
    <i name="XCdc">   1433.88772671 </i>
    <i name="pawpsdc">  42159.93121481 </i>
    <i name="pawaedc"> -45612.49696860 </i>
    <i name="eentropy">     -0.01766902 </i>
    <i name="bandstr">   -229.86168654 </i>
    <i name="atom">  44535.60175172 </i>
    <i name="e_fr_energy">   -120.82806869 </i>
    <i name="e_wo_entrp">   -120.81039968 </i>
    <i name="e_0_energy">   -120.82217902 </i>
   </energy>
  </scstep>
  <structure>
   <crystal>
    <varray name="basis" >
     <v>       5.13359547       0.00000000       0.00000000 </v>
     <v>       2.56679773       4.44582409       0.00000000 </v>
     <v>       0.00000000       0.00000000      29.67047119 </v>
    </varray>
    <i name="volume">    677.17101477 </i>
    <varray name="rec_basis" >
     <v>       0.19479525      -0.11246509       0.00000000 </v>
     <v>       0.00000000       0.22493018       0.00000000 </v>
     <v>       0.00000000       0.00000000       0.03370354 </v>
    </varray>
   </crystal>
   <varray name="positions" >
    <v>       0.00039865       0.00020698       0.00068263 </v>
    <v>       0.00023836       0.49952329       0.00070000 </v>
    <v>       0.49939437       0.00020698       0.00068263 </v>
    <v>       0.49992599       0.50014802       0.00063186 </v>
    <v>       0.16661570       0.16676859       0.07004927 </v>
    <v>       0.16679026       0.66653089       0.07006502 </v>
    <v>       0.66658950       0.16682100       0.07001196 </v>
    <v>       0.66667885       0.66653089       0.07006502 </v>
    <v>       0.33351171       0.33311094       0.13839309 </v>
    <v>       0.33328775       0.83342450       0.13837719 </v>
    <v>       0.83337735       0.33311094       0.13839309 </v>
    <v>       0.83320459       0.83359083       0.13830226 </v>
    <v>       0.00020665       0.00022040       0.20676117 </v>
    <v>       0.00018685       0.49962630       0.20677394 </v>
    <v>       0.49957295       0.00022040       0.20676117 </v>
    <v>       0.50006341       0.49987317       0.20654564 </v>
    <v>       0.16674859       0.16650283       0.27478710 </v>
    <v>       0.16795027       0.66616834       0.27498253 </v>
    <v>       0.66604806       0.16790388       0.27491122 </v>
    <v>       0.66588139       0.66616834       0.27498253 </v>
    <v>       0.33367475       0.33303679       0.34340846 </v>
    <v>       0.33329462       0.83341076       0.34340868 </v>
    <v>       0.83328845       0.33303679       0.34340846 </v>
    <v>       0.83298520       0.83402959       0.34302021 </v>
    <v>      -0.00040282      -0.00058718       0.41131089 </v>
    <v>       0.99938358       0.50123284       0.41111593 </v>
    <v>       0.50098999      -0.00058718       0.41131089 </v>
    <v>       0.49996936       0.50006128       0.41140368 </v>
    <v>       0.16798571       0.16402858       0.47980274 </v>
    <v>       0.17350149       0.66529915       0.47933235 </v>
    <v>       0.66315115       0.17369770       0.47925823 </v>
    <v>       0.66119936       0.66529915       0.47933235 </v>
    <v>       0.91952785       0.66094431       0.53546808 </v>
    <v>       0.85545453       0.78909094       0.55373866 </v>
   </varray>
  </structure>
  <varray name="forces" >
   <v>      -0.00539855      -0.00242145       0.00805157 </v>
   <v>       0.00000000       0.00713222       0.00978145 </v>
   <v>       0.00539855      -0.00242145       0.00805157 </v>
   <v>       0.00000000       0.00017046       0.00515454 </v>
   <v>       0.00000000      -0.00097389       0.07517171 </v>
   <v>      -0.00094424       0.00143411       0.06464478 </v>
   <v>       0.00000000      -0.00236391       0.05944461 </v>
   <v>       0.00094424       0.00143411       0.06464478 </v>
   <v>      -0.00665815       0.00181628      -0.06530526 </v>
   <v>       0.00000000       0.00079427      -0.06285877 </v>
   <v>       0.00665815       0.00181628      -0.06530526 </v>
   <v>       0.00000000      -0.00550357      -0.04769907 </v>
   <v>      -0.01437115      -0.01298946      -0.01073154 </v>
   <v>      -0.00000000       0.02196143      -0.00859070 </v>
   <v>       0.01437115      -0.01298946      -0.01073154 </v>
   <v>       0.00000000       0.00330626      -0.01043301 </v>
   <v>       0.00000000       0.00433174       0.04407808 </v>
   <v>      -0.01672691       0.00559486       0.00437774 </v>
   <v>       0.00000000      -0.01417774       0.00085812 </v>
   <v>       0.01672691       0.00559486       0.00437774 </v>
   <v>      -0.00663046       0.00205694       0.01678712 </v>
   <v>       0.00000000       0.00215796       0.02644475 </v>
   <v>       0.00663046       0.00205694       0.01678712 </v>
   <v>       0.00000000      -0.00194583       0.00836918 </v>
   <v>      -0.00152112       0.01014694      -0.09930963 </v>
   <v>       0.00000000      -0.00455749      -0.05762740 </v>
   <v>       0.00152112       0.01014694      -0.09930963 </v>
   <v>       0.00000000      -0.00555660      -0.22180032 </v>
   <v>      -0.00000000       0.05374106      -0.04213358 </v>
   <v>      -0.13965088       0.03798940      -0.02309976 </v>
   <v>      -0.00000000      -0.10125858      -0.02798167 </v>
   <v>       0.13965088       0.03798940      -0.02309976 </v>
   <v>      -0.00000000       0.06345740       0.36425330 </v>
   <v>       0.00000000      -0.10797048       0.09473878 </v>
  </varray>
  <varray name="stress" >
   <v>     -30.30918410       0.00000000       0.00000000 </v>
   <v>       0.00000000     -29.98251307      -0.43897253 </v>
   <v>       0.00000000      -0.43896675      -5.05751364 </v>
  </varray>
  <energy>
   <i name="e_fr_energy">   -134.87561836 </i>
   <i name="e_wo_entrp">   -134.85794935 </i>
   <i name="e_0_energy">   -134.86972869 </i>
  </energy>
  <time name="totalsc">   71.62   72.32</time>
 </calculation>
 <calculation>
  <scstep>
   <time name="dav">    6.08    6.14</time>
   <time name="total">    6.54    6.60</time>
   <energy>
    <i name="alphaZ">   1114.72537883 </i>
    <i name="ewald"> 217262.53260868 </i>
    <i name="hartreedc">-260785.06559572 </i>
    <i name="XCdc">   1433.92868451 </i>
    <i name="pawpsdc">  42160.24643464 </i>
    <i name="pawaedc"> -45612.81545440 </i>
    <i name="eentropy">     -0.01667571 </i>
    <i name="bandstr">   -229.96844450 </i>
    <i name="atom">  44535.60175172 </i>
    <i name="e_fr_energy">   -120.83131195 </i>
    <i name="e_wo_entrp">   -120.81463624 </i>
    <i name="e_0_energy">   -120.82575338 </i>
   </energy>
  </scstep>
  <scstep>
   <time name="dav">    9.34    9.43</time>
   <time name="total">    9.79    9.89</time>
   <energy>
    <i name="e_fr_energy">   -120.84156643 </i>
    <i name="e_wo_entrp">   -120.82284763 </i>
    <i name="e_0_energy">   -120.83532683 </i>
   </energy>
  </scstep>
  <scstep>
   <time name="dav">    9.00    9.08</time>
   <time name="total">    9.45    9.54</time>
   <energy>
    <i name="e_fr_energy">   -120.83792316 </i>
    <i name="e_wo_entrp">   -120.82052857 </i>
    <i name="e_0_energy">   -120.83212496 </i>
   </energy>
  </scstep>
  <scstep>
   <time name="dav">    6.44    6.50</time>
   <time name="total">    6.88    6.94</time>
   <energy>
    <i name="e_fr_energy">   -120.83733893 </i>
    <i name="e_wo_entrp">   -120.82052706 </i>
    <i name="e_0_energy">   -120.83173497 </i>
   </energy>
  </scstep>
  <scstep>
   <time name="dav">    6.46    6.52</time>
   <time name="total">    6.91    6.97</time>
   <energy>
    <i name="e_fr_energy">   -120.83761308 </i>
    <i name="e_wo_entrp">   -120.81988057 </i>
    <i name="e_0_energy">   -120.83170224 </i>
   </energy>
  </scstep>
  <scstep>
   <time name="dav">    6.70    6.77</time>
   <time name="total">    7.15    7.21</time>
   <energy>
    <i name="e_fr_energy">   -120.83739361 </i>
    <i name="e_wo_entrp">   -120.81951785 </i>
    <i name="e_0_energy">   -120.83143503 </i>
   </energy>
  </scstep>
  <scstep>
   <time name="dav">    6.04    6.09</time>
   <time name="total">    6.49    6.54</time>
   <energy>
    <i name="e_fr_energy">   -120.83707330 </i>
    <i name="e_wo_entrp">   -120.81991025 </i>
    <i name="e_0_energy">   -120.83135228 </i>
   </energy>
  </scstep>
  <scstep>
   <time name="dav">    4.77    4.81</time>
   <time name="total">    4.85    4.89</time>
   <energy>
    <i name="alphaZ">   1114.72537883 </i>
    <i name="ewald"> 217262.53260868 </i>
    <i name="hartreedc">-260784.43747280 </i>
    <i name="XCdc">   1433.94404267 </i>
    <i name="pawpsdc">  42166.44007108 </i>
    <i name="pawaedc"> -45619.00291505 </i>
    <i name="eentropy">     -0.01728097 </i>
    <i name="bandstr">   -230.62327776 </i>
    <i name="atom">  44535.60175172 </i>
    <i name="e_fr_energy">   -120.83709359 </i>
    <i name="e_wo_entrp">   -120.81981263 </i>
    <i name="e_0_energy">   -120.83133327 </i>
   </energy>
  </scstep>
  <structure>
   <crystal>
    <varray name="basis" >
     <v>       5.13359547       0.00000000       0.00000000 </v>
     <v>       2.56679773       4.44582409       0.00000000 </v>
     <v>       0.00000000       0.00000000      29.67047119 </v>
    </varray>
    <i name="volume">    677.17101477 </i>
    <varray name="rec_basis" >
     <v>       0.19479525      -0.11246509       0.00000000 </v>
     <v>       0.00000000       0.22493018       0.00000000 </v>
     <v>       0.00000000       0.00000000       0.03370354 </v>
    </varray>
   </crystal>
   <varray name="positions" >
    <v>       0.00039884       0.00019956       0.00077193 </v>
    <v>       0.00021995       0.49956010       0.00079450 </v>
    <v>       0.49940160       0.00019956       0.00077193 </v>
    <v>       0.49991694       0.50016612       0.00071013 </v>
    <v>       0.16661614       0.16676771       0.07012637 </v>
    <v>       0.16678447       0.66653388       0.07012409 </v>
    <v>       0.66659584       0.16680832       0.07005548 </v>
    <v>       0.66668166       0.66653388       0.07012409 </v>
    <v>       0.33344718       0.33310939       0.13826183 </v>
    <v>       0.33327765       0.83344469       0.13824878 </v>
    <v>       0.83344343       0.33310939       0.13826183 </v>
    <v>       0.83322512       0.83354977       0.13819413 </v>
    <v>       0.00015453       0.00008174       0.20675069 </v>
    <v>       0.00006966       0.49986069       0.20676881 </v>
    <v>       0.49976373       0.00008174       0.20675069 </v>
    <v>       0.50004976       0.49990048       0.20651205 </v>
    <v>       0.16673030       0.16653939       0.27485845 </v>
    <v>       0.16787498       0.66618320       0.27500067 </v>
    <v>       0.66606868       0.16786264       0.27491486 </v>
    <v>       0.66594182       0.66618320       0.27500067 </v>
    <v>       0.33362695       0.33303039       0.34346363 </v>
    <v>       0.33327708       0.83344584       0.34348192 </v>
    <v>       0.83334267       0.33303039       0.34346363 </v>
    <v>       0.83295950       0.83408099       0.34301693 </v>
    <v>      -0.00052648      -0.00052383       0.41115214 </v>
    <v>       0.99934484       0.50131031       0.41101374 </v>
    <v>       0.50105031      -0.00052383       0.41115214 </v>
    <v>       0.50000088       0.49999824       0.41102534 </v>
    <v>       0.16778979       0.16442042       0.47964305 </v>
    <v>       0.17247745       0.66562659       0.47915999 </v>
    <v>       0.66340604       0.17318793       0.47906668 </v>
    <v>       0.66189597       0.66562659       0.47915999 </v>
    <v>       0.91918777       0.66162445       0.53635495 </v>
    <v>       0.85617943       0.78764114       0.55402279 </v>
   </varray>
  </structure>
  <varray name="forces" >
   <v>      -0.00458573      -0.00213076       0.00895054 </v>
   <v>       0.00000000       0.00608663       0.00998192 </v>
   <v>       0.00458573      -0.00213076       0.00895054 </v>
   <v>       0.00000000       0.00010760       0.00751757 </v>
   <v>       0.00000000      -0.00155152       0.04309432 </v>
   <v>      -0.00018392       0.00137546       0.03819022 </v>
[...]
       <r>    11.0853     7.9056   223.5280 </r>
       <r>    11.1651     7.0784   224.0932 </r>
       <r>    11.2450     8.0519   224.7362 </r>
       <r>    11.3248    10.4316   225.5691 </r>
       <r>    11.4047    11.6324   226.4980 </r>
       <r>    11.4845    10.1997   227.3125 </r>
       <r>    11.5644     7.4486   227.9072 </r>
       <r>    11.6442     5.5151   228.3476 </r>
       <r>    11.7241     5.2961   228.7705 </r>
       <r>    11.8039     6.2919   229.2729 </r>
       <r>    11.8838     7.0375   229.8349 </r>
       <r>    11.9636     6.1503   230.3260 </r>
       <r>    12.0435     3.9036   230.6377 </r>
       <r>    12.1233     1.8678   230.7868 </r>
       <r>    12.2032     0.9064   230.8592 </r>
       <r>    12.2830     0.7569   230.9196 </r>
       <r>    12.3629     0.9858   230.9984 </r>
       <r>    12.4427     1.2971   231.1019 </r>
       <r>    12.5226     1.4783   231.2200 </r>
       <r>    12.6024     1.5410   231.3430 </r>
       <r>    12.6823     1.6889   231.4779 </r>
       <r>    12.7621     1.9941   231.6371 </r>
       <r>    12.8420     2.1249   231.8068 </r>
       <r>    12.9218     1.6746   231.9405 </r>
       <r>    13.0017     0.8165   232.0057 </r>
       <r>    13.0815     0.1414   232.0170 </r>
       <r>    13.1614    -0.0948   232.0094 </r>
       <r>    13.2412    -0.0801   232.0030 </r>
       <r>    13.3211    -0.0299   232.0006 </r>
       <r>    13.4009    -0.0069   232.0001 </r>
       <r>    13.4808    -0.0011   232.0000 </r>
       <r>    13.5606    -0.0001   232.0000 </r>
       <r>    13.6405    -0.0000   232.0000 </r>
       <r>    13.7203    -0.0000   232.0000 </r>
       <r>    13.8002    -0.0000   232.0000 </r>
       <r>    13.8800    -0.0000   232.0000 </r>
       <r>    13.9599    -0.0000   232.0000 </r>
       <r>    14.0397    -0.0000   232.0000 </r>
       <r>    14.1196    -0.0000   232.0000 </r>
       <r>    14.1994     0.0000   232.0000 </r>
       <r>    14.2793     0.0000   232.0000 </r>
       <r>    14.3591     0.0000   232.0000 </r>
       <r>    14.4390     0.0000   232.0000 </r>
       <r>    14.5188     0.0000   232.0000 </r>
       <r>    14.5987     0.0000   232.0000 </r>
       <r>    14.6785     0.0000   232.0000 </r>
       <r>    14.7584     0.0000   232.0000 </r>
       <r>    14.8382     0.0000   232.0000 </r>
      </set>
      <set comment="spin 2">
       <r>    -9.1170     0.0000     0.0000 </r>
       <r>    -9.0371     0.0000     0.0000 </r>
       <r>    -8.9573     0.0000     0.0000 </r>
       <r>    -8.8774     0.0000     0.0000 </r>
       <r>    -8.7976     0.0000     0.0000 </r>
       <r>    -8.7177    -0.0000    -0.0000 </r>
       <r>    -8.6379    -0.0000    -0.0000 </r>
       <r>    -8.5580    -0.0000    -0.0000 </r>
       <r>    -8.4781    -0.0000    -0.0000 </r>
       <r>    -8.3983    -0.0000    -0.0000 </r>
       <r>    -8.3184    -0.0000    -0.0000 </r>
       <r>    -8.2386    -0.0000    -0.0000 </r>
       <r>    -8.1587    -0.0000    -0.0000 </r>
       <r>    -8.0789    -0.0000    -0.0000 </r>
       <r>    -7.9990    -0.0000    -0.0000 </r>
       <r>    -7.9192    -0.0000    -0.0000 </r>
       <r>    -7.8393    -0.0000    -0.0000 </r>
       <r>    -7.7595    -0.0000    -0.0000 </r>
       <r>    -7.6796    -0.0003    -0.0000 </r>
       <r>    -7.5998    -0.0020    -0.0002 </r>
       <r>    -7.5199    -0.0083    -0.0008 </r>
       <r>    -7.4401    -0.0205    -0.0025 </r>
       <r>    -7.3602    -0.0183    -0.0039 </r>
       <r>    -7.2804     0.0569     0.0006 </r>
       <r>    -7.2005     0.2380     0.0196 </r>
       <r>    -7.1207     0.4171     0.0529 </r>
       <r>    -7.0408     0.4152     0.0861 </r>
       <r>    -6.9610     0.2431     0.1055 </r>
       <r>    -6.8811     0.1325     0.1161 </r>
       <r>    -6.8013     0.2310     0.1345 </r>
       <r>    -6.7214     0.3947     0.1660 </r>
       <r>    -6.6416     0.3664     0.1953 </r>
       <r>    -6.5617     0.1171     0.2046 </r>
       <r>    -6.4819    -0.0351     0.2018 </r>
       <r>    -6.4020     0.3892     0.2329 </r>
       <r>    -6.3222     1.5190     0.3542 </r>
       <r>    -6.2423     2.6103     0.5626 </r>
       <r>    -6.1625     2.6578     0.7748 </r>
       <r>    -6.0826     1.8349     0.9214 </r>
       <r>    -6.0028     1.4202     1.0348 </r>
       <r>    -5.9229     2.0129     1.1955 </r>
       <r>    -5.8431     2.6670     1.4085 </r>
       <r>    -5.7632     2.2645     1.5893 </r>
       <r>    -5.6834     1.0514     1.6732 </r>
       <r>    -5.6035     0.0407     1.6765 </r>
       <r>    -5.5237    -0.3024     1.6523 </r>
       <r>    -5.4438     0.0590     1.6570 </r>
       <r>    -5.3640     1.2053     1.7533 </r>
       <r>    -5.2841     2.6623     1.9659 </r>
       <r>    -5.2043     3.1930     2.2208 </r>
       <r>    -5.1244     2.2461     2.4002 </r>
       <r>    -5.0446     0.7665     2.4614 </r>
       <r>    -4.9647    -0.1497     2.4494 </r>
       <r>    -4.8849    -0.2803     2.4271 </r>
       <r>    -4.8050     0.2833     2.4497 </r>
       <r>    -4.7252     1.4411     2.5648 </r>
       <r>    -4.6453     2.6916     2.7797 </r>
       <r>    -4.5655     3.5490     3.0631 </r>
       <r>    -4.4856     4.2164     3.3998 </r>
       <r>    -4.4058     4.8165     3.7844 </r>
       <r>    -4.3259     4.6512     4.1558 </r>
       <r>    -4.2461     3.3442     4.4228 </r>
       <r>    -4.1662     1.9352     4.5773 </r>
       <r>    -4.0864     1.6927     4.7125 </r>
       <r>    -4.0065     2.5291     4.9144 </r>
       <r>    -3.9267     3.7586     5.2146 </r>
       <r>    -3.8468     5.2769     5.6359 </r>
       <r>    -3.7670     6.7252     6.1729 </r>
       <r>    -3.6871     7.1258     6.7419 </r>
       <r>    -3.6073     6.4345     7.2557 </r>
       <r>    -3.5274     5.8260     7.7209 </r>
       <r>    -3.4476     5.8205     8.1857 </r>
       <r>    -3.3677     5.6462     8.6366 </r>
       <r>    -3.2879     4.7797     9.0182 </r>
       <r>    -3.2080     3.6446     9.3093 </r>
       <r>    -3.1282     2.8880     9.5399 </r>
       <r>    -3.0483     3.1112     9.7883 </r>
       <r>    -2.9685     4.4678    10.1451 </r>
       <r>    -2.8886     6.2096    10.6409 </r>
       <r>    -2.8088     8.0226    11.2815 </r>
       <r>    -2.7289    10.9666    12.1572 </r>
       <r>    -2.6491    15.6358    13.4057 </r>
       <r>    -2.5692    20.8892    15.0737 </r>
       <r>    -2.4893    24.9479    17.0658 </r>
       <r>    -2.4095    26.1402    19.1532 </r>
       <r>    -2.3296    23.7258    21.0477 </r>
       <r>    -2.2498    19.7134    22.6218 </r>
       <r>    -2.1699    17.9802    24.0575 </r>
       <r>    -2.0901    20.5816    25.7010 </r>
       <r>    -2.0102    26.4731    27.8149 </r>
       <r>    -1.9304    33.0248    30.4519 </r>
       <r>    -1.8505    37.4099    33.4391 </r>
       <r>    -1.7707    38.2685    36.4949 </r>
       <r>    -1.6908    36.2146    39.3867 </r>
       <r>    -1.6110    32.5831    41.9884 </r>
       <r>    -1.5311    29.3338    44.3308 </r>
       <r>    -1.4513    28.2223    46.5843 </r>
       <r>    -1.3714    29.6167    48.9493 </r>
       <r>    -1.2916    33.8402    51.6514 </r>
       <r>    -1.2117    40.7034    54.9016 </r>
       <r>    -1.1319    46.9993    58.6545 </r>
       <r>    -1.0520    49.2310    62.5857 </r>
       <r>    -0.9722    49.6051    66.5467 </r>
       <r>    -0.8923    53.4533    70.8149 </r>
       <r>    -0.8125    60.1402    75.6172 </r>
       <r>    -0.7326    63.8641    80.7168 </r>
       <r>    -0.6528    62.6227    85.7172 </r>
       <r>    -0.5729    59.4300    90.4628 </r>
       <r>    -0.4931    56.9030    95.0065 </r>
       <r>    -0.4132    55.4135    99.4313 </r>
       <r>    -0.3334    54.7828   103.8058 </r>
       <r>    -0.2535    54.2285   108.1359 </r>
       <r>    -0.1737    52.3605   112.3170 </r>
       <r>    -0.0938    49.9708   116.3072 </r>
       <r>    -0.0140    48.9515   120.2160 </r>
       <r>     0.0659    49.5451   124.1722 </r>
       <r>     0.1457    53.2430   128.4237 </r>
       <r>     0.2256    61.7172   133.3518 </r>
       <r>     0.3054    70.6851   138.9961 </r>
       <r>     0.3853    74.2286   144.9233 </r>
       <r>     0.4651    73.7803   150.8147 </r>
       <r>     0.5450    73.6445   156.6953 </r>
       <r>     0.6248    70.6889   162.3398 </r>
       <r>     0.7047    57.4836   166.9299 </r>
       <r>     0.7845    34.7156   169.7020 </r>
       <r>     0.8644    12.8719   170.7298 </r>
       <r>     0.9442     0.9091   170.8024 </r>
       <r>     1.0241    -1.3218   170.6969 </r>
       <r>     1.1039     0.6332   170.7474 </r>
       <r>     1.1838     2.4353   170.9419 </r>
       <r>     1.2636     3.2199   171.1990 </r>
       <r>     1.3435     3.9020   171.5106 </r>
       <r>     1.4233     4.7923   171.8932 </r>
       <r>     1.5032     5.0287   172.2948 </r>
       <r>     1.5830     3.8588   172.6029 </r>
       <r>     1.6629     2.1724   172.7764 </r>
       <r>     1.7427     2.1682   172.9495 </r>
       <r>     1.8226     4.9756   173.3468 </r>
       <r>     1.9024     9.0804   174.0719 </r>
       <r>     1.9823    11.6192   174.9997 </r>
       <r>     2.0621    11.3101   175.9028 </r>
       <r>     2.1420     9.7891   176.6845 </r>
       <r>     2.2218     9.0172   177.4045 </r>
       <r>     2.3017     8.1317   178.0538 </r>
       <r>     2.3815     5.5354   178.4958 </r>
       <r>     2.4614     2.6124   178.7044 </r>
       <r>     2.5412     1.9810   178.8626 </r>
       <r>     2.6211     3.7835   179.1647 </r>
       <r>     2.7009     6.0427   179.6472 </r>
       <r>     2.7808     6.9751   180.2042 </r>
       <r>     2.8606     6.0581   180.6879 </r>
       <r>     2.9405     4.4218   181.0410 </r>
       <r>     3.0203     3.7026   181.3367 </r>
       <r>     3.1002     3.7197   181.6337 </r>
       <r>     3.1800     3.1843   181.8880 </r>
       <r>     3.2599     2.3188   182.0731 </r>
       <r>     3.3397     2.4746   182.2707 </r>
       <r>     3.4196     4.1508   182.6022 </r>
       <r>     3.4994     6.7641   183.1423 </r>
       <r>     3.5793     9.2120   183.8779 </r>
       <r>     3.6592    10.1399   184.6876 </r>
       <r>     3.7390     8.7657   185.3875 </r>
       <r>     3.8189     5.9439   185.8621 </r>
       <r>     3.8987     3.6383   186.1526 </r>
       <r>     3.9786     2.7425   186.3716 </r>
       <r>     4.0584     2.2834   186.5540 </r>
       <r>     4.1383     1.3393   186.6609 </r>
       <r>     4.2181     0.2751   186.6829 </r>
       <r>     4.2980    -0.3401   186.6557 </r>
       <r>     4.3778    -0.3932   186.6243 </r>
       <r>     4.4577     0.4399   186.6594 </r>
       <r>     4.5375     2.5180   186.8605 </r>
       <r>     4.6174     4.8912   187.2511 </r>
       <r>     4.6972     5.7321   187.7088 </r>
       <r>     4.7771     4.7914   188.0914 </r>
       <r>     4.8569     3.4439   188.3664 </r>
       <r>     4.9368     2.3435   188.5535 </r>
       <r>     5.0166     1.2213   188.6510 </r>
       <r>     5.0965     0.1796   188.6654 </r>
       <r>     5.1763    -0.3202   188.6398 </r>
       <r>     5.2562     0.1334   188.6505 </r>
       <r>     5.3360     1.7957   188.7938 </r>
       <r>     5.4159     4.1630   189.1263 </r>
       <r>     5.4957     5.9219   189.5991 </r>
       <r>     5.5756     6.5318   190.1207 </r>
       <r>     5.6554     6.9132   190.6727 </r>
       <r>     5.7353     7.4957   191.2713 </r>
       <r>     5.8151     7.2870   191.8531 </r>
       <r>     5.8950     5.8482   192.3201 </r>
       <r>     5.9748     4.0773   192.6457 </r>
       <r>     6.0547     2.7006   192.8613 </r>
       <r>     6.1345     1.8043   193.0054 </r>
       <r>     6.2144     1.8465   193.1529 </r>
       <r>     6.2942     3.6656   193.4456 </r>
       <r>     6.3741     6.5969   193.9723 </r>
       <r>     6.4539     8.1307   194.6216 </r>
       <r>     6.5338     7.1275   195.1907 </r>
       <r>     6.6136     5.1634   195.6030 </r>
       <r>     6.6935     3.7230   195.9003 </r>
       <r>     6.7733     3.0968   196.1476 </r>
       <r>     6.8532     3.6111   196.4359 </r>
       <r>     6.9330     4.9681   196.8326 </r>
       <r>     7.0129     5.9238   197.3056 </r>
       <r>     7.0927     6.3398   197.8119 </r>
       <r>     7.1726     7.1066   198.3794 </r>
       <r>     7.2524     8.0740   199.0241 </r>
       <r>     7.3323     8.5570   199.7073 </r>
       <r>     7.4121     8.3571   200.3747 </r>
       <r>     7.4920     7.0899   200.9408 </r>
       <r>     7.5718     4.8427   201.3275 </r>
       <r>     7.6517     3.0380   201.5701 </r>
       <r>     7.7315     2.9286   201.8039 </r>
       <r>     7.8114     4.5146   202.1644 </r>
       <r>     7.8912     6.9284   202.7176 </r>
       <r>     7.9711     8.6482   203.4082 </r>
       <r>     8.0509     8.2843   204.0697 </r>
       <r>     8.1308     6.1373   204.5598 </r>
       <r>     8.2106     4.1149   204.8884 </r>
       <r>     8.2905     3.5551   205.1722 </r>
       <r>     8.3703     4.3722   205.5214 </r>
       <r>     8.4502     6.2547   206.0208 </r>
       <r>     8.5300     8.6967   206.7153 </r>
       <r>     8.6099    10.0881   207.5208 </r>
       <r>     8.6897     8.8027   208.2237 </r>
       <r>     8.7696     5.4914   208.6622 </r>
       <r>     8.8494     2.9850   208.9005 </r>
       <r>     8.9293     3.1921   209.1554 </r>
       <r>     9.0091     4.8424   209.5421 </r>
       <r>     9.0890     5.3526   209.9695 </r>
       <r>     9.1688     4.4739   210.3268 </r>
       <r>     9.2487     4.3810   210.6766 </r>
       <r>     9.3285     6.1999   211.1717 </r>
       <r>     9.4084     8.4105   211.8432 </r>
       <r>     9.4882     8.8578   212.5505 </r>
       <r>     9.5681     7.0927   213.1169 </r>
       <r>     9.6480     4.7395   213.4953 </r>
       <r>     9.7278     3.7763   213.7969 </r>
       <r>     9.8077     4.4383   214.1513 </r>
       <r>     9.8875     5.6267   214.6006 </r>
       <r>     9.9674     6.9551   215.1559 </r>
       <r>    10.0472     8.4835   215.8334 </r>
       <r>    10.1271     9.1599   216.5648 </r>
       <r>    10.2069     7.9874   217.2026 </r>
       <r>    10.2868     5.9398   217.6769 </r>
       <r>    10.3666     4.7041   218.0525 </r>
       <r>    10.4465     4.7326   218.4304 </r>
       <r>    10.5263     5.7269   218.8877 </r>
       <r>    10.6062     7.3583   219.4753 </r>
       <r>    10.6860     8.7281   220.1722 </r>
       <r>    10.7659     8.8469   220.8787 </r>
       <r>    10.8457     8.2828   221.5400 </r>
       <r>    10.9256     8.3575   222.2074 </r>
       <r>    11.0054     8.6332   222.8968 </r>
       <r>    11.0853     7.9055   223.5280 </r>
       <r>    11.1651     7.0783   224.0932 </r>
       <r>    11.2450     8.0519   224.7362 </r>
       <r>    11.3248    10.4317   225.5692 </r>
       <r>    11.4047    11.6325   226.4980 </r>
       <r>    11.4845    10.1997   227.3125 </r>
       <r>    11.5644     7.4485   227.9072 </r>
       <r>    11.6442     5.5150   228.3476 </r>
       <r>    11.7241     5.2961   228.7705 </r>
       <r>    11.8039     6.2919   229.2729 </r>
       <r>    11.8838     7.0375   229.8349 </r>
       <r>    11.9636     6.1503   230.3260 </r>
       <r>    12.0435     3.9036   230.6377 </r>
       <r>    12.1233     1.8678   230.7868 </r>
       <r>    12.2032     0.9064   230.8592 </r>
       <r>    12.2830     0.7569   230.9196 </r>
       <r>    12.3629     0.9858   230.9984 </r>
       <r>    12.4427     1.2971   231.1019 </r>
       <r>    12.5226     1.4783   231.2200 </r>
       <r>    12.6024     1.5410   231.3430 </r>
       <r>    12.6823     1.6889   231.4779 </r>
       <r>    12.7621     1.9941   231.6371 </r>
       <r>    12.8420     2.1249   231.8068 </r>
       <r>    12.9218     1.6746   231.9405 </r>
       <r>    13.0017     0.8165   232.0057 </r>
       <r>    13.0815     0.1413   232.0170 </r>
       <r>    13.1614    -0.0948   232.0094 </r>
       <r>    13.2412    -0.0801   232.0030 </r>
       <r>    13.3211    -0.0299   232.0006 </r>
       <r>    13.4009    -0.0069   232.0001 </r>
       <r>    13.4808    -0.0011   232.0000 </r>
       <r>    13.5606    -0.0001   232.0000 </r>
       <r>    13.6405    -0.0000   232.0000 </r>
       <r>    13.7203    -0.0000   232.0000 </r>
       <r>    13.8002    -0.0000   232.0000 </r>
       <r>    13.8800    -0.0000   232.0000 </r>
       <r>    13.9599    -0.0000   232.0000 </r>
       <r>    14.0397    -0.0000   232.0000 </r>
       <r>    14.1196    -0.0000   232.0000 </r>
       <r>    14.1994     0.0000   232.0000 </r>
       <r>    14.2793     0.0000   232.0000 </r>
       <r>    14.3591     0.0000   232.0000 </r>
       <r>    14.4390     0.0000   232.0000 </r>
       <r>    14.5188     0.0000   232.0000 </r>
       <r>    14.5987     0.0000   232.0000 </r>
       <r>    14.6785     0.0000   232.0000 </r>
       <r>    14.7584     0.0000   232.0000 </r>
       <r>    14.8382     0.0000   232.0000 </r>
      </set>
     </set>
    </array>
   </total>
  </dos>
 </calculation>
 <structure name="finalpos" >
  <crystal>
   <varray name="basis" >
    <v>       5.13359547       0.00000000       0.00000000 </v>
    <v>       2.56679773       4.44582409       0.00000000 </v>
    <v>       0.00000000       0.00000000      29.67047119 </v>
   </varray>
   <i name="volume">    677.17101477 </i>
   <varray name="rec_basis" >
    <v>       0.19479525      -0.11246509       0.00000000 </v>
    <v>       0.00000000       0.22493018       0.00000000 </v>
    <v>       0.00000000       0.00000000       0.03370354 </v>
   </varray>
  </crystal>
  <varray name="positions" >
   <v>       0.00014674      -0.00005208      -0.00072805 </v>
   <v>       0.00015117       0.49969767      -0.00075779 </v>
   <v>       0.49990533      -0.00005208      -0.00072805 </v>
   <v>       0.50001102       0.49997795      -0.00070547 </v>
   <v>       0.16661649       0.16676703       0.06838967 </v>
   <v>       0.16658439       0.66672370       0.06841728 </v>
   <v>       0.66666264       0.16667472       0.06841338 </v>
   <v>       0.66669191       0.66672370       0.06841728 </v>
   <v>       0.33319225       0.33366003       0.13610934 </v>
   <v>       0.33309542       0.83380916       0.13611579 </v>
   <v>       0.83314772       0.33366003       0.13610934 </v>
   <v>       0.83317353       0.83365294       0.13611592 </v>
   <v>      -0.00044977       0.00086276       0.20430364 </v>
   <v>      -0.00035675       0.50071350       0.20428888 </v>
   <v>       0.49958701       0.00086276       0.20430364 </v>
   <v>       0.49956671       0.50086658       0.20425620 </v>
   <v>       0.16613331       0.16773338       0.27253118 </v>
   <v>       0.16630786       0.66764639       0.27258784 </v>
   <v>       0.66613489       0.16773021       0.27259787 </v>
   <v>       0.66604576       0.66764639       0.27258784 </v>
   <v>       0.33261240       0.33471771       0.34091291 </v>
   <v>       0.33242097       0.83515805       0.34093026 </v>
   <v>       0.83266989       0.33471771       0.34091291 </v>
   <v>       0.83255972       0.83488056       0.34095992 </v>
   <v>      -0.00127898       0.00264162       0.40883116 </v>
   <v>       0.99871965       0.50256070       0.40873594 </v>
   <v>       0.49863736       0.00264162       0.40883116 </v>
   <v>       0.49886884       0.50226231       0.40867920 </v>
   <v>       0.16542953       0.16914093       0.47801579 </v>
   <v>       0.16636654       0.66851595       0.47781209 </v>
   <v>       0.66557324       0.16885353       0.47799188 </v>
   <v>       0.66511751       0.66851595       0.47781209 </v>
   <v>       0.92264043       0.65471913       0.56783021 </v>
   <v>       0.86798974       0.76402052       0.58729766 </v>
  </varray>
 </structure>
</modeling>
