unknown system                          
           1
     5.133595    0.000000    0.000000
     2.566798    4.445824    0.000000
     0.000000    0.000000   29.670471
   Cu   H 
    32     2
Direct configuration=     1
   0.00000000  0.00000000  0.00000000
   1.00000000  0.50000000  0.00000000
   0.50000000  0.00000000  0.00000000
   0.50000000  0.50000000  0.00000000
   0.16666667  0.16666667  0.07063526
   0.16666667  0.66666667  0.07063526
   0.66666667  0.16666667  0.07063526
   0.66666667  0.66666667  0.07063526
   0.33333333  0.33333333  0.13847021
   0.33333333  0.83333333  0.13847021
   0.83333333  0.33333333  0.13847021
   0.83333333  0.83333333  0.13847021
   0.00000000  0.00000000  0.20667428
   1.00000000  0.50000000  0.20667428
   0.50000000  0.00000000  0.20667428
   0.50000000  0.50000000  0.20667428
   0.16666667  0.16666667  0.27488859
   0.16666667  0.66666667  0.27488859
   0.66666667  0.16666667  0.27488859
   0.66666667  0.66666667  0.27488859
   0.33333333  0.33333333  0.34319917
   0.33333333  0.83333333  0.34319917
   0.83333333  0.33333333  0.34319917
   0.83333333  0.83333333  0.34319917
   0.00000000  0.00000000  0.41105828
   1.00000000  0.50000000  0.41105828
   0.50000000  0.00000000  0.41105828
   0.50000000  0.50000000  0.41105828
   0.16666667  0.16666667  0.48054462
   0.16666667  0.66666667  0.48054462
   0.66666667  0.16666667  0.48054462
   0.66666667  0.66666667  0.48054462
   0.91666667  0.66666667  0.53425930
   0.85734115  0.78531771  0.55203798
Direct configuration=     2
   0.00014418  0.00007198  0.00024376
   0.00008546  0.49982908  0.00024888
   0.49978384  0.00007198  0.00024376
   0.49997265  0.50005470  0.00022705
   0.16664936  0.16670128  0.07041431
   0.16671304  0.66661908  0.07042167
   0.66663847  0.16672307  0.07040396
   0.66666789  0.66661908  0.07042167
   0.33341025  0.33325283  0.13845910
   0.33331971  0.83336058  0.13845327
   0.83333692  0.33325283  0.13845910
   0.83328282  0.83343435  0.13842371
   0.00008250  0.00009458  0.20670468
   0.00008071  0.49983858  0.20670959
   0.49982291  0.00009458  0.20670468
   0.50002272  0.49995456  0.20663052
   0.16669963  0.16660074  0.27484821
   0.16712742  0.66649459  0.27492530
   0.66644786  0.16710428  0.27490241
   0.66637799  0.66649459  0.27492530
   0.33346615  0.33322336  0.34325889
   0.33331837  0.83336326  0.34325803
   0.83331049  0.33322336  0.34325889
   0.83320767  0.83358466  0.34312697
  -0.00013884 -0.00022482  0.41116565
   0.99977934  0.50044133  0.41109402
   0.50036366 -0.00022482  0.41116565
   0.49998477  0.50003046  0.41121951
   0.16721145  0.16557711  0.48028598
   0.16949098  0.66612365  0.48007657
   0.66530098  0.16939805  0.48007725
   0.66438536  0.66612365  0.48007657
   0.92113827  0.65772347  0.53365967
   0.85318951  0.79362098  0.55368432
Direct configuration=     3
   0.00007933  0.00003960  0.00013411
   0.00004702  0.49990596  0.00013693
   0.49988107  0.00003960  0.00013411
   0.49998495  0.50003009  0.00012492
   0.16665714  0.16668571  0.07051370
   0.16669218  0.66664048  0.07051775
   0.66665115  0.16669770  0.07050801
   0.66666734  0.66664048  0.07051775
   0.33337565  0.33328904  0.13846410
   0.33332584  0.83334833  0.13846089
   0.83333531  0.33328904  0.13846410
   0.83330554  0.83338891  0.13844463
   0.00004539  0.00005204  0.20669101
   0.00004440  0.49991119  0.20669371
   0.49990257  0.00005204  0.20669101
   0.50001250  0.49997500  0.20665020
   0.16668480  0.16663039  0.27486638
   0.16692016  0.66657199  0.27490879
   0.66654628  0.16690743  0.27489619
   0.66650784  0.66657199  0.27490879
   0.33340641  0.33327283  0.34323203
   0.33332510  0.83334980  0.34323155
   0.83332076  0.33327283  0.34323203
   0.83326420  0.83347161  0.34315945
  -0.00007639 -0.00012369  0.41111735
   0.99987860  0.50024281  0.41107794
   0.50020008 -0.00012369  0.41111735
   0.49999162  0.50001676  0.41114699
   0.16696639  0.16606721  0.48040232
   0.16822055  0.66636791  0.48028711
   0.66591529  0.16816942  0.48028748
   0.66541154  0.66636791  0.48028711
   0.91912685  0.66174629  0.53392940
   0.85505700  0.78988601  0.55294376
Direct configuration=     4
   0.00021854  0.00011258  0.00037325
   0.00013044  0.49973913  0.00038241
   0.49966888  0.00011258  0.00037325
   0.49995925  0.50008151  0.00034593
   0.16663908  0.16672184  0.07031122
   0.16673494  0.66659271  0.07032037
   0.66662427  0.16675145  0.07029174
   0.66667236  0.66659271  0.07032037
   0.33343497  0.33321140  0.13843314
   0.33330923  0.83338153  0.13842440
   0.83335364  0.33321140  0.13843314
   0.83326153  0.83347694  0.13838256
   0.00011570  0.00012544  0.20672160
   0.00010651  0.49978699  0.20672869
   0.49975887  0.00012544  0.20672160
   0.50003470  0.49993061  0.20660462
   0.16671261  0.16657478  0.27483181
   0.16736926  0.66639601  0.27494094
   0.66632907  0.16734185  0.27490274
   0.66623473  0.66639601  0.27494094
   0.33352340  0.33316993  0.34330895
   0.33331181  0.83337637  0.34330877
   0.83330668  0.33316993  0.34330895
   0.83314257  0.83371487  0.34309874
  -0.00021870 -0.00032576  0.41120173
   0.99966278  0.50067443  0.41109450
   0.50054446 -0.00032576  0.41120173
   0.49998192  0.50003617  0.41125890
   0.16741078  0.16517843  0.48014092
   0.17052287  0.66590197  0.47987087
   0.66471021  0.17057957  0.47983876
   0.66357516  0.66590197  0.47987087
   0.91930167  0.66139665  0.53460021
   0.85523031  0.78953938  0.55329031
Direct configuration=     5
   0.00039865  0.00020698  0.00068263
   0.00023836  0.49952329  0.00070000
   0.49939437  0.00020698  0.00068263
   0.49992599  0.50014802  0.00063186
   0.16661570  0.16676859  0.07004927
   0.16679026  0.66653089  0.07006502
   0.66658950  0.16682100  0.07001196
   0.66667885  0.66653089  0.07006502
   0.33351171  0.33311094  0.13839309
   0.33328775  0.83342450  0.13837719
   0.83337735  0.33311094  0.13839309
   0.83320459  0.83359083  0.13830226
   0.00020665  0.00022040  0.20676117
   0.00018685  0.49962630  0.20677394
   0.49957295  0.00022040  0.20676117
   0.50006341  0.49987317  0.20654564
   0.16674859  0.16650283  0.27478710
   0.16795027  0.66616834  0.27498253
   0.66604806  0.16790388  0.27491122
   0.66588139  0.66616834  0.27498253
   0.33367475  0.33303679  0.34340846
   0.33329462  0.83341076  0.34340868
   0.83328845  0.33303679  0.34340846
   0.83298520  0.83402959  0.34302021
  -0.00040282 -0.00058718  0.41131089
   0.99938358  0.50123284  0.41111593
   0.50098999 -0.00058718  0.41131089
   0.49996936  0.50006128  0.41140368
   0.16798571  0.16402858  0.47980274
   0.17350149  0.66529915  0.47933235
   0.66315115  0.17369770  0.47925823
   0.66119936  0.66529915  0.47933235
   0.91952785  0.66094431  0.53546808
   0.85545453  0.78909094  0.55373866
Direct configuration=     6
   0.00039884  0.00019956  0.00077193
   0.00021995  0.49956010  0.00079450
   0.49940160  0.00019956  0.00077193
   0.49991694  0.50016612  0.00071013
   0.16661614  0.16676771  0.07012637
   0.16678447  0.66653388  0.07012409
   0.66659584  0.16680832  0.07005548
   0.66668166  0.66653388  0.07012409
   0.33344718  0.33310939  0.13826183
   0.33327765  0.83344469  0.13824878
   0.83344343  0.33310939  0.13826183
   0.83322512  0.83354977  0.13819413
   0.00015453  0.00008174  0.20675069
   0.00006966  0.49986069  0.20676881
   0.49976373  0.00008174  0.20675069
   0.50004976  0.49990048  0.20651205
   0.16673030  0.16653939  0.27485845
   0.16787498  0.66618320  0.27500067
   0.66606868  0.16786264  0.27491486
   0.66594182  0.66618320  0.27500067
   0.33362695  0.33303039  0.34346363
   0.33327708  0.83344584  0.34348192
   0.83334267  0.33303039  0.34346363
   0.83295950  0.83408099  0.34301693
  -0.00052648 -0.00052383  0.41115214
   0.99934484  0.50131031  0.41101374
   0.50105031 -0.00052383  0.41115214
   0.50000088  0.49999824  0.41102534
   0.16778979  0.16442042  0.47964305
   0.17247745  0.66562659  0.47915999
   0.66340604  0.17318793  0.47906668
   0.66189597  0.66562659  0.47915999
   0.91918777  0.66162445  0.53635495
   0.85617943  0.78764114  0.55402279
Direct configuration=     7
   0.00039899  0.00019363  0.00084321
   0.00020526  0.49958949  0.00086993
   0.49940738  0.00019363  0.00084321
   0.49990972  0.50018056  0.00077261
   0.16661649  0.16676701  0.07018791
   0.16677984  0.66653625  0.07017125
   0.66660090  0.16679820  0.07009022
   0.66668390  0.66653625  0.07017125
   0.33339567  0.33310815  0.13815706
   0.33326959  0.83346081  0.13814627
   0.83349618  0.33310815  0.13815706
   0.83324150  0.83351699  0.13810782
   0.00011291 -0.00002894  0.20674232
  -0.00002390  0.50004780  0.20676472
   0.49991603 -0.00002894  0.20674232
   0.50003886  0.49992227  0.20648523
   0.16671571  0.16656858  0.27491542
   0.16781488  0.66619506  0.27501516
   0.66608515  0.16782971  0.27491776
   0.66599006  0.66619506  0.27501516
   0.33358878  0.33302527  0.34350767
   0.33326308  0.83347384  0.34354040
   0.83338594  0.33302527  0.34350767
   0.83293899  0.83412202  0.34301432
  -0.00062519 -0.00047327  0.41102542
   0.99931393  0.50137215  0.41093216
   0.50109846 -0.00047327  0.41102542
   0.50002604  0.49994791  0.41072332
   0.16763339  0.16473322  0.47951557
   0.17165998  0.66588797  0.47902240
   0.66360950  0.17278099  0.47891378
   0.66245205  0.66588797  0.47902240
   0.91891630  0.66216739  0.53706292
   0.85675810  0.78648381  0.55424961
Direct configuration=     8
   0.00039577  0.00018963  0.00086959
   0.00019690  0.49960619  0.00089788
   0.49941460  0.00018963  0.00086959
   0.49990704  0.50018593  0.00079585
   0.16661773  0.16676453  0.07021331
   0.16677765  0.66653899  0.07019147
   0.66660341  0.16679318  0.07010646
   0.66668337  0.66653899  0.07019147
   0.33337759  0.33310736  0.13812271
   0.33326698  0.83346605  0.13811283
   0.83351504  0.33310736  0.13812271
   0.83324717  0.83350566  0.13807992
   0.00010182 -0.00006521  0.20673498
  -0.00005396  0.50010791  0.20675916
   0.49996339 -0.00006521  0.20673498
   0.50003505  0.49992991  0.20647207
   0.16671056  0.16657889  0.27493693
   0.16778902  0.66620206  0.27501998
   0.66609254  0.16781493  0.27491841
   0.66600892  0.66620206  0.27501998
   0.33355884  0.33302291  0.34351326
   0.33325113  0.83349775  0.34355141
   0.83341825  0.33302291  0.34351326
   0.83293535  0.83412930  0.34300792
  -0.00065235 -0.00044628  0.41097045
   0.99930877  0.50138247  0.41089541
   0.50109862 -0.00044628  0.41097045
   0.50003021  0.49993959  0.41060522
   0.16756632  0.16486736  0.47946212
   0.17132251  0.66599962  0.47896202
   0.66370067  0.17259866  0.47885132
   0.66267787  0.66599962  0.47896202
   0.91910524  0.66178951  0.53729789
   0.85670247  0.78659505  0.55444591
Direct configuration=     9
   0.00038608  0.00017763  0.00094871
   0.00017184  0.49965631  0.00098173
   0.49943629  0.00017763  0.00094871
   0.49989899  0.50020202  0.00086554
   0.16662145  0.16675709  0.07028949
   0.16677106  0.66654718  0.07025212
   0.66661094  0.16677812  0.07015521
   0.66668176  0.66654718  0.07025212
   0.33332336  0.33310500  0.13801967
   0.33325912  0.83348176  0.13801251
   0.83357163  0.33310500  0.13801967
   0.83326416  0.83347168  0.13799623
   0.00006852 -0.00017400  0.20671293
  -0.00014413  0.50028825  0.20674250
   0.50010548 -0.00017400  0.20671293
   0.50002360  0.49995281  0.20643258
   0.16669510  0.16660980  0.27500147
   0.16771142  0.66622306  0.27503444
   0.66611471  0.16777058  0.27492038
   0.66606552  0.66622306  0.27503444
   0.33346902  0.33301580  0.34353005
   0.33321527  0.83356946  0.34358444
   0.83351518  0.33301580  0.34353005
   0.83292444  0.83415113  0.34298872
  -0.00073381 -0.00036531  0.41080557
   0.99929329  0.50141342  0.41078517
   0.50109912 -0.00036531  0.41080557
   0.50004270  0.49991461  0.41025093
   0.16736511  0.16526979  0.47930177
   0.17031012  0.66633458  0.47878086
   0.66397416  0.17205168  0.47866396
   0.66335531  0.66633458  0.47878086
   0.91967206  0.66065587  0.53800279
   0.85653561  0.78692878  0.55503482
Direct configuration=    10
   0.00036672  0.00015362  0.00110696
   0.00012173  0.49975655  0.00114944
   0.49947966  0.00015362  0.00110696
   0.49988290  0.50023420  0.00100494
   0.16662889  0.16674221  0.07044186
   0.16675790  0.66656356  0.07037342
   0.66662599  0.16674801  0.07025269
   0.66667854  0.66656356  0.07037342
   0.33321491  0.33310028  0.13781358
   0.33324340  0.83351319  0.13781188
   0.83368481  0.33310028  0.13781358
   0.83329814  0.83340371  0.13782886
   0.00000193 -0.00039158  0.20666885
  -0.00032447  0.50064894  0.20670918
   0.50038965 -0.00039158  0.20666885
   0.50000070  0.49999861  0.20635362
   0.16666418  0.16667164  0.27513056
   0.16755624  0.66626505  0.27506336
   0.66615905  0.16768189  0.27492430
   0.66617871  0.66626505  0.27506336
   0.33328938  0.33300159  0.34356362
   0.33314356  0.83371288  0.34365050
   0.83370903  0.33300159  0.34356362
   0.83290260  0.83419479  0.34295032
  -0.00089675 -0.00020336  0.41047580
   0.99926234  0.50147532  0.41056467
   0.50110011 -0.00020336  0.41047580
   0.50006768  0.49986464  0.40954233
   0.16696268  0.16607464  0.47898108
   0.16828532  0.66700449  0.47841854
   0.66452115  0.17095770  0.47828923
   0.66471019  0.66700449  0.47841854
   0.92080570  0.65838860  0.53941259
   0.85620188  0.78759624  0.55621265
Direct configuration=    11
   0.00032799  0.00010561  0.00142346
   0.00002149  0.49995702  0.00148485
   0.49956640  0.00010561  0.00142346
   0.49985072  0.50029856  0.00128374
   0.16664377  0.16671245  0.07074659
   0.16673156  0.66659633  0.07061602
   0.66665611  0.16668779  0.07044767
   0.66667211  0.66659633  0.07061602
   0.33299799  0.33309084  0.13740140
   0.33321197  0.83357605  0.13741062
   0.83391117  0.33309084  0.13740140
   0.83336611  0.83326778  0.13749412
  -0.00013125 -0.00082675  0.20658067
  -0.00068515  0.50137030  0.20664253
   0.50095799 -0.00082675  0.20658067
   0.49995490  0.50009020  0.20619568
   0.16660235  0.16679530  0.27538873
   0.16724587  0.66634903  0.27512119
   0.66624775  0.16750451  0.27493215
   0.66640510  0.66634903  0.27512119
   0.33293009  0.33297317  0.34363077
   0.33300014  0.83399973  0.34378263
   0.83409674  0.33297317  0.34363077
   0.83285894  0.83428211  0.34287351
  -0.00122262  0.00012052  0.40981626
   0.99920044  0.50159912  0.41012368
   0.50110209  0.00012052  0.40981626
   0.50011764  0.49976472  0.40812513
   0.16615783  0.16768434  0.47833970
   0.16423573  0.66834430  0.47769390
   0.66561513  0.16876975  0.47753978
   0.66741997  0.66834430  0.47769390
   0.92307298  0.65385404  0.54223219
   0.85553442  0.78893115  0.55856829
Direct configuration=    12
   0.00035604  0.00014038  0.00119422
   0.00009409  0.49981182  0.00124192
   0.49950357  0.00014038  0.00119422
   0.49987403  0.50025194  0.00108181
   0.16663300  0.16673401  0.07052588
   0.16675064  0.66657260  0.07044031
   0.66663430  0.16673141  0.07030645
   0.66667677  0.66657260  0.07044031
   0.33315510  0.33309768  0.13769993
   0.33323474  0.83353052  0.13770125
   0.83374722  0.33309768  0.13769993
   0.83331688  0.83336623  0.13773657
  -0.00003479 -0.00051156  0.20664453
  -0.00042391  0.50084783  0.20669080
   0.50054635 -0.00051156  0.20664453
   0.49998807  0.50002386  0.20631007
   0.16664713  0.16670573  0.27520174
   0.16747066  0.66628821  0.27507930
   0.66618351  0.16763298  0.27492647
   0.66624113  0.66628821  0.27507930
   0.33319032  0.33299375  0.34358213
   0.33310402  0.83379197  0.34368693
   0.83381593  0.33299375  0.34358213
   0.83289057  0.83421887  0.34292914
  -0.00098659 -0.00011406  0.41029395
   0.99924527  0.50150945  0.41044308
   0.50110066 -0.00011406  0.41029395
   0.50008145  0.49983709  0.40915158
   0.16674077  0.16651846  0.47880424
   0.16716878  0.66737390  0.47821874
   0.66482278  0.17035444  0.47808260
   0.66545733  0.66737390  0.47821874
   0.92143083  0.65713834  0.54019001
   0.85601785  0.78796430  0.55686214
Direct configuration=    13
   0.00034943  0.00014147  0.00121546
   0.00008928  0.49982143  0.00126366
   0.49950910  0.00014147  0.00121546
   0.49987416  0.50025167  0.00110382
   0.16663947  0.16672107  0.07048956
   0.16675494  0.66657781  0.07041414
   0.66663373  0.16673253  0.07028813
   0.66666725  0.66657781  0.07041414
   0.33319173  0.33308679  0.13776832
   0.33324243  0.83351513  0.13776885
   0.83372148  0.33308679  0.13776832
   0.83330293  0.83339414  0.13779090
   0.00002577 -0.00042290  0.20661711
  -0.00034242  0.50068484  0.20666337
   0.50039713 -0.00042290  0.20661711
   0.49999903  0.50000194  0.20628675
   0.16665876  0.16668249  0.27517393
   0.16752521  0.66627920  0.27506974
   0.66615778  0.16768443  0.27491820
   0.66619559  0.66627920  0.27506974
   0.33307304  0.33297307  0.34346711
   0.33303860  0.83392280  0.34356392
   0.83395389  0.33297307  0.34346711
   0.83291552  0.83416896  0.34287166
  -0.00090018 -0.00007719  0.41028183
   0.99927970  0.50144059  0.41040487
   0.50097737 -0.00007719  0.41028183
   0.50003092  0.49993816  0.40925448
   0.16676093  0.16647815  0.47875284
   0.16745831  0.66733131  0.47814525
   0.66469660  0.17060681  0.47801664
   0.66521038  0.66733131  0.47814525
   0.92189506  0.65620988  0.54041191
   0.85569155  0.78861691  0.55719752
Direct configuration=    14
   0.00033226  0.00014431  0.00127055
   0.00007682  0.49984636  0.00132007
   0.49952343  0.00014431  0.00127055
   0.49987451  0.50025097  0.00116091
   0.16665625  0.16668750  0.07039535
   0.16676612  0.66659133  0.07034627
   0.66663227  0.16673545  0.07024060
   0.66664255  0.66659133  0.07034627
   0.33328673  0.33305854  0.13794568
   0.33326239  0.83347521  0.13794420
   0.83365472  0.33305854  0.13794568
   0.83326674  0.83346652  0.13793182
   0.00018285 -0.00019294  0.20654597
  -0.00013104  0.50026208  0.20659224
   0.50001008 -0.00019294  0.20654597
   0.50002747  0.49994507  0.20622627
   0.16668890  0.16662219  0.27510180
   0.16766670  0.66625584  0.27504495
   0.66609106  0.16781789  0.27489675
   0.66607746  0.66625584  0.27504495
   0.33276886  0.33291941  0.34316876
   0.33286893  0.83426214  0.34324486
   0.83431172  0.33291941  0.34316876
   0.83298024  0.83403953  0.34272255
  -0.00067603  0.00001844  0.41025037
   0.99936902  0.50126197  0.41030577
   0.50065759  0.00001844  0.41025037
   0.49989984  0.50020031  0.40952138
   0.16681321  0.16637358  0.47861952
   0.16820931  0.66722086  0.47795464
   0.66436931  0.17126138  0.47784557
   0.66456984  0.66722086  0.47795464
   0.92309917  0.65380166  0.54098747
   0.85484518  0.79030964  0.55806742
Direct configuration=    15
   0.00031937  0.00015133  0.00127619
   0.00007388  0.49985225  0.00132520
   0.49952931  0.00015133  0.00127619
   0.49987740  0.50024520  0.00117088
   0.16666087  0.16667825  0.07035618
   0.16677658  0.66659184  0.07032195
   0.66662572  0.16674857  0.07022809
   0.66663158  0.66659184  0.07032195
   0.33332908  0.33305350  0.13803551
   0.33327299  0.83345401  0.13803258
   0.83361742  0.33305350  0.13803551
   0.83325243  0.83349513  0.13800643
   0.00024410 -0.00008196  0.20653073
  -0.00003238  0.50006476  0.20657497
   0.49983786 -0.00008196  0.20653073
   0.50004146  0.49991708  0.20622199
   0.16670305  0.16659389  0.27501240
   0.16770953  0.66625874  0.27499435
   0.66607179  0.16785642  0.27485491
   0.66603173  0.66625874  0.27499435
   0.33272288  0.33293932  0.34303129
   0.33284371  0.83431259  0.34309303
   0.83433780  0.33293932  0.34303129
   0.83299833  0.83400335  0.34265617
  -0.00057374  0.00007522  0.41022891
   0.99941165  0.50117670  0.41024674
   0.50049852  0.00007522  0.41022891
   0.49983384  0.50033231  0.40966052
   0.16684681  0.16630637  0.47858116
   0.16865218  0.66713710  0.47790183
   0.66420556  0.17158889  0.47780120
   0.66421072  0.66713710  0.47790183
   0.92286021  0.65427958  0.54143425
   0.85525224  0.78949551  0.55828070
Direct configuration=    16
   0.00028068  0.00017239  0.00129311
   0.00006504  0.49986992  0.00134059
   0.49954693  0.00017239  0.00129311
   0.49988605  0.50022790  0.00120079
   0.16667475  0.16665051  0.07023870
   0.16680798  0.66659335  0.07024900
   0.66660604  0.16678793  0.07019056
   0.66659867  0.66659335  0.07024900
   0.33345612  0.33303836  0.13830499
   0.33330479  0.83339041  0.13829770
   0.83350552  0.33303836  0.13830499
   0.83320953  0.83358095  0.13823028
   0.00042786  0.00025097  0.20648501
   0.00026361  0.49947278  0.20652315
   0.49932118  0.00025097  0.20648501
   0.50008344  0.49983312  0.20620915
   0.16674551  0.16650899  0.27474419
   0.16783803  0.66626742  0.27484255
   0.66601398  0.16797203  0.27472939
   0.66589455  0.66626742  0.27484255
   0.33258491  0.33299905  0.34261891
   0.33276803  0.83446394  0.34263755
   0.83441604  0.33299905  0.34261891
   0.83305260  0.83389481  0.34245702
  -0.00026689  0.00024557  0.41016452
   0.99953956  0.50092089  0.41006965
   0.50002132  0.00024557  0.41016452
   0.49963584  0.50072831  0.41007797
   0.16694762  0.16610476  0.47846609
   0.16998081  0.66688584  0.47774339
   0.66371430  0.17257140  0.47766806
   0.66313335  0.66688584  0.47774339
   0.92214332  0.65571336  0.54277460
   0.85647344  0.78705312  0.55892053
Direct configuration=    17
   0.00028754  0.00016865  0.00129011
   0.00006661  0.49986678  0.00133786
   0.49954381  0.00016865  0.00129011
   0.49988451  0.50023097  0.00119548
   0.16667228  0.16665543  0.07025954
   0.16680241  0.66659308  0.07026194
   0.66660953  0.16678095  0.07019722
   0.66660451  0.66659308  0.07026194
   0.33343358  0.33304105  0.13825719
   0.33329915  0.83340169  0.13825067
   0.83352537  0.33304105  0.13825719
   0.83321714  0.83356573  0.13819057
   0.00039526  0.00019191  0.20649312
   0.00021110  0.49957779  0.20653234
   0.49941283  0.00019191  0.20649312
   0.50007599  0.49984802  0.20621143
   0.16673798  0.16652405  0.27479177
   0.16781524  0.66626588  0.27486948
   0.66602424  0.16795152  0.27475166
   0.66591888  0.66626588  0.27486948
   0.33260938  0.33298846  0.34269206
   0.33278146  0.83443709  0.34271835
   0.83440216  0.33298846  0.34269206
   0.83304297  0.83391406  0.34249235
  -0.00032132  0.00021535  0.41017594
   0.99951687  0.50096627  0.41010106
   0.50010597  0.00021535  0.41017594
   0.49967097  0.50065807  0.41000392
   0.16692974  0.16614053  0.47848651
   0.16974513  0.66693041  0.47777149
   0.66380144  0.17239711  0.47769168
   0.66332446  0.66693041  0.47777149
   0.92227049  0.65545902  0.54253684
   0.85625682  0.78748637  0.55880703
Direct configuration=    18
   0.00025756  0.00017924  0.00127086
   0.00006071  0.49987858  0.00131620
   0.49956320  0.00017924  0.00127086
   0.49989248  0.50021505  0.00118630
   0.16667207  0.16665586  0.07026808
   0.16681609  0.66658535  0.07028362
   0.66659702  0.16680597  0.07023085
   0.66659856  0.66658535  0.07028362
   0.33344844  0.33305473  0.13832045
   0.33331016  0.83337967  0.13831312
   0.83349682  0.33305473  0.13832045
   0.83321869  0.83356262  0.13825484
   0.00039652  0.00024347  0.20651215
   0.00025412  0.49949175  0.20654669
   0.49936001  0.00024347  0.20651215
   0.50008479  0.49983042  0.20625384
   0.16674240  0.16651521  0.27461349
   0.16774559  0.66631558  0.27474024
   0.66605670  0.16788660  0.27464454
   0.66593883  0.66631558  0.27474024
   0.33275702  0.33309940  0.34257227
   0.33286382  0.83427236  0.34258385
   0.83414358  0.33309940  0.34257227
   0.83302940  0.83394120  0.34242400
  -0.00027560  0.00032406  0.41008896
   0.99954920  0.50090159  0.40999147
   0.49995154  0.00032406  0.41008896
   0.49961129  0.50077741  0.41002901
   0.16692430  0.16615139  0.47846429
   0.17002239  0.66691425  0.47775114
   0.66375326  0.17249347  0.47769072
   0.66306336  0.66691425  0.47775114
   0.92252540  0.65494921  0.54301734
   0.85624475  0.78751050  0.55927093
Direct configuration=    19
   0.00016763  0.00021101  0.00121310
   0.00004301  0.49991399  0.00125123
   0.49962136  0.00021101  0.00121310
   0.49991636  0.50016728  0.00115873
   0.16667142  0.16665716  0.07029371
   0.16685714  0.66656215  0.07034865
   0.66655948  0.16688104  0.07033175
   0.66658072  0.66656215  0.07034865
   0.33349303  0.33309577  0.13851023
   0.33334320  0.83331360  0.13850047
   0.83341120  0.33309577  0.13851023
   0.83322334  0.83355331  0.13844765
   0.00040031  0.00039816  0.20656923
   0.00038319  0.49923363  0.20658974
   0.49920153  0.00039816  0.20656923
   0.50011118  0.49977764  0.20638107
   0.16675565  0.16648869  0.27407867
   0.16753664  0.66646469  0.27435253
   0.66615409  0.16769181  0.27432320
   0.66599866  0.66646469  0.27435253
   0.33319992  0.33343222  0.34221288
   0.33311091  0.83377819  0.34218035
   0.83336786  0.33343222  0.34221288
   0.83298869  0.83402262  0.34221898
  -0.00013844  0.00065017  0.40982803
   0.99964621  0.50070758  0.40966270
   0.49948827  0.00065017  0.40982803
   0.49943228  0.50113544  0.41010428
   0.16690800  0.16618399  0.47839762
   0.17085420  0.66686576  0.47769008
   0.66360873  0.17278255  0.47768784
   0.66228005  0.66686576  0.47769008
   0.92329012  0.65341976  0.54445884
   0.85620856  0.78758288  0.56066265
Direct configuration=    20
  -0.00001224  0.00027455  0.00109757
   0.00000760  0.49998479  0.00112130
   0.49973769  0.00027455  0.00109757
   0.49996413  0.50007174  0.00110361
   0.16667012  0.16665976  0.07034495
   0.16693922  0.66651575  0.07047872
   0.66648441  0.16703118  0.07053354
   0.66654503  0.66651575  0.07047872
   0.33358220  0.33317786  0.13888980
   0.33340927  0.83318146  0.13887517
   0.83323994  0.33317786  0.13888980
   0.83323265  0.83353469  0.13883326
   0.00040787  0.00070753  0.20668338
   0.00064131  0.49871738  0.20667584
   0.49888459  0.00070753  0.20668338
   0.50016396  0.49967207  0.20663553
   0.16678217  0.16643567  0.27300901
   0.16711875  0.66676292  0.27357710
   0.66634888  0.16730225  0.27368052
   0.66611834  0.66676292  0.27357710
   0.33408573  0.33409786  0.34149410
   0.33360508  0.83278984  0.34137335
   0.83181640  0.33409786  0.34149410
   0.83290727  0.83418545  0.34180893
   0.00013587  0.00130240  0.40930616
   0.99984023  0.50031954  0.40900516
   0.49856173  0.00130240  0.40930616
   0.49907425  0.50185150  0.41025483
   0.16687541  0.16624919  0.47826429
   0.17251780  0.66676877  0.47756797
   0.66331965  0.17336070  0.47768209
   0.66071343  0.66676877  0.47756797
   0.92481957  0.65036087  0.54734185
   0.85613617  0.78772766  0.56344608
Direct configuration=    21
   0.00009859  0.00023540  0.00116876
   0.00002942  0.49994116  0.00120136
   0.49966601  0.00023540  0.00116876
   0.49993470  0.50013061  0.00113757
   0.16667092  0.16665816  0.07031338
   0.16688864  0.66654434  0.07039857
   0.66653067  0.16693866  0.07040920
   0.66656702  0.66654434  0.07039857
   0.33352725  0.33312728  0.13865592
   0.33336856  0.83326288  0.13864429
   0.83334546  0.33312728  0.13865592
   0.83322692  0.83354617  0.13859565
   0.00040321  0.00051690  0.20661304
   0.00048226  0.49903548  0.20662279
   0.49907988  0.00051690  0.20661304
   0.50013144  0.49973712  0.20647874
   0.16676583  0.16646834  0.27366811
   0.16737624  0.66657916  0.27405490
   0.66622885  0.16754229  0.27407653
   0.66604460  0.66657916  0.27405490
   0.33353992  0.33368771  0.34193699
   0.33330058  0.83339884  0.34187060
   0.83277237  0.33368771  0.34193699
   0.83295744  0.83408512  0.34206159
  -0.00003316  0.00090051  0.40962772
   0.99972068  0.50055864  0.40941033
   0.49913264  0.00090051  0.40962772
   0.49929486  0.50141028  0.41016207
   0.16689549  0.16620902  0.47834645
   0.17149272  0.66682853  0.47764321
   0.66349777  0.17300446  0.47768563
   0.66167875  0.66682853  0.47764321
   0.92387716  0.65224569  0.54556541
   0.85618077  0.78763845  0.56173100
Direct configuration=    22
   0.00005990  0.00023685  0.00114400
   0.00001687  0.49996627  0.00117141
   0.49970325  0.00023685  0.00114400
   0.49994232  0.50011536  0.00112530
   0.16666780  0.16666441  0.07038352
   0.16687073  0.66654861  0.07046827
   0.66653358  0.16693285  0.07048318
   0.66658066  0.66654861  0.07046827
   0.33349496  0.33315380  0.13865016
   0.33337061  0.83325877  0.13863989
   0.83335124  0.33315380  0.13865016
   0.83325020  0.83349959  0.13860980
   0.00028390  0.00041734  0.20658508
   0.00038742  0.49922517  0.20658944
   0.49929876  0.00041734  0.20658508
   0.50012650  0.49974700  0.20648566
   0.16673932  0.16652136  0.27356122
   0.16718456  0.66664923  0.27393890
   0.66631122  0.16737756  0.27397787
   0.66616622  0.66664923  0.27393890
   0.33368405  0.33379768  0.34184057
   0.33336672  0.83326656  0.34177210
   0.83251826  0.33379768  0.34184057
   0.83293548  0.83412904  0.34195677
  -0.00014085  0.00103252  0.40949053
   0.99968656  0.50062687  0.40929317
   0.49910833  0.00103252  0.40949053
   0.49928332  0.50143335  0.40996630
   0.16677067  0.16645867  0.47831447
   0.17106480  0.66700524  0.47764238
   0.66374912  0.17250176  0.47770686
   0.66192996  0.66700524  0.47764238
   0.92390491  0.65219018  0.54630329
   0.85647313  0.78705375  0.56231890
Direct configuration=    23
  -0.00005616  0.00024120  0.00106973
  -0.00002079  0.50004157  0.00108157
   0.49981496  0.00024120  0.00106973
   0.49996520  0.50006961  0.00108849
   0.16665843  0.16668314  0.07059394
   0.16681699  0.66656144  0.07067736
   0.66654230  0.16691539  0.07070512
   0.66662157  0.66656144  0.07067736
   0.33339809  0.33323334  0.13863288
   0.33337678  0.83324644  0.13862671
   0.83336857  0.33323334  0.13863288
   0.83332007  0.83335986  0.13865223
  -0.00007403  0.00011865  0.20650121
   0.00010289  0.49979423  0.20648939
   0.49995539  0.00011865  0.20650121
   0.50011168  0.49977664  0.20650643
   0.16665980  0.16668041  0.27324056
   0.16660949  0.66685944  0.27359088
   0.66655831  0.16688337  0.27368191