  34  34   0   0
  0.1991679E+02  0.5133596E-09  0.5133596E-09  0.2967047E-08  0.5000000E-15
  1.000000000000000E-004
  CAR 
 unknown system                          
     14.83620637     -9.11125207  301      2.17897286      1.00000000
     -9.111  0.0000E+00  0.0000E+00  0.0000E+00  0.0000E+00
     -9.031  0.0000E+00  0.0000E+00  0.0000E+00  0.0000E+00
     -8.952  0.0000E+00  0.0000E+00  0.0000E+00  0.0000E+00
     -8.872  0.0000E+00  0.0000E+00  0.0000E+00  0.0000E+00
     -8.792  0.0000E+00  0.0000E+00  0.0000E+00  0.0000E+00
     -8.712 -0.5875E-30 -0.5875E-30 -0.4689E-31 -0.4689E-31
     -8.632 -0.2829E-27 -0.2829E-27 -0.2263E-28 -0.2263E-28
     -8.552 -0.9890E-25 -0.9890E-25 -0.7917E-26 -0.7917E-26
     -8.473 -0.2506E-22 -0.2506E-22 -0.2008E-23 -0.2008E-23
     -8.393 -0.4600E-20 -0.4600E-20 -0.3692E-21 -0.3692E-21
     -8.313 -0.6112E-18 -0.6112E-18 -0.4916E-19 -0.4916E-19
     -8.233 -0.5691E-16 -0.5691E-16 -0.4592E-17 -0.4592E-17
     -8.153 -0.3932E-14 -0.3932E-14 -0.3185E-15 -0.3185E-15
     -8.074 -0.1959E-12 -0.1959E-12 -0.1595E-13 -0.1595E-13
     -7.994 -0.7018E-11 -0.7018E-11 -0.5761E-12 -0.5761E-12
     -7.914 -0.1803E-09 -0.1803E-09 -0.1497E-10 -0.1497E-10
     -7.834 -0.3306E-08 -0.3306E-08 -0.2788E-09 -0.2788E-09
     -7.754 -0.4298E-07 -0.4298E-07 -0.3710E-08 -0.3710E-08
     -7.674 -0.3921E-06 -0.3921E-06 -0.3501E-07 -0.3501E-07
     -7.595 -0.2462E-05 -0.2462E-05 -0.2315E-06 -0.2315E-06
     -7.515 -0.1024E-04 -0.1024E-04 -0.1049E-05 -0.1049E-05
     -7.435 -0.2552E-04 -0.2552E-04 -0.3086E-05 -0.3086E-05
     -7.355 -0.2307E-04 -0.2307E-04 -0.4928E-05 -0.4928E-05
     -7.275  0.6995E-04  0.6995E-04  0.6563E-06  0.6563E-06
     -7.195  0.2956E-03  0.2956E-03  0.2426E-04  0.2426E-04
     -7.116  0.5207E-03  0.5207E-03  0.6582E-04  0.6582E-04
     -7.036  0.5208E-03  0.5208E-03  0.1074E-03  0.1074E-03
     -6.956  0.3046E-03  0.3046E-03  0.1317E-03  0.1317E-03
     -6.876  0.1593E-03  0.1593E-03  0.1444E-03  0.1444E-03
     -6.796  0.2764E-03  0.2764E-03  0.1665E-03  0.1665E-03
     -6.717  0.4864E-03  0.4864E-03  0.2053E-03  0.2053E-03
     -6.637  0.4650E-03  0.4650E-03  0.2424E-03  0.2424E-03
     -6.557  0.1603E-03  0.1603E-03  0.2552E-03  0.2552E-03
     -6.477 -0.3763E-04 -0.3763E-04  0.2522E-03  0.2522E-03
     -6.397  0.4776E-03  0.4776E-03  0.2903E-03  0.2903E-03
     -6.317  0.1881E-02  0.1881E-02  0.4405E-03  0.4405E-03
     -6.238  0.3253E-02  0.3253E-02  0.7002E-03  0.7002E-03
     -6.158  0.3328E-02  0.3328E-02  0.9658E-03  0.9658E-03
     -6.078  0.2289E-02  0.2289E-02  0.1148E-02  0.1148E-02
     -5.998  0.1727E-02  0.1727E-02  0.1286E-02  0.1286E-02
     -5.918  0.2447E-02  0.2447E-02  0.1482E-02  0.1482E-02
     -5.838  0.3317E-02  0.3317E-02  0.1746E-02  0.1746E-02
     -5.759  0.2893E-02  0.2893E-02  0.1977E-02  0.1977E-02
     -5.679  0.1397E-02  0.1397E-02  0.2089E-02  0.2089E-02
     -5.599  0.9543E-04  0.9543E-04  0.2097E-02  0.2097E-02
     -5.519 -0.3754E-03 -0.3754E-03  0.2067E-02  0.2067E-02
     -5.439  0.4169E-04  0.4169E-04  0.2070E-02  0.2070E-02
     -5.359  0.1446E-02  0.1446E-02  0.2185E-02  0.2185E-02
     -5.280  0.3277E-02  0.3277E-02  0.2447E-02  0.2447E-02
     -5.200  0.4001E-02  0.4001E-02  0.2766E-02  0.2766E-02
     -5.120  0.2868E-02  0.2868E-02  0.2995E-02  0.2995E-02
     -5.040  0.1013E-02  0.1013E-02  0.3076E-02  0.3076E-02
     -4.960 -0.1662E-03 -0.1662E-03  0.3063E-02  0.3063E-02
     -4.881 -0.3540E-03 -0.3540E-03  0.3034E-02  0.3034E-02
     -4.801  0.3360E-03  0.3360E-03  0.3061E-02  0.3061E-02
     -4.721  0.1773E-02  0.1773E-02  0.3203E-02  0.3203E-02
     -4.641  0.3327E-02  0.3327E-02  0.3468E-02  0.3468E-02
     -4.561  0.4380E-02  0.4380E-02  0.3818E-02  0.3818E-02
     -4.481  0.5191E-02  0.5191E-02  0.4232E-02  0.4232E-02
     -4.402  0.5961E-02  0.5961E-02  0.4708E-02  0.4708E-02
     -4.322  0.5837E-02  0.5837E-02  0.5174E-02  0.5174E-02
     -4.242  0.4280E-02  0.4280E-02  0.5516E-02  0.5516E-02
     -4.162  0.2511E-02  0.2511E-02  0.5716E-02  0.5716E-02
     -4.082  0.2131E-02  0.2131E-02  0.5886E-02  0.5886E-02
     -4.002  0.3101E-02  0.3101E-02  0.6134E-02  0.6134E-02
     -3.923  0.4617E-02  0.4617E-02  0.6502E-02  0.6502E-02
     -3.843  0.6623E-02  0.6623E-02  0.7031E-02  0.7031E-02
     -3.763  0.8702E-02  0.8702E-02  0.7726E-02  0.7726E-02
     -3.683  0.9468E-02  0.9468E-02  0.8481E-02  0.8481E-02
     -3.603  0.8608E-02  0.8608E-02  0.9169E-02  0.9169E-02
     -3.524  0.7477E-02  0.7477E-02  0.9765E-02  0.9765E-02
     -3.444  0.6923E-02  0.6923E-02  0.1032E-01  0.1032E-01
     -3.364  0.6418E-02  0.6418E-02  0.1083E-01  0.1083E-01
     -3.284  0.5496E-02  0.5496E-02  0.1127E-01  0.1127E-01
     -3.204  0.4404E-02  0.4404E-02  0.1162E-01  0.1162E-01
     -3.124  0.3638E-02  0.3638E-02  0.1191E-01  0.1191E-01
     -3.045  0.3940E-02  0.3940E-02  0.1223E-01  0.1223E-01
     -2.965  0.5641E-02  0.5641E-02  0.1268E-01  0.1268E-01
     -2.885  0.7819E-02  0.7819E-02  0.1330E-01  0.1330E-01
     -2.805  0.9986E-02  0.9986E-02  0.1410E-01  0.1410E-01
     -2.725  0.1349E-01  0.1349E-01  0.1517E-01  0.1517E-01
     -2.645  0.1925E-01  0.1925E-01  0.1671E-01  0.1671E-01
     -2.566  0.2589E-01  0.2589E-01  0.1878E-01  0.1878E-01
     -2.486  0.3111E-01  0.3111E-01  0.2126E-01  0.2126E-01
     -2.406  0.3270E-01  0.3270E-01  0.2387E-01  0.2387E-01
     -2.326  0.2972E-01  0.2972E-01  0.2624E-01  0.2624E-01
     -2.246  0.2469E-01  0.2469E-01  0.2821E-01  0.2821E-01
     -2.166  0.2246E-01  0.2246E-01  0.3001E-01  0.3001E-01
     -2.087  0.2566E-01  0.2566E-01  0.3206E-01  0.3206E-01
     -2.007  0.3298E-01  0.3298E-01  0.3469E-01  0.3469E-01
     -1.927  0.4115E-01  0.4115E-01  0.3797E-01  0.3797E-01
     -1.847  0.4668E-01  0.4668E-01  0.4170E-01  0.4170E-01
     -1.767  0.4784E-01  0.4784E-01  0.4552E-01  0.4552E-01
     -1.688  0.4532E-01  0.4532E-01  0.4914E-01  0.4914E-01
     -1.608  0.4076E-01  0.4076E-01  0.5239E-01  0.5239E-01
     -1.528  0.3664E-01  0.3664E-01  0.5531E-01  0.5531E-01
     -1.448  0.3527E-01  0.3527E-01  0.5813E-01  0.5813E-01
     -1.368  0.3712E-01  0.3712E-01  0.6109E-01  0.6109E-01
     -1.288  0.4243E-01  0.4243E-01  0.6448E-01  0.6448E-01
     -1.209  0.5091E-01  0.5091E-01  0.6854E-01  0.6854E-01
     -1.129  0.5871E-01  0.5871E-01  0.7323E-01  0.7323E-01
     -1.049  0.6155E-01  0.6155E-01  0.7814E-01  0.7814E-01
     -0.969  0.6204E-01  0.6204E-01  0.8310E-01  0.8310E-01
     -0.889  0.6680E-01  0.6680E-01  0.8843E-01  0.8843E-01
     -0.809  0.7514E-01  0.7514E-01  0.9443E-01  0.9443E-01
     -0.730  0.7988E-01  0.7988E-01  0.1008E+00  0.1008E+00
     -0.650  0.7841E-01  0.7841E-01  0.1071E+00  0.1071E+00
     -0.570  0.7442E-01  0.7442E-01  0.1130E+00  0.1130E+00
     -0.490  0.7120E-01  0.7120E-01  0.1187E+00  0.1187E+00
     -0.410  0.6924E-01  0.6924E-01  0.1242E+00  0.1242E+00
     -0.331  0.6837E-01  0.6837E-01  0.1297E+00  0.1297E+00
     -0.251  0.6776E-01  0.6776E-01  0.1351E+00  0.1351E+00
     -0.171  0.6566E-01  0.6566E-01  0.1403E+00  0.1403E+00
     -0.091  0.6281E-01  0.6281E-01  0.1453E+00  0.1453E+00
     -0.011  0.6144E-01  0.6144E-01  0.1502E+00  0.1502E+00
      0.069  0.6205E-01  0.6205E-01  0.1552E+00  0.1552E+00
      0.148  0.6663E-01  0.6663E-01  0.1605E+00  0.1605E+00
      0.228  0.7716E-01  0.7716E-01  0.1667E+00  0.1667E+00
      0.308  0.8831E-01  0.8831E-01  0.1737E+00  0.1737E+00
      0.388  0.9285E-01  0.9285E-01  0.1811E+00  0.1811E+00
      0.468  0.9251E-01  0.9251E-01  0.1885E+00  0.1885E+00
      0.548  0.9241E-01  0.9241E-01  0.1959E+00  0.1959E+00
      0.627  0.8855E-01  0.8855E-01  0.2030E+00  0.2030E+00
      0.707  0.7180E-01  0.7180E-01  0.2087E+00  0.2087E+00
      0.787  0.4322E-01  0.4322E-01  0.2121E+00  0.2121E+00
      0.867  0.1595E-01  0.1595E-01  0.2134E+00  0.2134E+00
      0.947  0.1094E-02  0.1094E-02  0.2135E+00  0.2135E+00
      1.027 -0.1622E-02 -0.1622E-02  0.2134E+00  0.2134E+00
      1.106  0.8346E-03  0.8346E-03  0.2134E+00  0.2134E+00
      1.186  0.3064E-02  0.3064E-02  0.2137E+00  0.2137E+00
      1.266  0.4028E-02  0.4028E-02  0.2140E+00  0.2140E+00
      1.346  0.4876E-02  0.4876E-02  0.2144E+00  0.2144E+00
      1.426  0.5983E-02  0.5983E-02  0.2149E+00  0.2149E+00
      1.505  0.6274E-02  0.6274E-02  0.2154E+00  0.2154E+00
      1.585  0.4808E-02  0.4808E-02  0.2158E+00  0.2158E+00
      1.665  0.2695E-02  0.2695E-02  0.2160E+00  0.2160E+00
      1.745  0.2697E-02  0.2697E-02  0.2162E+00  0.2162E+00
      1.825  0.6234E-02  0.6234E-02  0.2167E+00  0.2167E+00
      1.905  0.1137E-01  0.1137E-01  0.2176E+00  0.2176E+00
      1.984  0.1450E-01  0.1450E-01  0.2188E+00  0.2188E+00
      2.064  0.1409E-01  0.1409E-01  0.2199E+00  0.2199E+00
      2.144  0.1222E-01  0.1222E-01  0.2209E+00  0.2209E+00
      2.224  0.1127E-01  0.1127E-01  0.2218E+00  0.2218E+00
      2.304  0.1016E-01  0.1016E-01  0.2226E+00  0.2226E+00
      2.384  0.6945E-02  0.6945E-02  0.2231E+00  0.2231E+00
      2.463  0.3339E-02  0.3339E-02  0.2234E+00  0.2234E+00
      2.543  0.2543E-02  0.2543E-02  0.2236E+00  0.2236E+00
      2.623  0.4711E-02  0.4711E-02  0.2240E+00  0.2240E+00
      2.703  0.7445E-02  0.7445E-02  0.2246E+00  0.2246E+00
      2.783  0.8621E-02  0.8621E-02  0.2252E+00  0.2252E+00
      2.862  0.7591E-02  0.7591E-02  0.2259E+00  0.2259E+00
      2.942  0.5655E-02  0.5655E-02  0.2263E+00  0.2263E+00
      3.022  0.4763E-02  0.4763E-02  0.2267E+00  0.2267E+00
      3.102  0.4688E-02  0.4688E-02  0.2271E+00  0.2271E+00
      3.182  0.3922E-02  0.3922E-02  0.2274E+00  0.2274E+00
      3.262  0.2847E-02  0.2847E-02  0.2276E+00  0.2276E+00
      3.341  0.3123E-02  0.3123E-02  0.2278E+00  0.2278E+00
      3.421  0.5246E-02  0.5246E-02  0.2283E+00  0.2283E+00
      3.501  0.8464E-02  0.8464E-02  0.2289E+00  0.2289E+00
      3.581  0.1150E-01  0.1150E-01  0.2299E+00  0.2299E+00
      3.661  0.1270E-01  0.1270E-01  0.2309E+00  0.2309E+00
      3.741  0.1100E-01  0.1100E-01  0.2317E+00  0.2317E+00
      3.820  0.7442E-02  0.7442E-02  0.2323E+00  0.2323E+00
      3.900  0.4555E-02  0.4555E-02  0.2327E+00  0.2327E+00
      3.980  0.3425E-02  0.3425E-02  0.2330E+00  0.2330E+00
      4.060  0.2799E-02  0.2799E-02  0.2332E+00  0.2332E+00
      4.140  0.1587E-02  0.1587E-02  0.2333E+00  0.2333E+00
      4.219  0.2852E-03  0.2852E-03  0.2334E+00  0.2334E+00
      4.299 -0.4406E-03 -0.4406E-03  0.2333E+00  0.2333E+00
      4.379 -0.4846E-03 -0.4846E-03  0.2333E+00  0.2333E+00
      4.459  0.5687E-03  0.5687E-03  0.2333E+00  0.2333E+00
      4.539  0.3174E-02  0.3174E-02  0.2336E+00  0.2336E+00
      4.619  0.6135E-02  0.6135E-02  0.2341E+00  0.2341E+00
      4.698  0.7183E-02  0.7183E-02  0.2346E+00  0.2346E+00
      4.778  0.6024E-02  0.6024E-02  0.2351E+00  0.2351E+00
      4.858  0.4344E-02  0.4344E-02  0.2355E+00  0.2355E+00
      4.938  0.2925E-02  0.2925E-02  0.2357E+00  0.2357E+00
      5.018  0.1471E-02  0.1471E-02  0.2358E+00  0.2358E+00
      5.098  0.1650E-03  0.1650E-03  0.2358E+00  0.2358E+00
      5.177 -0.4353E-03 -0.4353E-03  0.2358E+00  0.2358E+00
      5.257  0.1478E-03  0.1478E-03  0.2358E+00  0.2358E+00
      5.337  0.2244E-02  0.2244E-02  0.2360E+00  0.2360E+00
      5.417  0.5226E-02  0.5226E-02  0.2364E+00  0.2364E+00
      5.497  0.7416E-02  0.7416E-02  0.2370E+00  0.2370E+00
      5.577  0.8145E-02  0.8145E-02  0.2376E+00  0.2376E+00
      5.656  0.8611E-02  0.8611E-02  0.2383E+00  0.2383E+00
      5.736  0.9359E-02  0.9359E-02  0.2391E+00  0.2391E+00
      5.816  0.9140E-02  0.9140E-02  0.2398E+00  0.2398E+00
      5.896  0.7394E-02  0.7394E-02  0.2404E+00  0.2404E+00
      5.976  0.5187E-02  0.5187E-02  0.2408E+00  0.2408E+00
      6.055  0.3403E-02  0.3403E-02  0.2411E+00  0.2411E+00
      6.135  0.2220E-02  0.2220E-02  0.2413E+00  0.2413E+00
      6.215  0.2278E-02  0.2278E-02  0.2414E+00  0.2414E+00
      6.295  0.4580E-02  0.4581E-02  0.2418E+00  0.2418E+00
      6.375  0.8247E-02  0.8247E-02  0.2425E+00  0.2425E+00
      6.455  0.1022E-01  0.1022E-01  0.2433E+00  0.2433E+00
      6.534  0.9113E-02  0.9113E-02  0.2440E+00  0.2440E+00
      6.614  0.6683E-02  0.6683E-02  0.2445E+00  0.2445E+00
      6.694  0.4648E-02  0.4648E-02  0.2449E+00  0.2449E+00
      6.774  0.3594E-02  0.3594E-02  0.2452E+00  0.2452E+00
      6.854  0.4213E-02  0.4213E-02  0.2455E+00  0.2455E+00
      6.934  0.6155E-02  0.6155E-02  0.2460E+00  0.2460E+00
      7.013  0.7705E-02  0.7705E-02  0.2466E+00  0.2466E+00
      7.093  0.8407E-02  0.8407E-02  0.2473E+00  0.2473E+00
      7.173  0.9133E-02  0.9133E-02  0.2480E+00  0.2480E+00
      7.253  0.9874E-02  0.9874E-02  0.2488E+00  0.2488E+00
      7.333  0.1028E-01  0.1028E-01  0.2497E+00  0.2497E+00
      7.412  0.1031E-01  0.1031E-01  0.2505E+00  0.2505E+00
      7.492  0.9145E-02  0.9145E-02  0.2512E+00  0.2512E+00
      7.572  0.6392E-02  0.6392E-02  0.2517E+00  0.2517E+00
      7.652  0.3812E-02  0.3812E-02  0.2520E+00  0.2520E+00
      7.732  0.3485E-02  0.3485E-02  0.2523E+00  0.2523E+00
      7.812  0.5501E-02  0.5501E-02  0.2527E+00  0.2527E+00
      7.891  0.8334E-02  0.8334E-02  0.2534E+00  0.2534E+00
      7.971  0.1027E-01  0.1027E-01  0.2542E+00  0.2542E+00
      8.051  0.1017E-01  0.1017E-01  0.2550E+00  0.2550E+00
      8.131  0.8112E-02  0.8112E-02  0.2557E+00  0.2557E+00
      8.211  0.5564E-02  0.5564E-02  0.2561E+00  0.2561E+00
      8.291  0.4122E-02  0.4122E-02  0.2565E+00  0.2565E+00
      8.370  0.4561E-02  0.4561E-02  0.2568E+00  0.2568E+00
      8.450  0.7234E-02  0.7234E-02  0.2574E+00  0.2574E+00
      8.530  0.1126E-01  0.1126E-01  0.2583E+00  0.2583E+00
      8.610  0.1367E-01  0.1367E-01  0.2594E+00  0.2594E+00
      8.690  0.1186E-01  0.1186E-01  0.2603E+00  0.2603E+00
      8.770  0.7116E-02  0.7116E-02  0.2609E+00  0.2609E+00
      8.849  0.3526E-02  0.3526E-02  0.2612E+00  0.2612E+00
      8.929  0.3494E-02  0.3494E-02  0.2615E+00  0.2615E+00
      9.009  0.5496E-02  0.5496E-02  0.2619E+00  0.2619E+00
      9.089  0.6465E-02  0.6465E-02  0.2624E+00  0.2624E+00
      9.169  0.5698E-02  0.5698E-02  0.2629E+00  0.2629E+00
      9.248  0.5386E-02  0.5386E-02  0.2633E+00  0.2633E+00
      9.328  0.7173E-02  0.7173E-02  0.2639E+00  0.2639E+00
      9.408  0.9917E-02  0.9917E-02  0.2647E+00  0.2647E+00
      9.488  0.1116E-01  0.1116E-01  0.2656E+00  0.2656E+00
      9.568  0.9668E-02  0.9668E-02  0.2663E+00  0.2663E+00
      9.648  0.6815E-02  0.6815E-02  0.2669E+00  0.2669E+00
      9.727  0.5263E-02  0.5263E-02  0.2673E+00  0.2673E+00
      9.807  0.5964E-02  0.5964E-02  0.2678E+00  0.2678E+00
      9.887  0.7660E-02  0.7660E-02  0.2684E+00  0.2684E+00
      9.967  0.9246E-02  0.9246E-02  0.2691E+00  0.2691E+00
     10.047  0.1056E-01  0.1056E-01  0.2700E+00  0.2700E+00
     10.127  0.1091E-01  0.1091E-01  0.2708E+00  0.2708E+00
     10.206  0.9355E-02  0.9355E-02  0.2716E+00  0.2716E+00
     10.286  0.6883E-02  0.6883E-02  0.2721E+00  0.2721E+00
     10.366  0.5664E-02  0.5664E-02  0.2726E+00  0.2726E+00
     10.446  0.6405E-02  0.6405E-02  0.2731E+00  0.2731E+00
     10.526  0.8173E-02  0.8173E-02  0.2737E+00  0.2737E+00
     10.605  0.9903E-02  0.9903E-02  0.2745E+00  0.2745E+00
     10.685  0.1081E-01  0.1081E-01  0.2754E+00  0.2754E+00
     10.765  0.1047E-01  0.1047E-01  0.2762E+00  0.2762E+00
     10.845  0.9730E-02  0.9730E-02  0.2770E+00  0.2770E+00
     10.925  0.9905E-02  0.9905E-02  0.2778E+00  0.2778E+00
     11.005  0.1022E-01  0.1022E-01  0.2786E+00  0.2786E+00
     11.084  0.9265E-02  0.9265E-02  0.2794E+00  0.2794E+00
     11.164  0.8608E-02  0.8608E-02  0.2800E+00  0.2800E+00
     11.244  0.1088E-01  0.1088E-01  0.2809E+00  0.2809E+00
     11.324  0.1487E-01  0.1487E-01  0.2821E+00  0.2821E+00
     11.404  0.1603E-01  0.1603E-01  0.2834E+00  0.2834E+00
     11.484  0.1255E-01  0.1255E-01  0.2844E+00  0.2844E+00
     11.563  0.7927E-02  0.7927E-02  0.2850E+00  0.2850E+00
     11.643  0.6074E-02  0.6074E-02  0.2855E+00  0.2855E+00
     11.723  0.7037E-02  0.7037E-02  0.2861E+00  0.2861E+00
     11.803  0.8631E-02  0.8631E-02  0.2868E+00  0.2868E+00
     11.883  0.8909E-02  0.8909E-02  0.2875E+00  0.2875E+00
     11.963  0.6999E-02  0.6999E-02  0.2880E+00  0.2880E+00
     12.042  0.3878E-02  0.3878E-02  0.2883E+00  0.2883E+00
     12.122  0.1590E-02  0.1590E-02  0.2885E+00  0.2885E+00
     12.202  0.9231E-03  0.9231E-03  0.2885E+00  0.2885E+00
     12.282  0.1092E-02  0.1092E-02  0.2886E+00  0.2886E+00
     12.362  0.1313E-02  0.1313E-02  0.2887E+00  0.2887E+00
     12.441  0.1482E-02  0.1482E-02  0.2888E+00  0.2888E+00
     12.521  0.1753E-02  0.1753E-02  0.2890E+00  0.2890E+00
     12.601  0.2123E-02  0.2123E-02  0.2892E+00  0.2892E+00
     12.681  0.2455E-02  0.2455E-02  0.2893E+00  0.2893E+00
     12.761  0.2690E-02  0.2690E-02  0.2896E+00  0.2896E+00
     12.841  0.2643E-02  0.2643E-02  0.2898E+00  0.2898E+00
     12.920  0.1996E-02  0.1996E-02  0.2899E+00  0.2899E+00
     13.000  0.9456E-03  0.9456E-03  0.2900E+00  0.2900E+00
     13.080  0.1489E-03  0.1489E-03  0.2900E+00  0.2900E+00
     13.160 -0.1196E-03 -0.1196E-03  0.2900E+00  0.2900E+00
     13.240 -0.9599E-04 -0.9599E-04  0.2900E+00  0.2900E+00
     13.320 -0.3516E-04 -0.3516E-04  0.2900E+00  0.2900E+00
     13.399 -0.7996E-05 -0.7996E-05  0.2900E+00  0.2900E+00
     13.479 -0.1220E-05 -0.1220E-05  0.2900E+00  0.2900E+00
     13.559 -0.1290E-06 -0.1290E-06  0.2900E+00  0.2900E+00
     13.639 -0.9602E-08 -0.9602E-08  0.2900E+00  0.2900E+00
     13.719 -0.5085E-09 -0.5085E-09  0.2900E+00  0.2900E+00
     13.798 -0.1927E-10 -0.1927E-10  0.2900E+00  0.2900E+00
     13.878 -0.5247E-12 -0.5247E-12  0.2900E+00  0.2900E+00
     13.958 -0.1030E-13 -0.1030E-13  0.2900E+00  0.2900E+00
     14.038 -0.1460E-15 -0.1460E-15  0.2900E+00  0.2900E+00
     14.118 -0.1545E-17 -0.1545E-17  0.2900E+00  0.2900E+00
     14.198  0.0000E+00  0.0000E+00  0.2900E+00  0.2900E+00
     14.277  0.0000E+00  0.0000E+00  0.2900E+00  0.2900E+00
     14.357  0.0000E+00  0.0000E+00  0.2900E+00  0.2900E+00
     14.437  0.0000E+00  0.0000E+00  0.2900E+00  0.2900E+00
     14.517  0.0000E+00  0.0000E+00  0.2900E+00  0.2900E+00
     14.597  0.0000E+00  0.0000E+00  0.2900E+00  0.2900E+00
     14.677  0.0000E+00  0.0000E+00  0.2900E+00  0.2900E+00
     14.756  0.0000E+00  0.0000E+00  0.2900E+00  0.2900E+00
     14.836  0.0000E+00  0.0000E+00  0.2900E+00  0.2900E+00
