   34   34  800    2
  0.1991679E+02  0.5133595E-09  0.5133595E-09  0.2967047E-08  0.5000000E-15
  1.000000000000000E-004
  CAR 
 unknown system                          
    354      4    232
 
  0.0000000E+00  0.0000000E+00  0.0000000E+00  0.1111111E+00
      1         -7.111252       -7.111252   1.000000   1.000000
      2         -6.712125       -6.712125   1.000000   1.000000
      3         -6.077694       -6.077694   1.000000   1.000000
      4         -5.237907       -5.237907   1.000000   1.000000
      5         -4.323331       -4.323331   1.000000   1.000000
      6         -3.674570       -3.674570   1.000000   1.000000
      7         -3.431323       -3.431323   1.000000   1.000000
      8         -3.013753       -3.013753   1.000000   1.000000
      9         -2.885883       -2.885883   1.000000   1.000000
     10         -2.885408       -2.885408   1.000000   1.000000
     11         -2.885355       -2.885355   1.000000   1.000000
     12         -2.882348       -2.882348   1.000000   1.000000
     13         -2.699490       -2.699490   1.000000   1.000000
     14         -2.699466       -2.699466   1.000000   1.000000
     15         -2.699051       -2.699051   1.000000   1.000000
     16         -2.678271       -2.678271   1.000000   1.000000
     17         -2.678133       -2.678133   1.000000   1.000000
     18         -2.677889       -2.677889   1.000000   1.000000
     19         -2.559697       -2.559697   1.000000   1.000000
     20         -2.559626       -2.559626   1.000000   1.000000
     21         -2.558934       -2.558934   1.000000   1.000000
     22         -2.420333       -2.420333   1.000000   1.000000
     23         -2.419592       -2.419592   1.000000   1.000000
     24         -2.419480       -2.419480   1.000000   1.000000
     25         -2.373700       -2.373700   1.000000   1.000000
     26         -2.373637       -2.373637   1.000000   1.000000
     27         -2.372614       -2.372614   1.000000   1.000000
     28         -2.227888       -2.227888   1.000000   1.000000
     29         -2.227787       -2.227787   1.000000   1.000000
     30         -2.227766       -2.227766   1.000000   1.000000
     31         -2.110012       -2.110012   1.000000   1.000000
     32         -2.109703       -2.109703   1.000000   1.000000
     33         -2.109684       -2.109684   1.000000   1.000000
     34         -2.105173       -2.105173   1.000000   1.000000
     35         -2.104910       -2.104910   1.000000   1.000000
     36         -2.102494       -2.102494   1.000000   1.000000
     37         -2.093168       -2.093168   1.000000   1.000000
     38         -2.093018       -2.093018   1.000000   1.000000
     39         -2.091542       -2.091542   1.000000   1.000000
     40         -1.920948       -1.920948   1.000000   1.000000
     41         -1.920531       -1.920531   1.000000   1.000000
     42         -1.919871       -1.919871   1.000000   1.000000
     43         -1.675886       -1.675886   1.000000   1.000000
     44         -1.675223       -1.675223   1.000000   1.000000
     45         -1.674148       -1.674148   1.000000   1.000000
     46         -1.362571       -1.362571   1.000000   1.000000
     47         -1.361588       -1.361588   1.000000   1.000000
     48         -1.359810       -1.359810   1.000000   1.000000
     49         -1.060191       -1.060191   1.000000   1.000000
     50         -1.059919       -1.059919   1.000000   1.000000
     51         -1.057266       -1.057266   1.000000   1.000000
     52         -0.955001       -0.955001   1.000000   1.000000
     53         -0.941567       -0.941567   1.000000   1.000000
     54         -0.918815       -0.918815   1.000000   1.000000
     55         -0.918261       -0.918261   1.000000   1.000000
     56         -0.918070       -0.918070   1.000000   1.000000
     57         -0.865738       -0.865738   1.000000   1.000000
     58         -0.865609       -0.865609   1.000000   1.000000
     59         -0.865410       -0.865410   1.000000   1.000000
     60         -0.865322       -0.865322   1.000000   1.000000
     61         -0.864261       -0.864261   1.000000   1.000000
     62         -0.862584       -0.862584   1.000000   1.000000
     63         -0.862552       -0.862552   1.000000   1.000000
     64         -0.803030       -0.803030   1.000000   1.000000
     65         -0.791407       -0.791407   1.000000   1.000000
     66         -0.791394       -0.791394   1.000000   1.000000
     67         -0.790958       -0.790958   1.000000   1.000000
     68         -0.772806       -0.772806   1.000000   1.000000
     69         -0.771964       -0.771964   1.000000   1.000000
     70         -0.771085       -0.771085   1.000000   1.000000
     71         -0.770402       -0.770402   1.000000   1.000000
     72         -0.770331       -0.770331   1.000000   1.000000
     73         -0.769814       -0.769814   1.000000   1.000000
     74         -0.769307       -0.769307   1.000000   1.000000
     75         -0.767979       -0.767979   1.000000   1.000000
     76         -0.767384       -0.767384   1.000000   1.000000
     77         -0.765733       -0.765733   1.000000   1.000000
     78         -0.765721       -0.765721   1.000000   1.000000
     79         -0.721403       -0.721403   1.000000   1.000000
     80         -0.721235       -0.721235   1.000000   1.000000
     81         -0.716297       -0.716297   1.000000   1.000000
     82         -0.681487       -0.681487   1.000000   1.000000
     83         -0.681175       -0.681175   1.000000   1.000000
     84         -0.670120       -0.670120   1.000000   1.000000
     85         -0.670116       -0.670116   1.000000   1.000000
     86         -0.668829       -0.668829   1.000000   1.000000
     87         -0.591039       -0.591039   1.000000   1.000000
     88         -0.590731       -0.590731   1.000000   1.000000
     89         -0.572906       -0.572906   1.000000   1.000000
     90         -0.572567       -0.572567   1.000000   1.000000
     91         -0.535163       -0.535163   1.000000   1.000000
     92         -0.534098       -0.534098   1.000000   1.000000
     93         -0.533599       -0.533599   1.000000   1.000000
     94         -0.451716       -0.451716   1.000000   1.000000
     95         -0.447303       -0.447303   1.000000   1.000000
     96         -0.446339       -0.446339   1.000000   1.000000
     97         -0.445501       -0.445501   1.000000   1.000000
     98         -0.242935       -0.242935   1.000000   1.000000
     99         -0.242479       -0.242479   1.000000   1.000000
    100         -0.242163       -0.242163   1.000000   1.000000
    101         -0.189685       -0.189685   1.000000   1.000000
    102         -0.189554       -0.189554   1.000000   1.000000
    103         -0.187538       -0.187538   1.000000   1.000000
    104         -0.013589       -0.013589   1.000000   1.000000
    105         -0.011034       -0.011034   1.000000   1.000000
    106         -0.003778       -0.003778   1.000000   1.000000
    107         -0.003726       -0.003726   1.000000   1.000000
    108          0.030445        0.030445   1.000000   1.000000
    109          0.031112        0.031112   1.000000   1.000000
    110          0.031567        0.031567   1.000000   1.000000
    111          0.035122        0.035122   1.000000   1.000000
    112          0.035668        0.035668   1.000000   1.000000
    113          0.042044        0.042044   1.000000   1.000000
    114          0.042395        0.042395   1.000000   1.000000
    115          0.045269        0.045269   1.000000   1.000000
    116          0.093023        0.093023   1.000000   1.000000
    117          0.095420        0.095420   1.000000   1.000000
    118          0.246817        0.246817   1.000000   1.000000
    119          0.248082        0.248082   1.000000   1.000000
    120          0.295325        0.295325   1.000000   1.000000
    121          0.295460        0.295460   1.000000   1.000000
    122          0.297643        0.297643   1.000000   1.000000
    123          0.325069        0.325069   1.000000   1.000000
    124          0.326277        0.326277   1.000000   1.000000
    125          0.327070        0.327070   1.000000   1.000000
    126          0.389567        0.389567   1.000000   1.000000
    127          0.400096        0.400096   1.000000   1.000000
    128          0.401924        0.401924   1.000000   1.000000
    129          0.490227        0.490227   1.000000   1.000000
    130          0.490413        0.490413   1.000000   1.000000
    131          0.491496        0.491496   1.000000   1.000000
    132          0.510734        0.510734   1.000000   1.000000
    133          0.513030        0.513030   1.000000   1.000000
    134          0.513758        0.513758   1.000000   1.000000
    135          0.535940        0.535940   1.000000   1.000000
    136          0.537599        0.537599   1.000000   1.000000
    137          0.559355        0.559355   1.000000   1.000000
    138          0.559379        0.559379   1.000000   1.000000
    139          0.559823        0.559823   1.000000   1.000000
    140          0.561957        0.561957   1.000000   1.000000
    141          0.562215        0.562215   1.000000   1.000000
    142          0.562384        0.562384   1.000000   1.000000
    143          0.589818        0.589818   1.000000   1.000000
    144          0.589986        0.589986   1.000000   1.000000
    145          0.590663        0.590663   1.000000   1.000000
    146          0.595620        0.595620   1.000000   1.000000
    147          0.595669        0.595669   1.000000   1.000000
    148          0.596033        0.596033   1.000000   1.000000
    149          0.615580        0.615580   1.000000   1.000000
    150          0.615967        0.615967   1.000000   1.000000
    151          0.616087        0.616087   1.000000   1.000000
    152          0.616214        0.616214   1.000000   1.000000
    153          0.616900        0.616900   1.000000   1.000000
    154          0.661259        0.661259   1.000000   1.000000
    155          0.661511        0.661511   1.000000   1.000000
    156          0.662346        0.662346   1.000000   1.000000
    157          0.670758        0.670758   1.000000   1.000000
    158          0.670871        0.670871   1.000000   1.000000
    159          0.672175        0.672175   1.000000   1.000000
    160          0.691959        0.691959   1.000000   1.000000
    161          0.692312        0.692312   1.000000   1.000000
    162          0.695041        0.695041   1.000000   1.000000
    163          0.715969        0.715969   1.000000   1.000000
    164          0.716339        0.716339   1.000000   1.000000
    165          0.717994        0.717994   1.000000   1.000000
    166          0.751199        0.751199   1.000000   1.000000
    167          0.751445        0.751445   1.000000   1.000000
    168          0.752005        0.752005   1.000000   1.000000
    169          1.491082        1.491082   1.000006   1.000006
    170          1.494054        1.494054   1.000007   1.000007
    171          1.494192        1.494192   1.000007   1.000007
    172          1.645923        1.645923   1.000536   1.000536
    173          1.981981        1.981981   1.023495   1.023495
    174          2.118044        2.118044   0.745026   0.745026
    175          2.120573        2.120573   0.735817   0.735817
    176          2.121213        2.121213   0.733467   0.733467
    177          2.656083        2.656083  -0.001902  -0.001902
    178          2.659956        2.659956  -0.001752  -0.001752
    179          2.661111        2.661111  -0.001710  -0.001710
    180          3.046420        3.046420  -0.000000  -0.000000
    181          3.047574        3.047574  -0.000000  -0.000000
    182          3.049003        3.049003  -0.000000  -0.000000
    183          3.306994        3.306994  -0.000000  -0.000000
    184          3.307433        3.307433  -0.000000  -0.000000
    185          3.310450        3.310450  -0.000000  -0.000000
    186          3.499373        3.499373  -0.000000  -0.000000
    187          3.500187        3.500187  -0.000000  -0.000000
    188          3.507241        3.507241  -0.000000  -0.000000
    189          3.660347        3.660347  -0.000000  -0.000000
    190          3.660640        3.660640  -0.000000  -0.000000
    191          3.667775        3.667775  -0.000000  -0.000000
    192          3.744628        3.744628  -0.000000  -0.000000
    193          3.744689        3.744689  -0.000000  -0.000000
    194          3.751088        3.751088  -0.000000  -0.000000
    195          6.127508        6.127508  -0.000000  -0.000000
    196          6.135729        6.135729  -0.000000  -0.000000
    197          6.136166        6.136166  -0.000000  -0.000000
    198          6.364740        6.364740  -0.000000  -0.000000
    199          6.545622        6.545622  -0.000000  -0.000000
    200          6.558906        6.558906  -0.000000  -0.000000
    201          6.559227        6.559227  -0.000000  -0.000000
    202          6.646912        6.646912  -0.000000  -0.000000
    203          7.118009        7.118009  -0.000000  -0.000000
    204          7.118207        7.118207  -0.000000  -0.000000
    205          7.148977        7.148976  -0.000000  -0.000000
    206          7.392516        7.392516  -0.000000  -0.000000
    207          7.647593        7.647592   0.000000   0.000000
    208          7.722478        7.722478   0.000000   0.000000
    209          7.725120        7.725120   0.000000   0.000000
    210          7.964042        7.964042   0.000000   0.000000
    211          8.430302        8.430302   0.000000   0.000000
    212          8.479197        8.479197   0.000000   0.000000
    213          8.500549        8.500549   0.000000   0.000000
    214          8.802387        8.802387   0.000000   0.000000
    215          9.318184        9.318184   0.000000   0.000000
    216          9.384524        9.384524   0.000000   0.000000
    217          9.438252        9.438252   0.000000   0.000000
    218          9.541880        9.541880   0.000000   0.000000
    219          9.883785        9.883785   0.000000   0.000000
    220         10.121489       10.121489   0.000000   0.000000
    221         10.128649       10.128649   0.000000   0.000000
    222         10.173224       10.173224   0.000000   0.000000
    223         10.526615       10.526615   0.000000   0.000000
    224         10.722065       10.722065   0.000000   0.000000
    225         10.840334       10.840334   0.000000   0.000000
    226         11.208950       11.208950   0.000000   0.000000
    227         11.290357       11.290357   0.000000   0.000000
    228         11.354951       11.354951   0.000000   0.000000
    229         11.366549       11.366549   0.000000   0.000000
    230         11.367055       11.367055   0.000000   0.000000
    231         11.649301       11.649300   0.000000   0.000000
    232         11.935434       11.935434   0.000000   0.000000
 
  0.3333333E+00  0.5551115E-16  0.0000000E+00  0.4444444E+00
      1         -6.241288       -6.241288   1.000000   1.000000
      2         -5.857993       -5.857993   1.000000   1.000000
      3         -5.251332       -5.251332   1.000000   1.000000
      4         -4.456996       -4.456996   1.000000   1.000000
      5         -4.018074       -4.018074   1.000000   1.000000
      6         -3.758526       -3.758526   1.000000   1.000000
      7         -3.680547       -3.680547   1.000000   1.000000
      8         -3.500296       -3.500296   1.000000   1.000000
      9         -3.373239       -3.373239   1.000000   1.000000
     10         -2.959647       -2.959647   1.000000   1.000000
     11         -2.846588       -2.846588   1.000000   1.000000
     12         -2.688716       -2.688716   1.000000   1.000000
     13         -2.688294       -2.688294   1.000000   1.000000
     14         -2.588103       -2.588103   1.000000   1.000000
     15         -2.537501       -2.537501   1.000000   1.000000
     16         -2.537279       -2.537279   1.000000   1.000000
     17         -2.474574       -2.474574   1.000000   1.000000
     18         -2.439300       -2.439300   1.000000   1.000000
     19         -2.438807       -2.438807   1.000000   1.000000
     20         -2.397522       -2.397522   1.000000   1.000000
     21         -2.387991       -2.387991   1.000000   1.000000
     22         -2.387318       -2.387318   1.000000   1.000000
     23         -2.273490       -2.273490   1.000000   1.000000
     24         -2.270926       -2.270926   1.000000   1.000000
     25         -2.269928       -2.269928   1.000000   1.000000
     26         -2.104453       -2.104453   1.000000   1.000000
     27         -2.103688       -2.103688   1.000000   1.000000
     28         -1.999429       -1.999429   1.000000   1.000000
     29         -1.998744       -1.998744   1.000000   1.000000
     30         -1.998559       -1.998559   1.000000   1.000000
     31         -1.996085       -1.996085   1.000000   1.000000
     32         -1.895667       -1.895667   1.000000   1.000000
     33         -1.895323       -1.895323   1.000000   1.000000
     34         -1.872006       -1.872006   1.000000   1.000000
     35         -1.871874       -1.871874   1.000000   1.000000
     36         -1.868082       -1.868082   1.000000   1.000000
     37         -1.839622       -1.839622   1.000000   1.000000
     38         -1.708437       -1.708437   1.000000   1.000000
     39         -1.707835       -1.707835   1.000000   1.000000
     40         -1.681905       -1.681905   1.000000   1.000000
     41         -1.676317       -1.676317   1.000000   1.000000
     42         -1.675156       -1.675156   1.000000   1.000000
     43         -1.511108       -1.511108   1.000000   1.000000
     44         -1.509640       -1.509640   1.000000   1.000000
     45         -1.505097       -1.505097   1.000000   1.000000
     46         -1.443140       -1.443140   1.000000   1.000000
     47         -1.441362       -1.441362   1.000000   1.000000
     48         -1.391299       -1.391299   1.000000   1.000000
     49         -1.322673       -1.322673   1.000000   1.000000
     50         -1.286849       -1.286849   1.000000   1.000000
     51         -1.285715       -1.285715   1.000000   1.000000
     52         -1.265017       -1.265017   1.000000   1.000000
     53         -1.234445       -1.234445   1.000000   1.000000
     54         -1.176215       -1.176215   1.000000   1.000000
     55         -1.174527       -1.174527   1.000000   1.000000
     56         -1.174355       -1.174355   1.000000   1.000000
     57         -1.145806       -1.145806   1.000000   1.000000
     58         -1.145094       -1.145094   1.000000   1.000000
     59         -1.111028       -1.111028   1.000000   1.000000
     60         -1.109734       -1.109734   1.000000   1.000000
     61         -1.089551       -1.089551   1.000000   1.000000
     62         -1.089147       -1.089147   1.000000   1.000000
     63         -1.079730       -1.079730   1.000000   1.000000
     64         -1.075940       -1.075940   1.000000   1.000000
     65         -1.027032       -1.027032   1.000000   1.000000
     66         -0.982000       -0.982000   1.000000   1.000000
     67         -0.981286       -0.981286   1.000000   1.000000
     68         -0.913943       -0.913943   1.000000   1.000000
     69         -0.877275       -0.877275   1.000000   1.000000
     70         -0.864705       -0.864705   1.000000   1.000000
     71         -0.843051       -0.843051   1.000000   1.000000
     72         -0.842331       -0.842331   1.000000   1.000000
     73         -0.827693       -0.827693   1.000000   1.000000
     74         -0.814639       -0.814639   1.000000   1.000000
     75         -0.799476       -0.799476   1.000000   1.000000
     76         -0.798797       -0.798797   1.000000   1.000000
     77         -0.759493       -0.759493   1.000000   1.000000
     78         -0.748942       -0.748942   1.000000   1.000000
     79         -0.707332       -0.707332   1.000000   1.000000
     80         -0.685163       -0.685163   1.000000   1.000000
     81         -0.682995       -0.682995   1.000000   1.000000
     82         -0.679290       -0.679290   1.000000   1.000000
     83         -0.652673       -0.652673   1.000000   1.000000
     84         -0.651629       -0.651629   1.000000   1.000000
     85         -0.648293       -0.648293   1.000000   1.000000
     86         -0.631539       -0.631539   1.000000   1.000000
     87         -0.631113       -0.631113   1.000000   1.000000
     88         -0.580867       -0.580867   1.000000   1.000000
     89         -0.578649       -0.578649   1.000000   1.000000
     90         -0.576054       -0.576054   1.000000   1.000000
     91         -0.574139       -0.574139   1.000000   1.000000
     92         -0.553324       -0.553324   1.000000   1.000000
     93         -0.513085       -0.513085   1.000000   1.000000
     94         -0.477648       -0.477648   1.000000   1.000000
     95         -0.469099       -0.469099   1.000000   1.000000
     96         -0.459170       -0.459170   1.000000   1.000000
     97         -0.458172       -0.458172   1.000000   1.000000
     98         -0.457377       -0.457377   1.000000   1.000000
     99         -0.451863       -0.451863   1.000000   1.000000
    100         -0.441557       -0.441557   1.000000   1.000000
    101         -0.431642       -0.431642   1.000000   1.000000
    102         -0.429704       -0.429704   1.000000   1.000000
    103         -0.352472       -0.352472   1.000000   1.000000
    104         -0.338574       -0.338574   1.000000   1.000000
    105         -0.337430       -0.337430   1.000000   1.000000
    106         -0.305413       -0.305413   1.000000   1.000000
    107         -0.280635       -0.280635   1.000000   1.000000
    108         -0.268528       -0.268528   1.000000   1.000000
    109         -0.256991       -0.256991   1.000000   1.000000
    110         -0.255543       -0.255543   1.000000   1.000000
    111         -0.243423       -0.243423   1.000000   1.000000
    112         -0.242430       -0.242430   1.000000   1.000000
    113         -0.239350       -0.239350   1.000000   1.000000
    114         -0.186854       -0.186854   1.000000   1.000000
    115         -0.173531       -0.173531   1.000000   1.000000
    116         -0.159867       -0.159867   1.000000   1.000000
    117         -0.117537       -0.117537   1.000000   1.000000
    118         -0.115446       -0.115446   1.000000   1.000000
    119         -0.072906       -0.072906   1.000000   1.000000
    120         -0.047652       -0.047652   1.000000   1.000000
    121         -0.041159       -0.041159   1.000000   1.000000
    122         -0.002745       -0.002745   1.000000   1.000000
    123          0.032093        0.032093   1.000000   1.000000
    124          0.033617        0.033617   1.000000   1.000000
    125          0.039498        0.039498   1.000000   1.000000
    126          0.086963        0.086963   1.000000   1.000000
    127          0.109885        0.109885   1.000000   1.000000
    128          0.164784        0.164784   1.000000   1.000000
    129          0.165460        0.165460   1.000000   1.000000
    130          0.172738        0.172738   1.000000   1.000000
    131          0.211539        0.211539   1.000000   1.000000
    132          0.224020        0.224020   1.000000   1.000000
    133          0.225483        0.225483   1.000000   1.000000
    134          0.234054        0.234054   1.000000   1.000000
    135          0.239739        0.239739   1.000000   1.000000
    136          0.240733        0.240733   1.000000   1.000000
    137          0.248665        0.248665   1.000000   1.000000
    138          0.257390        0.257390   1.000000   1.000000
    139          0.269751        0.269751   1.000000   1.000000
    140          0.270329        0.270329   1.000000   1.000000
    141          0.270753        0.270753   1.000000   1.000000
    142          0.293455        0.293455   1.000000   1.000000
    143          0.330593        0.330593   1.000000   1.000000
    144          0.331580        0.331580   1.000000   1.000000
    145          0.340256        0.340256   1.000000   1.000000
    146          0.356365        0.356365   1.000000   1.000000
    147          0.361988        0.361988   1.000000   1.000000
    148          0.386706        0.386706   1.000000   1.000000
    149          0.388261        0.388261   1.000000   1.000000
    150          0.414335        0.414335   1.000000   1.000000
    151          0.434556        0.434556   1.000000   1.000000
    152          0.449216        0.449216   1.000000   1.000000
    153          0.450702        0.450702   1.000000   1.000000
    154          0.468387        0.468387   1.000000   1.000000
    155          0.555402        0.555402   1.000000   1.000000
    156          0.556147        0.556147   1.000000   1.000000
    157          0.557317        0.557317   1.000000   1.000000
    158          0.585442        0.585442   1.000000   1.000000
    159          0.589972        0.589972   1.000000   1.000000
    160          0.598660        0.598660   1.000000   1.000000
    161          0.599718        0.599718   1.000000   1.000000
    162          0.620590        0.620590   1.000000   1.000000
    163          0.621612        0.621612   1.000000   1.000000
    164          0.641381        0.641381   1.000000   1.000000
    165          0.667420        0.667420   1.000000   1.000000
    166          0.668160        0.668160   1.000000   1.000000
    167          0.687882        0.687882   1.000000   1.000000
    168          0.688494        0.688494   1.000000   1.000000
    169          0.728742        0.728742   1.000000   1.000000
    170          0.729513        0.729513   1.000000   1.000000
    171          1.124682        1.124682   1.000000   1.000000
    172          1.500500        1.500500   1.000009   1.000009
    173          1.862975        1.862975   1.023992   1.023992
    174          1.863288        1.863288   1.024064   1.024064
    175          1.962647        1.962647   1.031656   1.031656
    176          2.019492        2.019492   0.989381   0.989381
    177          2.019738        2.019738   0.989062   0.989062
    178          2.279522        2.279522   0.128399   0.128399
    179          2.280578        2.280578   0.125526   0.125526
    180          2.610268        2.610268  -0.004669  -0.004669
    181          2.797696        2.797696  -0.000055  -0.000055
    182          2.798994        2.798994  -0.000053  -0.000053
    183          3.081518        3.081518  -0.000000  -0.000000
    184          3.596045        3.596045  -0.000000  -0.000000
    185          3.602114        3.602114  -0.000000  -0.000000
    186          3.735925        3.735925  -0.000000  -0.000000
    187          3.983138        3.983138  -0.000000  -0.000000
    188          4.624962        4.624962  -0.000000  -0.000000
    189          4.632974        4.632974  -0.000000  -0.000000
    190          5.493112        5.493112  -0.000000  -0.000000
    191          5.723599        5.723599  -0.000000  -0.000000
    192          5.732004        5.732004  -0.000000  -0.000000
    193          6.387447        6.387447  -0.000000  -0.000000
    194          6.392325        6.392325  -0.000000  -0.000000
    195          6.680675        6.680675  -0.000000  -0.000000
    196          6.936644        6.936644  -0.000000  -0.000000
    197          6.942239        6.942239  -0.000000  -0.000000
    198          7.153298        7.153298  -0.000000  -0.000000
    199          7.235822        7.235821  -0.000000  -0.000000
    200          7.425003        7.425003  -0.000000  -0.000000
    201          7.450486        7.450486  -0.000000  -0.000000
    202          7.853705        7.853705   0.000000   0.000000
    203          8.002537        8.002537   0.000000   0.000000
    204          8.060169        8.060169   0.000000   0.000000
    205          8.257184        8.257183   0.000000   0.000000
    206          8.538764        8.538764   0.000000   0.000000
    207          8.558142        8.558142   0.000000   0.000000
    208          8.644344        8.644344   0.000000   0.000000
    209          9.009138        9.009138   0.000000   0.000000
    210          9.069117        9.069117   0.000000   0.000000
    211          9.296375        9.296375   0.000000   0.000000
    212          9.451578        9.451578   0.000000   0.000000
    213          9.488391        9.488391   0.000000   0.000000
    214          9.744854        9.744853   0.000000   0.000000
    215          9.976798        9.976798   0.000000   0.000000
    216         10.088942       10.088941   0.000000   0.000000
    217         10.154057       10.154057   0.000000   0.000000
    218         10.334400       10.334399   0.000000   0.000000
    219         10.467885       10.467885   0.000000   0.000000
    220         10.548907       10.548907   0.000000   0.000000
    221         10.687136       10.687136   0.000000   0.000000
    222         10.700188       10.700188   0.000000   0.000000
    223         10.931935       10.931934   0.000000   0.000000
    224         10.996094       10.996094   0.000000   0.000000
    225         10.999614       10.999614   0.000000   0.000000
    226         11.171873       11.171873   0.000000   0.000000
    227         11.308967       11.308967   0.000000   0.000000
    228         11.350113       11.350113   0.000000   0.000000
    229         11.599597       11.599597   0.000000   0.000000
    230         11.740827       11.740827   0.000000   0.000000
    231         11.837903       11.837903   0.000000   0.000000