       N       E                     dE             d eps       ncg     rms          rms(c)
DAV:   1     0.344991463566E+04    0.34499E+04   -0.12524E+05  3712   0.193E+03
DAV:   2     0.487119299642E+03   -0.29628E+04   -0.28275E+04  3712   0.448E+02
DAV:   3    -0.928451331740E+02   -0.57996E+03   -0.52719E+03  3720   0.230E+02
DAV:   4    -0.138343482360E+03   -0.45498E+02   -0.43756E+02  4080   0.896E+01
DAV:   5    -0.139451588633E+03   -0.11081E+01   -0.11042E+01  4128   0.140E+01    0.527E+01
DAV:   6    -0.114770486791E+03    0.24681E+02   -0.30705E+02  4200   0.125E+02    0.273E+01
DAV:   7    -0.102828293519E+03    0.11942E+02   -0.79895E+01  4280   0.103E+02    0.170E+01
DAV:   8    -0.108696917883E+03   -0.58686E+01   -0.70587E+01  4720   0.130E+02    0.221E+01
DAV:   9    -0.993123096313E+02    0.93846E+01   -0.20811E+01  5304   0.686E+01    0.124E+01
DAV:  10    -0.998709382302E+02   -0.55863E+00   -0.71393E+00  4928   0.402E+01    0.112E+01
DAV:  11    -0.101760337847E+03   -0.18894E+01   -0.89413E+00  4344   0.413E+01    0.113E+01
DAV:  12    -0.101663852428E+03    0.96485E-01   -0.12853E+01  4392   0.565E+01    0.106E+01
DAV:  13    -0.102708783201E+03   -0.10449E+01   -0.58699E+00  5792   0.424E+01    0.813E+00
DAV:  14    -0.104415031378E+03   -0.17062E+01   -0.48422E+00  5952   0.358E+01    0.717E+00
DAV:  15    -0.108748918141E+03   -0.43339E+01   -0.34094E+00  5104   0.233E+01    0.470E+00
DAV:  16    -0.111907602470E+03   -0.31587E+01   -0.33234E+00  4472   0.210E+01    0.309E+00
DAV:  17    -0.113654618821E+03   -0.17470E+01   -0.17085E+00  4904   0.134E+01    0.240E+00
DAV:  18    -0.114686979494E+03   -0.10324E+01   -0.94217E-01  4408   0.104E+01    0.215E+00
DAV:  19    -0.115557826794E+03   -0.87085E+00   -0.72492E-01  4656   0.874E+00    0.185E+00
DAV:  20    -0.116247431301E+03   -0.68960E+00   -0.45389E-01  4656   0.597E+00    0.163E+00
DAV:  21    -0.117057075154E+03   -0.80964E+00   -0.51031E-01  4944   0.572E+00    0.136E+00
DAV:  22    -0.117765649700E+03   -0.70857E+00   -0.46560E-01  5360   0.546E+00    0.120E+00
DAV:  23    -0.118184841918E+03   -0.41919E+00   -0.20754E-01  4904   0.497E+00    0.103E+00
DAV:  24    -0.118734952129E+03   -0.55011E+00   -0.16947E-01  4944   0.495E+00    0.823E-01
DAV:  25    -0.119555521357E+03   -0.82057E+00   -0.11558E-01  4976   0.438E+00    0.551E-01
DAV:  26    -0.120369623769E+03   -0.81410E+00   -0.60149E-02  4680   0.269E+00    0.423E-01
DAV:  27    -0.120621065884E+03   -0.25144E+00   -0.18988E-02  4200   0.184E+00    0.190E-01
DAV:  28    -0.120660748459E+03   -0.39683E-01   -0.55932E-03  4392   0.972E-01    0.145E-01
DAV:  29    -0.120668548121E+03   -0.77997E-02   -0.24543E-03  4064   0.647E-01    0.958E-02
DAV:  30    -0.120674566738E+03   -0.60186E-02   -0.15500E-03  3904   0.469E-01    0.633E-02
DAV:  31    -0.120678865479E+03   -0.42987E-02   -0.50278E-04  2840   0.315E-01    0.673E-02
DAV:  32    -0.120678834532E+03    0.30947E-04   -0.35382E-04  2544   0.256E-01
   1 F= -.13471898E+03 E0= -.13471409E+03  d E =-.134719E+03  mag=     0.0055
       N       E                     dE             d eps       ncg     rms          rms(c)
DAV:   1    -0.120725883049E+03   -0.47018E-01   -0.23227E+01  3872   0.960E+00    0.707E-01
DAV:   2    -0.120771187929E+03   -0.45305E-01   -0.52274E-01  5408   0.391E+00    0.674E-01
DAV:   3    -0.120771580918E+03   -0.39299E-03   -0.43774E-02  4320   0.415E+00    0.606E-01
DAV:   4    -0.120778985150E+03   -0.74042E-02   -0.60876E-02  4568   0.534E+00    0.715E-01
DAV:   5    -0.120779149806E+03   -0.16466E-03   -0.11989E-01  5272   0.590E+00    0.705E-01
DAV:   6    -0.120767787060E+03    0.11363E-01   -0.49864E-02  5664   0.436E+00    0.284E-01
DAV:   7    -0.120766351892E+03    0.14352E-02   -0.75644E-03  6728   0.200E+00    0.155E-01
DAV:   8    -0.120766171191E+03    0.18070E-03   -0.26666E-03  4744   0.102E+00    0.994E-02
DAV:   9    -0.120766135627E+03    0.35564E-04   -0.14478E-03  3976   0.578E-01
   2 F= -.13482095E+03 E0= -.13481511E+03  d E =-.101968E+00  mag=     0.0037
       N       E                     dE             d eps       ncg     rms          rms(c)
DAV:   1    -0.120765297950E+03    0.87324E-03   -0.34547E-02  4032   0.433E-01    0.362E-02
DAV:   2    -0.120765553263E+03   -0.25531E-03   -0.10855E-03  3672   0.425E-01    0.741E-02
DAV:   3    -0.120765514794E+03    0.38469E-04   -0.92215E-04  2504   0.534E-01
   3 F= -.13482140E+03 E0= -.13481553E+03  d E =-.102411E+00  mag=     0.0034
       N       E                     dE             d eps       ncg     rms          rms(c)
DAV:   1    -0.120808065062E+03   -0.42512E-01   -0.20246E+01  3832   0.918E+00    0.563E-01
DAV:   2    -0.120853534902E+03   -0.45470E-01   -0.49077E-01  5304   0.322E+00    0.609E-01
DAV:   3    -0.120857520711E+03   -0.39858E-02   -0.56353E-02  4336   0.467E+00    0.681E-01
DAV:   4    -0.120857031920E+03    0.48879E-03   -0.55106E-02  4336   0.461E+00    0.570E-01
DAV:   5    -0.120854321502E+03    0.27104E-02   -0.55567E-02  5072   0.436E+00    0.470E-01
DAV:   6    -0.120850553293E+03    0.37682E-02   -0.19248E-02  6320   0.296E+00    0.252E-01
DAV:   7    -0.120849604654E+03    0.94864E-03   -0.59162E-03  4640   0.182E+00    0.153E-01
DAV:   8    -0.120849654563E+03   -0.49909E-04   -0.30659E-03  4960   0.877E-01    0.110E-01
DAV:   9    -0.120849586834E+03    0.67729E-04   -0.13358E-03  3896   0.576E-01
   4 F= -.13490764E+03 E0= -.13490101E+03  d E =-.862434E-01  mag=     0.0023
       N       E                     dE             d eps       ncg     rms          rms(c)
DAV:   1    -0.120850015016E+03   -0.36045E-03   -0.61312E+00  3808   0.506E+00    0.302E-01
DAV:   2    -0.120863679351E+03   -0.13664E-01   -0.13392E-01  5464   0.206E+00    0.385E-01
DAV:   3    -0.120864819112E+03   -0.11398E-02   -0.37865E-02  4384   0.335E+00    0.404E-01
DAV:   4    -0.120864141895E+03    0.67722E-03   -0.23648E-02  4256   0.270E+00    0.356E-01
DAV:   5    -0.120861882491E+03    0.22594E-02   -0.69340E-03  4224   0.195E+00    0.159E-01
DAV:   6    -0.120862058527E+03   -0.17604E-03   -0.30900E-03  4960   0.114E+00    0.141E-01
DAV:   7    -0.120861816366E+03    0.24216E-03   -0.18663E-03  4032   0.911E-01    0.566E-02
DAV:   8    -0.120861882541E+03   -0.66174E-04   -0.82833E-04  3600   0.314E-01
   5 F= -.13492359E+03 E0= -.13491653E+03  d E =-.102191E+00  mag=     0.0016
       N       E                     dE             d eps       ncg     rms          rms(c)
DAV:   1    -0.120860947025E+03    0.86934E-03   -0.42268E-01  3824   0.136E+00    0.781E-02
DAV:   2    -0.120861883337E+03   -0.93631E-03   -0.98144E-03  5224   0.449E-01    0.785E-02
DAV:   3    -0.120862174275E+03   -0.29094E-03   -0.19671E-03  3576   0.831E-01    0.124E-01
DAV:   4    -0.120861916495E+03    0.25778E-03   -0.16476E-03  2392   0.718E-01    0.668E-02
DAV:   5    -0.120861915504E+03    0.99076E-06   -0.45527E-04  2376   0.494E-01
   6 F= -.13492473E+03 E0= -.13491753E+03  d E =-.103331E+00  mag=     0.0013
       N       E                     dE             d eps       ncg     rms          rms(c)
DAV:   1    -0.120875993993E+03   -0.14077E-01   -0.67097E+00  3760   0.546E+00    0.305E-01
DAV:   2    -0.120891708976E+03   -0.15715E-01   -0.13652E-01  6208   0.292E+00    0.510E-01
DAV:   3    -0.120889875233E+03    0.18337E-02   -0.51257E-02  5048   0.380E+00    0.354E-01
DAV:   4    -0.120887442512E+03    0.24327E-02   -0.13733E-02  4320   0.211E+00    0.195E-01
DAV:   5    -0.120887531762E+03   -0.89250E-04   -0.41047E-03  4504   0.126E+00    0.172E-01
DAV:   6    -0.120889060165E+03   -0.15284E-02   -0.52876E-03  4264   0.191E+00    0.282E-01
DAV:   7    -0.120887346216E+03    0.17139E-02   -0.32718E-03  4160   0.149E+00    0.603E-02
DAV:   8    -0.120887413457E+03   -0.67241E-04   -0.11798E-03  3816   0.406E-01
   7 F= -.13495646E+03 E0= -.13494969E+03  d E =-.317282E-01  mag=     0.0009
       N       E                     dE             d eps       ncg     rms          rms(c)
DAV:   1    -0.120878867534E+03    0.84787E-02   -0.62806E+00  3752   0.529E+00    0.292E-01
DAV:   2    -0.120898490798E+03   -0.19623E-01   -0.14043E-01  6472   0.371E+00    0.631E-01
DAV:   3    -0.120891639332E+03    0.68515E-02   -0.63643E-02  6120   0.422E+00    0.310E-01
DAV:   4    -0.120890845797E+03    0.79353E-03   -0.12486E-02  4512   0.223E+00    0.258E-01
DAV:   5    -0.120890425715E+03    0.42008E-03   -0.56588E-03  4232   0.176E+00    0.212E-01
DAV:   6    -0.120890165041E+03    0.26067E-03   -0.37918E-03  4360   0.135E+00    0.153E-01
DAV:   7    -0.120890079977E+03    0.85064E-04   -0.23482E-03  4112   0.718E-01    0.680E-02
DAV:   8    -0.120890110616E+03   -0.30638E-04   -0.93186E-04  3608   0.405E-01
   8 F= -.13496682E+03 E0= -.13496044E+03  d E =-.420902E-01  mag=     0.0006
       N       E                     dE             d eps       ncg     rms          rms(c)
DAV:   1    -0.120901543936E+03   -0.11464E-01   -0.28917E+00  3744   0.356E+00    0.202E-01
DAV:   2    -0.120909378300E+03   -0.78344E-02   -0.63170E-02  6344   0.218E+00    0.376E-01
DAV:   3    -0.120907709777E+03    0.16685E-02   -0.22880E-02  5456   0.263E+00    0.221E-01
DAV:   4    -0.120907236457E+03    0.47332E-03   -0.66660E-03  4240   0.157E+00    0.183E-01
DAV:   5    -0.120906995661E+03    0.24080E-03   -0.24580E-03  4072   0.121E+00    0.148E-01
DAV:   6    -0.120906863285E+03    0.13238E-03   -0.17648E-03  4016   0.954E-01
   9 F= -.13498434E+03 E0= -.13497778E+03  d E =-.175173E-01  mag=     0.0005
       N       E                     dE             d eps       ncg     rms          rms(c)
DAV:   1    -0.120894348451E+03    0.12647E-01   -0.13279E+01  3744   0.767E+00    0.437E-01
DAV:   2    -0.120940820418E+03   -0.46472E-01   -0.32692E-01  6560   0.593E+00    0.993E-01
DAV:   3    -0.120922643582E+03    0.18177E-01   -0.14655E-01  6304   0.627E+00    0.439E-01
DAV:   4    -0.120920848767E+03    0.17948E-02   -0.22846E-02  4992   0.301E+00    0.370E-01
DAV:   5    -0.120920169790E+03    0.67898E-03   -0.11413E-02  4480   0.250E+00    0.323E-01
DAV:   6    -0.120919996705E+03    0.17308E-03   -0.94645E-03  4344   0.229E+00    0.289E-01
DAV:   7    -0.120919258795E+03    0.73791E-03   -0.57301E-03  4344   0.133E+00    0.114E-01
DAV:   8    -0.120919239543E+03    0.19252E-04   -0.24275E-03  4280   0.638E-01    0.587E-02
DAV:   9    -0.120919242934E+03   -0.33912E-05   -0.87322E-04  3488   0.366E-01
  10 F= -.13500045E+03 E0= -.13499398E+03  d E =-.336370E-01  mag=     0.0003
       N       E                     dE             d eps       ncg     rms          rms(c)
DAV:   1    -0.120928117931E+03   -0.88784E-02   -0.20871E+00  3816   0.307E+00    0.138E-01
DAV:   2    -0.120931969417E+03   -0.38515E-02   -0.37704E-02  5520   0.109E+00    0.180E-01
DAV:   3    -0.120932198006E+03   -0.22859E-03   -0.52528E-03  4160   0.144E+00    0.172E-01
DAV:   4    -0.120932298768E+03   -0.10076E-03   -0.51707E-03  3728   0.132E+00    0.171E-01
DAV:   5    -0.120931745367E+03    0.55340E-03   -0.27448E-03  2616   0.985E-01    0.867E-02
DAV:   6    -0.120931732760E+03    0.12607E-04   -0.53136E-04  2368   0.547E-01
  11 F= -.13501265E+03 E0= -.13500601E+03  d E =-.121927E-01  mag=     0.0002
       N       E                     dE             d eps       ncg     rms          rms(c)
DAV:   1    -0.120930057097E+03    0.16883E-02   -0.89119E+00  3792   0.637E+00    0.285E-01
DAV:   2    -0.120947775999E+03   -0.17719E-01   -0.17260E-01  5664   0.255E+00    0.415E-01
DAV:   3    -0.120948543570E+03   -0.76757E-03   -0.23491E-02  4440   0.313E+00    0.349E-01
DAV:   4    -0.120948145220E+03    0.39835E-03   -0.22793E-02  4376   0.277E+00    0.343E-01
DAV:   5    -0.120946292721E+03    0.18525E-02   -0.87561E-03  4248   0.184E+00    0.192E-01
DAV:   6    -0.120946141423E+03    0.15130E-03   -0.28881E-03  4640   0.121E+00    0.157E-01
DAV:   7    -0.120945951936E+03    0.18949E-03   -0.25410E-03  4336   0.942E-01    0.558E-02
DAV:   8    -0.120945956379E+03   -0.44433E-05   -0.11106E-03  3560   0.436E-01
  12 F= -.13502661E+03 E0= -.13501917E+03  d E =-.261596E-01  mag=     0.0002
       N       E                     dE             d eps       ncg     rms          rms(c)
DAV:   1    -0.120944705205E+03    0.12467E-02   -0.13363E+00  3824   0.246E+00    0.109E-01
DAV:   2    -0.120947212035E+03   -0.25068E-02   -0.26164E-02  5384   0.736E-01    0.112E-01
DAV:   3    -0.120947374577E+03   -0.16254E-03   -0.18370E-03  4192   0.837E-01
  13 F= -.13502810E+03 E0= -.13502042E+03  d E =-.276467E-01  mag=     0.0002
       N       E                     dE             d eps       ncg     rms          rms(c)
DAV:   1    -0.120951884380E+03   -0.46723E-02   -0.33751E+00  3808   0.398E+00    0.258E-01
DAV:   2    -0.121001341154E+03   -0.49457E-01   -0.20045E-01  6976   0.687E+00    0.116E+00
DAV:   3    -0.120956938750E+03    0.44402E-01   -0.14132E-01  6960   0.641E+00    0.232E-01
DAV:   4    -0.120957544665E+03   -0.60591E-03   -0.93287E-03  5632   0.117E+00    0.193E-01
DAV:   5    -0.120958091525E+03   -0.54686E-03   -0.46641E-03  4296   0.145E+00    0.213E-01
DAV:   6    -0.120957632081E+03    0.45944E-03   -0.36838E-03  4192   0.150E+00    0.131E-01
DAV:   7    -0.120957392936E+03    0.23915E-03   -0.11948E-03  3408   0.713E-01    0.494E-02
DAV:   8    -0.120957416652E+03   -0.23715E-04   -0.74220E-04  3128   0.345E-01
  14 F= -.13503546E+03 E0= -.13502719E+03  d E =-.735896E-02  mag=     0.0001
       N       E                     dE             d eps       ncg     rms          rms(c)
DAV:   1    -0.120957542109E+03   -0.14917E-03   -0.85545E-01  3808   0.198E+00    0.107E-01
DAV:   2    -0.120959417401E+03   -0.18753E-02   -0.18075E-02  5664   0.851E-01    0.148E-01
DAV:   3    -0.120959676242E+03   -0.25884E-03   -0.50334E-03  4040   0.128E+00    0.161E-01
DAV:   4    -0.120959249535E+03    0.42671E-03   -0.26418E-03  3304   0.966E-01    0.889E-02
DAV:   5    -0.120959248190E+03    0.13446E-05   -0.64434E-04  2560   0.653E-01
  15 F= -.13503618E+03 E0= -.13502760E+03  d E =-.807544E-02  mag=     0.0001
       N       E                     dE             d eps       ncg     rms          rms(c)
DAV:   1    -0.120959833963E+03   -0.58443E-03   -0.37947E+00  3760   0.415E+00    0.219E-01
DAV:   2    -0.120967486290E+03   -0.76523E-02   -0.73150E-02  5728   0.158E+00    0.283E-01
DAV:   3    -0.120968055200E+03   -0.56891E-03   -0.17787E-02  4240   0.240E+00    0.298E-01
DAV:   4    -0.120967616742E+03    0.43846E-03   -0.11277E-02  4176   0.197E+00    0.242E-01
DAV:   5    -0.120966533758E+03    0.10830E-02   -0.38409E-03  3968   0.139E+00    0.128E-01
DAV:   6    -0.120966591899E+03   -0.58141E-04   -0.15147E-03  4240   0.775E-01
  16 F= -.13504301E+03 E0= -.13503386E+03  d E =-.683408E-02  mag=     0.0001
       N       E                     dE             d eps       ncg     rms          rms(c)
DAV:   1    -0.120967006282E+03   -0.47252E-03   -0.16117E-01  5264   0.114E+00    0.589E-02
DAV:   2    -0.120967563685E+03   -0.55740E-03   -0.26012E-03  4176   0.101E+00    0.145E-01
DAV:   3    -0.120967412366E+03    0.15132E-03   -0.38737E-03  2784   0.114E+00    0.106E-01
DAV:   4    -0.120967176818E+03    0.23555E-03   -0.13756E-03  2384   0.651E-01    0.521E-02
DAV:   5    -0.120967158265E+03    0.18552E-04   -0.28104E-04  2320   0.325E-01
  17 F= -.13504351E+03 E0= -.13503456E+03  d E =-.733515E-02  mag=     0.0001
       N       E                     dE             d eps       ncg     rms          rms(c)
DAV:   1    -0.120966567268E+03    0.60955E-03   -0.62937E-01  3792   0.167E+00    0.915E-02
DAV:   2    -0.120968731978E+03   -0.21647E-02   -0.14390E-02  6848   0.124E+00    0.220E-01
DAV:   3    -0.120967691914E+03    0.10401E-02   -0.65569E-03  4704   0.139E+00    0.967E-02
DAV:   4    -0.120967725605E+03   -0.33691E-04   -0.96876E-04  3040   0.644E-01
  18 F= -.13504400E+03 E0= -.13503486E+03  d E =-.782054E-02  mag=     0.0000
       N       E                     dE             d eps       ncg     rms          rms(c)
DAV:   1    -0.120969359919E+03   -0.16680E-02   -0.13663E+00  3760   0.253E+00    0.162E-01
DAV:   2    -0.120972569293E+03   -0.32094E-02   -0.28837E-02  6112   0.124E+00    0.214E-01
DAV:   3    -0.120972692307E+03   -0.12301E-03   -0.10284E-02  4320   0.182E+00    0.224E-01
DAV:   4    -0.120972518077E+03    0.17423E-03   -0.76199E-03  4064   0.155E+00    0.191E-01
DAV:   5    -0.120971859274E+03    0.65880E-03   -0.29622E-03  3544   0.107E+00    0.927E-02
DAV:   6    -0.120971879768E+03   -0.20494E-04   -0.78546E-04  3232   0.624E-01
  19 F= -.13504689E+03 E0= -.13503775E+03  d E =-.289662E-02  mag=     0.0000
       N       E                     dE             d eps       ncg     rms          rms(c)
DAV:   1    -0.120972168380E+03   -0.30911E-03   -0.29494E-01  4032   0.132E+00    0.675E-02
DAV:   2    -0.120973670016E+03   -0.15016E-02   -0.91072E-03  6512   0.129E+00    0.190E-01
DAV:   3    -0.120972876064E+03    0.79395E-03   -0.56047E-03  3904   0.129E+00    0.828E-02
DAV:   4    -0.120972841395E+03    0.34669E-04   -0.10783E-03  2624   0.572E-01
  20 F= -.13504733E+03 E0= -.13503821E+03  d E =-.332760E-02  mag=     0.0000
       N       E                     dE             d eps       ncg     rms          rms(c)
DAV:   1    -0.120973756871E+03   -0.88081E-03   -0.10951E+00  3760   0.227E+00    0.135E-01
DAV:   2    -0.120976406616E+03   -0.26497E-02   -0.23213E-02  6264   0.123E+00    0.204E-01
DAV:   3    -0.120976265001E+03    0.14162E-03   -0.79942E-03  4296   0.153E+00    0.173E-01
DAV:   4    -0.120976201991E+03    0.63010E-04   -0.51922E-03  3792   0.124E+00    0.153E-01
DAV:   5    -0.120975836282E+03    0.36571E-03   -0.17941E-03  3248   0.867E-01    0.814E-02
DAV:   6    -0.120975844139E+03   -0.78575E-05   -0.69517E-04  2688   0.590E-01
  21 F= -.13504969E+03 E0= -.13504072E+03  d E =-.236168E-02  mag=     0.0000
       N       E                     dE             d eps       ncg     rms          rms(c)
DAV:   1    -0.120976003684E+03   -0.16740E-03   -0.41637E-02  5296   0.606E-01    0.378E-02
DAV:   2    -0.120976738885E+03   -0.73520E-03   -0.28823E-03  2624   0.934E-01    0.167E-01
DAV:   3    -0.120976074166E+03    0.66472E-03   -0.34997E-03  2536   0.102E+00    0.479E-02
DAV:   4    -0.120976043351E+03    0.30816E-04   -0.27044E-04  2320   0.354E-01
  22 F= -.13504978E+03 E0= -.13504094E+03  d E =-.245831E-02  mag=     0.0000
       N       E                     dE             d eps       ncg     rms          rms(c)
DAV:   1    -0.120978418787E+03   -0.23446E-02   -0.94618E-01  3760   0.207E+00    0.124E-01
DAV:   2    -0.120980734495E+03   -0.23157E-02   -0.20761E-02  6128   0.111E+00    0.192E-01
DAV:   3    -0.120980537291E+03    0.19720E-03   -0.66046E-03  4320   0.141E+00    0.147E-01
DAV:   4    -0.120980627439E+03   -0.90147E-04   -0.50060E-03  3680   0.121E+00    0.160E-01
DAV:   5    -0.120980146051E+03    0.48139E-03   -0.14706E-03  2832   0.782E-01    0.659E-02
DAV:   6    -0.120980167136E+03   -0.21086E-04   -0.49816E-04  2576   0.456E-01
  23 F= -.13505209E+03 E0= -.13504321E+03  d E =-.230644E-02  mag=     0.0000
       N       E                     dE             d eps       ncg     rms          rms(c)
DAV:   1    -0.120980968587E+03   -0.82254E-03   -0.81821E-01  3760   0.197E+00    0.108E-01
DAV:   2    -0.120983233870E+03   -0.22653E-02   -0.19670E-02  6272   0.113E+00    0.195E-01
DAV:   3    -0.120982755478E+03    0.47839E-03   -0.73907E-03  4592   0.137E+00    0.113E-01
DAV:   4    -0.120982634010E+03    0.12147E-03   -0.16810E-03  3184   0.668E-01
  24 F= -.13505295E+03 E0= -.13504436E+03  d E =-.316972E-02  mag=     0.0000
       N       E                     dE             d eps       ncg     rms          rms(c)
DAV:   1    -0.120984877904E+03   -0.21224E-02   -0.54472E-01  3792   0.165E+00    0.136E-01
DAV:   2    -0.120987667148E+03   -0.27892E-02   -0.14594E-02  6752   0.183E+00    0.289E-01
DAV:   3    -0.120986015983E+03    0.16512E-02   -0.72562E-03  4992   0.185E+00    0.134E-01
DAV:   4    -0.120986284909E+03   -0.26893E-03   -0.50104E-03  3408   0.117E+00    0.163E-01
DAV:   5    -0.120985724414E+03    0.56050E-03   -0.23490E-03  3272   0.858E-01    0.454E-02
DAV:   6    -0.120985777712E+03   -0.53298E-04   -0.59091E-04  3120   0.396E-01
  25 F= -.13505490E+03 E0= -.13504617E+03  d E =-.194986E-02  mag=     0.0000
       N       E                     dE             d eps       ncg     rms          rms(c)
DAV:   1    -0.120984103371E+03    0.16210E-02   -0.48820E+00  3776   0.461E+00    0.274E-01
DAV:   2    -0.120994283708E+03   -0.10180E-01   -0.10067E-01  5456   0.185E+00    0.322E-01
DAV:   3    -0.120994525742E+03   -0.24203E-03   -0.17225E-02  4304   0.255E+00    0.315E-01
DAV:   4    -0.120995511773E+03   -0.98603E-03   -0.17040E-02  4272   0.230E+00    0.329E-01
DAV:   5    -0.120993458524E+03    0.20532E-02   -0.16821E-02  4032   0.223E+00    0.184E-01
DAV:   6    -0.120993100388E+03    0.35814E-03   -0.34040E-03  4384   0.124E+00    0.121E-01
DAV:   7    -0.120992986693E+03    0.11370E-03   -0.16182E-03  4304   0.879E-01
  26 F= -.13505878E+03 E0= -.13504992E+03  d E =-.583028E-02  mag=     0.0000
       N       E                     dE             d eps       ncg     rms          rms(c)
DAV:   1    -0.120996628410E+03   -0.35280E-02   -0.82006E-01  3760   0.191E+00    0.132E-01
DAV:   2    -0.120998432853E+03   -0.18044E-02   -0.19999E-02  5232   0.662E-01    0.123E-01
DAV:   3    -0.120999467301E+03   -0.10344E-02   -0.63819E-03  4064   0.137E+00    0.223E-01
DAV:   4    -0.120998482452E+03    0.98485E-03   -0.64434E-03  2752   0.134E+00    0.101E-01
DAV:   5    -0.120998533884E+03   -0.51432E-04   -0.13558E-03  2496   0.812E-01
  27 F= -.13506216E+03 E0= -.13505336E+03  d E =-.337561E-02  mag=     0.0000
       N       E                     dE             d eps       ncg     rms          rms(c)
DAV:   1    -0.120997555158E+03    0.92729E-03   -0.57276E+00  3792   0.496E+00    0.362E-01
DAV:   2    -0.121014955526E+03   -0.17400E-01   -0.14278E-01  6536   0.320E+00    0.571E-01
DAV:   3    -0.121009516153E+03    0.54394E-02   -0.76713E-02  5344   0.415E+00    0.376E-01
DAV:   4    -0.121007925327E+03    0.15908E-02   -0.95378E-03  4016   0.142E+00    0.211E-01
DAV:   5    -0.121009948690E+03   -0.20234E-02   -0.88164E-03  4448   0.228E+00    0.337E-01
DAV:   6    -0.121008492063E+03    0.14566E-02   -0.10235E-02  4432   0.236E+00    0.199E-01
DAV:   7    -0.121007749510E+03    0.74255E-03   -0.30441E-03  4448   0.129E+00    0.563E-02
DAV:   8    -0.121007784337E+03   -0.34827E-04   -0.17353E-03  3792   0.409E-01
  28 F= -.13506603E+03 E0= -.13505691E+03  d E =-.724928E-02  mag=     0.0000
       N       E                     dE             d eps       ncg     rms          rms(c)
DAV:   1    -0.121008451957E+03   -0.70245E-03   -0.52407E-01  3760   0.150E+00    0.108E-01
DAV:   2    -0.121011576896E+03   -0.31249E-02   -0.18860E-02  6640   0.163E+00    0.283E-01
DAV:   3    -0.121009561669E+03    0.20152E-02   -0.13203E-02  5552   0.180E+00    0.987E-02
DAV:   4    -0.121009655103E+03   -0.93434E-04   -0.14951E-03  3184   0.743E-01
  29 F= -.13506635E+03 E0= -.13505734E+03  d E =-.756396E-02  mag=     0.0000
       N       E                     dE             d eps       ncg     rms          rms(c)
DAV:   1    -0.121007757673E+03    0.18040E-02   -0.20891E+00  3792   0.305E+00    0.243E-01
DAV:   2    -0.121012659205E+03   -0.49015E-02   -0.49787E-02  5696   0.143E+00    0.283E-01
DAV:   3    -0.121013924176E+03   -0.12650E-02   -0.24940E-02  4384   0.261E+00    0.339E-01
DAV:   4    -0.121012008222E+03    0.19160E-02   -0.11366E-02  4368   0.195E+00    0.191E-01
DAV:   5    -0.121012421634E+03   -0.41341E-03   -0.43803E-03  4160   0.160E+00    0.202E-01
DAV:   6    -0.121011695731E+03    0.72590E-03   -0.34259E-03  4032   0.147E+00    0.103E-01
DAV:   7    -0.121011523563E+03    0.17217E-03   -0.11747E-03  3680   0.684E-01
  30 F= -.13506516E+03 E0= -.13505602E+03  d E =-.638091E-02  mag=     0.0000
       N       E                     dE             d eps       ncg     rms          rms(c)
DAV:   1    -0.121008247486E+03    0.34482E-02   -0.11820E+00  3776   0.224E+00    0.158E-01
DAV:   2    -0.121012181990E+03   -0.39345E-02   -0.29772E-02  6688   0.167E+00    0.293E-01
DAV:   3    -0.121010579073E+03    0.16029E-02   -0.14753E-02  5696   0.192E+00    0.157E-01
DAV:   4    -0.121010800895E+03   -0.22182E-03   -0.40215E-03  3904   0.119E+00    0.179E-01
DAV:   5    -0.121010220721E+03    0.58017E-03   -0.17533E-03  3600   0.960E-01    0.750E-02
DAV:   6    -0.121010296733E+03   -0.76012E-04   -0.70497E-04  3280   0.521E-01
  31 F= -.13506622E+03 E0= -.13505695E+03  d E =-.743962E-02  mag=     0.0000
       N       E                     dE             d eps       ncg     rms          rms(c)
DAV:   1    -0.121009822358E+03    0.39836E-03   -0.42509E-02  5328   0.629E-01    0.389E-02
DAV:   2    -0.121011384536E+03   -0.15622E-02   -0.65012E-03  2800   0.135E+00    0.230E-01
DAV:   3    -0.121009840089E+03    0.15444E-02   -0.62127E-03  2528   0.126E+00    0.295E-02
DAV:   4    -0.121009873232E+03   -0.33143E-04   -0.18864E-04  2336   0.235E-01
  32 F= -.13506624E+03 E0= -.13505719E+03  d E =-.745312E-02  mag=     0.0000
       N       E                     dE             d eps       ncg     rms          rms(c)
DAV:   1    -0.121011223121E+03   -0.13830E-02   -0.12125E-01  3792   0.747E-01    0.456E-02
DAV:   2    -0.121011722204E+03   -0.49908E-03   -0.29873E-03  3456   0.677E-01    0.122E-01
DAV:   3    -0.121011415516E+03    0.30669E-03   -0.24117E-03  3104   0.762E-01    0.475E-02
DAV:   4    -0.121011441701E+03   -0.26184E-04   -0.46560E-04  2336   0.398E-01
  33 F= -.13506708E+03 E0= -.13505793E+03  d E =-.846111E-03  mag=     0.0000
       N       E                     dE             d eps       ncg     rms          rms(c)
DAV:   1    -0.121013375516E+03   -0.19600E-02   -0.36372E-01  3792   0.128E+00    0.104E-01
DAV:   2    -0.121014337214E+03   -0.96170E-03   -0.85320E-03  5872   0.680E-01    0.134E-01
DAV:   3    -0.121014293830E+03    0.43384E-04   -0.42523E-03  3808   0.108E+00    0.133E-01
DAV:   4    -0.121014280037E+03    0.13794E-04   -0.28570E-03  2576   0.954E-01    0.122E-01
DAV:   5    -0.121014022034E+03    0.25800E-03   -0.11975E-03  2576   0.697E-01    0.581E-02
DAV:   6    -0.121014045537E+03   -0.23502E-04   -0.34422E-04  2400   0.435E-01
  34 F= -.13506845E+03 E0= -.13505930E+03  d E =-.221574E-02  mag=     0.0000
       N       E                     dE             d eps       ncg     rms          rms(c)
DAV:   1    -0.121015634998E+03   -0.16130E-02   -0.14337E+00  3792   0.247E+00    0.171E-01
DAV:   2    -0.121018688300E+03   -0.30533E-02   -0.33682E-02  5152   0.678E-01    0.147E-01
DAV:   3    -0.121019504275E+03   -0.81598E-03   -0.47106E-03  4032   0.127E+00    0.218E-01
DAV:   4    -0.121019044302E+03    0.45997E-03   -0.80621E-03  2976   0.152E+00    0.158E-01
DAV:   5    -0.121018958627E+03    0.85676E-04   -0.50418E-03  2640   0.129E+00    0.143E-01
DAV:   6    -0.121018625474E+03    0.33315E-03   -0.14167E-03  2576   0.968E-01    0.921E-02
DAV:   7    -0.121018479370E+03    0.14610E-03   -0.30889E-04  2656   0.513E-01
  35 F= -.13507043E+03 E0= -.13506131E+03  d E =-.419831E-02  mag=     0.0000
       N       E                     dE             d eps       ncg     rms          rms(c)
DAV:   1    -0.121019479326E+03   -0.85385E-03   -0.19403E-01  3792   0.909E-01    0.631E-02
DAV:   2    -0.121019955183E+03   -0.47586E-03   -0.48009E-03  5200   0.449E-01    0.773E-02
DAV:   3    -0.121020069956E+03   -0.11477E-03   -0.20642E-03  2592   0.757E-01    0.944E-02
DAV:   4    -0.121019876952E+03    0.19300E-03   -0.89656E-04  2432   0.494E-01
  36 F= -.13507094E+03 E0= -.13506177E+03  d E =-.470301E-02  mag=     0.0000
       N       E                     dE             d eps       ncg     rms          rms(c)
DAV:   1    -0.121020793135E+03   -0.72318E-03   -0.76405E-01  3792   0.183E+00    0.149E-01
DAV:   2    -0.121024718661E+03   -0.39255E-02   -0.20509E-02  6784   0.199E+00    0.319E-01
DAV:   3    -0.121022441127E+03    0.22775E-02   -0.98651E-03  5632   0.198E+00    0.151E-01
DAV:   4    -0.121022697559E+03   -0.25643E-03   -0.61855E-03  3712   0.126E+00    0.173E-01
DAV:   5    -0.121022118718E+03    0.57884E-03   -0.25842E-03  3584   0.831E-01    0.570E-02
DAV:   6    -0.121022216071E+03   -0.97353E-04   -0.84954E-04  3616   0.333E-01
  37 F= -.13507149E+03 E0= -.13506243E+03  d E =-.525471E-02  mag=     0.0000
       N       E                     dE             d eps       ncg     rms          rms(c)
DAV:   1    -0.121024462647E+03   -0.23439E-02   -0.72651E-02  4480   0.648E-01    0.416E-02
DAV:   2    -0.121024712772E+03   -0.25013E-03   -0.12950E-03  3088   0.548E-01    0.953E-02
DAV:   3    -0.121024569547E+03    0.14323E-03   -0.10091E-03  2704   0.587E-01
  38 F= -.13507330E+03 E0= -.13506431E+03  d E =-.181131E-02  mag=     0.0000
       N       E                     dE             d eps       ncg     rms          rms(c)
DAV:   1    -0.121029377909E+03   -0.46651E-02   -0.64995E-01  3744   0.173E+00    0.142E-01
DAV:   2    -0.121038016945E+03   -0.86390E-02   -0.43629E-02  6656   0.298E+00    0.495E-01
DAV:   3    -0.121030586343E+03    0.74306E-02   -0.32450E-02  6320   0.282E+00    0.129E-01
DAV:   4    -0.121030902676E+03   -0.31633E-03   -0.27854E-03  4544   0.101E+00    0.150E-01
DAV:   5    -0.121030568216E+03    0.33446E-03   -0.20293E-03  4016   0.849E-01    0.574E-02
DAV:   6    -0.121030627944E+03   -0.59728E-04   -0.84210E-04  3368   0.420E-01
  39 F= -.13507776E+03 E0= -.13506888E+03  d E =-.626449E-02  mag=     0.0000
       N       E                     dE             d eps       ncg     rms          rms(c)
DAV:   1    -0.121032622221E+03   -0.20540E-02   -0.25713E+00  3744   0.335E+00    0.229E-01
DAV:   2    -0.121039336048E+03   -0.67138E-02   -0.63257E-02  6256   0.170E+00    0.319E-01
DAV:   3    -0.121038842403E+03    0.49364E-03   -0.25618E-02  4928   0.250E+00    0.260E-01
DAV:   4    -0.121037731612E+03    0.11108E-02   -0.53879E-03  4128   0.116E+00    0.125E-01
DAV:   5    -0.121038692339E+03   -0.96073E-03   -0.31795E-03  4240   0.130E+00    0.214E-01
DAV:   6    -0.121038083494E+03    0.60885E-03   -0.41866E-03  4176   0.154E+00    0.125E-01
DAV:   7    -0.121037766018E+03    0.31748E-03   -0.10011E-03  3392   0.691E-01    0.320E-02
DAV:   8    -0.121037812079E+03   -0.46061E-04   -0.53832E-04  2784   0.193E-01
  40 F= -.13508186E+03 E0= -.13507329E+03  d E =-.103657E-01  mag=     0.0000
       N       E                     dE             d eps       ncg     rms          rms(c)
DAV:   1    -0.121041875254E+03   -0.41092E-02   -0.21077E-01  3744   0.957E-01    0.707E-02
DAV:   2    -0.121043507571E+03   -0.16323E-02   -0.90502E-03  4696   0.128E+00    0.221E-01
DAV:   3    -0.121042181192E+03    0.13264E-02   -0.74477E-03  4280   0.131E+00    0.564E-02
DAV:   4    -0.121042285911E+03   -0.10472E-03   -0.11516E-03  3984   0.239E-01
  41 F= -.13508488E+03 E0= -.13507642E+03  d E =-.302459E-02  mag=     0.0000
       N       E                     dE             d eps       ncg     rms          rms(c)
DAV:   1    -0.121048215178E+03   -0.60340E-02   -0.18936E+00  3744   0.285E+00    0.218E-01
DAV:   2    -0.121052089253E+03   -0.38741E-02   -0.45841E-02  5184   0.848E-01    0.188E-01
DAV:   3    -0.121052173532E+03   -0.84279E-04   -0.30916E-03  4352   0.101E+00    0.178E-01
DAV:   4    -0.121052632928E+03   -0.45940E-03   -0.43413E-03  3968   0.149E+00    0.197E-01
DAV:   5    -0.121053556407E+03   -0.92348E-03   -0.14297E-02  2896   0.194E+00    0.252E-01
DAV:   6    -0.121052220668E+03    0.13357E-02   -0.14009E-02  2656   0.186E+00    0.134E-01
DAV:   7    -0.121051729962E+03    0.49071E-03   -0.16094E-03  2512   0.813E-01    0.303E-02
DAV:   8    -0.121051734726E+03   -0.47636E-05   -0.21543E-04  2560   0.231E-01
  42 F= -.13509018E+03 E0= -.13508208E+03  d E =-.832715E-02  mag=     0.0000
       N       E                     dE             d eps       ncg     rms          rms(c)
DAV:   1    -0.121052704207E+03   -0.97425E-03   -0.63687E-02  3760   0.533E-01    0.392E-02
DAV:   2    -0.121052835773E+03   -0.13157E-03   -0.16006E-03  4496   0.192E-01
  43 F= -.13509056E+03 E0= -.13508258E+03  d E =-.870623E-02  mag=     0.0000
       N       E                     dE             d eps       ncg     rms          rms(c)
DAV:   1    -0.121054041221E+03   -0.13370E-02   -0.24798E-01  3792   0.112E+00    0.109E-01
DAV:   2    -0.121066913131E+03   -0.12872E-01   -0.59645E-02  5952   0.377E+00    0.636E-01
DAV:   3    -0.121054242425E+03    0.12671E-01   -0.48885E-02  4848   0.337E+00    0.792E-02
DAV:   4    -0.121054623980E+03   -0.38155E-03   -0.20412E-03  4848   0.773E-01    0.121E-01
DAV:   5    -0.121054394269E+03    0.22971E-03   -0.14547E-03  3616   0.725E-01    0.447E-02
DAV:   6    -0.121054402008E+03   -0.77387E-05   -0.40393E-04  2464   0.347E-01
  44 F= -.13509070E+03 E0= -.13508288E+03  d E =-.884525E-02  mag=     0.0000
       N       E                     dE             d eps       ncg     rms          rms(c)
DAV:   1    -0.121057227560E+03   -0.28333E-02   -0.21589E-01  3744   0.958E-01    0.795E-02
DAV:   2    -0.121057718860E+03   -0.49130E-03   -0.52507E-03  5280   0.434E-01    0.836E-02
DAV:   3    -0.121057935066E+03   -0.21621E-03   -0.26767E-03  2720   0.856E-01    0.119E-01
DAV:   4    -0.121057706950E+03    0.22812E-03   -0.18035E-03  2416   0.676E-01    0.661E-02
DAV:   5    -0.121057714650E+03   -0.77005E-05   -0.57206E-04  2512   0.533E-01
  45 F= -.13509280E+03 E0= -.13508510E+03  d E =-.209656E-02  mag=     0.0000
       N       E                     dE             d eps       ncg     rms          rms(c)
DAV:   1    -0.121062956243E+03   -0.52493E-02   -0.19349E+00  3728   0.284E+00    0.240E-01
DAV:   2    -0.121067037068E+03   -0.40808E-02   -0.43922E-02  5664   0.120E+00    0.238E-01
DAV:   3    -0.121068399907E+03   -0.13628E-02   -0.14667E-02  4272   0.219E+00    0.319E-01
DAV:   4    -0.121068812349E+03   -0.41244E-03   -0.24024E-02  4240   0.247E+00    0.312E-01
DAV:   5    -0.121066659655E+03    0.21527E-02   -0.14038E-02  3744   0.199E+00    0.139E-01
DAV:   6    -0.121066529993E+03    0.12966E-03   -0.14260E-03  3376   0.989E-01
  46 F= -.13509794E+03 E0= -.13509004E+03  d E =-.723965E-02  mag=     0.0000
       N       E                     dE             d eps       ncg     rms          rms(c)
DAV:   1    -0.121065903492E+03    0.75616E-03   -0.76663E+00  3728   0.560E+00    0.465E-01
DAV:   2    -0.121082132008E+03   -0.16229E-01   -0.17836E-01  5488   0.209E+00    0.450E-01
DAV:   3    -0.121092278212E+03   -0.10146E-01   -0.82878E-02  4304   0.479E+00    0.714E-01
DAV:   4    -0.121083140728E+03    0.91375E-02   -0.75592E-02  4496   0.426E+00    0.397E-01
DAV:   5    -0.121081748588E+03    0.13921E-02   -0.20968E-02  4560   0.310E+00    0.303E-01
DAV:   6    -0.121080195998E+03    0.15526E-02   -0.82169E-03  6104   0.184E+00    0.107E-01
DAV:   7    -0.121079941600E+03    0.25440E-03   -0.32096E-03  4336   0.781E-01    0.521E-02
DAV:   8    -0.121080018930E+03   -0.77329E-04   -0.12388E-03  3664   0.280E-01
  47 F= -.13510399E+03 E0= -.13509683E+03  d E =-.132923E-01  mag=     0.0000
       N       E                     dE             d eps       ncg     rms          rms(c)
DAV:   1    -0.121085531952E+03   -0.55904E-02   -0.12460E+00  3760   0.236E+00    0.143E-01
DAV:   2    -0.121088303315E+03   -0.27714E-02   -0.28271E-02  5456   0.975E-01    0.178E-01
DAV:   3    -0.121088816503E+03   -0.51319E-03   -0.88289E-03  4224   0.152E+00    0.191E-01
DAV:   4    -0.121088261395E+03    0.55511E-03   -0.63927E-03  3504   0.126E+00    0.129E-01
DAV:   5    -0.121088165443E+03    0.95952E-04   -0.16263E-03  2592   0.876E-01
  48 F= -.13510969E+03 E0= -.13510207E+03  d E =-.569714E-02  mag=     0.0000
       N       E                     dE             d eps       ncg     rms          rms(c)
DAV:   1    -0.121090693528E+03   -0.24321E-02   -0.29135E+00  3744   0.364E+00    0.243E-01
DAV:   2    -0.121098087214E+03   -0.73937E-02   -0.67770E-02  6352   0.191E+00    0.339E-01
DAV:   3    -0.121098162990E+03   -0.75776E-04   -0.32596E-02  4960   0.281E+00    0.321E-01
DAV:   4    -0.121097550712E+03    0.61228E-03   -0.16343E-02  4336   0.206E+00    0.272E-01
DAV:   5    -0.121096331186E+03    0.12195E-02   -0.50709E-03  4224   0.148E+00    0.126E-01
DAV:   6    -0.121096523370E+03   -0.19218E-03   -0.23812E-03  4288   0.965E-01    0.126E-01
DAV:   7    -0.121096336667E+03    0.18670E-03   -0.14992E-03  4032   0.784E-01
  49 F= -.13511412E+03 E0= -.13510639E+03  d E =-.101279E-01  mag=     0.0000
       N       E                     dE             d eps       ncg     rms          rms(c)
DAV:   1    -0.121075573736E+03    0.20950E-01   -0.11575E+01  3744   0.719E+00    0.430E-01
DAV:   2    -0.121100570682E+03   -0.24997E-01   -0.27219E-01  5200   0.234E+00    0.427E-01
DAV:   3    -0.121101306883E+03   -0.73620E-03   -0.20856E-02  4224   0.253E+00    0.394E-01
DAV:   4    -0.121100921416E+03    0.38547E-03   -0.13046E-02  4384   0.255E+00    0.335E-01
DAV:   5    -0.121104709496E+03   -0.37881E-02   -0.36278E-02  4528   0.317E+00    0.466E-01
DAV:   6    -0.121101605920E+03    0.31036E-02   -0.54228E-02  4480   0.352E+00    0.339E-01
DAV:   7    -0.121098920720E+03    0.26852E-02   -0.86506E-03  4944   0.170E+00    0.645E-02
DAV:   8    -0.121099032062E+03   -0.11134E-03   -0.18063E-03  4768   0.474E-01
  50 F= -.13510937E+03 E0= -.13510112E+03  d E =-.537793E-02  mag=     0.0000
       N       E                     dE             d eps       ncg     rms          rms(c)
DAV:   1    -0.121085929960E+03    0.12991E-01   -0.69761E+00  3760   0.555E+00    0.341E-01
DAV:   2    -0.121099828430E+03   -0.13898E-01   -0.15237E-01  5264   0.205E+00    0.362E-01
DAV:   3    -0.121099866874E+03   -0.38445E-04   -0.14045E-02  4240   0.210E+00    0.299E-01
DAV:   4    -0.121100066444E+03   -0.19957E-03   -0.83208E-03  4352   0.203E+00    0.284E-01
DAV:   5    -0.121101815705E+03   -0.17493E-02   -0.19976E-02  4304   0.251E+00    0.362E-01
DAV:   6    -0.121100565119E+03    0.12506E-02   -0.34766E-02  4064   0.291E+00    0.279E-01
DAV:   7    -0.121098542713E+03    0.20224E-02   -0.82207E-03  3088   0.158E+00    0.672E-02
DAV:   8    -0.121098618902E+03   -0.76189E-04   -0.15422E-03  4816   0.439E-01
  51 F= -.13511473E+03 E0= -.13510695E+03  d E =-.107358E-01  mag=     0.0000
       N       E                     dE             d eps       ncg     rms          rms(c)
DAV:   1    -0.121101645949E+03   -0.31032E-02   -0.13130E+00  3744   0.240E+00    0.164E-01
DAV:   2    -0.121104716311E+03   -0.30704E-02   -0.29989E-02  6384   0.124E+00    0.230E-01
DAV:   3    -0.121104622752E+03    0.93560E-04   -0.12285E-02  4528   0.172E+00    0.197E-01
DAV:   4    -0.121104319093E+03    0.30366E-03   -0.60220E-03  3648   0.131E+00    0.158E-01
DAV:   5    -0.121104008838E+03    0.31026E-03   -0.21343E-03  2896   0.102E+00    0.111E-01
DAV:   6    -0.121103920820E+03    0.88018E-04   -0.86891E-04  3472   0.705E-01
  52 F= -.13511792E+03 E0= -.13511038E+03  d E =-.318463E-02  mag=     0.0000
       N       E                     dE             d eps       ncg     rms          rms(c)
DAV:   1    -0.121104780614E+03   -0.77178E-03   -0.78384E-01  3776   0.193E+00    0.126E-01
DAV:   2    -0.121107689422E+03   -0.29088E-02   -0.21949E-02  6544   0.145E+00    0.255E-01
DAV:   3    -0.121106544705E+03    0.11447E-02   -0.12425E-02  4864   0.169E+00    0.136E-01
DAV:   4    -0.121106610732E+03   -0.66026E-04   -0.32341E-03  3600   0.104E+00    0.137E-01
DAV:   5    -0.121106311702E+03    0.29903E-03   -0.14554E-03  3568   0.774E-01    0.672E-02
DAV:   6    -0.121106375388E+03   -0.63686E-04   -0.66208E-04  3088   0.500E-01
  53 F= -.13511875E+03 E0= -.13511113E+03  d E =-.402395E-02  mag=     0.0000
       N       E                     dE             d eps       ncg     rms          rms(c)
DAV:   1    -0.121108567850E+03   -0.22561E-02   -0.29227E-01  3808   0.120E+00    0.805E-02
DAV:   2    -0.121109230042E+03   -0.66219E-03   -0.72822E-03  5120   0.402E-01    0.749E-02
DAV:   3    -0.121109381993E+03   -0.15195E-03   -0.12898E-03  2576   0.601E-01
  54 F= -.13512066E+03 E0= -.13511310E+03  d E =-.190317E-02  mag=     0.0000
       N       E                     dE             d eps       ncg     rms          rms(c)
DAV:   1    -0.121111281766E+03   -0.20517E-02   -0.58613E-01  3840   0.175E+00    0.157E-01
DAV:   2    -0.121123588856E+03   -0.12307E-01   -0.58412E-02  6544   0.367E+00    0.621E-01
DAV:   3    -0.121112096677E+03    0.11492E-01   -0.53098E-02  6096   0.335E+00    0.136E-01
DAV:   4    -0.121112598630E+03   -0.50195E-03   -0.33300E-03  4960   0.111E+00    0.168E-01
DAV:   5    -0.121112168658E+03    0.42997E-03   -0.27516E-03  4192   0.107E+00    0.840E-02
DAV:   6    -0.121112145658E+03    0.23000E-04   -0.11572E-03  3840   0.685E-01
  55 F= -.13512191E+03 E0= -.13511438E+03  d E =-.315424E-02  mag=     0.0000
       N       E                     dE             d eps       ncg     rms          rms(c)
DAV:   1    -0.121109964630E+03    0.22040E-02   -0.23223E+00  3744   0.318E+00    0.229E-01
DAV:   2    -0.121118915535E+03   -0.89509E-02   -0.68412E-02  6624   0.258E+00    0.460E-01
DAV:   3    -0.121114863485E+03    0.40520E-02   -0.37621E-02  6528   0.283E+00    0.217E-01
DAV:   4    -0.121115054565E+03   -0.19108E-03   -0.59259E-03  4256   0.142E+00    0.220E-01
DAV:   5    -0.121114489219E+03    0.56535E-03   -0.45335E-03  4240   0.149E+00    0.140E-01
DAV:   6    -0.121114366196E+03    0.12302E-03   -0.21524E-03  4064   0.872E-01    0.922E-02
DAV:   7    -0.121114297179E+03    0.69016E-04   -0.94267E-04  3760   0.540E-01
  56 F= -.13512115E+03 E0= -.13511400E+03  d E =-.239471E-02  mag=     0.0000
       N       E                     dE             d eps       ncg     rms          rms(c)
DAV:   1    -0.121112215984E+03    0.21502E-02   -0.89657E-01  3744   0.196E+00    0.146E-01
DAV:   2    -0.121113884151E+03   -0.16682E-02   -0.18701E-02  5408   0.728E-01    0.155E-01
DAV:   3    -0.121114486108E+03   -0.60196E-03   -0.78571E-03  4064   0.145E+00    0.202E-01
DAV:   4    -0.121113947703E+03    0.53840E-03   -0.62896E-03  3280   0.128E+00    0.138E-01
DAV:   5    -0.121113718421E+03    0.22928E-03   -0.20407E-03  2672   0.994E-01    0.946E-02
DAV:   6    -0.121113571516E+03    0.14691E-03   -0.77402E-04  2656   0.637E-01
  57 F= -.13512221E+03 E0= -.13511479E+03  d E =-.345647E-02  mag=     0.0000
       N       E                     dE             d eps       ncg     rms          rms(c)
DAV:   1    -0.121113915196E+03   -0.19677E-03   -0.89675E-02  4336   0.701E-01    0.493E-02
DAV:   2    -0.121114039323E+03   -0.12413E-03   -0.15776E-03  3856   0.312E-01
  58 F= -.13512211E+03 E0= -.13511481E+03  d E =-.335085E-02  mag=     0.0000
       N       E                     dE             d eps       ncg     rms          rms(c)
DAV:   1    -0.121113713191E+03    0.20200E-03   -0.39399E-02  5248   0.555E-01    0.348E-02
DAV:   2    -0.121116067140E+03   -0.23539E-02   -0.10559E-02  2720   0.170E+00    0.281E-01
DAV:   3    -0.121113785383E+03    0.22818E-02   -0.98111E-03  2688   0.155E+00    0.523E-02
DAV:   4    -0.121113729844E+03    0.55540E-04   -0.23759E-04  2368   0.310E-01
  59 F= -.13512217E+03 E0= -.13511481E+03  d E =-.341872E-02  mag=     0.0000
       N       E                     dE             d eps       ncg     rms          rms(c)
DAV:   1    -0.121115394512E+03   -0.16091E-02   -0.44462E-01  3744   0.138E+00    0.990E-02
DAV:   2    -0.121116602339E+03   -0.12078E-02   -0.10521E-02  6272   0.848E-01    0.156E-01
DAV:   3    -0.121116322028E+03    0.28031E-03   -0.51099E-03  3584   0.111E+00    0.111E-01
DAV:   4    -0.121116308362E+03    0.13666E-04   -0.18356E-03  2976   0.791E-01
  60 F= -.13512405E+03 E0= -.13511716E+03  d E =-.188087E-02  mag=     0.0000
       N       E                     dE             d eps       ncg     rms          rms(c)
DAV:   1    -0.121114242709E+03    0.20793E-02   -0.39992E+00  3760   0.416E+00    0.337E-01
DAV:   2    -0.121124220642E+03   -0.99779E-02   -0.96614E-02  6144   0.230E+00    0.436E-01
DAV:   3    -0.121123909593E+03    0.31105E-03   -0.50762E-02  4880   0.344E+00    0.402E-01
DAV:   4    -0.121121231190E+03    0.26784E-02   -0.14626E-02  4320   0.215E+00    0.214E-01
DAV:   5    -0.121121250688E+03   -0.19498E-04   -0.50184E-03  4624   0.154E+00    0.171E-01
DAV:   6    -0.121122510250E+03   -0.12596E-02   -0.76180E-03  4528   0.202E+00    0.268E-01
DAV:   7    -0.121120865910E+03    0.16443E-02   -0.36241E-03  4160   0.147E+00    0.418E-02
DAV:   8    -0.121120955936E+03   -0.90026E-04   -0.12999E-03  3616   0.326E-01
  61 F= -.13512665E+03 E0= -.13512012E+03  d E =-.447800E-02  mag=     0.0000
       N       E                     dE             d eps       ncg     rms          rms(c)
DAV:   1    -0.121122502224E+03   -0.16363E-02   -0.30229E-01  3904   0.118E+00    0.567E-02
DAV:   2    -0.121123199780E+03   -0.69756E-03   -0.67298E-03  5840   0.554E-01    0.893E-02
DAV:   3    -0.121123212531E+03   -0.12751E-04   -0.18156E-03  2912   0.713E-01
  62 F= -.13512853E+03 E0= -.13512198E+03  d E =-.187770E-02  mag=     0.0000
       N       E                     dE             d eps       ncg     rms          rms(c)
DAV:   1    -0.121123952540E+03   -0.75276E-03   -0.43793E-01  3920   0.151E+00    0.100E-01
DAV:   2    -0.121129291819E+03   -0.53393E-02   -0.26887E-02  6720   0.242E+00    0.402E-01
DAV:   3    -0.121124846884E+03    0.44449E-02   -0.21564E-02  5056   0.233E+00    0.125E-01
DAV:   4    -0.121124719605E+03    0.12728E-03   -0.22363E-03  3968   0.786E-01    0.838E-02
DAV:   5    -0.121124734242E+03   -0.14637E-04   -0.12643E-03  3856   0.374E-01
  63 F= -.13512959E+03 E0= -.13512309E+03  d E =-.294249E-02  mag=     0.0000
       N       E                     dE             d eps       ncg     rms          rms(c)
DAV:   1    -0.121121805045E+03    0.29146E-02   -0.17344E+00  3872   0.282E+00    0.140E-01
DAV:   2    -0.121127276545E+03   -0.54715E-02   -0.42071E-02  6896   0.197E+00    0.329E-01
DAV:   3    -0.121125182626E+03    0.20939E-02   -0.21467E-02  6080   0.216E+00    0.150E-01
DAV:   4    -0.121125232476E+03   -0.49849E-04   -0.29517E-03  4016   0.882E-01    0.139E-01
DAV:   5    -0.121125104809E+03    0.12767E-03   -0.19986E-03  3888   0.795E-01
  64 F= -.13512904E+03 E0= -.13512257E+03  d E =-.239096E-02  mag=     0.0000
       N       E                     dE             d eps       ncg     rms          rms(c)
DAV:   1    -0.121124453859E+03    0.77862E-03   -0.51677E-01  3984   0.166E+00    0.888E-02
DAV:   2    -0.121128212557E+03   -0.37587E-02   -0.21050E-02  7040   0.226E+00    0.311E-01
DAV:   3    -0.121125696879E+03    0.25157E-02   -0.19776E-02  5552   0.218E+00    0.140E-01
DAV:   4    -0.121125324214E+03    0.37266E-03   -0.19755E-03  3072   0.776E-01    0.498E-02
DAV:   5    -0.121125401268E+03   -0.77055E-04   -0.10159E-03  3728   0.207E-01
  65 F= -.13512984E+03 E0= -.13512339E+03  d E =-.319005E-02  mag=     0.0000
       N       E                     dE             d eps       ncg     rms          rms(c)
DAV:   1    -0.121127320474E+03   -0.19963E-02   -0.44988E-01  3824   0.145E+00    0.843E-02
DAV:   2    -0.121129035420E+03   -0.17149E-02   -0.98588E-03  6384   0.125E+00    0.202E-01
DAV:   3    -0.121128053763E+03    0.98166E-03   -0.34059E-03  4512   0.119E+00    0.681E-02
DAV:   4    -0.121128259039E+03   -0.20528E-03   -0.15082E-03  2592   0.598E-01    0.107E-01
DAV:   5    -0.121128069697E+03    0.18934E-03   -0.19072E-03  2816   0.683E-01
  66 F= -.13513083E+03 E0= -.13512437E+03  d E =-.991754E-03  mag=     0.0000
       N       E                     dE             d eps       ncg     rms          rms(c)
DAV:   1    -0.121128676686E+03   -0.41765E-03   -0.14611E-01  3888   0.848E-01    0.669E-02
DAV:   2    -0.121129292650E+03   -0.61596E-03   -0.38952E-03  4752   0.915E-01    0.140E-01
DAV:   3    -0.121128974961E+03    0.31769E-03   -0.48167E-03  3856   0.107E+00    0.843E-02
DAV:   4    -0.121128914171E+03    0.60790E-04   -0.91253E-04  2384   0.522E-01
  67 F= -.13513074E+03 E0= -.13512434E+03  d E =-.898953E-03  mag=     0.0000
       N       E                     dE             d eps       ncg     rms          rms(c)
DAV:   1    -0.121128525388E+03    0.44957E-03   -0.39669E-02  5296   0.590E-01    0.404E-02
DAV:   2    -0.121129255597E+03   -0.73021E-03   -0.19327E-03  2688   0.109E+00    0.167E-01
DAV:   3    -0.121128596119E+03    0.65948E-03   -0.19849E-03  2656   0.979E-01    0.557E-02
DAV:   4    -0.121128556193E+03    0.39927E-04   -0.58106E-04  2336   0.371E-01
  68 F= -.13513086E+03 E0= -.13512436E+03  d E =-.101905E-02  mag=     0.0000
       N       E                     dE             d eps       ncg     rms          rms(c)
DAV:   1    -0.121130023054E+03   -0.14269E-02   -0.15674E-01  3888   0.859E-01    0.421E-02
DAV:   2    -0.121130340245E+03   -0.31719E-03   -0.29867E-03  5136   0.377E-01    0.656E-02
DAV:   3    -0.121130342549E+03   -0.23037E-05   -0.85144E-04  2624   0.495E-01
  69 F= -.13513176E+03 E0= -.13512525E+03  d E =-.896939E-03  mag=     0.0000
       N       E                     dE             d eps       ncg     rms          rms(c)
DAV:   1    -0.121132075599E+03   -0.17354E-02   -0.42674E-01  3856   0.145E+00    0.958E-02
DAV:   2    -0.121136076211E+03   -0.40006E-02   -0.20640E-02  6608   0.210E+00    0.341E-01
DAV:   3    -0.121132901919E+03    0.31743E-02   -0.16002E-02  4976   0.202E+00    0.124E-01
DAV:   4    -0.121132755868E+03    0.14605E-03   -0.19171E-03  3712   0.757E-01
  70 F= -.13513271E+03 E0= -.13512611E+03  d E =-.185258E-02  mag=     0.0000
       N       E                     dE             d eps       ncg     rms          rms(c)
DAV:   1    -0.121133343109E+03   -0.44119E-03   -0.16917E+00  3856   0.280E+00    0.169E-01
DAV:   2    -0.121137277061E+03   -0.39340E-02   -0.36616E-02  6144   0.159E+00    0.262E-01
DAV:   3    -0.121137105925E+03    0.17114E-03   -0.14396E-02  4880   0.194E+00    0.221E-01
DAV:   4    -0.121136513850E+03    0.59207E-03   -0.62310E-03  4048   0.131E+00    0.150E-01
DAV:   5    -0.121136487871E+03    0.25979E-04   -0.22784E-03  3552   0.101E+00    0.136E-01
DAV:   6    -0.121136248983E+03    0.23889E-03   -0.17283E-03  3808   0.890E-01    0.765E-02
DAV:   7    -0.121136215847E+03    0.33136E-04   -0.80236E-04  3216   0.462E-01
  71 F= -.13513326E+03 E0= -.13512653E+03  d E =-.240391E-02  mag=     0.0000
       N       E                     dE             d eps       ncg     rms          rms(c)
DAV:   1    -0.121135438007E+03    0.81098E-03   -0.97049E-02  3872   0.689E-01    0.396E-02
DAV:   2    -0.121135918332E+03   -0.48032E-03   -0.25035E-03  2640   0.755E-01    0.136E-01
DAV:   3    -0.121135494408E+03    0.42392E-03   -0.25844E-03  3072   0.781E-01    0.340E-02
DAV:   4    -0.121135526907E+03   -0.32498E-04   -0.36668E-04  2336   0.242E-01
  72 F= -.13513327E+03 E0= -.13512669E+03  d E =-.241013E-02  mag=     0.0000
       N       E                     dE             d eps       ncg     rms          rms(c)
DAV:   1    -0.121135988150E+03   -0.49374E-03   -0.35595E-02  5216   0.513E-01    0.337E-02
DAV:   2    -0.121136600961E+03   -0.61281E-03   -0.15596E-03  2656   0.945E-01    0.153E-01
DAV:   3    -0.121136004054E+03    0.59691E-03   -0.13249E-03  2592   0.818E-01    0.333E-02
DAV:   4    -0.121135991841E+03    0.12213E-04   -0.28302E-04  2272   0.257E-01
  73 F= -.13513331E+03 E0= -.13512665E+03  d E =-.245369E-02  mag=     0.0000
       N       E                     dE             d eps       ncg     rms          rms(c)
DAV:   1    -0.121135779011E+03    0.22504E-03   -0.88093E-03  4096   0.228E-01    0.112E-02
DAV:   2    -0.121135921242E+03   -0.14223E-03   -0.66487E-04  2544   0.410E-01
  74 F= -.13513345E+03 E0= -.13512683E+03  d E =-.259375E-02  mag=     0.0000
       N       E                     dE             d eps       ncg     rms          rms(c)
DAV:   1    -0.121135733938E+03    0.45073E-04   -0.14051E-03  3104   0.415E-01    0.237E-02
DAV:   2    -0.121136051374E+03   -0.31744E-03   -0.22628E-03  4160   0.552E-01    0.860E-02
DAV:   3    -0.121135910540E+03    0.14083E-03   -0.12088E-03  2512   0.564E-01
  75 F= -.13513333E+03 E0= -.13512667E+03  d E =-.246956E-02  mag=     0.0000
       N       E                     dE             d eps       ncg     rms          rms(c)
DAV:   1    -0.121135752285E+03    0.29909E-03   -0.58870E-04  2672   0.250E-01    0.334E-02
DAV:   2    -0.121136211960E+03   -0.45967E-03   -0.17286E-03  3072   0.834E-01    0.135E-01
DAV:   3    -0.121135864045E+03    0.34791E-03   -0.20710E-03  2560   0.830E-01    0.540E-02
DAV:   4    -0.121135787535E+03    0.76511E-04   -0.48379E-04  2288   0.345E-01
  76 F= -.13513329E+03 E0= -.13512663E+03  d E =-.243285E-02  mag=     0.0000
       N       E                     dE             d eps       ncg     rms          rms(c)
DAV:   1    -0.121135868947E+03   -0.49013E-05   -0.18241E-04  2480   0.723E-02    0.138E-02
DAV:   2    -0.121136023210E+03   -0.15426E-03   -0.74801E-04  2432   0.460E-01
  77 F= -.13513347E+03 E0= -.13512685E+03  d E =-.261044E-02  mag=     0.0000
       N       E                     dE             d eps       ncg     rms          rms(c)
DAV:   1    -0.121135847299E+03    0.21647E-04   -0.76761E-04  2496   0.442E-01    0.133E-02
DAV:   2    -0.121136362558E+03   -0.51526E-03   -0.22702E-03  2496   0.744E-01    0.130E-01
DAV:   3    -0.121135846760E+03    0.51580E-03   -0.19792E-03  2448   0.697E-01    0.174E-02
DAV:   4    -0.121135848374E+03   -0.16135E-05   -0.63548E-05  2288   0.155E-01
  78 F= -.13513332E+03 E0= -.13512666E+03  d E =-.246464E-02  mag=     0.0000
       N       E                     dE             d eps       ncg     rms          rms(c)
DAV:   1    -0.121135868542E+03   -0.21782E-04   -0.21916E-05  2256   0.473E-02    0.527E-03
DAV:   2    -0.121135880282E+03   -0.11740E-04   -0.31926E-05  2256   0.132E-01
  79 F= -.13513334E+03 E0= -.13512672E+03  d E =-.248030E-02  mag=     0.0000
       N       E                     dE             d eps       ncg     rms          rms(c)
DAV:   1    -0.121136563529E+03   -0.69499E-03   -0.46408E-02  3808   0.476E-01    0.249E-02
DAV:   2    -0.121136635773E+03   -0.72244E-04   -0.54741E-04  2672   0.262E-01
  80 F= -.13513376E+03 E0= -.13512708E+03  d E =-.415616E-03  mag=     0.0000
       N       E                     dE             d eps       ncg     rms          rms(c)
DAV:   1    -0.121137494013E+03   -0.93048E-03   -0.92312E-02  4512   0.738E-01    0.515E-02
DAV:   2    -0.121138009440E+03   -0.51543E-03   -0.28276E-03  3104   0.826E-01    0.138E-01
DAV:   3    -0.121137558485E+03    0.45096E-03   -0.28884E-03  2672   0.850E-01    0.454E-02
DAV:   4    -0.121137619884E+03   -0.61399E-04   -0.44335E-04  2336   0.386E-01
  81 F= -.13513427E+03 E0= -.13512757E+03  d E =-.929117E-03  mag=     0.0000
       N       E                     dE             d eps       ncg     rms          rms(c)
DAV:   1    -0.121138338389E+03   -0.77990E-03   -0.35679E-01  3824   0.135E+00    0.794E-02
DAV:   2    -0.121140602113E+03   -0.22637E-02   -0.12471E-02  6528   0.153E+00    0.259E-01
DAV:   3    -0.121139327563E+03    0.12745E-02   -0.10256E-02  4096   0.161E+00    0.125E-01
DAV:   4    -0.121139047057E+03    0.28051E-03   -0.22944E-03  2864   0.829E-01    0.748E-02
DAV:   5    -0.121139037195E+03    0.98613E-05   -0.68724E-04  3200   0.354E-01
  82 F= -.13513475E+03 E0= -.13512811E+03  d E =-.140751E-02  mag=     0.0000
       N       E                     dE             d eps       ncg     rms          rms(c)
DAV:   1    -0.121137487562E+03    0.15595E-02   -0.14233E+00  3808   0.255E+00    0.148E-01
DAV:   2    -0.121142518102E+03   -0.50305E-02   -0.37935E-02  6784   0.191E+00    0.337E-01
DAV:   3    -0.121140218758E+03    0.22993E-02   -0.19712E-02  6064   0.208E+00    0.140E-01
DAV:   4    -0.121140175703E+03    0.43055E-04   -0.23791E-03  3856   0.691E-01    0.113E-01
DAV:   5    -0.121140363200E+03   -0.18750E-03   -0.19944E-03  4016   0.927E-01
  83 F= -.13513421E+03 E0= -.13512740E+03  d E =-.865396E-03  mag=     0.0000
       N       E                     dE             d eps       ncg     rms          rms(c)
DAV:   1    -0.121138089802E+03    0.20859E-02   -0.77897E-01  3840   0.205E+00    0.111E-01
DAV:   2    -0.121148268805E+03   -0.10179E-01   -0.50854E-02  6912   0.322E+00    0.573E-01
DAV:   3    -0.121139628597E+03    0.86402E-02   -0.44713E-02  6880   0.306E+00    0.116E-01
DAV:   4    -0.121139661646E+03   -0.33049E-04   -0.27251E-03  4720   0.913E-01    0.114E-01
DAV:   5    -0.121139571876E+03    0.89770E-04   -0.12753E-03  3712   0.559E-01
  84 F= -.13513479E+03 E0= -.13512813E+03  d E =-.145076E-02  mag=     0.0000
       N       E                     dE             d eps       ncg     rms          rms(c)
DAV:   1    -0.121139319432E+03    0.34221E-03   -0.31287E-02  5360   0.499E-01    0.637E-02
DAV:   2    -0.121139638250E+03   -0.31882E-03   -0.12718E-03  2768   0.807E-01    0.122E-01
DAV:   3    -0.121139334583E+03    0.30367E-03   -0.11128E-03  2560   0.792E-01    0.510E-02
DAV:   4    -0.121139490494E+03   -0.15591E-03   -0.11872E-03  2400   0.571E-01
  85 F= -.13513498E+03 E0= -.13512825E+03  d E =-.164408E-02  mag=     0.0000
       N       E                     dE             d eps       ncg     rms          rms(c)
DAV:   1    -0.121140268911E+03   -0.93433E-03   -0.11441E-01  5232   0.919E-01    0.549E-02
DAV:   2    -0.121142359903E+03   -0.20910E-02   -0.97611E-03  3040   0.164E+00    0.263E-01
DAV:   3    -0.121140355019E+03    0.20049E-02   -0.90174E-03  2784   0.149E+00    0.643E-02
DAV:   4    -0.121140342723E+03    0.12295E-04   -0.43306E-04  2368   0.423E-01
  86 F= -.13513523E+03 E0= -.13512860E+03  d E =-.243608E-03  mag=     0.0000
       N       E                     dE             d eps       ncg     rms          rms(c)
DAV:   1    -0.121140349384E+03    0.56350E-05   -0.47026E-04  2608   0.338E-01    0.388E-02
DAV:   2    -0.121140695479E+03   -0.34610E-03   -0.12160E-03  2656   0.800E-01    0.120E-01
DAV:   3    -0.121140369670E+03    0.32581E-03   -0.86280E-04  2480   0.694E-01    0.317E-02
DAV:   4    -0.121140395668E+03   -0.25998E-04   -0.36758E-04  2368   0.302E-01
  87 F= -.13513525E+03 E0= -.13512869E+03  d E =-.264370E-03  mag=     0.0000
       N       E                     dE             d eps       ncg     rms          rms(c)
DAV:   1    -0.121140346167E+03    0.23502E-04   -0.34133E-04  2480   0.276E-01    0.191E-02
DAV:   2    -0.121140756809E+03   -0.41064E-03   -0.18051E-03  2576   0.743E-01    0.120E-01
DAV:   3    -0.121140357439E+03    0.39937E-03   -0.18863E-03  2464   0.693E-01    0.258E-02
DAV:   4    -0.121140349303E+03    0.81355E-05   -0.68392E-05  2264   0.163E-01
  88 F= -.13513523E+03 E0= -.13512865E+03  d E =-.248552E-03  mag=     0.0000
       N       E                     dE             d eps       ncg     rms          rms(c)
DAV:   1    -0.121140367085E+03   -0.96458E-05   -0.77917E-05  2336   0.970E-02    0.969E-03
DAV:   2    -0.121140380983E+03   -0.13898E-04   -0.10212E-04  2208   0.155E-01
  89 F= -.13513525E+03 E0= -.13512869E+03  d E =-.264950E-03  mag=     0.0000
       N       E                     dE             d eps       ncg     rms          rms(c)
DAV:   1    -0.121140374621E+03   -0.75362E-05   -0.11047E-04  2256   0.181E-01    0.182E-02
DAV:   2    -0.121141425958E+03   -0.10513E-02   -0.47139E-03  2576   0.111E+00    0.189E-01
DAV:   3    -0.121140361702E+03    0.10643E-02   -0.42131E-03  2448   0.100E+00    0.118E-02
DAV:   4    -0.121140368583E+03   -0.68812E-05   -0.20137E-05  2256   0.962E-02
  90 F= -.13513524E+03 E0= -.13512869E+03  d E =-.258868E-03  mag=     0.0000
       N       E                     dE             d eps       ncg     rms          rms(c)
DAV:   1    -0.121140931682E+03   -0.56998E-03   -0.78093E-02  3824   0.590E-01    0.334E-02
DAV:   2    -0.121141061939E+03   -0.13026E-03   -0.12802E-03  4000   0.253E-01
  91 F= -.13513571E+03 E0= -.13512912E+03  d E =-.471330E-03  mag=     0.0000
       N       E                     dE             d eps       ncg     rms          rms(c)
DAV:   1    -0.121141612902E+03   -0.68122E-03   -0.98091E-02  4496   0.754E-01    0.626E-02
DAV:   2    -0.121143962726E+03   -0.23498E-02   -0.10426E-02  2896   0.167E+00    0.290E-01
DAV:   3    -0.121141658945E+03    0.23038E-02   -0.10251E-02  2800   0.156E+00    0.624E-02
DAV:   4    -0.121141678442E+03   -0.19497E-04   -0.71730E-04  2656   0.476E-01
  92 F= -.13513609E+03 E0= -.13512972E+03  d E =-.843958E-03  mag=     0.0000
       N       E                     dE             d eps       ncg     rms          rms(c)
DAV:   1    -0.121141810898E+03   -0.15195E-03   -0.38358E-01  3824   0.134E+00    0.800E-02
DAV:   2    -0.121143128114E+03   -0.13172E-02   -0.90107E-03  6512   0.111E+00    0.180E-01
DAV:   3    -0.121142647311E+03    0.48080E-03   -0.41066E-03  4240   0.112E+00    0.987E-02
DAV:   4    -0.121142586482E+03    0.60829E-04   -0.19003E-03  2800   0.673E-01
  93 F= -.13513651E+03 E0= -.13513022E+03  d E =-.127069E-02  mag=     0.0000
       N       E                     dE             d eps       ncg     rms          rms(c)
DAV:   1    -0.121139586489E+03    0.30608E-02   -0.15207E+00  3824   0.264E+00    0.175E-01
DAV:   2    -0.121142550542E+03   -0.29641E-02   -0.32841E-02  5344   0.968E-01    0.177E-01
DAV:   3    -0.121142668002E+03   -0.11746E-03   -0.33455E-03  4080   0.108E+00    0.163E-01
DAV:   4    -0.121143462209E+03   -0.79421E-03   -0.79853E-03  3760   0.155E+00    0.220E-01
DAV:   5    -0.121142888823E+03    0.57339E-03   -0.10214E-02  2656   0.158E+00    0.161E-01
DAV:   6    -0.121142505250E+03    0.38357E-03   -0.35277E-03  2720   0.123E+00    0.102E-01
DAV:   7    -0.121142261461E+03    0.24379E-03   -0.76199E-04  2528   0.633E-01    0.394E-02
DAV:   8    -0.121142271676E+03   -0.10216E-04   -0.37090E-04  2352   0.223E-01
  94 F= -.13513526E+03 E0= -.13512916E+03  d E =-.201334E-04  mag=     0.0000
       N       E                     dE             d eps       ncg     rms          rms(c)
DAV:   1    -0.121140447112E+03    0.18143E-02   -0.12411E+00  3824   0.236E+00    0.134E-01
DAV:   2    -0.121143257837E+03   -0.28107E-02   -0.25252E-02  6176   0.122E+00    0.216E-01
DAV:   3    -0.121142777062E+03    0.48078E-03   -0.43598E-03  4240   0.124E+00    0.127E-01
DAV:   4    -0.121143117353E+03   -0.34029E-03   -0.37967E-03  3584   0.103E+00    0.161E-01
DAV:   5    -0.121142738517E+03    0.37884E-03   -0.43689E-03  2928   0.105E+00    0.100E-01
DAV:   6    -0.121142655599E+03    0.82917E-04   -0.11026E-03  2480   0.638E-01
  95 F= -.13513649E+03 E0= -.13513028E+03  d E =-.124939E-02  mag=     0.0000
       N       E                     dE             d eps       ncg     rms          rms(c)
DAV:   1    -0.121144004422E+03   -0.12659E-02   -0.12524E-01  4848   0.867E-01    0.615E-02
DAV:   2    -0.121145203422E+03   -0.11990E-02   -0.56948E-03  3744   0.126E+00    0.209E-01
DAV:   3    -0.121144178512E+03    0.10249E-02   -0.60276E-03  2736   0.123E+00    0.786E-02
DAV:   4    -0.121144100645E+03    0.77867E-04   -0.78147E-04  2464   0.512E-01
  96 F= -.13513683E+03 E0= -.13513070E+03  d E =-.341841E-03  mag=     0.0000
       N       E                     dE             d eps       ncg     rms          rms(c)
DAV:   1    -0.121145347204E+03   -0.11687E-02   -0.16399E-01  3776   0.903E-01    0.771E-02
DAV:   2    -0.121145739717E+03   -0.39251E-03   -0.38419E-03  5328   0.599E-01    0.951E-02
DAV:   3    -0.121145887727E+03   -0.14801E-03   -0.24967E-03  2576   0.849E-01    0.115E-01
DAV:   4    -0.121145697070E+03    0.19066E-03   -0.22186E-03  2528   0.783E-01    0.723E-02
DAV:   5    -0.121145673473E+03    0.23598E-04   -0.68719E-04  2512   0.540E-01
  97 F= -.13513714E+03 E0= -.13513120E+03  d E =-.650741E-03  mag=     0.0000
       N       E                     dE             d eps       ncg     rms          rms(c)
DAV:   1    -0.121146875614E+03   -0.11785E-02   -0.54818E-02  5152   0.595E-01    0.451E-02
DAV:   2    -0.121146969847E+03   -0.94233E-04   -0.73038E-04  2544   0.387E-01
  98 F= -.13513756E+03 E0= -.13513161E+03  d E =-.417584E-03  mag=     0.0000
       N       E                     dE             d eps       ncg     rms          rms(c)
DAV:   1    -0.121149377202E+03   -0.25016E-02   -0.42713E-01  3760   0.137E+00    0.132E-01
DAV:   2    -0.121150534070E+03   -0.11569E-02   -0.10014E-02  6416   0.930E-01    0.163E-01
DAV:   3    -0.121150491141E+03    0.42929E-04   -0.48566E-03  4096   0.132E+00    0.152E-01
DAV:   4    -0.121150965704E+03   -0.47456E-03   -0.73706E-03  2784   0.138E+00    0.195E-01
DAV:   5    -0.121150061014E+03    0.90469E-03   -0.38155E-03  2624   0.108E+00    0.469E-02
DAV:   6    -0.121150092087E+03   -0.31073E-04   -0.39908E-04  2560   0.480E-01
  99 F= -.13513823E+03 E0= -.13513212E+03  d E =-.108566E-02  mag=     0.0000
       N       E                     dE             d eps       ncg     rms          rms(c)
DAV:   1    -0.121151000403E+03   -0.93939E-03   -0.16902E+00  3760   0.268E+00    0.206E-01
DAV:   2    -0.121154550416E+03   -0.35500E-02   -0.39190E-02  5216   0.852E-01    0.188E-01
DAV:   3    -0.121155729109E+03   -0.11787E-02   -0.83452E-03  4224   0.172E+00    0.267E-01
DAV:   4    -0.121155505082E+03    0.22403E-03   -0.14389E-02  3552   0.197E+00    0.231E-01
DAV:   5    -0.121154606203E+03    0.89888E-03   -0.89140E-03  2688   0.162E+00    0.134E-01
DAV:   6    -0.121154287724E+03    0.31848E-03   -0.18809E-03  2800   0.903E-01    0.752E-02
DAV:   7    -0.121154209412E+03    0.78312E-04   -0.56055E-04  2672   0.452E-01
 100 F= -.13513750E+03 E0= -.13513160E+03  d E =-.355178E-03  mag=     0.0000
       N       E                     dE             d eps       ncg     rms          rms(c)
DAV:   1    -0.121150036460E+03    0.42513E-02   -0.90087E-01  3744   0.193E+00    0.155E-01
DAV:   2    -0.121152338518E+03   -0.23021E-02   -0.21230E-02  6464   0.118E+00    0.216E-01
DAV:   3    -0.121152023203E+03    0.31532E-03   -0.10708E-02  4464   0.164E+00    0.173E-01
DAV:   4    -0.121151876977E+03    0.14623E-03   -0.39754E-03  3456   0.112E+00    0.151E-01
DAV:   5    -0.121151551529E+03    0.32545E-03   -0.19760E-03  2864   0.102E+00    0.890E-02
DAV:   6    -0.121151468155E+03    0.83374E-04   -0.81709E-04  3216   0.513E-01
 101 F= -.13513829E+03 E0= -.13513235E+03  d E =-.114923E-02  mag=     0.0000
       N       E                     dE             d eps       ncg     rms          rms(c)
DAV:   1    -0.121152469494E+03   -0.91796E-03   -0.29661E-02  5104   0.444E-01    0.360E-02
DAV:   2    -0.121152504664E+03   -0.35170E-04   -0.48333E-04  2528   0.241E-01
 102 F= -.13513857E+03 E0= -.13513262E+03  d E =-.278293E-03  mag=     0.0000
       N       E                     dE             d eps       ncg     rms          rms(c)
DAV:   1    -0.121154901547E+03   -0.24321E-02   -0.25502E-01  3728   0.105E+00    0.107E-01
DAV:   2    -0.121158256601E+03   -0.33551E-02   -0.17176E-02  3584   0.191E+00    0.334E-01
DAV:   3    -0.121155133028E+03    0.31236E-02   -0.14829E-02  4016   0.188E+00    0.871E-02
DAV:   4    -0.121155566472E+03   -0.43344E-03   -0.22843E-03  4160   0.844E-01    0.137E-01
DAV:   5    -0.121155221981E+03    0.34449E-03   -0.16397E-03  3648   0.734E-01    0.334E-02
DAV:   6    -0.121155239520E+03   -0.17540E-04   -0.37716E-04  2416   0.282E-01
 103 F= -.13513904E+03 E0= -.13513316E+03  d E =-.745250E-03  mag=     0.0000
       N       E                     dE             d eps       ncg     rms          rms(c)
DAV:   1    -0.121158062580E+03   -0.28406E-02   -0.10145E+00  3728   0.203E+00    0.172E-01
DAV:   2    -0.121160899050E+03   -0.28365E-02   -0.26408E-02  6400   0.124E+00    0.229E-01
DAV:   3    -0.121160614237E+03    0.28481E-03   -0.12513E-02  4608   0.174E+00    0.191E-01
DAV:   4    -0.121160349479E+03    0.26476E-03   -0.45122E-03  3536   0.113E+00    0.154E-01
DAV:   5    -0.121160116598E+03    0.23288E-03   -0.23067E-03  3168   0.112E+00    0.112E-01
DAV:   6    -0.121159982379E+03    0.13422E-03   -0.91657E-04  3088   0.640E-01
 104 F= -.13513927E+03 E0= -.13513340E+03  d E =-.979658E-03  mag=     0.0000
       N       E                     dE             d eps       ncg     rms          rms(c)
DAV:   1    -0.121162089258E+03   -0.19727E-02   -0.17252E-01  4352   0.931E-01    0.745E-02
DAV:   2    -0.121162424198E+03   -0.33494E-03   -0.37469E-03  4176   0.360E-01    0.659E-02
DAV:   3    -0.121162575398E+03   -0.15120E-03   -0.10786E-03  2704   0.639E-01
 105 F= -.13513995E+03 E0= -.13513390E+03  d E =-.678591E-03  mag=     0.0000
       N       E                     dE             d eps       ncg     rms          rms(c)
DAV:   1    -0.121166300775E+03   -0.38766E-02   -0.83683E-01  3744   0.192E+00    0.209E-01
DAV:   2    -0.121182153364E+03   -0.15853E-01   -0.81885E-02  6656   0.403E+00    0.705E-01
DAV:   3    -0.121167534464E+03    0.14619E-01   -0.65257E-02  6272   0.382E+00    0.166E-01
DAV:   4    -0.121167956156E+03   -0.42169E-03   -0.31156E-03  5824   0.115E+00    0.176E-01
DAV:   5    -0.121168137859E+03   -0.18170E-03   -0.38881E-03  4160   0.147E+00    0.168E-01
DAV:   6    -0.121167588599E+03    0.54926E-03   -0.25405E-03  3968   0.118E+00    0.677E-02
DAV:   7    -0.121167521463E+03    0.67136E-04   -0.52489E-04  2464   0.461E-01
 106 F= -.13514069E+03 E0= -.13513478E+03  d E =-.142148E-02  mag=     0.0000
       N       E                     dE             d eps       ncg     rms          rms(c)
DAV:   1    -0.121171059547E+03   -0.34709E-02   -0.33076E+00  3744   0.355E+00    0.334E-01
DAV:   2    -0.121178534313E+03   -0.74748E-02   -0.79624E-02  6016   0.159E+00    0.339E-01
DAV:   3    -0.121181731703E+03   -0.31974E-02   -0.44204E-02  4464   0.332E+00    0.464E-01
DAV:   4    -0.121177189718E+03    0.45420E-02   -0.22081E-02  4288   0.224E+00    0.185E-01
DAV:   5    -0.121179636798E+03   -0.24471E-02   -0.10032E-02  4400   0.238E+00    0.336E-01
DAV:   6    -0.121176917037E+03    0.27198E-02   -0.59160E-03  4576   0.190E+00    0.104E-01
DAV:   7    -0.121176833781E+03    0.83257E-04   -0.13104E-03  4016   0.664E-01
 107 F= -.13514166E+03 E0= -.13513565E+03  d E =-.238936E-02  mag=     0.0000
       N       E                     dE             d eps       ncg     rms          rms(c)
DAV:   1    -0.121179138087E+03   -0.22210E-02   -0.35959E-01  3776   0.127E+00    0.829E-02
DAV:   2    -0.121179969219E+03   -0.83113E-03   -0.87315E-03  5232   0.483E-01    0.865E-02
DAV:   3    -0.121180271354E+03   -0.30213E-03   -0.26655E-03  3024   0.848E-01    0.133E-01
DAV:   4    -0.121179964684E+03    0.30667E-03   -0.24216E-03  2656   0.801E-01    0.661E-02
DAV:   5    -0.121179991799E+03   -0.27115E-04   -0.55598E-04  2528   0.499E-01
 108 F= -.13514310E+03 E0= -.13513726E+03  d E =-.143893E-02  mag=     0.0000
       N       E                     dE             d eps       ncg     rms          rms(c)
DAV:   1    -0.121181624244E+03   -0.16596E-02   -0.29517E-01  3872   0.123E+00    0.947E-02
DAV:   2    -0.121182993496E+03   -0.13693E-02   -0.82042E-03  6256   0.123E+00    0.190E-01
DAV:   3    -0.121182328521E+03    0.66497E-03   -0.49574E-03  4080   0.130E+00    0.114E-01
DAV:   4    -0.121182346597E+03   -0.18075E-04   -0.32119E-03  2736   0.908E-01    0.113E-01
DAV:   5    -0.121182142238E+03    0.20436E-03   -0.12331E-03  2528   0.636E-01    0.542E-02
DAV:   6    -0.121182153869E+03   -0.11631E-04   -0.39042E-04  2480   0.398E-01
 109 F= -.13514372E+03 E0= -.13513769E+03  d E =-.205360E-02  mag=     0.0000
       N       E                     dE             d eps       ncg     rms          rms(c)
DAV:   1    -0.121183088923E+03   -0.94668E-03   -0.11658E+00  3760   0.224E+00    0.147E-01
DAV:   2    -0.121185494716E+03   -0.24058E-02   -0.26535E-02  5152   0.707E-01    0.138E-01
DAV:   3    -0.121185855874E+03   -0.36116E-03   -0.34604E-03  3856   0.982E-01    0.170E-01
DAV:   4    -0.121185753767E+03    0.10211E-03   -0.61818E-03  2944   0.128E+00    0.145E-01
DAV:   5    -0.121185645712E+03    0.10805E-03   -0.34125E-03  2672   0.107E+00    0.119E-01
DAV:   6    -0.121185471214E+03    0.17450E-03   -0.15217E-03  2672   0.931E-01
 110 F= -.13514395E+03 E0= -.13513833E+03  d E =-.228935E-02  mag=     0.0000
       N       E                     dE             d eps       ncg     rms          rms(c)
DAV:   1    -0.121182963235E+03    0.26825E-02   -0.40080E-01  3776   0.139E+00    0.927E-02
DAV:   2    -0.121184464771E+03   -0.15015E-02   -0.11370E-02  6304   0.115E+00    0.188E-01
DAV:   3    -0.121183786259E+03    0.67851E-03   -0.66953E-03  4144   0.125E+00    0.104E-01
DAV:   4    -0.121183732465E+03    0.53794E-04   -0.10356E-03  2736   0.556E-01
 111 F= -.13514402E+03 E0= -.13513820E+03  d E =-.236230E-02  mag=     0.0000
       N       E                     dE             d eps       ncg     rms          rms(c)
DAV:   1    -0.121183355435E+03    0.43082E-03   -0.14828E-02  5712   0.621E-01    0.774E-02
DAV:   2    -0.121185181916E+03   -0.18265E-02   -0.48057E-03  3712   0.166E+00    0.267E-01
DAV:   3    -0.121183447200E+03    0.17347E-02   -0.51404E-03  2624   0.154E+00    0.870E-02
DAV:   4    -0.121183375256E+03    0.71943E-04   -0.18262E-03  2512   0.676E-01
 112 F= -.13514401E+03 E0= -.13513800E+03  d E =-.234745E-02  mag=     0.0000
       N       E                     dE             d eps       ncg     rms          rms(c)
DAV:   1    -0.121183536448E+03   -0.89248E-04   -0.61878E-03  5360   0.457E-01    0.249E-02
DAV:   2    -0.121184103265E+03   -0.56682E-03   -0.25748E-03  2768   0.902E-01    0.139E-01
DAV:   3    -0.121183557515E+03    0.54575E-03   -0.26653E-03  2480   0.813E-01    0.364E-02
DAV:   4    -0.121183549148E+03    0.83673E-05   -0.15298E-04  2320   0.238E-01
 113 F= -.13514396E+03 E0= -.13513807E+03  d E =-.230290E-02  mag=     0.0000
       N       E                     dE             d eps       ncg     rms          rms(c)
DAV:   1    -0.121183398754E+03    0.15876E-03   -0.11078E-03  3728   0.171E-01    0.129E-02
DAV:   2    -0.121183443951E+03   -0.45197E-04   -0.27814E-04  2352   0.241E-01
 114 F= -.13514397E+03 E0= -.13513809E+03  d E =-.230692E-02  mag=     0.0000
       N       E                     dE             d eps       ncg     rms          rms(c)
DAV:   1    -0.121183500185E+03   -0.10143E-03   -0.42416E-04  2560   0.250E-01    0.227E-02
DAV:   2    -0.121184336689E+03   -0.83650E-03   -0.38451E-03  2576   0.103E+00    0.172E-01
DAV:   3    -0.121183501982E+03    0.83471E-03   -0.36533E-03  2544   0.948E-01    0.136E-02
DAV:   4    -0.121183517318E+03   -0.15336E-04   -0.14447E-04  2272   0.119E-01
 115 F= -.13514395E+03 E0= -.13513798E+03  d E =-.228629E-02  mag=     0.0000
       N       E                     dE             d eps       ncg     rms          rms(c)
DAV:   1    -0.121183485786E+03    0.16195E-04   -0.14945E-04  2208   0.126E-01    0.117E-02
DAV:   2    -0.121183575938E+03   -0.90151E-04   -0.41133E-04  2400   0.349E-01
 116 F= -.13514405E+03 E0= -.13513805E+03  d E =-.239242E-02  mag=     0.0000
       N       E                     dE             d eps       ncg     rms          rms(c)
DAV:   1    -0.121183516797E+03   -0.31010E-04   -0.48087E-04  2416   0.349E-01    0.148E-02
DAV:   2    -0.121184256635E+03   -0.73984E-03   -0.32383E-03  2560   0.929E-01    0.156E-01
DAV:   3    -0.121183519927E+03    0.73671E-03   -0.28461E-03  2480   0.840E-01    0.230E-02
DAV:   4    -0.121183512172E+03    0.77549E-05   -0.47607E-05  2272   0.151E-01
 117 F= -.13514397E+03 E0= -.13513802E+03  d E =-.230490E-02  mag=     0.0000
       N       E                     dE             d eps       ncg     rms          rms(c)
DAV:   1    -0.121183501513E+03    0.18414E-04   -0.13761E-05  2304   0.541E-02    0.462E-03
DAV:   2    -0.121183504956E+03   -0.34437E-05   -0.18339E-05  2144   0.758E-02
 118 F= -.13514397E+03 E0= -.13513805E+03  d E =-.230967E-02  mag=     0.0000
       N       E                     dE             d eps       ncg     rms          rms(c)
DAV:   1    -0.121184224505E+03   -0.72299E-03   -0.25019E-01  3712   0.104E+00    0.757E-02
DAV:   2    -0.121185487081E+03   -0.12626E-02   -0.73911E-03  3872   0.111E+00    0.202E-01
DAV:   3    -0.121184568682E+03    0.91840E-03   -0.68690E-03  5568   0.116E+00    0.632E-02
DAV:   4    -0.121184652350E+03   -0.83668E-04   -0.61452E-04  2848   0.399E-01
 119 F= -.13514436E+03 E0= -.13513830E+03  d E =-.388851E-03  mag=    -0.0000
       N       E                     dE             d eps       ncg     rms          rms(c)
DAV:   1    -0.121184579292E+03   -0.10610E-04   -0.20019E-03  4592   0.537E-01    0.455E-02
DAV:   2    -0.121186911308E+03   -0.23320E-02   -0.88026E-03  2576   0.171E+00    0.291E-01
DAV:   3    -0.121184769172E+03    0.21421E-02   -0.10734E-02  2480   0.163E+00    0.894E-02
DAV:   4    -0.121184552592E+03    0.21658E-03   -0.82638E-04  2432   0.527E-01    0.186E-02
DAV:   5    -0.121184574302E+03   -0.21710E-04   -0.21664E-04  2448   0.120E-01
 120 F= -.13514433E+03 E0= -.13513837E+03  d E =-.360910E-03  mag=    -0.0000
       N       E                     dE             d eps       ncg     rms          rms(c)
DAV:   1    -0.121184585717E+03   -0.33125E-04   -0.39565E-04  2352   0.133E-01    0.179E-02
DAV:   2    -0.121184621021E+03   -0.35304E-04   -0.26490E-04  2304   0.263E-01
 121 F= -.13514434E+03 E0= -.13513841E+03  d E =-.367390E-03  mag=    -0.0000
       N       E                     dE             d eps       ncg     rms          rms(c)
DAV:   1    -0.121184616849E+03   -0.31132E-04   -0.43260E-04  2464   0.335E-01    0.320E-02
DAV:   2    -0.121188790447E+03   -0.41736E-02   -0.18979E-02  2528   0.215E+00    0.375E-01
DAV:   3    -0.121184572925E+03    0.42175E-02   -0.15720E-02  2496   0.192E+00    0.190E-02
DAV:   4    -0.121184592050E+03   -0.19125E-04   -0.53504E-05  2272   0.169E-01
 122 F= -.13514434E+03 E0= -.13513838E+03  d E =-.371761E-03  mag=    -0.0000
       N       E                     dE             d eps       ncg     rms          rms(c)
DAV:   1    -0.121184602983E+03   -0.30058E-04   -0.47585E-05  2464   0.108E-01    0.764E-03
DAV:   2    -0.121184641314E+03   -0.38330E-04   -0.16489E-04  2256   0.244E-01
 123 F= -.13514438E+03 E0= -.13513843E+03  d E =-.404337E-03  mag=    -0.0000
       N       E                     dE             d eps       ncg     rms          rms(c)
DAV:   1    -0.121184601988E+03    0.99572E-06   -0.20894E-04  2304   0.237E-01    0.144E-02
DAV:   2    -0.121185021316E+03   -0.41933E-03   -0.18621E-03  2480   0.689E-01    0.120E-01
DAV:   3    -0.121184604621E+03    0.41670E-03   -0.17739E-03  2496   0.661E-01    0.186E-02
DAV:   4    -0.121184599485E+03    0.51356E-05   -0.37871E-05  2256   0.137E-01
 124 F= -.13514434E+03 E0= -.13513838E+03  d E =-.372112E-03  mag=    -0.0000
       N       E                     dE             d eps       ncg     rms          rms(c)
DAV:   1    -0.121185123497E+03   -0.51888E-03   -0.91492E-02  3776   0.638E-01    0.330E-02
DAV:   2    -0.121185363440E+03   -0.23994E-03   -0.15818E-03  3376   0.473E-01    0.881E-02
DAV:   3    -0.121185227564E+03    0.13588E-03   -0.12472E-03  2880   0.521E-01
 125 F= -.13514445E+03 E0= -.13513853E+03  d E =-.107622E-03  mag=    -0.0000
       N       E                     dE             d eps       ncg     rms          rms(c)
DAV:   1    -0.121185183439E+03    0.18000E-03   -0.29304E-03  5296   0.260E-01    0.335E-02
DAV:   2    -0.121185785878E+03   -0.60244E-03   -0.14687E-03  2560   0.944E-01    0.153E-01
DAV:   3    -0.121185186792E+03    0.59909E-03   -0.12799E-03  2560   0.818E-01    0.331E-02
DAV:   4    -0.121185169722E+03    0.17070E-04   -0.19802E-04  2256   0.218E-01
 126 F= -.13514448E+03 E0= -.13513854E+03  d E =-.136656E-03  mag=    -0.0000
       N       E                     dE             d eps       ncg     rms          rms(c)
DAV:   1    -0.121185209706E+03   -0.22914E-04   -0.97848E-04  3664   0.153E-01    0.198E-02
DAV:   2    -0.121185308551E+03   -0.98844E-04   -0.61900E-04  2960   0.440E-01
 127 F= -.13514456E+03 E0= -.13513857E+03  d E =-.212534E-03  mag=    -0.0000
       N       E                     dE             d eps       ncg     rms          rms(c)
DAV:   1    -0.121185225400E+03   -0.15693E-04   -0.77808E-04  2496   0.466E-01    0.433E-02
DAV:   2    -0.121191614986E+03   -0.63896E-02   -0.28936E-02  2528   0.264E+00    0.467E-01
DAV:   3    -0.121185160302E+03    0.64547E-02   -0.24609E-02  2560   0.236E+00    0.222E-02
DAV:   4    -0.121185177172E+03   -0.16870E-04   -0.51407E-05  2272   0.183E-01
 128 F= -.13514446E+03 E0= -.13513852E+03  d E =-.118095E-03  mag=    -0.0000
       N       E                     dE             d eps       ncg     rms          rms(c)
DAV:   1    -0.121185234086E+03   -0.73784E-04   -0.92235E-05  2448   0.124E-01    0.169E-02
DAV:   2    -0.121185396646E+03   -0.16256E-03   -0.49125E-04  2544   0.494E-01
 129 F= -.13514465E+03 E0= -.13513860E+03  d E =-.310105E-03  mag=    -0.0000
       N       E                     dE             d eps       ncg     rms          rms(c)
DAV:   1    -0.121185782706E+03   -0.54862E-03   -0.85154E-03  5456   0.515E-01    0.384E-02
DAV:   2    -0.121189434827E+03   -0.36521E-02   -0.16618E-02  2720   0.203E+00    0.350E-01
DAV:   3    -0.121185760071E+03    0.36748E-02   -0.14045E-02  2656   0.182E+00    0.316E-02
DAV:   4    -0.121185774192E+03   -0.14121E-04   -0.15130E-04  2336   0.261E-01
 130 F= -.13514479E+03 E0= -.13513881E+03  d E =-.133527E-03  mag=    -0.0000
       N       E                     dE             d eps       ncg     rms          rms(c)
DAV:   1    -0.121185978819E+03   -0.21875E-03   -0.28946E-03  5312   0.210E-01    0.253E-02
DAV:   2    -0.121186070698E+03   -0.91879E-04   -0.44587E-04  2592   0.391E-01
 131 F= -.13514495E+03 E0= -.13513902E+03  d E =-.300734E-03  mag=    -0.0000
