<?xml version="1.0" encoding="ISO-8859-1"?>
<modeling>
 <generator>
  <i name="program" type="string">vasp </i>
  <i name="version" type="string">6.3.2  </i>
  <i name="subversion" type="string">27Jun22 (build Aug 17 2022 15:43:34) complex                          parallel </i>
  <i name="platform" type="string">tv2STDVTST </i>
  <i name="date" type="string">2025 02 17 </i>
  <i name="time" type="string">22:18:07 </i>
 </generator>
 <incar>
  <i type="int" name="ISTART">     0</i>
  <i type="string" name="PREC">Normal</i>
  <i type="int" name="ISPIN">     2</i>
  <i type="int" name="ICHARG">     2</i>
  <i type="int" name="IBRION">     2</i>
  <i name="EDIFF">      0.00020000</i>
  <i name="EDIFFG">     -0.03000000</i>
  <i type="int" name="NSW">   800</i>
  <i type="int" name="ISIF">     2</i>
  <i type="int" name="ISYM">     1</i>
  <i name="ENCUT">    400.00000000</i>
  <i name="POTIM">      0.50000000</i>
  <i type="logical" name="LREAL"> F  </i>
  <i type="int" name="ISMEAR">     1</i>
  <i name="SIGMA">      0.20000000</i>
  <i type="logical" name="LWAVE"> F  </i>
  <i type="logical" name="LCHARG"> F  </i>
  <i type="string" name="GGA">PE</i>
  <i type="int" name="IVDW">    11</i>
 </incar>
 <primitive_cell>
  <structure name="primitive_cell" >
   <crystal>
    <varray name="basis" >
     <v>       5.13359547       0.00000000       0.00000000 </v>
     <v>       2.56679773       4.44582409       0.00000000 </v>
     <v>       0.00000000       0.00000000      29.67047119 </v>
    </varray>
    <i name="volume">    677.17101477 </i>
    <varray name="rec_basis" >
     <v>       0.19479525      -0.11246509       0.00000000 </v>
     <v>       0.00000000       0.22493018       0.00000000 </v>
     <v>       0.00000000       0.00000000       0.03370354 </v>
    </varray>
   </crystal>
   <varray name="positions" >
    <v>       0.00000000       0.00000000       0.00000000 </v>
    <v>       1.00000000       0.50000000       0.00000000 </v>
    <v>       0.50000000       0.00000000       0.00000000 </v>
    <v>       0.50000000       0.50000000       0.00000000 </v>
    <v>       0.16666667       0.16666667       0.07063526 </v>
    <v>       0.16666667       0.66666667       0.07063526 </v>
    <v>       0.66666667       0.16666667       0.07063526 </v>
    <v>       0.66666667       0.66666667       0.07063526 </v>
    <v>       0.33333333       0.33333333       0.13847021 </v>
    <v>       0.33333333       0.83333333       0.13847021 </v>
    <v>       0.83333333       0.33333333       0.13847021 </v>
    <v>       0.83333333       0.83333333       0.13847021 </v>
    <v>       0.00000000       0.00000000       0.20667428 </v>
    <v>       1.00000000       0.50000000       0.20667428 </v>
    <v>       0.50000000       0.00000000       0.20667428 </v>
    <v>       0.50000000       0.50000000       0.20667428 </v>
    <v>       0.16666667       0.16666667       0.27488859 </v>
    <v>       0.16666667       0.66666667       0.27488859 </v>
    <v>       0.66666667       0.16666667       0.27488859 </v>
    <v>       0.66666667       0.66666667       0.27488859 </v>
    <v>       0.33333333       0.33333333       0.34319917 </v>
    <v>       0.33333333       0.83333333       0.34319917 </v>
    <v>       0.83333333       0.33333333       0.34319917 </v>
    <v>       0.83333333       0.83333333       0.34319917 </v>
    <v>       0.00000000       0.00000000       0.41105828 </v>
    <v>       1.00000000       0.50000000       0.41105828 </v>
    <v>       0.50000000       0.00000000       0.41105828 </v>
    <v>       0.50000000       0.50000000       0.41105828 </v>
    <v>       0.16666667       0.16666667       0.48054462 </v>
    <v>       0.16666667       0.66666667       0.48054462 </v>
    <v>       0.66666667       0.16666667       0.48054462 </v>
    <v>       0.66666667       0.66666667       0.48054462 </v>
    <v>       0.66666667       0.66666667       0.53425930 </v>
    <v>       0.60734115       0.78531771       0.55203798 </v>
   </varray>
  </structure>
  <varray name="primitive_index" >
   <v type="int" >        1 </v>
   <v type="int" >        2 </v>
   <v type="int" >        3 </v>
   <v type="int" >        4 </v>
   <v type="int" >        5 </v>
   <v type="int" >        6 </v>
   <v type="int" >        7 </v>
   <v type="int" >        8 </v>
   <v type="int" >        9 </v>
   <v type="int" >       10 </v>
   <v type="int" >       11 </v>
   <v type="int" >       12 </v>
   <v type="int" >       13 </v>
   <v type="int" >       14 </v>
   <v type="int" >       15 </v>
   <v type="int" >       16 </v>
   <v type="int" >       17 </v>
   <v type="int" >       18 </v>
   <v type="int" >       19 </v>
   <v type="int" >       20 </v>
   <v type="int" >       21 </v>
   <v type="int" >       22 </v>
   <v type="int" >       23 </v>
   <v type="int" >       24 </v>
   <v type="int" >       25 </v>
   <v type="int" >       26 </v>
   <v type="int" >       27 </v>
   <v type="int" >       28 </v>
   <v type="int" >       29 </v>
   <v type="int" >       30 </v>
   <v type="int" >       31 </v>
   <v type="int" >       32 </v>
   <v type="int" >       33 </v>
   <v type="int" >       34 </v>
  </varray>
 </primitive_cell>
 <kpoints>
  <generation param="Monkhorst-Pack">
   <v type="int" name="divisions">       3        3        1 </v>
   <v name="usershift">      0.00000000       0.00000000       0.00000000 </v>
   <v name="genvec1">      0.33333333       0.00000000       0.00000000 </v>
   <v name="genvec2">      0.00000000       0.33333333       0.00000000 </v>
   <v name="genvec3">      0.00000000       0.00000000       1.00000000 </v>
   <v name="shift">      0.00000000       0.00000000       0.00000000 </v>
  </generation>
  <varray name="kpointlist" >
   <v>       0.00000000       0.00000000       0.00000000 </v>
   <v>       0.33333333       0.00000000       0.00000000 </v>
   <v>       0.00000000       0.33333333       0.00000000 </v>
   <v>      -0.33333333       0.33333333       0.00000000 </v>
  </varray>
  <varray name="weights" >
   <v>       0.11111111 </v>
   <v>       0.44444444 </v>
   <v>       0.22222222 </v>
   <v>       0.22222222 </v>
  </varray>
 </kpoints>
 <parameters>
  <separator name="general" >
   <i type="string" name="SYSTEM">unknown system</i>
   <i type="logical" name="LCOMPAT"> F  </i>
  </separator>
  <separator name="electronic" >
   <i type="string" name="PREC">normal</i>
   <i name="ENMAX">    400.00000000</i>
   <i name="ENAUG">    586.98000000</i>
   <i name="EDIFF">      0.00020000</i>
   <i type="int" name="IALGO">    38</i>
   <i type="int" name="IWAVPR">    11</i>
   <i type="int" name="NBANDS">   232</i>
   <i type="int" name="NBANDSLOW">    -1</i>
   <i type="int" name="NBANDSHIGH">    -1</i>
   <i name="NELECT">    354.00000000</i>
   <i type="int" name="TURBO">     0</i>
   <i type="int" name="IRESTART">     0</i>
   <i type="int" name="NREBOOT">     0</i>
   <i type="int" name="NMIN">     0</i>
   <i name="EREF">      0.00000000</i>
   <separator name="electronic smearing" >
    <i type="int" name="ISMEAR">     1</i>
    <i name="SIGMA">      0.20000000</i>
    <i name="KSPACING">      0.50000000</i>
    <i type="logical" name="KGAMMA"> T  </i>
    <i type="logical" name="KBLOWUP"> T  </i>
   </separator>
   <separator name="electronic projectors" >
    <i type="logical" name="LREAL"> F  </i>
    <v name="ROPT">      0.00000000      0.00000000</v>
    <i type="int" name="LMAXPAW">  -100</i>
    <i type="int" name="LMAXMIX">     2</i>
    <i type="logical" name="NLSPLINE"> F  </i>
   </separator>
   <separator name="electronic startup" >
    <i type="int" name="ISTART">     0</i>
    <i type="int" name="ICHARG">     2</i>
    <i type="int" name="INIWAV">     1</i>
   </separator>
   <separator name="electronic spin" >
    <i type="int" name="ISPIN">     2</i>
    <i type="logical" name="LNONCOLLINEAR"> F  </i>
    <v name="MAGMOM">      1.00000000      1.00000000      1.00000000      1.00000000      1.00000000      1.00000000      1.00000000      1.00000000      1.00000000      1.00000000      1.00000000      1.00000000      1.00000000      1.00000000      1.00000000      1.00000000      1.00000000      1.00000000      1.00000000      1.00000000
      1.00000000      1.00000000      1.00000000      1.00000000      1.00000000      1.00000000      1.00000000      1.00000000      1.00000000      1.00000000      1.00000000      1.00000000      1.00000000      1.00000000</v>
    <i name="NUPDOWN">     -1.00000000</i>
    <i type="logical" name="LSORBIT"> F  </i>
    <v name="SAXIS">      0.00000000      0.00000000      1.00000000</v>
    <i type="logical" name="LSPIRAL"> F  </i>
    <v name="QSPIRAL">      0.00000000      0.00000000      0.00000000</v>
    <i type="logical" name="LZEROZ"> F  </i>
   </separator>
   <separator name="electronic exchange-correlation" >
    <i type="logical" name="LASPH"> F  </i>
    <i type="logical" name="LMETAGGA"> F  </i>
   </separator>
   <separator name="electronic convergence" >
    <i type="int" name="NELM">    60</i>
    <i type="int" name="NELMDL">    -5</i>
    <i type="int" name="NELMIN">     2</i>
    <i name="ENINI">    400.00000000</i>
    <separator name="electronic convergence detail" >
     <i type="logical" name="LDIAG"> T  </i>
     <i type="logical" name="LSUBROT"> F  </i>
     <i name="WEIMIN">      0.00100000</i>
     <i name="EBREAK">      0.00000022</i>
     <i name="DEPER">      0.30000000</i>
     <i type="int" name="NRMM">     4</i>
     <i name="TIME">      0.40000000</i>
    </separator>
   </separator>
   <separator name="electronic mixer" >
    <i name="AMIX">      0.40000000</i>
    <i name="BMIX">      1.00000000</i>
    <i name="AMIN">      0.10000000</i>
    <i name="AMIX_MAG">      1.60000000</i>
    <i name="BMIX_MAG">      1.00000000</i>
    <separator name="electronic mixer details" >
     <i type="int" name="IMIX">     4</i>
     <i type="logical" name="MIXFIRST"> F  </i>
     <i type="int" name="MAXMIX">   -45</i>
     <i name="WC">    100.00000000</i>
     <i type="int" name="INIMIX">     1</i>
     <i type="int" name="MIXPRE">     1</i>
     <i type="int" name="MREMOVE">     5</i>
    </separator>
   </separator>
   <separator name="electronic dipolcorrection" >
    <i type="logical" name="LDIPOL"> F  </i>
    <i type="logical" name="LMONO"> F  </i>
    <i type="int" name="IDIPOL">     0</i>
    <i name="EPSILON">      1.00000000</i>
    <v name="DIPOL">   -100.00000000   -100.00000000   -100.00000000</v>
    <i name="EFIELD">      0.00000000</i>
   </separator>
  </separator>
  <separator name="grids" >
   <i type="int" name="NGX">    28</i>
   <i type="int" name="NGY">    28</i>
   <i type="int" name="NGZ">   150</i>
   <i type="int" name="NGXF">    56</i>
   <i type="int" name="NGYF">    56</i>
   <i type="int" name="NGZF">   300</i>
   <i type="logical" name="ADDGRID"> F  </i>
  </separator>
  <separator name="ionic" >
   <i type="int" name="NSW">   800</i>
   <i type="int" name="IBRION">     2</i>
   <i type="int" name="MDALGO">     0</i>
   <i type="int" name="ISIF">     2</i>
   <i name="PSTRESS">      0.00000000</i>
   <i name="EDIFFG">     -0.03000000</i>
   <i type="int" name="NFREE">     1</i>
   <i name="POTIM">      0.50000000</i>
   <i name="SMASS">     -3.00000000</i>
   <i name="SCALEE">      1.00000000</i>
  </separator>
  <separator name="ionic md" >
   <i name="TEBEG">      0.00010000</i>
   <i name="TEEND">      0.00010000</i>
   <i type="int" name="NBLOCK">     1</i>
   <i type="int" name="KBLOCK">   800</i>
   <i type="int" name="NPACO">   256</i>
   <i name="APACO">     10.00000000</i>
  </separator>
  <separator name="symmetry" >
   <i type="int" name="ISYM">     1</i>
   <i name="SYMPREC">      0.00001000</i>
  </separator>
  <separator name="dos" >
   <i type="int" name="LORBIT">     0</i>
   <v name="RWIGS">     -1.00000000     -1.00000000</v>
   <i type="int" name="NEDOS">   301</i>
   <i name="EMIN">     10.00000000</i>
   <i name="EMAX">    -10.00000000</i>
   <i name="EFERMI">      0.00000000</i>
  </separator>
  <separator name="writing" >
   <i type="int" name="NWRITE">     2</i>
   <i type="logical" name="LWAVE"> F  </i>
   <i type="logical" name="LDOWNSAMPLE"> F  </i>
   <i type="logical" name="LCHARG"> F  </i>
   <i type="logical" name="LPARD"> F  </i>
   <i type="logical" name="LVTOT"> F  </i>
   <i type="logical" name="LVHAR"> F  </i>
   <i type="logical" name="LELF"> F  </i>
   <i type="logical" name="LOPTICS"> F  </i>
   <v name="STM">      0.00000000      0.00000000      0.00000000      0.00000000      0.00000000      0.00000000      0.00000000</v>
  </separator>
  <separator name="performance" >
   <i type="int" name="NPAR">     4</i>
   <i type="int" name="NSIM">     4</i>
   <i type="int" name="NBLK">    -1</i>
   <i type="logical" name="LPLANE"> T  </i>
   <i type="logical" name="LSCALAPACK"> T  </i>
   <i type="logical" name="LSCAAWARE"> F  </i>
   <i type="logical" name="LSCALU"> F  </i>
   <i type="logical" name="LASYNC"> F  </i>
   <i type="logical" name="LORBITALREAL"> F  </i>
  </separator>
  <separator name="miscellaneous" >
   <i type="int" name="IDIOT">     3</i>
   <i type="int" name="PHON_NSTRUCT">    -1</i>
   <i type="logical" name="LMUSIC"> F  </i>
   <v name="POMASS">     63.54600000      1.00000000</v>
   <v name="DARWINR">      0.00000000      0.00000000</v>
   <v name="DARWINV">      1.00000000      1.00000000</v>
   <i type="logical" name="LCORR"> T  </i>
  </separator>
  <i type="logical" name="GGA_COMPAT"> T  </i>
  <i type="logical" name="LBERRY"> F  </i>
  <i type="int" name="ICORELEVEL">     0</i>
  <i type="logical" name="LDAU"> F  </i>
  <i type="int" name="I_CONSTRAINED_M">     0</i>
  <separator name="electronic exchange-correlation" >
   <i type="string" name="GGA">PE</i>
   <i type="int" name="VOSKOWN">     0</i>
   <i type="logical" name="LHFCALC"> F  </i>
   <i type="string" name="PRECFOCK"></i>
   <i type="logical" name="LSYMGRAD"> F  </i>
   <i type="logical" name="LHFONE"> F  </i>
   <i type="logical" name="LRHFCALC"> F  </i>
   <i type="logical" name="LTHOMAS"> F  </i>
   <i type="logical" name="LMODELHF"> F  </i>
   <i type="logical" name="LFOCKACE"> F  </i>
   <i name="ENCUT4O">     -1.00000000</i>
   <i type="int" name="EXXOEP">     0</i>
   <i type="int" name="FOURORBIT">     0</i>
   <i name="AEXX">      0.00000000</i>
   <i name="HFALPHA">      0.00000000</i>
   <i name="MCALPHA">      0.00000000</i>
   <i name="ALDAX">      1.00000000</i>
   <i name="AGGAX">      1.00000000</i>
   <i name="ALDAC">      1.00000000</i>
   <i name="AGGAC">      1.00000000</i>
   <i type="int" name="NKREDX">     1</i>
   <i type="int" name="NKREDY">     1</i>
   <i type="int" name="NKREDZ">     1</i>
   <i type="logical" name="SHIFTRED"> F  </i>
   <i type="logical" name="ODDONLY"> F  </i>
   <i type="logical" name="EVENONLY"> F  </i>
   <i type="int" name="LMAXFOCK">     0</i>
   <i type="int" name="NMAXFOCKAE">     0</i>
   <i type="logical" name="LFOCKAEDFT"> F  </i>
   <i name="HFSCREEN">      0.00000000</i>
   <i name="HFSCREENC">      0.00000000</i>
   <i type="int" name="NBANDSGWLOW">     0</i>
  </separator>
  <separator name="vdW DFT" >
   <i type="logical" name="LUSE_VDW"> F  </i>
   <i name="Zab_VDW">     -0.84910000</i>
   <i name="PARAM1">      0.12340000</i>
   <i name="PARAM2">      1.00000000</i>
   <i name="PARAM3">      0.00000000</i>
  </separator>
  <separator name="model GW" >
   <i type="int" name="MODEL_GW">     0</i>
   <i name="MODEL_EPS0">     11.95007673</i>
   <i name="MODEL_ALPHA">      1.00000000</i>
  </separator>
  <separator name="linear response parameters" >
   <i type="logical" name="LEPSILON"> F  </i>
   <i type="logical" name="LRPA"> F  </i>
   <i type="logical" name="LNABLA"> F  </i>
   <i type="logical" name="LVEL"> F  </i>
   <i name="CSHIFT">      0.10000000</i>
   <i name="OMEGAMAX">     -1.00000000</i>
   <i name="DEG_THRESHOLD">      0.00200000</i>
   <i name="RTIME">     -0.10000000</i>
   <i name="WPLASMAI">      0.00000000</i>
   <v name="DFIELD">      0.00000000      0.00000000      0.00000000</v>
   <v name="WPLASMA">      0.00000000      0.00000000      0.00000000      0.00000000      0.00000000      0.00000000      0.00000000      0.00000000      0.00000000</v>
  </separator>
  <separator name="orbital magnetization" >
   <i type="logical" name="NUCIND"> F  </i>
   <v name="MAGPOS">      0.00000000      0.00000000      0.00000000</v>
   <i type="logical" name="LNICSALL"> T  </i>
   <i type="logical" name="ORBITALMAG"> F  </i>
   <i type="logical" name="LMAGBLOCH"> F  </i>
   <i type="logical" name="LCHIMAG"> F  </i>
   <i type="logical" name="LGAUGE"> T  </i>
   <i type="int" name="MAGATOM">     0</i>
   <v name="MAGDIPOL">      0.00000000      0.00000000      0.00000000</v>
   <v name="AVECCONST">      0.00000000      0.00000000      0.00000000</v>
  </separator>
  <separator name="response functions" >
   <i type="logical" name="LFINITE_TEMPERATURE"> F  </i>
   <i type="logical" name="LADDER"> F  </i>
   <i type="logical" name="LRPAFORCE"> F  </i>
   <i type="logical" name="LFXC"> F  </i>
   <i type="logical" name="LHARTREE"> T  </i>
   <i type="int" name="IBSE">     0</i>
   <v type="int" name="KPOINT">    -1     0     0     0</v>
   <i type="logical" name="LTCTC"> F  </i>
   <i type="logical" name="LTCTE"> F  </i>
   <i type="logical" name="LTETE"> F  </i>
   <i type="logical" name="LTRIPLET"> F  </i>
   <i type="logical" name="LFXCEPS"> F  </i>
   <i type="logical" name="LFXHEG"> F  </i>
   <i type="int" name="NATURALO">     2</i>
   <i type="logical" name="LHOLEGF"> F  </i>
   <i type="logical" name="L2ORDER"> F  </i>
   <i type="logical" name="LDMP1"> F  </i>
   <i type="logical" name="LMP2LT"> F  </i>
   <i type="logical" name="LSMP2LT"> F  </i>
   <i type="logical" name="LGWLF"> F  </i>
   <i name="ENCUTGW">     -2.00000000</i>
   <i name="ENCUTGWSOFT">     -2.00000000</i>
   <i name="ENCUTLF">     -1.00000000</i>
   <i type="logical" name="LESF_SPLINES"> F  </i>
   <i type="int" name="LMAXMP2">    -1</i>
   <i name="SCISSOR">      0.00000000</i>
   <i type="int" name="NOMEGA">     0</i>
   <i type="int" name="NOMEGAR">     0</i>
   <i type="int" name="NBANDSGW">    -1</i>
   <i type="int" name="NBANDSO">    -1</i>
   <i type="int" name="NBANDSV">    -1</i>
   <i type="int" name="NELMGW">     1</i>
   <i type="int" name="NELMHF">     1</i>
   <i type="int" name="DIM">     3</i>
   <i type="int" name="IESPILON">     4</i>
   <i type="int" name="ANTIRES">     0</i>
   <i name="OMEGAMAX">    -30.00000000</i>
   <i name="OMEGAMIN">    -30.00000000</i>
   <i name="OMEGATL">   -200.00000000</i>
   <i type="int" name="OMEGAGRID">     0</i>
   <i name="CSHIFT">     -0.10000000</i>
   <i type="logical" name="LSELFENERGY"> F  </i>
   <i type="logical" name="LSPECTRAL"> F  </i>
   <i type="logical" name="LSPECTRALGW"> F  </i>
   <i type="logical" name="LSINGLES"> F  </i>
   <i type="logical" name="LFERMIGW"> F  </i>
   <i type="logical" name="ODDONLYGW"> F  </i>
   <i type="logical" name="EVENONLYGW"> F  </i>
   <i type="int" name="NKREDLFX">     1</i>
   <i type="int" name="NKREDLFY">     1</i>
   <i type="int" name="NKREDLFZ">     1</i>
   <i type="int" name="MAXMEM">  2800</i>
   <i type="int" name="TELESCOPE">     0</i>
   <i type="int" name="NTAUPAR">    -1</i>
   <i type="int" name="NOMEGAPAR">    -1</i>
   <i name="DAMP_NEWTON">      0.80000001</i>
   <i name="LAMBDA">      1.00000000</i>
  </separator>
  <separator name="External order field" >
   <i name="OFIELD_KAPPA">      0.00000000</i>
   <v name="OFIELD_K">      0.00000000      0.00000000      0.00000000</v>
   <i name="OFIELD_Q6_NEAR">      0.00000000</i>
   <i name="OFIELD_Q6_FAR">      0.00000000</i>
   <i name="OFIELD_A">      0.00000000</i>
  </separator>
  <separator name="optional k-points parameters" >
   <i type="int" name="KPOINTS_OPT_MODE">     1</i>
   <i type="logical" name="LKPOINTS_OPT"> F  </i>
  </separator>
 </parameters>
 <atominfo>
  <atoms>      34 </atoms>
  <types>       2 </types>
  <array name="atoms" >
   <dimension dim="1">ion</dimension>
   <field type="string">element</field>
   <field type="int">atomtype</field>
   <set>
    <rc><c>Cu</c><c>   1</c></rc>
    <rc><c>Cu</c><c>   1</c></rc>
    <rc><c>Cu</c><c>   1</c></rc>
    <rc><c>Cu</c><c>   1</c></rc>
    <rc><c>Cu</c><c>   1</c></rc>
    <rc><c>Cu</c><c>   1</c></rc>
    <rc><c>Cu</c><c>   1</c></rc>
    <rc><c>Cu</c><c>   1</c></rc>
    <rc><c>Cu</c><c>   1</c></rc>
    <rc><c>Cu</c><c>   1</c></rc>
    <rc><c>Cu</c><c>   1</c></rc>
    <rc><c>Cu</c><c>   1</c></rc>
    <rc><c>Cu</c><c>   1</c></rc>
    <rc><c>Cu</c><c>   1</c></rc>
    <rc><c>Cu</c><c>   1</c></rc>
    <rc><c>Cu</c><c>   1</c></rc>
    <rc><c>Cu</c><c>   1</c></rc>
    <rc><c>Cu</c><c>   1</c></rc>
    <rc><c>Cu</c><c>   1</c></rc>
    <rc><c>Cu</c><c>   1</c></rc>
    <rc><c>Cu</c><c>   1</c></rc>
    <rc><c>Cu</c><c>   1</c></rc>
    <rc><c>Cu</c><c>   1</c></rc>
    <rc><c>Cu</c><c>   1</c></rc>
    <rc><c>Cu</c><c>   1</c></rc>
    <rc><c>Cu</c><c>   1</c></rc>
    <rc><c>Cu</c><c>   1</c></rc>
    <rc><c>Cu</c><c>   1</c></rc>
    <rc><c>Cu</c><c>   1</c></rc>
    <rc><c>Cu</c><c>   1</c></rc>
    <rc><c>Cu</c><c>   1</c></rc>
    <rc><c>Cu</c><c>   1</c></rc>
    <rc><c>H </c><c>   2</c></rc>
    <rc><c>H </c><c>   2</c></rc>
   </set>
  </array>
  <array name="atomtypes" >
   <dimension dim="1">type</dimension>
   <field type="int">atomspertype</field>
   <field type="string">element</field>
   <field>mass</field>
   <field>valence</field>
   <field type="string">pseudopotential</field>
   <set>
    <rc><c>  32</c><c>Cu</c><c>     63.54600000</c><c>     11.00000000</c><c>  PAW_PBE Cu 22Jun2005                  </c></rc>
    <rc><c>   2</c><c>H </c><c>      1.00000000</c><c>      1.00000000</c><c>  PAW_PBE H 15Jun2001                   </c></rc>
   </set>
  </array>
 </atominfo>
 <structure name="initialpos" >
  <crystal>
   <varray name="basis" >
    <v>       5.13359547       0.00000000       0.00000000 </v>
    <v>       2.56679773       4.44582409       0.00000000 </v>
    <v>       0.00000000       0.00000000      29.67047119 </v>
   </varray>
   <i name="volume">    677.17101477 </i>
   <varray name="rec_basis" >
    <v>       0.19479525      -0.11246509       0.00000000 </v>
    <v>       0.00000000       0.22493018       0.00000000 </v>
    <v>       0.00000000       0.00000000       0.03370354 </v>
   </varray>
  </crystal>
  <varray name="positions" >
   <v>       0.00000000       0.00000000       0.00000000 </v>
   <v>       1.00000000       0.50000000       0.00000000 </v>
   <v>       0.50000000       0.00000000       0.00000000 </v>
   <v>       0.50000000       0.50000000       0.00000000 </v>
   <v>       0.16666667       0.16666667       0.07063526 </v>
   <v>       0.16666667       0.66666667       0.07063526 </v>
   <v>       0.66666667       0.16666667       0.07063526 </v>
   <v>       0.66666667       0.66666667       0.07063526 </v>
   <v>       0.33333333       0.33333333       0.13847021 </v>
   <v>       0.33333333       0.83333333       0.13847021 </v>
   <v>       0.83333333       0.33333333       0.13847021 </v>
   <v>       0.83333333       0.83333333       0.13847021 </v>
   <v>       0.00000000       0.00000000       0.20667428 </v>
   <v>       1.00000000       0.50000000       0.20667428 </v>
   <v>       0.50000000       0.00000000       0.20667428 </v>
   <v>       0.50000000       0.50000000       0.20667428 </v>
   <v>       0.16666667       0.16666667       0.27488859 </v>
   <v>       0.16666667       0.66666667       0.27488859 </v>
   <v>       0.66666667       0.16666667       0.27488859 </v>
   <v>       0.66666667       0.66666667       0.27488859 </v>
   <v>       0.33333333       0.33333333       0.34319917 </v>
   <v>       0.33333333       0.83333333       0.34319917 </v>
   <v>       0.83333333       0.33333333       0.34319917 </v>
   <v>       0.83333333       0.83333333       0.34319917 </v>
   <v>       0.00000000       0.00000000       0.41105828 </v>
   <v>       1.00000000       0.50000000       0.41105828 </v>
   <v>       0.50000000       0.00000000       0.41105828 </v>
   <v>       0.50000000       0.50000000       0.41105828 </v>
   <v>       0.16666667       0.16666667       0.48054462 </v>
   <v>       0.16666667       0.66666667       0.48054462 </v>
   <v>       0.66666667       0.16666667       0.48054462 </v>
   <v>       0.66666667       0.66666667       0.48054462 </v>
   <v>       0.66666667       0.66666667       0.53425930 </v>
   <v>       0.60734115       0.78531771       0.55203798 </v>
  </varray>
 </structure>
 <calculation>
  <scstep>
   <time name="dav">    5.99    6.04</time>
   <time name="total">    6.07    6.12</time>
   <energy>
    <i name="alphaZ">   1114.72537883 </i>
    <i name="ewald"> 216284.79731582 </i>
    <i name="hartreedc">-260313.97593599 </i>
    <i name="XCdc">   1472.05193871 </i>
    <i name="pawpsdc">  39302.70853331 </i>
    <i name="pawaedc"> -42689.07521165 </i>
    <i name="eentropy">     -0.02033145 </i>
    <i name="bandstr">   3743.10119636 </i>
    <i name="atom">  44535.60175172 </i>
    <i name="e_fr_energy">   3449.91463566 </i>
    <i name="e_wo_entrp">   3449.93496710 </i>
    <i name="e_0_energy">   3449.92141281 </i>
   </energy>
  </scstep>
  <scstep>
   <time name="dav">    5.90    5.95</time>
   <time name="total">    5.90    5.96</time>
   <energy>
    <i name="e_fr_energy">    487.11929964 </i>
    <i name="e_wo_entrp">    487.12807597 </i>
    <i name="e_0_energy">    487.12222508 </i>
   </energy>
  </scstep>
  <scstep>
   <time name="dav">    5.92    5.97</time>
   <time name="total">    5.92    5.97</time>
   <energy>
    <i name="e_fr_energy">    -92.84513317 </i>
    <i name="e_wo_entrp">    -92.84809134 </i>
    <i name="e_0_energy">    -92.84611923 </i>
   </energy>
  </scstep>
  <scstep>
   <time name="dav">    6.31    6.37</time>
   <time name="total">    6.32    6.37</time>
   <energy>
    <i name="e_fr_energy">   -138.34348236 </i>
    <i name="e_wo_entrp">   -138.36787598 </i>
    <i name="e_0_energy">   -138.35161357 </i>
   </energy>
  </scstep>
  <scstep>
   <time name="dav">    6.40    6.45</time>
   <time name="total">    6.79    6.85</time>
   <energy>
    <i name="e_fr_energy">   -139.45158863 </i>
    <i name="e_wo_entrp">   -139.47769690 </i>
    <i name="e_0_energy">   -139.46029139 </i>
   </energy>
  </scstep>
  <scstep>
   <time name="dav">    6.44    6.50</time>
   <time name="total">    6.89    6.94</time>
   <energy>
    <i name="e_fr_energy">   -114.77048679 </i>
    <i name="e_wo_entrp">   -114.72425856 </i>
    <i name="e_0_energy">   -114.75507738 </i>
   </energy>
  </scstep>
  <scstep>
   <time name="dav">    6.54    6.59</time>
   <time name="total">    6.97    7.03</time>
   <energy>
    <i name="e_fr_energy">   -102.82829352 </i>
    <i name="e_wo_entrp">   -102.81288061 </i>
    <i name="e_0_energy">   -102.82315588 </i>
   </energy>
  </scstep>
  <scstep>
   <time name="dav">    7.05    7.11</time>
   <time name="total">    7.49    7.55</time>
   <energy>
    <i name="e_fr_energy">   -108.69691788 </i>
    <i name="e_wo_entrp">   -108.73833497 </i>
    <i name="e_0_energy">   -108.71072358 </i>
   </energy>
  </scstep>
  <scstep>
   <time name="dav">    7.76    7.82</time>
   <time name="total">    8.21    8.27</time>
   <energy>
    <i name="e_fr_energy">    -99.31230963 </i>
    <i name="e_wo_entrp">    -99.26956265 </i>
    <i name="e_0_energy">    -99.29806064 </i>
   </energy>
  </scstep>
  <scstep>
   <time name="dav">    7.29    7.36</time>
   <time name="total">    7.72    7.79</time>
   <energy>
    <i name="e_fr_energy">    -99.87093823 </i>
    <i name="e_wo_entrp">    -99.86655502 </i>
    <i name="e_0_energy">    -99.86947716 </i>
   </energy>
  </scstep>
  <scstep>
   <time name="dav">    6.61    6.66</time>
   <time name="total">    7.03    7.09</time>
   <energy>
    <i name="e_fr_energy">   -101.76033785 </i>
    <i name="e_wo_entrp">   -101.82517207 </i>
    <i name="e_0_energy">   -101.78194925 </i>
   </energy>
  </scstep>
  <scstep>
   <time name="dav">    6.70    6.76</time>
   <time name="total">    7.17    7.23</time>
   <energy>
    <i name="e_fr_energy">   -101.66385243 </i>
    <i name="e_wo_entrp">   -101.65256831 </i>
    <i name="e_0_energy">   -101.66009106 </i>
   </energy>
  </scstep>
  <scstep>
   <time name="dav">    8.30    8.37</time>
   <time name="total">    8.74    8.81</time>
   <energy>
    <i name="e_fr_energy">   -102.70878320 </i>
    <i name="e_wo_entrp">   -102.74406365 </i>
    <i name="e_0_energy">   -102.72054335 </i>
   </energy>
  </scstep>
  <scstep>
   <time name="dav">    8.50    8.57</time>
   <time name="total">    8.93    9.00</time>
   <energy>
    <i name="e_fr_energy">   -104.41503138 </i>
    <i name="e_wo_entrp">   -104.41801518 </i>
    <i name="e_0_energy">   -104.41602598 </i>
   </energy>
  </scstep>
  <scstep>
   <time name="dav">    7.46    7.52</time>
   <time name="total">    7.89    7.96</time>
   <energy>
    <i name="e_fr_energy">   -108.74891814 </i>
    <i name="e_wo_entrp">   -108.76810335 </i>
    <i name="e_0_energy">   -108.75531321 </i>
   </energy>
  </scstep>
  <scstep>
   <time name="dav">    6.71    6.76</time>
   <time name="total">    7.15    7.20</time>
   <energy>
    <i name="e_fr_energy">   -111.90760247 </i>
    <i name="e_wo_entrp">   -111.90065855 </i>
    <i name="e_0_energy">   -111.90528783 </i>
   </energy>
  </scstep>
  <scstep>
   <time name="dav">    7.21    7.27</time>
   <time name="total">    7.66    7.72</time>
   <energy>
    <i name="e_fr_energy">   -113.65461882 </i>
    <i name="e_wo_entrp">   -113.65101685 </i>
    <i name="e_0_energy">   -113.65341816 </i>
   </energy>
  </scstep>
  <scstep>
   <time name="dav">    6.63    6.69</time>
   <time name="total">    7.06    7.12</time>
   <energy>
    <i name="e_fr_energy">   -114.68697949 </i>
    <i name="e_wo_entrp">   -114.66203351 </i>
    <i name="e_0_energy">   -114.67866417 </i>
   </energy>
  </scstep>
  <scstep>
   <time name="dav">    6.92    6.98</time>
   <time name="total">    7.36    7.42</time>
   <energy>
    <i name="e_fr_energy">   -115.55782679 </i>
    <i name="e_wo_entrp">   -115.53740757 </i>
    <i name="e_0_energy">   -115.55102039 </i>
   </energy>
  </scstep>
  <scstep>
   <time name="dav">    6.92    6.98</time>
   <time name="total">    7.35    7.41</time>
   <energy>
    <i name="e_fr_energy">   -116.24743130 </i>
    <i name="e_wo_entrp">   -116.22137257 </i>
    <i name="e_0_energy">   -116.23874506 </i>
   </energy>
  </scstep>
  <scstep>
   <time name="dav">    7.27    7.33</time>
   <time name="total">    7.70    7.76</time>
   <energy>
    <i name="e_fr_energy">   -117.05707515 </i>
    <i name="e_wo_entrp">   -117.02854893 </i>
    <i name="e_0_energy">   -117.04756641 </i>
   </energy>
  </scstep>
  <scstep>
   <time name="dav">    7.74    7.81</time>
   <time name="total">    8.17    8.24</time>
   <energy>
    <i name="e_fr_energy">   -117.76564970 </i>
    <i name="e_wo_entrp">   -117.74387046 </i>
    <i name="e_0_energy">   -117.75838995 </i>
   </energy>
  </scstep>
  <scstep>
   <time name="dav">    7.24    7.30</time>
   <time name="total">    7.68    7.75</time>
   <energy>
    <i name="e_fr_energy">   -118.18484192 </i>
    <i name="e_wo_entrp">   -118.16753194 </i>
    <i name="e_0_energy">   -118.17907193 </i>
   </energy>
  </scstep>
  <scstep>
   <time name="dav">    7.26    7.32</time>
   <time name="total">    7.69    7.75</time>
   <energy>
    <i name="e_fr_energy">   -118.73495213 </i>
    <i name="e_wo_entrp">   -118.72127203 </i>
    <i name="e_0_energy">   -118.73039210 </i>
   </energy>
  </scstep>
  <scstep>
   <time name="dav">    7.30    7.36</time>
   <time name="total">    7.74    7.81</time>
   <energy>
    <i name="e_fr_energy">   -119.55552136 </i>
    <i name="e_wo_entrp">   -119.53742278 </i>
    <i name="e_0_energy">   -119.54948850 </i>
   </energy>
  </scstep>
  <scstep>
   <time name="dav">    7.00    7.06</time>
   <time name="total">    7.44    7.51</time>
   <energy>
    <i name="e_fr_energy">   -120.36962377 </i>
    <i name="e_wo_entrp">   -120.35440309 </i>
    <i name="e_0_energy">   -120.36455021 </i>
   </energy>
  </scstep>
  <scstep>
   <time name="dav">    6.39    6.44</time>
   <time name="total">    6.83    6.88</time>
   <energy>
    <i name="e_fr_energy">   -120.62106588 </i>
    <i name="e_wo_entrp">   -120.60629220 </i>
    <i name="e_0_energy">   -120.61614132 </i>
   </energy>
  </scstep>
  <scstep>
   <time name="dav">    6.61    6.67</time>
   <time name="total">    7.06    7.11</time>
   <energy>
    <i name="e_fr_energy">   -120.66074846 </i>
    <i name="e_wo_entrp">   -120.64577427 </i>
    <i name="e_0_energy">   -120.65575706 </i>
   </energy>
  </scstep>
  <scstep>
   <time name="dav">    6.23    6.28</time>
   <time name="total">    6.66    6.72</time>
   <energy>
    <i name="e_fr_energy">   -120.66854812 </i>
    <i name="e_wo_entrp">   -120.65381274 </i>
    <i name="e_0_energy">   -120.66363633 </i>
   </energy>
  </scstep>
  <scstep>
   <time name="dav">    6.04    6.09</time>
   <time name="total">    6.49    6.54</time>
   <energy>
    <i name="e_fr_energy">   -120.67456674 </i>
    <i name="e_wo_entrp">   -120.65995467 </i>
    <i name="e_0_energy">   -120.66969605 </i>
   </energy>
  </scstep>
  <scstep>
   <time name="dav">    4.84    4.87</time>
   <time name="total">    5.28    5.32</time>
   <energy>
    <i name="e_fr_energy">   -120.67886548 </i>
    <i name="e_wo_entrp">   -120.66419456 </i>
    <i name="e_0_energy">   -120.67397517 </i>
   </energy>
  </scstep>
  <scstep>
   <time name="dav">    4.50    4.53</time>
   <time name="total">    4.57    4.61</time>
   <energy>
    <i name="alphaZ">   1114.72537883 </i>
    <i name="ewald"> 216284.79731582 </i>
    <i name="hartreedc">-259827.26666999 </i>
    <i name="XCdc">   1433.88537378 </i>
    <i name="pawpsdc">  42149.81329687 </i>
    <i name="pawaedc"> -45601.87763613 </i>
    <i name="eentropy">     -0.01468514 </i>
    <i name="bandstr">   -210.34296031 </i>
    <i name="atom">  44535.60175172 </i>
    <i name="e_fr_energy">   -120.67883453 </i>
    <i name="e_wo_entrp">   -120.66414939 </i>
    <i name="e_0_energy">   -120.67393948 </i>
   </energy>
  </scstep>
  <structure>
   <crystal>
    <varray name="basis" >
     <v>       5.13359547       0.00000000       0.00000000 </v>
     <v>       2.56679773       4.44582409       0.00000000 </v>
     <v>       0.00000000       0.00000000      29.67047119 </v>
    </varray>
    <i name="volume">    677.17101477 </i>
    <varray name="rec_basis" >
     <v>       0.19479525      -0.11246509       0.00000000 </v>
     <v>       0.00000000       0.22493018       0.00000000 </v>
     <v>       0.00000000       0.00000000       0.03370354 </v>
    </varray>
   </crystal>
   <varray name="positions" >
    <v>       0.00000000       0.00000000       0.00000000 </v>
    <v>       1.00000000       0.50000000       0.00000000 </v>
    <v>       0.50000000       0.00000000       0.00000000 </v>
    <v>       0.50000000       0.50000000       0.00000000 </v>
    <v>       0.16666667       0.16666667       0.07063526 </v>
    <v>       0.16666667       0.66666667       0.07063526 </v>
    <v>       0.66666667       0.16666667       0.07063526 </v>
    <v>       0.66666667       0.66666667       0.07063526 </v>
    <v>       0.33333333       0.33333333       0.13847021 </v>
    <v>       0.33333333       0.83333333       0.13847021 </v>
    <v>       0.83333333       0.33333333       0.13847021 </v>
    <v>       0.83333333       0.83333333       0.13847021 </v>
    <v>       0.00000000       0.00000000       0.20667428 </v>
    <v>       1.00000000       0.50000000       0.20667428 </v>
    <v>       0.50000000       0.00000000       0.20667428 </v>
    <v>       0.50000000       0.50000000       0.20667428 </v>
    <v>       0.16666667       0.16666667       0.27488859 </v>
    <v>       0.16666667       0.66666667       0.27488859 </v>
    <v>       0.66666667       0.16666667       0.27488859 </v>
    <v>       0.66666667       0.66666667       0.27488859 </v>
    <v>       0.33333333       0.33333333       0.34319917 </v>
    <v>       0.33333333       0.83333333       0.34319917 </v>
    <v>       0.83333333       0.33333333       0.34319917 </v>
    <v>       0.83333333       0.83333333       0.34319917 </v>
    <v>       0.00000000       0.00000000       0.41105828 </v>
    <v>       1.00000000       0.50000000       0.41105828 </v>
    <v>       0.50000000       0.00000000       0.41105828 </v>
    <v>       0.50000000       0.50000000       0.41105828 </v>
    <v>       0.16666667       0.16666667       0.48054462 </v>
    <v>       0.16666667       0.66666667       0.48054462 </v>
    <v>       0.66666667       0.16666667       0.48054462 </v>
    <v>       0.66666667       0.66666667       0.48054462 </v>
    <v>       0.66666667       0.66666667       0.53425930 </v>
    <v>       0.60734115       0.78531771       0.55203798 </v>
   </varray>
  </structure>
  <varray name="forces" >
   <v>       0.00000000       0.00892670       0.14713364 </v>
   <v>      -0.00517524      -0.00472925       0.14370647 </v>
   <v>       0.00000000       0.00144363       0.14959539 </v>
   <v>       0.00517524      -0.00472925       0.14370647 </v>
   <v>       0.00639156       0.00394753      -0.13819818 </v>
   <v>       0.00000000      -0.00708435      -0.14578330 </v>
   <v>      -0.00639156       0.00394753      -0.13819818 </v>
   <v>       0.00000000      -0.00024584      -0.11817622 </v>
   <v>       0.00000000       0.00325635       0.00118015 </v>
   <v>      -0.01965771       0.00705351      -0.01782087 </v>
   <v>      -0.00000000      -0.01727715      -0.01139805 </v>
   <v>       0.01965771       0.00705351      -0.01782087 </v>
   <v>       0.00000000       0.00748254       0.02713414 </v>
   <v>       0.00660158      -0.00965386      -0.00437722 </v>
   <v>       0.00000000       0.00985597       0.01419283 </v>
   <v>      -0.00660158      -0.00965386      -0.00437722 </v>
   <v>       0.00000185       0.01829267      -0.01251425 </v>
   <v>       0.00000000      -0.01933294      -0.00228917 </v>
   <v>      -0.00000185       0.01829267      -0.01251425 </v>
   <v>       0.00000000      -0.01776297       0.04763994 </v>
   <v>       0.00000000       0.00641973       0.06724212 </v>
   <v>      -0.04339627       0.01430320      -0.00271723 </v>
   <v>       0.00000000      -0.03247753       0.02424227 </v>
   <v>       0.04339627       0.01430320      -0.00271723 </v>
   <v>       0.00000000      -0.00973115       0.11110181 </v>
   <v>      -0.01805009       0.02576022       0.07425873 </v>
   <v>       0.00000000      -0.03114228       0.04014191 </v>
   <v>       0.01805009       0.02576022       0.07425873 </v>
   <v>      -0.09169579       0.08261215      -0.23235377 </v>
   <v>       0.00000000      -0.03022820      -0.27534545 </v>
   <v>       0.09169579       0.08261215      -0.23235377 </v>
   <v>      -0.00000000       0.02867310      -1.05283728 </v>
   <v>       0.00000000      -1.07035821       0.56550764 </v>
   <v>       0.00000000       0.89441024       0.79075027 </v>
  </varray>
  <varray name="stress" >
   <v>     -31.11737485       0.00000000       0.00000000 </v>
   <v>       0.00000000     -29.83462077       0.32629616 </v>
   <v>       0.00000000       0.32630171      -4.25936647 </v>
  </varray>
  <energy>
   <i name="e_fr_energy">   -134.71898492 </i>
   <i name="e_wo_entrp">   -134.70429978 </i>
   <i name="e_0_energy">   -134.71408988 </i>
  </energy>
  <time name="totalsc">  239.44  241.40</time>
 </calculation>
 <calculation>
  <scstep>
   <time name="dav">    5.99    6.04</time>
   <time name="total">    6.43    6.48</time>
   <energy>
    <i name="alphaZ">   1114.72537883 </i>
    <i name="ewald"> 216740.27144817 </i>
    <i name="hartreedc">-260283.27038005 </i>
    <i name="XCdc">   1433.89516419 </i>
    <i name="pawpsdc">  42149.74943400 </i>
    <i name="pawaedc"> -45601.85254548 </i>
    <i name="eentropy">     -0.01786955 </i>
    <i name="bandstr">   -209.82826490 </i>
    <i name="atom">  44535.60175172 </i>
    <i name="e_fr_energy">   -120.72588305 </i>
    <i name="e_wo_entrp">   -120.70801350 </i>
    <i name="e_0_energy">   -120.71992653 </i>
   </energy>
  </scstep>
  <scstep>
   <time name="dav">    7.79    7.86</time>
   <time name="total">    8.23    8.30</time>
   <energy>
    <i name="e_fr_energy">   -120.77118793 </i>
    <i name="e_wo_entrp">   -120.75345077 </i>
    <i name="e_0_energy">   -120.76527554 </i>
   </energy>
  </scstep>
  <scstep>
   <time name="dav">    6.51    6.57</time>
   <time name="total">    6.95    7.01</time>
   <energy>
    <i name="e_fr_energy">   -120.77158092 </i>
    <i name="e_wo_entrp">   -120.75478903 </i>
    <i name="e_0_energy">   -120.76598362 </i>
   </energy>
  </scstep>
  <scstep>
   <time name="dav">    6.81    6.87</time>
   <time name="total">    7.25    7.32</time>
   <energy>
    <i name="e_fr_energy">   -120.77898515 </i>
    <i name="e_wo_entrp">   -120.76057156 </i>
    <i name="e_0_energy">   -120.77284729 </i>
   </energy>
  </scstep>
  <scstep>
   <time name="dav">    7.64    7.71</time>
   <time name="total">    8.08    8.14</time>
   <energy>
    <i name="e_fr_energy">   -120.77914981 </i>
    <i name="e_wo_entrp">   -120.76171836 </i>
    <i name="e_0_energy">   -120.77333933 </i>
   </energy>
  </scstep>
  <scstep>
   <time name="dav">    8.10    8.17</time>
   <time name="total">    8.53    8.60</time>
   <energy>
    <i name="e_fr_energy">   -120.76778706 </i>
    <i name="e_wo_entrp">   -120.75180965 </i>
    <i name="e_0_energy">   -120.76246126 </i>
   </energy>
  </scstep>
  <scstep>
   <time name="dav">    9.42    9.50</time>
   <time name="total">    9.86    9.94</time>
   <energy>
    <i name="e_fr_energy">   -120.76635189 </i>
    <i name="e_wo_entrp">   -120.74859523 </i>
    <i name="e_0_energy">   -120.76043300 </i>
   </energy>
  </scstep>
  <scstep>
   <time name="dav">    7.04    7.10</time>
   <time name="total">    7.47    7.53</time>
   <energy>
    <i name="e_fr_energy">   -120.76617119 </i>
    <i name="e_wo_entrp">   -120.74850624 </i>
    <i name="e_0_energy">   -120.76028287 </i>
   </energy>
  </scstep>
  <scstep>
   <time name="dav">    6.14    6.19</time>
   <time name="total">    6.21    6.26</time>
   <energy>
    <i name="alphaZ">   1114.72537883 </i>
    <i name="ewald"> 216740.27144817 </i>
    <i name="hartreedc">-260276.33695420 </i>
    <i name="XCdc">   1433.78120977 </i>
    <i name="pawpsdc">  42155.57306000 </i>
    <i name="pawaedc"> -45607.92964194 </i>
    <i name="eentropy">     -0.01752318 </i>
    <i name="bandstr">   -216.43486480 </i>
    <i name="atom">  44535.60175172 </i>
    <i name="e_fr_energy">   -120.76613563 </i>
    <i name="e_wo_entrp">   -120.74861245 </i>
    <i name="e_0_energy">   -120.76029457 </i>
   </energy>
  </scstep>
  <structure>
   <crystal>
    <varray name="basis" >
     <v>       5.13359547       0.00000000       0.00000000 </v>
     <v>       2.56679773       4.44582409       0.00000000 </v>
     <v>       0.00000000       0.00000000      29.67047119 </v>
    </varray>
    <i name="volume">    677.17101477 </i>
    <varray name="rec_basis" >
     <v>       0.19479525      -0.11246509       0.00000000 </v>
     <v>       0.00000000       0.22493018       0.00000000 </v>
     <v>       0.00000000       0.00000000       0.03370354 </v>
    </varray>
   </crystal>
   <varray name="positions" >
    <v>      -0.00004843       0.00009687       0.00023923 </v>
    <v>       0.99997702       0.49994868       0.00023366 </v>
    <v>       0.49999217       0.00001567       0.00024323 </v>
    <v>       0.50007429       0.49994868       0.00023366 </v>
    <v>       0.16670531       0.16670950       0.07041056 </v>
    <v>       0.16670510       0.66658979       0.07039823 </v>
    <v>       0.66658518       0.16670950       0.07041056 </v>
    <v>       0.66666800       0.66666400       0.07044312 </v>
    <v>       0.33331567       0.33336867       0.13847213 </v>
    <v>       0.33311033       0.83340987       0.13844124 </v>
    <v>       0.83342707       0.33314585       0.13845168 </v>
    <v>       0.83347980       0.83340987       0.13844124 </v>
    <v>      -0.00004060       0.00008119       0.20671840 </v>
    <v>       0.00011442       0.49989524       0.20666716 </v>
    <v>       0.49994653       0.00010695       0.20669736 </v>
    <v>       0.49999034       0.49989524       0.20666716 </v>
    <v>       0.16656744       0.16686516       0.27486824 </v>
    <v>       0.16677156       0.66645688       0.27488487 </v>
    <v>       0.66656740       0.16686516       0.27486824 </v>
    <v>       0.66676304       0.66647392       0.27496605 </v>
    <v>       0.33329850       0.33340300       0.34330850 </v>
    <v>       0.33284792       0.83348854       0.34319475 </v>
    <v>       0.83350954       0.33298091       0.34323859 </v>
    <v>       0.83366354       0.83348854       0.34319475 </v>
    <v>       0.00005280      -0.00010559       0.41123892 </v>
    <v>       0.99969061       0.50027953       0.41117902 </v>
    <v>       0.50016897      -0.00033793       0.41112355 </v>
    <v>       0.50002986       0.50027953       0.41117902 </v>
    <v>       0.16535674       0.16756311       0.48016682 </v>
    <v>       0.16683067       0.66633865       0.48009692 </v>
    <v>       0.66708015       0.16756311       0.48016682 </v>
    <v>       0.66651110       0.66697780       0.47883276 </v>
    <v>       0.67247402       0.65505196       0.53517879 </v>
    <v>       0.60248842       0.79502316       0.55332370 </v>
   </varray>
  </structure>
  <varray name="forces" >
   <v>       0.00000000       0.00631216       0.09207584 </v>
   <v>      -0.00337924      -0.00253980       0.09197219 </v>
   <v>       0.00000000       0.00096164       0.09750501 </v>
   <v>       0.00337924      -0.00253980       0.09197219 </v>
   <v>       0.00380134       0.00306625      -0.05635465 </v>
   <v>       0.00000000      -0.00418253      -0.06372153 </v>
   <v>      -0.00380134       0.00306625      -0.05635465 </v>
   <v>       0.00000000       0.00002363      -0.04335495 </v>
   <v>       0.00000000       0.00030044      -0.03087540 </v>
   <v>      -0.00677036       0.00349776      -0.03592376 </v>
   <v>       0.00000000      -0.00532731      -0.03398125 </v>
   <v>       0.00677036       0.00349776      -0.03592376 </v>
   <v>       0.00000000       0.00307567       0.01276156 </v>
   <v>      -0.00173155      -0.00047445      -0.00559630 </v>
   <v>       0.00000000      -0.00324122       0.00640887 </v>
   <v>       0.00173155      -0.00047445      -0.00559630 </v>
   <v>       0.00159531       0.01034001      -0.00420097 </v>
   <v>       0.00000000      -0.01241296      -0.00511185 </v>
   <v>      -0.00159531       0.01034001      -0.00420097 </v>
   <v>       0.00000000      -0.00844316       0.02503733 </v>
   <v>       0.00000000       0.00181909       0.04824369 </v>
   <v>      -0.02143168       0.00776145       0.00953900 </v>
   <v>       0.00000000      -0.01293406       0.03291813 </v>
   <v>       0.02143168       0.00776145       0.00953900 </v>
   <v>       0.00000000      -0.00343507       0.02064914 </v>
   <v>       0.02964031      -0.00542522      -0.06535413 </v>
   <v>      -0.00000000       0.03405117      -0.07138431 </v>
   <v>      -0.02964031      -0.00542522      -0.06535413 </v>
   <v>      -0.04403653       0.05594290      -0.14374597 </v>
   <v>       0.00000000      -0.02084583      -0.18164387 </v>
   <v>       0.04403653       0.05594290      -0.14374597 </v>
   <v>       0.00000000       0.06140402      -0.29159072 </v>
   <v>      -0.00000000       0.29502263       1.30750820 </v>
   <v>      -0.00000000      -0.47648608      -0.50211473 </v>
  </varray>
  <varray name="stress" >
   <v>     -30.56260944       0.00000000       0.00000000 </v>
   <v>       0.00000000     -31.00326391      -1.45926754 </v>
   <v>       0.00000000      -1.45926202      -6.30249301 </v>
  </varray>
  <energy>
   <i name="e_fr_energy">   -134.82095253 </i>
   <i name="e_wo_entrp">   -134.80342935 </i>
   <i name="e_0_energy">   -134.81511147 </i>
  </energy>
  <time name="totalsc">   80.50   81.23</time>
 </calculation>
 <calculation>
  <scstep>
   <time name="dav">    6.20    6.25</time>
   <time name="total">    6.64    6.70</time>
   <energy>
    <i name="alphaZ">   1114.72537883 </i>
    <i name="ewald"> 216757.89318922 </i>
    <i name="hartreedc">-260293.86941082 </i>
    <i name="XCdc">   1433.78109333 </i>
    <i name="pawpsdc">  42155.80477270 </i>
    <i name="pawaedc"> -45608.16573180 </i>
    <i name="eentropy">     -0.01747102 </i>
    <i name="bandstr">   -216.51887011 </i>
    <i name="atom">  44535.60175172 </i>
    <i name="e_fr_energy">   -120.76529795 </i>
    <i name="e_wo_entrp">   -120.74782693 </i>
    <i name="e_0_energy">   -120.75947428 </i>
   </energy>
  </scstep>
  <scstep>
   <time name="dav">    5.80    5.85</time>
   <time name="total">    6.24    6.29</time>
   <energy>
    <i name="e_fr_energy">   -120.76555326 </i>
    <i name="e_wo_entrp">   -120.74789917 </i>
    <i name="e_0_energy">   -120.75966857 </i>
   </energy>
  </scstep>
  <scstep>
   <time name="dav">    4.46    4.50</time>
   <time name="total">    4.53    4.57</time>
   <energy>
    <i name="alphaZ">   1114.72537883 </i>
    <i name="ewald"> 216757.89318922 </i>
    <i name="hartreedc">-260293.44514403 </i>
    <i name="XCdc">   1433.77738164 </i>
    <i name="pawpsdc">  42156.27742399 </i>
    <i name="pawaedc"> -45608.63824808 </i>
    <i name="eentropy">     -0.01759467 </i>
    <i name="bandstr">   -216.93965341 </i>
    <i name="atom">  44535.60175172 </i>
    <i name="e_fr_energy">   -120.76551479 </i>
    <i name="e_wo_entrp">   -120.74792012 </i>
    <i name="e_0_energy">   -120.75964990 </i>
   </energy>
  </scstep>
  <structure>
   <crystal>
    <varray name="basis" >
     <v>       5.13359547       0.00000000       0.00000000 </v>
     <v>       2.56679773       4.44582409       0.00000000 </v>
     <v>       0.00000000       0.00000000      29.67047119 </v>
    </varray>
    <i name="volume">    677.17101477 </i>
    <varray name="rec_basis" >
     <v>       0.19479525      -0.11246509       0.00000000 </v>
     <v>       0.00000000       0.22493018       0.00000000 </v>
     <v>       0.00000000       0.00000000       0.03370354 </v>
    </varray>
   </crystal>
   <varray name="positions" >
    <v>      -0.00005030       0.00010060       0.00024846 </v>
    <v>       0.99997614       0.49994670       0.00024267 </v>
    <v>       0.49999187       0.00001627       0.00025262 </v>
    <v>       0.50007716       0.49994670       0.00024267 </v>
    <v>       0.16670680       0.16671115       0.07040189 </v>
    <v>       0.16670659       0.66658683       0.07038909 </v>
    <v>       0.66658204       0.16671115       0.07040189 </v>
    <v>       0.66666805       0.66666390       0.07043570 </v>
    <v>       0.33331498       0.33337003       0.13847221 </v>
    <v>       0.33310173       0.83341282       0.13844012 </v>
    <v>       0.83343069       0.33313862       0.13845097 </v>
    <v>       0.83348544       0.83341282       0.13844012 </v>
    <v>      -0.00004216       0.00008433       0.20672010 </v>
    <v>       0.00011883       0.49989120       0.20666689 </v>
    <v>       0.49994446       0.00011107       0.20669825 </v>
    <v>       0.49998997       0.49989120       0.20666689 </v>
    <v>       0.16656361       0.16687282       0.27486746 </v>
    <v>       0.16677561       0.66644879       0.27488472 </v>
    <v>       0.66656357       0.16687282       0.27486746 </v>
    <v>       0.66676676       0.66646648       0.27496904 </v>
    <v>       0.33329716       0.33340568       0.34331272 </v>
    <v>       0.33282919       0.83349453       0.34319458 </v>
    <v>       0.83351634       0.33296732       0.34324011 </v>
    <v>       0.83367628       0.83349453       0.34319458 </v>
    <v>       0.00005483      -0.00010967       0.41124589 </v>
    <v>       0.99967868       0.50029031       0.41118368 </v>
    <v>       0.50017548      -0.00035097       0.41112606 </v>
    <v>       0.50003101       0.50029031       0.41118368 </v>
    <v>       0.16530622       0.16759768       0.48015225 </v>
    <v>       0.16683700       0.66632600       0.48007965 </v>
    <v>       0.66709610       0.16759768       0.48015225 </v>
    <v>       0.66650510       0.66698981       0.47876674 </v>
    <v>       0.67269800       0.65460400       0.53521425 </v>
    <v>       0.60230126       0.79539748       0.55337328 </v>
   </varray>
  </structure>
  <varray name="forces" >
   <v>      -0.00000000       0.00609053       0.08802976 </v>
   <v>      -0.00340951      -0.00248871       0.08793309 </v>
   <v>      -0.00000000       0.00070706       0.09345610 </v>
   <v>       0.00340951      -0.00248871       0.08793309 </v>
   <v>       0.00361512       0.00290566      -0.05733049 </v>
   <v>      -0.00000000      -0.00403420      -0.06461580 </v>
   <v>      -0.00361512       0.00290566      -0.05733049 </v>
   <v>      -0.00000000      -0.00003148      -0.04481389 </v>
   <v>      -0.00000000       0.00013193      -0.03298830 </v>
   <v>      -0.00659401       0.00343012      -0.03780507 </v>
   <v>      -0.00000000      -0.00527516      -0.03589158 </v>
   <v>       0.00659401       0.00343012      -0.03780507 </v>
   <v>      -0.00000000       0.00294394       0.01221307 </v>
   <v>      -0.00171620      -0.00043005      -0.00596847 </v>
   <v>      -0.00000000      -0.00342122       0.00600749 </v>
   <v>       0.00171620      -0.00043005      -0.00596847 </v>
   <v>       0.00158876       0.01008530      -0.00467269 </v>
   <v>       0.00000000      -0.01243375      -0.00555876 </v>
   <v>      -0.00158876       0.01008530      -0.00467269 </v>
   <v>      -0.00000000      -0.00838045       0.02380696 </v>
   <v>      -0.00000000       0.00159097       0.05027834 </v>
   <v>      -0.02085270       0.00736422       0.01259130 </v>
   <v>      -0.00000000      -0.01230729       0.03624510 </v>
   <v>       0.02085270       0.00736422       0.01259130 </v>
   <v>      -0.00000000      -0.00318359       0.01906309 </v>
   <v>       0.03135194      -0.00678972      -0.06838810 </v>
   <v>      -0.00000000       0.03632814      -0.07296925 </v>
   <v>      -0.03135194      -0.00678972      -0.06838810 </v>
   <v>      -0.04204553       0.05411621      -0.13951365 </v>
   <v>      -0.00000000      -0.02043687      -0.17697506 </v>
   <v>       0.04204553       0.05411621      -0.13951365 </v>
   <v>       0.00000000       0.06211286      -0.25629648 </v>
   <v>      -0.00000000       0.33126127       1.31683725 </v>
   <v>      -0.00000000      -0.50804875      -0.52951991 </v>
  </varray>
  <varray name="stress" >
   <v>     -30.52860106       0.00000000       0.00000000 </v>
   <v>       0.00000000     -31.01689109      -1.50014359 </v>
   <v>       0.00000000      -1.50013802      -6.35109589 </v>
  </varray>
  <energy>
   <i name="e_fr_energy">   -134.82139642 </i>
   <i name="e_wo_entrp">   -134.80380175 </i>
   <i name="e_0_energy">   -134.81553153 </i>
  </energy>
  <time name="totalsc">   28.96   29.22</time>
 </calculation>
 <calculation>
  <scstep>
   <time name="dav">    5.96    6.01</time>
   <time name="total">    6.40    6.46</time>
   <energy>
    <i name="alphaZ">   1114.72537883 </i>
    <i name="ewald"> 217280.85177584 </i>
    <i name="hartreedc">-260815.46458236 </i>
    <i name="XCdc">   1433.88972444 </i>
    <i name="pawpsdc">  42156.37782594 </i>
    <i name="pawaedc"> -45608.74086141 </i>
    <i name="eentropy">     -0.01998211 </i>
    <i name="bandstr">   -218.02909596 </i>
    <i name="atom">  44535.60175172 </i>
    <i name="e_fr_energy">   -120.80806506 </i>
    <i name="e_wo_entrp">   -120.78808295 </i>
    <i name="e_0_energy">   -120.80140436 </i>
   </energy>
  </scstep>
  <scstep>
   <time name="dav">    7.67    7.73</time>
   <time name="total">    8.10    8.17</time>
   <energy>
    <i name="e_fr_energy">   -120.85353490 </i>
    <i name="e_wo_entrp">   -120.83302809 </i>
    <i name="e_0_energy">   -120.84669930 </i>
   </energy>
  </scstep>
  <scstep>
   <time name="dav">    6.55    6.60</time>
   <time name="total">    6.99    7.05</time>
   <energy>
    <i name="e_fr_energy">   -120.85752071 </i>
    <i name="e_wo_entrp">   -120.83728300 </i>
    <i name="e_0_energy">   -120.85077481 </i>
   </energy>
  </scstep>
  <scstep>
   <time name="dav">    6.56    6.62</time>
   <time name="total">    7.00    7.06</time>
   <energy>
    <i name="e_fr_energy">   -120.85703192 </i>
    <i name="e_wo_entrp">   -120.83813547 </i>
    <i name="e_0_energy">   -120.85073310 </i>
   </energy>
  </scstep>
  <scstep>
   <time name="dav">    7.42    7.49</time>
   <time name="total">    7.87    7.93</time>
   <energy>
    <i name="e_fr_energy">   -120.85432150 </i>
    <i name="e_wo_entrp">   -120.83379723 </i>
    <i name="e_0_energy">   -120.84748008 </i>
   </energy>
  </scstep>
  <scstep>
   <time name="dav">    8.89    8.97</time>
   <time name="total">    9.33    9.41</time>
   <energy>
    <i name="e_fr_energy">   -120.85055329 </i>
    <i name="e_wo_entrp">   -120.83132209 </i>
    <i name="e_0_energy">   -120.84414289 </i>
   </energy>
  </scstep>
  <scstep>
   <time name="dav">    6.91    6.96</time>
   <time name="total">    7.35    7.41</time>
   <energy>
    <i name="e_fr_energy">   -120.84960465 </i>
    <i name="e_wo_entrp">   -120.83020762 </i>
    <i name="e_0_energy">   -120.84313898 </i>
   </energy>
  </scstep>
  <scstep>
   <time name="dav">    7.28    7.35</time>
   <time name="total">    7.73    7.79</time>
   <energy>
    <i name="e_fr_energy">   -120.84965456 </i>
    <i name="e_wo_entrp">   -120.82993332 </i>
    <i name="e_0_energy">   -120.84308081 </i>
   </energy>
  </scstep>
  <scstep>
   <time name="dav">    6.04    6.09</time>
   <time name="total">    6.12    6.17</time>
   <energy>
    <i name="alphaZ">   1114.72537883 </i>
    <i name="ewald"> 217280.85177584 </i>
    <i name="hartreedc">-260812.26424482 </i>
    <i name="XCdc">   1433.92388710 </i>
    <i name="pawpsdc">  42172.06527225 </i>
    <i name="pawaedc"> -45624.76857457 </i>
    <i name="eentropy">     -0.01987692 </i>
    <i name="bandstr">   -220.96495626 </i>
    <i name="atom">  44535.60175172 </i>
    <i name="e_fr_energy">   -120.84958683 </i>
    <i name="e_wo_entrp">   -120.82970991 </i>
    <i name="e_0_energy">   -120.84296119 </i>
   </energy>
  </scstep>
  <structure>
   <crystal>
    <varray name="basis" >
     <v>       5.13359547       0.00000000       0.00000000 </v>
     <v>       2.56679773       4.44582409       0.00000000 </v>
     <v>       0.00000000       0.00000000      29.67047119 </v>
    </varray>
    <i name="volume">    677.17101477 </i>
    <varray name="rec_basis" >
     <v>       0.19479525      -0.11246509       0.00000000 </v>
     <v>       0.00000000       0.22493018       0.00000000 </v>
     <v>       0.00000000       0.00000000       0.03370354 </v>
    </varray>
   </crystal>
   <varray name="positions" >
    <v>      -0.00011239       0.00022478       0.00053489 </v>
    <v>       0.99994380       0.49988899       0.00052564 </v>
    <v>       0.49998334       0.00003331       0.00055032 </v>
    <v>       0.50016721       0.49988899       0.00052564 </v>
    <v>       0.16674812       0.16676839       0.07017440 </v>
    <v>       0.16675149       0.66649702       0.07014232 </v>
    <v>       0.66648349       0.16676839       0.07017440 </v>
    <v>       0.66666902       0.66666197       0.07024807 </v>
    <v>       0.33330376       0.33339248       0.13841930 </v>
    <v>       0.33288798       0.83349583       0.13836095 </v>
    <v>       0.83351525       0.33296950       0.13838114 </v>
    <v>       0.83361619       0.83349583       0.13836095 </v>
    <v>      -0.00008239       0.00016478       0.20676633 </v>
    <v>       0.00017294       0.49982423       0.20665288 </v>
    <v>       0.49993138       0.00013723       0.20672181 </v>
    <v>       0.50000283       0.49982423       0.20665288 </v>
    <v>       0.16646453       0.16710109       0.27484770 </v>
    <v>       0.16690593       0.66618813       0.27487340 </v>
    <v>       0.66643438       0.16710109       0.27484770 </v>
    <v>       0.66686986       0.66626027       0.27505408 </v>
    <v>       0.33326776       0.33346449       0.34346009 </v>
    <v>       0.33230293       0.83366731       0.34321259 </v>
    <v>       0.83368837       0.33262326       0.34332292 </v>
    <v>       0.83402976       0.83366731       0.34321259 </v>
    <v>       0.00010362      -0.00020725       0.41138450 </v>
    <v>       0.99982880       0.50038222       0.41114339 </v>
    <v>       0.50007729      -0.00015459       0.41104530 </v>
    <v>       0.49978898       0.50038222       0.41114339 </v>
    <v>       0.16383355       0.16872228       0.47969910 </v>
    <v>       0.16704622       0.66590756       0.47952357 </v>
    <v>       0.66744416       0.16872228       0.47969910 </v>
    <v>       0.66607303       0.66785394       0.47732927 </v>
    <v>       0.67433871       0.65132258       0.53791842 </v>
    <v>       0.60219455       0.79561089       0.55326990 </v>
   </varray>
  </structure>
  <varray name="forces" >
   <v>       0.00000000       0.00095229       0.03858660 </v>
   <v>      -0.00096398       0.00115705       0.03971081 </v>
   <v>       0.00000000      -0.00118667       0.04215292 </v>
   <v>       0.00096398       0.00115705       0.03971081 </v>
   <v>       0.00011580       0.00072835       0.01941218 </v>
   <v>       0.00000000       0.00022006       0.01481807 </v>
   <v>      -0.00011580       0.00072835       0.01941218 </v>
   <v>       0.00000000       0.00027618       0.02434261 </v>
   <v>      -0.00000000      -0.00282780      -0.04881320 </v>
   <v>       0.00347540       0.00096745      -0.04199805 </v>
   <v>       0.00000000       0.00294600      -0.04454255 </v>
   <v>      -0.00347540       0.00096745      -0.04199805 </v>
   <v>      -0.00000000      -0.00224820      -0.00606247 </v>
   <v>      -0.00577082       0.00686297      -0.00941137 </v>
   <v>      -0.00000000      -0.01151234      -0.00525752 </v>
   <v>       0.00577082       0.00686297      -0.00941137 </v>
   <v>       0.00455351      -0.00003197       0.01053358 </v>
   <v>       0.00000000      -0.00333271       0.00133179 </v>
   <v>      -0.00455351      -0.00003197       0.01053358 </v>
   <v>       0.00000000       0.00346243       0.00953034 </v>
   <v>       0.00000000      -0.00496564      -0.00147631 </v>
   <v>       0.00051750       0.00449056       0.00581457 </v>
   <v>       0.00000000       0.00092057       0.01997112 </v>
   <v>      -0.00051750       0.00449056       0.00581457 </v>
   <v>       0.00000000       0.00378294      -0.06571020 </v>
   <v>       0.04870153      -0.02385697      -0.16302814 </v>
   <v>       0.00000000       0.07245212      -0.13918083 </v>
   <v>      -0.04870153      -0.02385697      -0.16302814 </v>
   <v>       0.00545286       0.02382559      -0.08289713 </v>
   <v>      -0.00000000      -0.00227854      -0.09513615 </v>
   <v>      -0.00545286       0.02382559      -0.08289713 </v>
   <v>       0.00000000       0.05658518       0.22433767 </v>
   <v>      -0.00000000      -0.00027205       0.60261983 </v>
   <v>       0.00000000      -0.14125987      -0.12778460 </v>
  </varray>
  <varray name="stress" >
   <v>     -30.41444782       0.00000000       0.00000000 </v>
   <v>       0.00000000     -30.34276248      -0.91677662 </v>
   <v>       0.00000000      -0.91677101      -5.43177962 </v>
  </varray>
  <energy>
   <i name="e_fr_energy">   -134.90763981 </i>
   <i name="e_wo_entrp">   -134.88776289 </i>
   <i name="e_0_energy">   -134.90101417 </i>
  </energy>
  <time name="totalsc">   78.40   79.03</time>
 </calculation>
 <calculation>
  <scstep>
   <time name="dav">    5.94    5.99</time>
   <time name="total">    6.39    6.44</time>
   <energy>
    <i name="alphaZ">   1114.72537883 </i>
    <i name="ewald"> 217571.13374570 </i>
    <i name="hartreedc">-261102.22133097 </i>
    <i name="XCdc">   1433.98827258 </i>
    <i name="pawpsdc">  42172.15111389 </i>
    <i name="pawaedc"> -45624.82629822 </i>
    <i name="eentropy">     -0.02124844 </i>
    <i name="bandstr">   -221.38140011 </i>
    <i name="atom">  44535.60175172 </i>
    <i name="e_fr_energy">   -120.85001502 </i>
    <i name="e_wo_entrp">   -120.82876657 </i>
    <i name="e_0_energy">   -120.84293220 </i>
   </energy>
  </scstep>
  <scstep>
   <time name="dav">    7.91    7.98</time>
   <time name="total">    8.35    8.43</time>
   <energy>
    <i name="e_fr_energy">   -120.86367935 </i>
    <i name="e_wo_entrp">   -120.84240723 </i>
    <i name="e_0_energy">   -120.85658864 </i>
   </energy>
  </scstep>
  <scstep>
   <time name="dav">    6.61    6.67</time>
   <time name="total">    7.05    7.11</time>
   <energy>
    <i name="e_fr_energy">   -120.86481911 </i>
    <i name="e_wo_entrp">   -120.84258582 </i>
    <i name="e_0_energy">   -120.85740802 </i>
   </energy>
  </scstep>
  <scstep>
   <time name="dav">    6.46    6.51</time>
   <time name="total">    6.89    6.95</time>
   <energy>
    <i name="e_fr_energy">   -120.86414189 </i>
    <i name="e_wo_entrp">   -120.84428313 </i>
    <i name="e_0_energy">   -120.85752231 </i>
   </energy>
  </scstep>
  <scstep>
   <time name="dav">    6.43    6.49</time>
   <time name="total">    6.88    6.94</time>
   <energy>
    <i name="e_fr_energy">   -120.86188249 </i>
    <i name="e_wo_entrp">   -120.84066297 </i>
    <i name="e_0_energy">   -120.85480932 </i>
   </energy>
  </scstep>
  <scstep>
   <time name="dav">    7.30    7.37</time>
   <time name="total">    7.74    7.81</time>
   <energy>
    <i name="e_fr_energy">   -120.86205853 </i>
    <i name="e_wo_entrp">   -120.84045030 </i>
    <i name="e_0_energy">   -120.85485578 </i>
   </energy>
  </scstep>
  <scstep>
   <time name="dav">    6.20    6.25</time>
   <time name="total">    6.64    6.70</time>
   <energy>
    <i name="e_fr_energy">   -120.86181637 </i>
    <i name="e_wo_entrp">   -120.84100525 </i>
    <i name="e_0_energy">   -120.85487933 </i>
   </energy>
  </scstep>
  <scstep>
   <time name="dav">    5.70    5.75</time>
   <time name="total">    5.77    5.82</time>
   <energy>
    <i name="alphaZ">   1114.72537883 </i>
    <i name="ewald"> 217571.13374570 </i>
    <i name="hartreedc">-261100.15866555 </i>
    <i name="XCdc">   1434.00327526 </i>
    <i name="pawpsdc">  42182.32716289 </i>
    <i name="pawaedc"> -45635.16802487 </i>
    <i name="eentropy">     -0.02116794 </i>
    <i name="bandstr">   -223.30533859 </i>
    <i name="atom">  44535.60175172 </i>
    <i name="e_fr_energy">   -120.86188254 </i>
    <i name="e_wo_entrp">   -120.84071460 </i>
    <i name="e_0_energy">   -120.85482656 </i>
   </energy>
  </scstep>
  <structure>
   <crystal>
    <varray name="basis" >
     <v>       5.13359547       0.00000000       0.00000000 </v>
     <v>       2.56679773       4.44582409       0.00000000 </v>
     <v>       0.00000000       0.00000000      29.67047119 </v>
    </varray>
    <i name="volume">    677.17101477 </i>
    <varray name="rec_basis" >
     <v>       0.19479525      -0.11246509       0.00000000 </v>
     <v>       0.00000000       0.22493018       0.00000000 </v>
     <v>       0.00000000       0.00000000       0.03370354 </v>
    </varray>
   </crystal>
   <varray name="positions" >
    <v>      -0.00014670       0.00029341       0.00069320 </v>
    <v>       0.99992593       0.49985709       0.00068202 </v>
    <v>       0.49997863       0.00004273       0.00071486 </v>
    <v>       0.50021698       0.49985709       0.00068202 </v>
    <v>       0.16677096       0.16680002       0.07004866 </v>
    <v>       0.16677631       0.66644739       0.07000594 </v>
    <v>       0.66642902       0.16680002       0.07004866 </v>
    <v>       0.66666955       0.66666090       0.07014436 </v>
    <v>       0.33329756       0.33340488       0.13839005 </v>
    <v>       0.33276985       0.83354170       0.13831720 </v>
    <v>       0.83356198       0.33287604       0.13834255 </v>
    <v>       0.83368845       0.83354170       0.13831720 </v>
    <v>      -0.00010462       0.00020925       0.20679189 </v>
    <v>       0.00020284       0.49978722       0.20664513 </v>
    <v>       0.49992415       0.00015169       0.20673483 </v>
    <v>       0.50000994       0.49978722       0.20664513 </v>
    <v>       0.16640977       0.16722725       0.27483679 </v>
    <v>       0.16697797       0.66604407       0.27486715 </v>
    <v>       0.66636298       0.16722725       0.27483679 </v>
    <v>       0.66692685       0.66614631       0.27510109 </v>
    <v>       0.33325151       0.33349699       0.34354153 </v>
    <v>       0.33201207       0.83376280       0.34322254 </v>
    <v>       0.83378345       0.33243311       0.34336870 </v>
    <v>       0.83422513       0.83376280       0.34322254 </v>
    <v>       0.00013059      -0.00026117       0.41146111 </v>
    <v>       0.99991177       0.50043301       0.41112113 </v>
    <v>       0.50002303      -0.00004605       0.41100066 </v>
    <v>       0.49965522       0.50043301       0.41112113 </v>
    <v>       0.16301964       0.16934383       0.47944865 </v>
    <v>       0.16716185       0.66567629       0.47921624 </v>
    <v>       0.66763653       0.16934383       0.47944865 </v>
    <v>       0.66583423       0.66833154       0.47653482 </v>
    <v>       0.67524550       0.64950901       0.53941295 </v>
    <v>       0.60213558       0.79572884       0.55321276 </v>
   </varray>
  </structure>
  <varray name="forces" >
   <v>       0.00000000      -0.00208528       0.00620964 </v>
   <v>       0.00038649       0.00304377       0.00867842 </v>
   <v>       0.00000000      -0.00245602       0.00975444 </v>
   <v>      -0.00038649       0.00304377       0.00867842 </v>
   <v>      -0.00193428      -0.00059731       0.06002199 </v>
   <v>       0.00000000       0.00246813       0.05637929 </v>
   <v>       0.00193428      -0.00059731       0.06002199 </v>
   <v>       0.00000000       0.00022920       0.06090312 </v>
   <v>       0.00000000      -0.00449895      -0.05976617 </v>
   <v>       0.00907444      -0.00062234      -0.04697005 </v>
   <v>       0.00000000       0.00749996      -0.05193716 </v>
   <v>      -0.00907444      -0.00062234      -0.04697005 </v>
   <v>       0.00000000      -0.00520407      -0.01344751 </v>
   <v>      -0.00815272       0.01079844      -0.00940703 </v>
   <v>       0.00000000      -0.01641051      -0.00959776 </v>
   <v>       0.00815272       0.01079844      -0.00940703 </v>
   <v>       0.00617358      -0.00564035       0.02135045 </v>
   <v>       0.00000000       0.00138875       0.00700666 </v>
   <v>      -0.00617358      -0.00564035       0.02135045 </v>
   <v>       0.00000000       0.00968110       0.00442897 </v>
   <v>       0.00000000      -0.00865898      -0.03216790 </v>
   <v>       0.01210450       0.00250373       0.00163293 </v>
   <v>       0.00000000       0.00817417       0.01059512 </v>
   <v>      -0.01210450       0.00250373       0.00163293 </v>
   <v>       0.00000000       0.00759757      -0.11612129 </v>
   <v>       0.06233511      -0.03603952      -0.22388276 </v>
   <v>      -0.00000000       0.09796257      -0.18384728 </v>
   <v>      -0.06233511      -0.03603952      -0.22388276 </v>
   <v>       0.03363256       0.00618452      -0.04371205 </v>
   <v>       0.00000000       0.00749901      -0.04262840 </v>
   <v>      -0.03363256       0.00618452      -0.04371205 </v>
   <v>       0.00000000       0.05590036       0.43204942 </v>
   <v>      -0.00000000      -0.28552032       0.27971739 </v>
   <v>       0.00000000       0.16717145       0.10704564 </v>
  </varray>
  <varray name="stress" >
   <v>     -28.85454651       0.00000000       0.00000000 </v>
   <v>       0.00000000     -28.30805647      -0.56301203 </v>
   <v>       0.00000000      -0.56300629      -3.29875375 </v>
  </varray>
  <energy>
   <i name="e_fr_energy">   -134.92358719 </i>
   <i name="e_wo_entrp">   -134.90241925 </i>
   <i name="e_0_energy">   -134.91653121 </i>
  </energy>
  <time name="totalsc">   67.22   67.80</time>
 </calculation>
 <calculation>
  <scstep>
   <time name="dav">    5.97    6.02</time>
   <time name="total">    6.41    6.47</time>
   <energy>
    <i name="alphaZ">   1114.72537883 </i>
    <i name="ewald"> 217647.53033334 </i>
    <i name="hartreedc">-261176.46217818 </i>
    <i name="XCdc">   1434.01883851 </i>
    <i name="pawpsdc">  42182.51796699 </i>
    <i name="pawaedc"> -45635.35124369 </i>
    <i name="eentropy">     -0.02147418 </i>
    <i name="bandstr">   -223.42032035 </i>
    <i name="atom">  44535.60175172 </i>
    <i name="e_fr_energy">   -120.86094702 </i>
    <i name="e_wo_entrp">   -120.83947284 </i>
    <i name="e_0_energy">   -120.85378896 </i>
   </energy>
  </scstep>
  <scstep>
   <time name="dav">    7.59    7.66</time>
   <time name="total">    8.03    8.10</time>
   <energy>
    <i name="e_fr_energy">   -120.86188334 </i>
    <i name="e_wo_entrp">   -120.84055692 </i>
    <i name="e_0_energy">   -120.85477453 </i>
   </energy>
  </scstep>
  <scstep>
   <time name="dav">    5.68    5.73</time>
   <time name="total">    6.12    6.18</time>
   <energy>
    <i name="e_fr_energy">   -120.86217428 </i>
    <i name="e_wo_entrp">   -120.84047911 </i>
    <i name="e_0_energy">   -120.85494255 </i>
   </energy>
  </scstep>
  <scstep>
   <time name="dav">    4.33    4.37</time>
   <time name="total">    4.77    4.81</time>
   <energy>
    <i name="e_fr_energy">   -120.86191650 </i>
    <i name="e_wo_entrp">   -120.84062371 </i>
    <i name="e_0_energy">   -120.85481890 </i>
   </energy>
  </scstep>
  <scstep>
   <time name="dav">    4.32    4.36</time>
   <time name="total">    4.39    4.43</time>
   <energy>
    <i name="alphaZ">   1114.72537883 </i>
    <i name="ewald"> 217647.53033334 </i>
    <i name="hartreedc">-261175.59229010 </i>
    <i name="XCdc">   1434.01911813 </i>
    <i name="pawpsdc">  42184.46164858 </i>
    <i name="pawaedc"> -45637.31163145 </i>
    <i name="eentropy">     -0.02159829 </i>
    <i name="bandstr">   -224.27462626 </i>
    <i name="atom">  44535.60175172 </i>
    <i name="e_fr_energy">   -120.86191550 </i>
    <i name="e_wo_entrp">   -120.84031722 </i>
    <i name="e_0_energy">   -120.85471608 </i>
   </energy>
  </scstep>
  <structure>
   <crystal>
    <varray name="basis" >
     <v>       5.13359547       0.00000000       0.00000000 </v>
     <v>       2.56679773       4.44582409       0.00000000 </v>
     <v>       0.00000000       0.00000000      29.67047119 </v>
    </varray>
    <i name="volume">    677.17101477 </i>
    <varray name="rec_basis" >
     <v>       0.19479525      -0.11246509       0.00000000 </v>
     <v>       0.00000000       0.22493018       0.00000000 </v>
     <v>       0.00000000       0.00000000       0.03370354 </v>
    </varray>
   </crystal>
   <varray name="positions" >
    <v>      -0.00015572       0.00031144       0.00073479 </v>
    <v>       0.99992123       0.49984871       0.00072311 </v>
    <v>       0.49997740       0.00004521       0.00075808 </v>
    <v>       0.50023006       0.49984871       0.00072311 </v>
    <v>       0.16677696       0.16680833       0.07001563 </v>
    <v>       0.16678283       0.66643435       0.06997011 </v>
    <v>       0.66641471       0.16680833       0.07001563 </v>
    <v>       0.66666969       0.66666062       0.07011712 </v>
    <v>       0.33329593       0.33340814       0.13838237 </v>
    <v>       0.33273881       0.83355375       0.13830571 </v>
    <v>       0.83357426       0.33285148       0.13833241 </v>
    <v>       0.83370744       0.83355375       0.13830571 </v>
    <v>      -0.00011046       0.00022093       0.20679860 </v>
    <v>       0.00021070       0.49977750       0.20664310 </v>
    <v>       0.49992226       0.00015549       0.20673825 </v>
    <v>       0.50001181       0.49977750       0.20664310 </v>
    <v>       0.16639539       0.16726039       0.27483392 </v>
    <v>       0.16699689       0.66600623       0.27486550 </v>
    <v>       0.66634422       0.16726039       0.27483392 </v>
    <v>       0.66694182       0.66611637       0.27511344 </v>
    <v>       0.33324724       0.33350552       0.34356293 </v>
    <v>       0.33193566       0.83378789       0.34322515 </v>
    <v>       0.83380842       0.33238316       0.34338072 </v>
    <v>       0.83427645       0.83378789       0.34322515 </v>
    <v>       0.00013767      -0.00027534       0.41148123 </v>
    <v>       0.99993357       0.50044636       0.41111528 </v>
    <v>       0.50000877      -0.00001754       0.41098894 </v>
    <v>       0.49962008       0.50044636       0.41111528 </v>
    <v>       0.16280584       0.16950710       0.47938286 </v>
    <v>       0.16719223       0.66561554       0.47913550 </v>
    <v>       0.66768706       0.16950710       0.47938286 </v>
    <v>       0.66577150       0.66845700       0.47632612 </v>
    <v>       0.67548370       0.64903260       0.53980555 </v>
    <v>       0.60212009       0.79575982       0.55319775 </v>
   </varray>
  </structure>
  <varray name="forces" >
   <v>      -0.00000000      -0.00316560      -0.00704953 </v>
   <v>       0.00079513       0.00357278      -0.00411086 </v>
   <v>       0.00000000      -0.00299283      -0.00358356 </v>
   <v>      -0.00079513       0.00357278      -0.00411086 </v>
   <v>      -0.00252100      -0.00101939       0.07227187 </v>
   <v>       0.00000000       0.00301575       0.06892188 </v>
   <v>       0.00252100      -0.00101939       0.07227187 </v>
   <v>      -0.00000000       0.00011959       0.07163572 </v>
   <v>      -0.00000000      -0.00513755      -0.06278410 </v>
   <v>       0.01073841      -0.00119167      -0.04822849 </v>
   <v>      -0.00000000       0.00881087      -0.05385326 </v>
   <v>      -0.01073841      -0.00119167      -0.04822849 </v>
   <v>      -0.00000000      -0.00615071      -0.01907503 </v>
   <v>      -0.00887215       0.01191427      -0.01294121 </v>
   <v>      -0.00000000      -0.01791863      -0.01426694 </v>
   <v>       0.00887215       0.01191427      -0.01294121 </v>
   <v>       0.00664676      -0.00726551       0.02141798 </v>
   <v>       0.00000000       0.00254908       0.00568388 </v>
   <v>      -0.00664676      -0.00726551       0.02141798 </v>
   <v>      -0.00000000       0.01139200      -0.00000104 </v>
   <v>      -0.00000000      -0.00985429      -0.03880618 </v>
   <v>       0.01553258       0.00181103       0.00217014 </v>
   <v>      -0.00000000       0.01038664       0.00999704 </v>
   <v>      -0.01553258       0.00181103       0.00217014 </v>
   <v>      -0.00000000       0.00877118      -0.13111180 </v>
   <v>       0.06639781      -0.04000346      -0.24159212 </v>
   <v>      -0.00000000       0.10560397      -0.19626829 </v>
   <v>      -0.06639781      -0.04000346      -0.24159212 </v>
   <v>       0.04242684       0.00015110      -0.02864232 </v>
   <v>      -0.00000000       0.01032761      -0.02241676 </v>
   <v>      -0.04242684       0.00015110      -0.02864232 </v>
   <v>       0.00000000       0.05506767       0.49516713 </v>
[...]
       <r>    11.0844     7.4123   223.4886 </r>
       <r>    11.1643     6.8868   224.0384 </r>
       <r>    11.2441     8.7020   224.7330 </r>
       <r>    11.3239    11.8930   225.6824 </r>
       <r>    11.4037    12.8254   226.7061 </r>
       <r>    11.4836    10.0395   227.5075 </r>
       <r>    11.5634     6.3416   228.0138 </r>
       <r>    11.6432     4.8595   228.4017 </r>
       <r>    11.7230     5.6298   228.8511 </r>
       <r>    11.8029     6.9047   229.4022 </r>
       <r>    11.8827     7.1270   229.9711 </r>
       <r>    11.9625     5.5989   230.4181 </r>
       <r>    12.0423     3.1026   230.6657 </r>
       <r>    12.1222     1.2716   230.7672 </r>
       <r>    12.2020     0.7385   230.8262 </r>
       <r>    12.2818     0.8735   230.8959 </r>
       <r>    12.3616     1.0507   230.9798 </r>
       <r>    12.4415     1.1860   231.0745 </r>
       <r>    12.5213     1.4021   231.1864 </r>
       <r>    12.6011     1.6986   231.3220 </r>
       <r>    12.6809     1.9641   231.4788 </r>
       <r>    12.7608     2.1516   231.6505 </r>
       <r>    12.8406     2.1143   231.8193 </r>
       <r>    12.9204     1.5964   231.9467 </r>
       <r>    13.0002     0.7565   232.0071 </r>
       <r>    13.0801     0.1191   232.0166 </r>
       <r>    13.1599    -0.0957   232.0090 </r>
       <r>    13.2397    -0.0768   232.0028 </r>
       <r>    13.3195    -0.0281   232.0006 </r>
       <r>    13.3994    -0.0064   232.0001 </r>
       <r>    13.4792    -0.0010   232.0000 </r>
       <r>    13.5590    -0.0001   232.0000 </r>
       <r>    13.6388    -0.0000   232.0000 </r>
       <r>    13.7187    -0.0000   232.0000 </r>
       <r>    13.7985    -0.0000   232.0000 </r>
       <r>    13.8783    -0.0000   232.0000 </r>
       <r>    13.9581    -0.0000   232.0000 </r>
       <r>    14.0380    -0.0000   232.0000 </r>
       <r>    14.1178    -0.0000   232.0000 </r>
       <r>    14.1976     0.0000   232.0000 </r>
       <r>    14.2774     0.0000   232.0000 </r>
       <r>    14.3573     0.0000   232.0000 </r>
       <r>    14.4371     0.0000   232.0000 </r>
       <r>    14.5169     0.0000   232.0000 </r>
       <r>    14.5967     0.0000   232.0000 </r>
       <r>    14.6766     0.0000   232.0000 </r>
       <r>    14.7564     0.0000   232.0000 </r>
       <r>    14.8362     0.0000   232.0000 </r>
      </set>
      <set comment="spin 2">
       <r>    -9.1113     0.0000     0.0000 </r>
       <r>    -9.0314     0.0000     0.0000 </r>
       <r>    -8.9516     0.0000     0.0000 </r>
       <r>    -8.8718     0.0000     0.0000 </r>
       <r>    -8.7920     0.0000     0.0000 </r>
       <r>    -8.7121    -0.0000    -0.0000 </r>
       <r>    -8.6323    -0.0000    -0.0000 </r>
       <r>    -8.5525    -0.0000    -0.0000 </r>
       <r>    -8.4727    -0.0000    -0.0000 </r>
       <r>    -8.3928    -0.0000    -0.0000 </r>
       <r>    -8.3130    -0.0000    -0.0000 </r>
       <r>    -8.2332    -0.0000    -0.0000 </r>
       <r>    -8.1534    -0.0000    -0.0000 </r>
       <r>    -8.0735    -0.0000    -0.0000 </r>
       <r>    -7.9937    -0.0000    -0.0000 </r>
       <r>    -7.9139    -0.0000    -0.0000 </r>
       <r>    -7.8341    -0.0000    -0.0000 </r>
       <r>    -7.7542    -0.0000    -0.0000 </r>
       <r>    -7.6744    -0.0003    -0.0000 </r>
       <r>    -7.5946    -0.0020    -0.0002 </r>
       <r>    -7.5148    -0.0082    -0.0008 </r>
       <r>    -7.4349    -0.0204    -0.0025 </r>
       <r>    -7.3551    -0.0185    -0.0039 </r>
       <r>    -7.2753     0.0560     0.0005 </r>
       <r>    -7.1955     0.2365     0.0194 </r>
       <r>    -7.1156     0.4166     0.0527 </r>
       <r>    -7.0358     0.4166     0.0859 </r>
       <r>    -6.9560     0.2437     0.1054 </r>
       <r>    -6.8762     0.1274     0.1155 </r>
       <r>    -6.7963     0.2211     0.1332 </r>
       <r>    -6.7165     0.3892     0.1643 </r>
       <r>    -6.6367     0.3720     0.1939 </r>
       <r>    -6.5569     0.1282     0.2042 </r>
       <r>    -6.4770    -0.0301     0.2018 </r>
       <r>    -6.3972     0.3821     0.2323 </r>
       <r>    -6.3174     1.5047     0.3524 </r>
       <r>    -6.2376     2.6025     0.5601 </r>
       <r>    -6.1577     2.6620     0.7726 </r>
       <r>    -6.0779     1.8308     0.9188 </r>
       <r>    -5.9981     1.3817     1.0291 </r>
       <r>    -5.9183     1.9573     1.1853 </r>
       <r>    -5.8384     2.6537     1.3971 </r>
       <r>    -5.7586     2.3148     1.5819 </r>
       <r>    -5.6788     1.1173     1.6711 </r>
       <r>    -5.5990     0.0763     1.6772 </r>
       <r>    -5.5191    -0.3004     1.6532 </r>
       <r>    -5.4393     0.0334     1.6559 </r>
       <r>    -5.3595     1.1564     1.7482 </r>
       <r>    -5.2797     2.6216     1.9575 </r>
       <r>    -5.1998     3.2006     2.2130 </r>
       <r>    -5.1200     2.2942     2.3961 </r>
       <r>    -5.0402     0.8101     2.4608 </r>
       <r>    -4.9604    -0.1330     2.4501 </r>
       <r>    -4.8805    -0.2832     2.4275 </r>
       <r>    -4.8007     0.2688     2.4490 </r>
       <r>    -4.7209     1.4183     2.5622 </r>
       <r>    -4.6411     2.6619     2.7747 </r>
       <r>    -4.5612     3.5037     3.0544 </r>
       <r>    -4.4814     4.1525     3.3859 </r>
       <r>    -4.4016     4.7688     3.7665 </r>
       <r>    -4.3218     4.6698     4.1393 </r>
       <r>    -4.2419     3.4243     4.4126 </r>
       <r>    -4.1621     2.0086     4.5730 </r>
       <r>    -4.0823     1.7047     4.7090 </r>
       <r>    -4.0025     2.4807     4.9071 </r>
       <r>    -3.9226     3.6934     5.2019 </r>
       <r>    -3.8428     5.2985     5.6248 </r>
       <r>    -3.7630     6.9614     6.1805 </r>
       <r>    -3.6832     7.5743     6.7851 </r>
       <r>    -3.6033     6.8863     7.3348 </r>
       <r>    -3.5235     5.9813     7.8123 </r>
       <r>    -3.4437     5.5384     8.2544 </r>
       <r>    -3.3639     5.1346     8.6643 </r>
       <r>    -3.2840     4.3971     9.0153 </r>
       <r>    -3.2042     3.5235     9.2965 </r>
       <r>    -3.1244     2.9100     9.5288 </r>
       <r>    -3.0446     3.1516     9.7804 </r>
       <r>    -2.9647     4.5127    10.1406 </r>
       <r>    -2.8849     6.2554    10.6400 </r>
       <r>    -2.8051     7.9892    11.2777 </r>
       <r>    -2.7253    10.7956    12.1395 </r>
       <r>    -2.6454    15.3969    13.3685 </r>
       <r>    -2.5656    20.7111    15.0218 </r>
       <r>    -2.4858    24.8875    17.0084 </r>
       <r>    -2.4060    26.1631    19.0969 </r>
       <r>    -2.3261    23.7773    20.9949 </r>
       <r>    -2.2463    19.7486    22.5713 </r>
       <r>    -2.1665    17.9682    24.0056 </r>
       <r>    -2.0867    20.5282    25.6443 </r>
       <r>    -2.0068    26.3876    27.7507 </r>
       <r>    -1.9270    32.9194    30.3785 </r>
       <r>    -1.8472    37.3409    33.3592 </r>
       <r>    -1.7674    38.2706    36.4142 </r>
       <r>    -1.6875    36.2581    39.3085 </r>
       <r>    -1.6077    32.6099    41.9115 </r>
       <r>    -1.5279    29.3115    44.2513 </r>
       <r>    -1.4481    28.2160    46.5037 </r>
       <r>    -1.3682    29.6964    48.8742 </r>
       <r>    -1.2884    33.9415    51.5835 </r>
       <r>    -1.2086    40.7286    54.8347 </r>
       <r>    -1.1288    46.9718    58.5842 </r>
       <r>    -1.0489    49.2364    62.5145 </r>
       <r>    -0.9691    49.6354    66.4766 </r>
       <r>    -0.8893    53.4408    70.7425 </r>
       <r>    -0.8095    60.1139    75.5411 </r>
       <r>    -0.7296    63.9076    80.6425 </r>
       <r>    -0.6498    62.7293    85.6499 </r>
       <r>    -0.5700    59.5349    90.4023 </r>
       <r>    -0.4902    56.9631    94.9493 </r>
       <r>    -0.4103    55.3951    99.3713 </r>
       <r>    -0.3305    54.6969   103.7374 </r>
       <r>    -0.2507    54.2072   108.0645 </r>
       <r>    -0.1709    52.5305   112.2578 </r>
       <r>    -0.0910    50.2453   116.2686 </r>
       <r>    -0.0112    49.1486   120.1919 </r>
       <r>     0.0686    49.6416   124.1545 </r>
       <r>     0.1484    53.3048   128.4095 </r>
       <r>     0.2283    61.7279   133.3370 </r>
       <r>     0.3081    70.6485   138.9765 </r>
       <r>     0.3879    74.2783   144.9057 </r>
       <r>     0.4677    74.0055   150.8132 </r>
       <r>     0.5476    73.9288   156.7146 </r>
       <r>     0.6274    70.8387   162.3692 </r>
       <r>     0.7072    57.4413   166.9545 </r>
       <r>     0.7870    34.5789   169.7147 </r>
       <r>     0.8669    12.7611   170.7334 </r>
       <r>     0.9467     0.8752   170.8033 </r>
       <r>     1.0265    -1.2977   170.6997 </r>
       <r>     1.1063     0.6677   170.7530 </r>
       <r>     1.1862     2.4510   170.9486 </r>
       <r>     1.2660     3.2226   171.2059 </r>
       <r>     1.3458     3.9010   171.5173 </r>
       <r>     1.4256     4.7862   171.8993 </r>
       <r>     1.5055     5.0188   172.2999 </r>
       <r>     1.5853     3.8466   172.6070 </r>
       <r>     1.6651     2.1558   172.7791 </r>
       <r>     1.7449     2.1580   172.9513 </r>
       <r>     1.8248     4.9872   173.3494 </r>
       <r>     1.9046     9.0943   174.0754 </r>
       <r>     1.9844    11.5992   175.0013 </r>
       <r>     2.0642    11.2724   175.9011 </r>
       <r>     2.1441     9.7735   176.6813 </r>
       <r>     2.2239     9.0139   177.4008 </r>
       <r>     2.3037     8.1266   178.0495 </r>
       <r>     2.3835     5.5559   178.4930 </r>
       <r>     2.4634     2.6710   178.7062 </r>
       <r>     2.5432     2.0341   178.8686 </r>
       <r>     2.6230     3.7688   179.1694 </r>
       <r>     2.7028     5.9559   179.6449 </r>
       <r>     2.7827     6.8971   180.1954 </r>
       <r>     2.8625     6.0727   180.6802 </r>
       <r>     2.9423     4.5243   181.0413 </r>
       <r>     3.0221     3.8103   181.3455 </r>
       <r>     3.1020     3.7505   181.6449 </r>
       <r>     3.1818     3.1375   181.8953 </r>
       <r>     3.2616     2.2779   182.0772 </r>
       <r>     3.3414     2.4982   182.2766 </r>
       <r>     3.4213     4.1969   182.6116 </r>
       <r>     3.5011     6.7709   183.1521 </r>
       <r>     3.5809     9.2014   183.8866 </r>
       <r>     3.6607    10.1600   184.6976 </r>
       <r>     3.7406     8.7962   185.3998 </r>
       <r>     3.8204     5.9534   185.8750 </r>
       <r>     3.9002     3.6437   186.1658 </r>
       <r>     3.9800     2.7403   186.3846 </r>
       <r>     4.0599     2.2395   186.5634 </r>
       <r>     4.1397     1.2695   186.6647 </r>
       <r>     4.2195     0.2282   186.6829 </r>
       <r>     4.2993    -0.3525   186.6548 </r>
       <r>     4.3791    -0.3877   186.6238 </r>
       <r>     4.4590     0.4550   186.6601 </r>
       <r>     4.5388     2.5390   186.8628 </r>
       <r>     4.6186     4.9081   187.2546 </r>
       <r>     4.6984     5.7466   187.7133 </r>
       <r>     4.7783     4.8196   188.0981 </r>
       <r>     4.8581     3.4754   188.3755 </r>
       <r>     4.9379     2.3398   188.5622 </r>
       <r>     5.0177     1.1768   188.6562 </r>
       <r>     5.0976     0.1320   188.6667 </r>
       <r>     5.1774    -0.3483   188.6389 </r>
       <r>     5.2572     0.1183   188.6484 </r>
       <r>     5.3370     1.7950   188.7916 </r>
       <r>     5.4169     4.1804   189.1253 </r>
       <r>     5.4967     5.9331   189.5990 </r>
       <r>     5.5765     6.5163   190.1191 </r>
       <r>     5.6563     6.8885   190.6690 </r>
       <r>     5.7362     7.4869   191.2666 </r>
       <r>     5.8160     7.3123   191.8503 </r>
       <r>     5.8958     5.9152   192.3225 </r>
       <r>     5.9756     4.1499   192.6538 </r>
       <r>     6.0555     2.7221   192.8711 </r>
       <r>     6.1353     1.7759   193.0128 </r>
       <r>     6.2151     1.8226   193.1583 </r>
       <r>     6.2949     3.6644   193.4508 </r>
       <r>     6.3748     6.5977   193.9775 </r>
       <r>     6.4546     8.1774   194.6303 </r>
       <r>     6.5344     7.2901   195.2122 </r>
       <r>     6.6142     5.3466   195.6390 </r>
       <r>     6.6941     3.7185   195.9358 </r>
       <r>     6.7739     2.8753   196.1653 </r>
       <r>     6.8537     3.3705   196.4344 </r>
       <r>     6.9335     4.9243   196.8275 </r>
       <r>     7.0134     6.1637   197.3195 </r>
       <r>     7.0932     6.7258   197.8564 </r>
       <r>     7.1730     7.3066   198.4396 </r>
       <r>     7.2528     7.8991   199.0702 </r>
       <r>     7.3327     8.2229   199.7266 </r>
       <r>     7.4125     8.2470   200.3849 </r>
       <r>     7.4923     7.3157   200.9688 </r>
       <r>     7.5721     5.1133   201.3770 </r>
       <r>     7.6520     3.0498   201.6205 </r>
       <r>     7.7318     2.7878   201.8430 </r>
       <r>     7.8116     4.4008   202.1943 </r>
       <r>     7.8914     6.6673   202.7265 </r>
       <r>     7.9713     8.2140   203.3822 </r>
       <r>     8.0511     8.1383   204.0318 </r>
       <r>     8.1309     6.4897   204.5499 </r>
       <r>     8.2107     4.4515   204.9052 </r>
       <r>     8.2906     3.2979   205.1685 </r>
       <r>     8.3704     3.6491   205.4598 </r>
       <r>     8.4502     5.7869   205.9217 </r>
       <r>     8.5300     9.0098   206.6409 </r>
       <r>     8.6099    10.9325   207.5136 </r>
       <r>     8.6897     9.4893   208.2711 </r>
       <r>     8.7695     5.6927   208.7255 </r>
       <r>     8.8493     2.8208   208.9507 </r>
       <r>     8.9292     2.7950   209.1738 </r>
       <r>     9.0090     4.3966   209.5247 </r>
       <r>     9.0888     5.1717   209.9376 </r>
       <r>     9.1686     4.5587   210.3015 </r>
       <r>     9.2485     4.3088   210.6454 </r>
       <r>     9.3283     5.7383   211.1035 </r>
       <r>     9.4081     7.9333   211.7367 </r>
       <r>     9.4879     8.9250   212.4492 </r>
       <r>     9.5678     7.7342   213.0666 </r>
       <r>     9.6476     5.4522   213.5018 </r>
       <r>     9.7274     4.2101   213.8379 </r>
       <r>     9.8072     4.7715   214.2187 </r>
       <r>     9.8871     6.1278   214.7079 </r>
       <r>     9.9669     7.3966   215.2983 </r>
       <r>    10.0467     8.4520   215.9730 </r>
       <r>    10.1265     8.7273   216.6697 </r>
       <r>    10.2064     7.4840   217.2671 </r>
       <r>    10.2862     5.5064   217.7066 </r>
       <r>    10.3660     4.5310   218.0683 </r>
       <r>    10.4458     5.1238   218.4773 </r>
       <r>    10.5257     6.5381   218.9992 </r>
       <r>    10.6055     7.9226   219.6316 </r>
       <r>    10.6853     8.6504   220.3221 </r>
       <r>    10.7651     8.3742   220.9906 </r>
       <r>    10.8450     7.7842   221.6120 </r>
       <r>    10.9248     7.9241   222.2445 </r>
       <r>    11.0046     8.1733   222.8969 </r>
       <r>    11.0844     7.4123   223.4886 </r>
       <r>    11.1643     6.8868   224.0384 </r>
       <r>    11.2441     8.7020   224.7330 </r>
       <r>    11.3239    11.8930   225.6824 </r>
       <r>    11.4037    12.8254   226.7061 </r>
       <r>    11.4836    10.0395   227.5075 </r>
       <r>    11.5634     6.3416   228.0138 </r>
       <r>    11.6432     4.8595   228.4017 </r>
       <r>    11.7230     5.6298   228.8511 </r>
       <r>    11.8029     6.9047   229.4022 </r>
       <r>    11.8827     7.1270   229.9711 </r>
       <r>    11.9625     5.5989   230.4181 </r>
       <r>    12.0423     3.1026   230.6657 </r>
       <r>    12.1222     1.2716   230.7672 </r>
       <r>    12.2020     0.7385   230.8262 </r>
       <r>    12.2818     0.8735   230.8959 </r>
       <r>    12.3616     1.0507   230.9798 </r>
       <r>    12.4415     1.1860   231.0745 </r>
       <r>    12.5213     1.4021   231.1864 </r>
       <r>    12.6011     1.6986   231.3220 </r>
       <r>    12.6809     1.9641   231.4788 </r>
       <r>    12.7608     2.1516   231.6505 </r>
       <r>    12.8406     2.1143   231.8193 </r>
       <r>    12.9204     1.5964   231.9467 </r>
       <r>    13.0002     0.7565   232.0071 </r>
       <r>    13.0801     0.1191   232.0166 </r>
       <r>    13.1599    -0.0957   232.0090 </r>
       <r>    13.2397    -0.0768   232.0028 </r>
       <r>    13.3195    -0.0281   232.0006 </r>
       <r>    13.3994    -0.0064   232.0001 </r>
       <r>    13.4792    -0.0010   232.0000 </r>
       <r>    13.5590    -0.0001   232.0000 </r>
       <r>    13.6388    -0.0000   232.0000 </r>
       <r>    13.7187    -0.0000   232.0000 </r>
       <r>    13.7985    -0.0000   232.0000 </r>
       <r>    13.8783    -0.0000   232.0000 </r>
       <r>    13.9581    -0.0000   232.0000 </r>
       <r>    14.0380    -0.0000   232.0000 </r>
       <r>    14.1178    -0.0000   232.0000 </r>
       <r>    14.1976     0.0000   232.0000 </r>
       <r>    14.2774     0.0000   232.0000 </r>
       <r>    14.3573     0.0000   232.0000 </r>
       <r>    14.4371     0.0000   232.0000 </r>
       <r>    14.5169     0.0000   232.0000 </r>
       <r>    14.5967     0.0000   232.0000 </r>
       <r>    14.6766     0.0000   232.0000 </r>
       <r>    14.7564     0.0000   232.0000 </r>
       <r>    14.8362     0.0000   232.0000 </r>
      </set>
     </set>
    </array>
   </total>
  </dos>
 </calculation>
 <structure name="finalpos" >
  <crystal>
   <varray name="basis" >
    <v>       5.13359547       0.00000000       0.00000000 </v>
    <v>       2.56679773       4.44582409       0.00000000 </v>
    <v>       0.00000000       0.00000000      29.67047119 </v>
   </varray>
   <i name="volume">    677.17101477 </i>
   <varray name="rec_basis" >
    <v>       0.19479525      -0.11246509       0.00000000 </v>
    <v>       0.00000000       0.22493018       0.00000000 </v>
    <v>       0.00000000       0.00000000       0.03370354 </v>
   </varray>
  </crystal>
  <varray name="positions" >
   <v>      -0.00156777       0.00313554      -0.00096955 </v>
   <v>       0.99839494       0.50320763      -0.00111683 </v>
   <v>       0.49841365       0.00317269      -0.00110891 </v>
   <v>       0.49839743       0.50320763      -0.00111683 </v>
   <v>       0.16545890       0.16917955       0.06815204 </v>
   <v>       0.16543997       0.66912005       0.06816512 </v>
   <v>       0.66536155       0.16917955       0.06815204 </v>
   <v>       0.66542291       0.66915418       0.06817849 </v>
   <v>       0.33204892       0.33590216       0.13599290 </v>
   <v>       0.33205185       0.83591380       0.13600098 </v>
   <v>       0.83204997       0.33590006       0.13599575 </v>
   <v>       0.83203434       0.83591380       0.13600098 </v>
   <v>      -0.00136264       0.00272528       0.20432232 </v>
   <v>      -0.00130367       0.50267422       0.20424719 </v>
   <v>       0.49865186       0.00269628       0.20424691 </v>
   <v>       0.49862944       0.50267422       0.20424719 </v>
   <v>       0.16569821       0.16890467       0.27254792 </v>
   <v>       0.16559626       0.66880747       0.27255101 </v>
   <v>       0.66539711       0.16890467       0.27254792 </v>
   <v>       0.66558601       0.66882798       0.27250143 </v>
   <v>       0.33228275       0.33543450       0.34102020 </v>
   <v>       0.33243106       0.83533030       0.34088411 </v>
   <v>       0.83233517       0.33532965       0.34087244 </v>
   <v>       0.83223865       0.83533030       0.34088411 </v>
   <v>      -0.00101899       0.00203798       0.40862036 </v>
   <v>      -0.00143793       0.50224229       0.40878840 </v>
   <v>       0.49907729       0.00184542       0.40875541 </v>
   <v>       0.49919564       0.50224229       0.40878840 </v>
   <v>       0.16610088       0.16784845       0.47796844 </v>
   <v>       0.16589446       0.66821109       0.47798808 </v>
   <v>       0.66605067       0.16784845       0.47796844 </v>
   <v>       0.66601487       0.66797027       0.47815922 </v>
   <v>       0.68510552       0.62978897       0.58808749 </v>
   <v>       0.62600520       0.74798960       0.56985574 </v>
  </varray>
 </structure>
</modeling>
