unknown system                          
           1
     5.133595    0.000000    0.000000
     2.566798    4.445824    0.000000
     0.000000    0.000000   29.670471
   Cu   H 
    32     2
Direct configuration=     1
   0.00000000  0.00000000  0.00000000
   1.00000000  0.50000000  0.00000000
   0.50000000  0.00000000  0.00000000
   0.50000000  0.50000000  0.00000000
   0.16666667  0.16666667  0.07063526
   0.16666667  0.66666667  0.07063526
   0.66666667  0.16666667  0.07063526
   0.66666667  0.66666667  0.07063526
   0.33333333  0.33333333  0.13847021
   0.33333333  0.83333333  0.13847021
   0.83333333  0.33333333  0.13847021
   0.83333333  0.83333333  0.13847021
   0.00000000  0.00000000  0.20667428
   1.00000000  0.50000000  0.20667428
   0.50000000  0.00000000  0.20667428
   0.50000000  0.50000000  0.20667428
   0.16666667  0.16666667  0.27488859
   0.16666667  0.66666667  0.27488859
   0.66666667  0.16666667  0.27488859
   0.66666667  0.66666667  0.27488859
   0.33333333  0.33333333  0.34319917
   0.33333333  0.83333333  0.34319917
   0.83333333  0.33333333  0.34319917
   0.83333333  0.83333333  0.34319917
   0.00000000  0.00000000  0.41105828
   1.00000000  0.50000000  0.41105828
   0.50000000  0.00000000  0.41105828
   0.50000000  0.50000000  0.41105828
   0.16666667  0.16666667  0.48054462
   0.16666667  0.66666667  0.48054462
   0.66666667  0.16666667  0.48054462
   0.66666667  0.66666667  0.48054462
   0.66666667  0.66666667  0.53425930
   0.60734115  0.78531771  0.55203798
Direct configuration=     2
  -0.00004843  0.00009687  0.00023923
   0.99997702  0.49994868  0.00023366
   0.49999217  0.00001567  0.00024323
   0.50007429  0.49994868  0.00023366
   0.16670531  0.16670950  0.07041056
   0.16670510  0.66658979  0.07039823
   0.66658518  0.16670950  0.07041056
   0.66666800  0.66666400  0.07044312
   0.33331567  0.33336867  0.13847213
   0.33311033  0.83340987  0.13844124
   0.83342707  0.33314585  0.13845168
   0.83347980  0.83340987  0.13844124
  -0.00004060  0.00008119  0.20671840
   0.00011442  0.49989524  0.20666716
   0.49994653  0.00010695  0.20669736
   0.49999034  0.49989524  0.20666716
   0.16656744  0.16686516  0.27486824
   0.16677156  0.66645688  0.27488487
   0.66656740  0.16686516  0.27486824
   0.66676304  0.66647392  0.27496605
   0.33329850  0.33340300  0.34330850
   0.33284792  0.83348854  0.34319475
   0.83350954  0.33298091  0.34323859
   0.83366354  0.83348854  0.34319475
   0.00005280 -0.00010559  0.41123892
   0.99969061  0.50027953  0.41117902
   0.50016897 -0.00033793  0.41112355
   0.50002986  0.50027953  0.41117902
   0.16535674  0.16756311  0.48016682
   0.16683067  0.66633865  0.48009692
   0.66708015  0.16756311  0.48016682
   0.66651110  0.66697780  0.47883276
   0.67247402  0.65505196  0.53517879
   0.60248842  0.79502316  0.55332370
Direct configuration=     3
  -0.00005030  0.00010060  0.00024846
   0.99997614  0.49994670  0.00024267
   0.49999187  0.00001627  0.00025262
   0.50007716  0.49994670  0.00024267
   0.16670680  0.16671115  0.07040189
   0.16670659  0.66658683  0.07038909
   0.66658204  0.16671115  0.07040189
   0.66666805  0.66666390  0.07043570
   0.33331498  0.33337003  0.13847221
   0.33310173  0.83341282  0.13844012
   0.83343069  0.33313862  0.13845097
   0.83348544  0.83341282  0.13844012
  -0.00004216  0.00008433  0.20672010
   0.00011883  0.49989120  0.20666689
   0.49994446  0.00011107  0.20669825
   0.49998997  0.49989120  0.20666689
   0.16656361  0.16687282  0.27486746
   0.16677561  0.66644879  0.27488472
   0.66656357  0.16687282  0.27486746
   0.66676676  0.66646648  0.27496904
   0.33329716  0.33340568  0.34331272
   0.33282919  0.83349453  0.34319458
   0.83351634  0.33296732  0.34324011
   0.83367628  0.83349453  0.34319458
   0.00005483 -0.00010967  0.41124589
   0.99967868  0.50029031  0.41118368
   0.50017548 -0.00035097  0.41112606
   0.50003101  0.50029031  0.41118368
   0.16530622  0.16759768  0.48015225
   0.16683700  0.66632600  0.48007965
   0.66709610  0.16759768  0.48015225
   0.66650510  0.66698981  0.47876674
   0.67269800  0.65460400  0.53521425
   0.60230126  0.79539748  0.55337328
Direct configuration=     4
  -0.00011239  0.00022478  0.00053489
   0.99994380  0.49988899  0.00052564
   0.49998334  0.00003331  0.00055032
   0.50016721  0.49988899  0.00052564
   0.16674812  0.16676839  0.07017440
   0.16675149  0.66649702  0.07014232
   0.66648349  0.16676839  0.07017440
   0.66666902  0.66666197  0.07024807
   0.33330376  0.33339248  0.13841930
   0.33288798  0.83349583  0.13836095
   0.83351525  0.33296950  0.13838114
   0.83361619  0.83349583  0.13836095
  -0.00008239  0.00016478  0.20676633
   0.00017294  0.49982423  0.20665288
   0.49993138  0.00013723  0.20672181
   0.50000283  0.49982423  0.20665288
   0.16646453  0.16710109  0.27484770
   0.16690593  0.66618813  0.27487340
   0.66643438  0.16710109  0.27484770
   0.66686986  0.66626027  0.27505408
   0.33326776  0.33346449  0.34346009
   0.33230293  0.83366731  0.34321259
   0.83368837  0.33262326  0.34332292
   0.83402976  0.83366731  0.34321259
   0.00010362 -0.00020725  0.41138450
   0.99982880  0.50038222  0.41114339
   0.50007729 -0.00015459  0.41104530
   0.49978898  0.50038222  0.41114339
   0.16383355  0.16872228  0.47969910
   0.16704622  0.66590756  0.47952357
   0.66744416  0.16872228  0.47969910
   0.66607303  0.66785394  0.47732927
   0.67433871  0.65132258  0.53791842
   0.60219455  0.79561089  0.55326990
Direct configuration=     5
  -0.00014670  0.00029341  0.00069320
   0.99992593  0.49985709  0.00068202
   0.49997863  0.00004273  0.00071486
   0.50021698  0.49985709  0.00068202
   0.16677096  0.16680002  0.07004866
   0.16677631  0.66644739  0.07000594
   0.66642902  0.16680002  0.07004866
   0.66666955  0.66666090  0.07014436
   0.33329756  0.33340488  0.13839005
   0.33276985  0.83354170  0.13831720
   0.83356198  0.33287604  0.13834255
   0.83368845  0.83354170  0.13831720
  -0.00010462  0.00020925  0.20679189
   0.00020284  0.49978722  0.20664513
   0.49992415  0.00015169  0.20673483
   0.50000994  0.49978722  0.20664513
   0.16640977  0.16722725  0.27483679
   0.16697797  0.66604407  0.27486715
   0.66636298  0.16722725  0.27483679
   0.66692685  0.66614631  0.27510109
   0.33325151  0.33349699  0.34354153
   0.33201207  0.83376280  0.34322254
   0.83378345  0.33243311  0.34336870
   0.83422513  0.83376280  0.34322254
   0.00013059 -0.00026117  0.41146111
   0.99991177  0.50043301  0.41112113
   0.50002303 -0.00004605  0.41100066
   0.49965522  0.50043301  0.41112113
   0.16301964  0.16934383  0.47944865
   0.16716185  0.66567629  0.47921624
   0.66763653  0.16934383  0.47944865
   0.66583423  0.66833154  0.47653482
   0.67524550  0.64950901  0.53941295
   0.60213558  0.79572884  0.55321276
Direct configuration=     6
  -0.00015572  0.00031144  0.00073479
   0.99992123  0.49984871  0.00072311
   0.49997740  0.00004521  0.00075808
   0.50023006  0.49984871  0.00072311
   0.16677696  0.16680833  0.07001563
   0.16678283  0.66643435  0.06997011
   0.66641471  0.16680833  0.07001563
   0.66666969  0.66666062  0.07011712
   0.33329593  0.33340814  0.13838237
   0.33273881  0.83355375  0.13830571
   0.83357426  0.33285148  0.13833241
   0.83370744  0.83355375  0.13830571
  -0.00011046  0.00022093  0.20679860
   0.00021070  0.49977750  0.20664310
   0.49992226  0.00015549  0.20673825
   0.50001181  0.49977750  0.20664310
   0.16639539  0.16726039  0.27483392
   0.16699689  0.66600623  0.27486550
   0.66634422  0.16726039  0.27483392
   0.66694182  0.66611637  0.27511344
   0.33324724  0.33350552  0.34356293
   0.33193566  0.83378789  0.34322515
   0.83380842  0.33238316  0.34338072
   0.83427645  0.83378789  0.34322515
   0.00013767 -0.00027534  0.41148123
   0.99993357  0.50044636  0.41111528
   0.50000877 -0.00001754  0.41098894
   0.49962008  0.50044636  0.41111528
   0.16280584  0.16950710  0.47938286
   0.16719223  0.66561554  0.47913550
   0.66768706  0.16950710  0.47938286
   0.66577150  0.66845700  0.47632612
   0.67548370  0.64903260  0.53980555
   0.60212009  0.79575982  0.55319775
Direct configuration=     7
  -0.00015968  0.00031935  0.00083088
   0.99989522  0.49987121  0.00082336
   0.49999279  0.00001441  0.00086494
   0.50023357  0.49987121  0.00082336
   0.16677187  0.16681746  0.07006380
   0.16678116  0.66643767  0.07000468
   0.66641068  0.16681746  0.07006380
   0.66666931  0.66666137  0.07017930
   0.33332366  0.33335268  0.13824496
   0.33278059  0.83357056  0.13818546
   0.83355162  0.33289677  0.13820523
   0.83364885  0.83357056  0.13818546
  -0.00008748  0.00017497  0.20678062
   0.00006136  0.49990042  0.20661359
   0.50002891 -0.00005782  0.20672059
   0.50003822  0.49990042  0.20661359
   0.16647459  0.16725692  0.27486638
   0.16703072  0.66593857  0.27487180
   0.66626849  0.16725692  0.27486638
   0.66691017  0.66617967  0.27514588
   0.33329742  0.33340516  0.34354668
   0.33189126  0.83387636  0.34323607
   0.83380932  0.33238135  0.34343097
   0.83423238  0.83387636  0.34323607
   0.00010163 -0.00020326  0.41128929
   0.00095662  0.49998292  0.41064882
   0.49931334  0.00137331  0.41059166
   0.49906046  0.49998292  0.41064882
   0.16270102  0.16993795  0.47915653
   0.16720769  0.66558462  0.47888154
   0.66736103  0.16993795  0.47915653
   0.66526359  0.66947282  0.47670238
   0.67832560  0.64334879  0.54123604
   0.60052851  0.79894299  0.55346344
Direct configuration=     8
  -0.00016350  0.00032700  0.00092372
   0.99987009  0.49989296  0.00092023
   0.50000767 -0.00001534  0.00096819
   0.50023696  0.49989296  0.00092023
   0.16676694  0.16682628  0.07011034
   0.16677956  0.66644088  0.07003807
   0.66640678  0.16682628  0.07011034
   0.66666895  0.66666210  0.07023938
   0.33335045  0.33329910  0.13811220
   0.33282095  0.83358680  0.13806928
   0.83352974  0.33294052  0.13808234
   0.83359224  0.83358680  0.13806928
  -0.00006528  0.00013057  0.20676325
  -0.00008293  0.50001918  0.20658508
   0.50013196 -0.00026391  0.20670354
   0.50006375  0.50001918  0.20658508
   0.16655112  0.16725357  0.27489774
   0.16706340  0.66587320  0.27487788
   0.66619531  0.16725357  0.27489774
   0.66687959  0.66624083  0.27517722
   0.33334591  0.33330819  0.34353099
   0.33184837  0.83396184  0.34324662
   0.83381020  0.33237961  0.34347953
   0.83418979  0.83396184  0.34324662
   0.00006681 -0.00013362  0.41110385
   0.00194506  0.49953517  0.41019813
   0.49864144  0.00271712  0.41020783
   0.49851977  0.49953517  0.41019813
   0.16259976  0.17035422  0.47893786
   0.16722262  0.66555475  0.47863616
   0.66704602  0.17035422  0.47893786
   0.66477286  0.67045428  0.47706592
   0.68107138  0.63785725  0.54261815
   0.59899076  0.80201848  0.55372015
Direct configuration=     9
  -0.00016112  0.00032223  0.00097327
   0.99984949  0.49991784  0.00097199
   0.50002133 -0.00004266  0.00102387
   0.50023267  0.49991784  0.00097199
   0.16675148  0.16682340  0.07015775
   0.16676900  0.66646199  0.07008196
   0.66642512  0.16682340  0.07015775
   0.66666833  0.66666335  0.07029102
   0.33336680  0.33326640  0.13804743
   0.33284642  0.83359657  0.13801518
   0.83351449  0.33297101  0.13802515
   0.83355701  0.83359657  0.13801518
  -0.00005908  0.00011816  0.20673279
  -0.00015391  0.50007317  0.20655467
   0.50018328 -0.00036657  0.20667711
   0.50008074  0.50007317  0.20655467
   0.16657914  0.16723427  0.27491678
   0.16706582  0.66586837  0.27488157
   0.66618660  0.16723427  0.27491678
   0.66685965  0.66628070  0.27519055
   0.33337757  0.33324486  0.34339001
   0.33183483  0.83403129  0.34319443
   0.83380879  0.33238241  0.34343654
   0.83413388  0.83403129  0.34319443
   0.00002506 -0.00005012  0.41094992
   0.00204880  0.49953071  0.40994979
   0.49842680  0.00314641  0.41000456
   0.49842048  0.49953071  0.40994979
   0.16263676  0.17060908  0.47878087
   0.16716973  0.66566054  0.47846299
   0.66675416  0.17060908  0.47878087
   0.66444217  0.67111566  0.47746821
   0.68162089  0.63675823  0.54376747
   0.59939129  0.80121743  0.55369160
Direct configuration=    10
  -0.00015601  0.00031202  0.00107935
   0.99980539  0.49997111  0.00108279
   0.50005057 -0.00010115  0.00114305
   0.50022349  0.49997111  0.00108279
   0.16671838  0.16681722  0.07025925
   0.16674641  0.66650718  0.07017593
   0.66646440  0.16681722  0.07025925
   0.66666699  0.66666602  0.07040155
   0.33340181  0.33319639  0.13790877
   0.33290093  0.83361747  0.13789937
   0.83348185  0.33303630  0.13790271
   0.83348160  0.83361747  0.13789937
  -0.00004580  0.00009160  0.20666758
  -0.00030587  0.50018875  0.20648956
   0.50029317 -0.00058633  0.20662052
   0.50011711  0.50018875  0.20648956
   0.16663911  0.16719294  0.27495753
   0.16707098  0.66585803  0.27488947
   0.66616795  0.16719294  0.27495753
   0.66681697  0.66636606  0.27521909
   0.33344535  0.33310929  0.34308821
   0.33180585  0.83417996  0.34308271
   0.83380579  0.33238842  0.34334452
   0.83401419  0.83417996  0.34308271
  -0.00006431  0.00012862  0.41062038
   0.00227089  0.49952117  0.40941816
   0.49796730  0.00406540  0.40956941
   0.49820794  0.49952117  0.40941816
   0.16271598  0.17115466  0.47844480
   0.16705649  0.66588701  0.47809227
   0.66612935  0.17115466  0.47844480
   0.66373425  0.67253150  0.47832941
   0.68279725  0.63440550  0.54622786
   0.60024871  0.79950259  0.55363049
Direct configuration=    11
  -0.00015115  0.00030230  0.00109851
   0.99979746  0.49999256  0.00109989
   0.50005506 -0.00011012  0.00116008
   0.50020998  0.49999256  0.00109989
   0.16669374  0.16680804  0.07026616
   0.16672934  0.66654132  0.07019411
   0.66649822  0.16680804  0.07026616
   0.66666486  0.66667028  0.07040378
   0.33339523  0.33320954  0.13795897
   0.33287194  0.83362505  0.13794724
   0.83348784  0.33302431  0.13795354
   0.83350302  0.83362505  0.13794724
  -0.00006726  0.00013452  0.20662795
  -0.00023921  0.50012959  0.20646151
   0.50024916 -0.00049832  0.20658768
   0.50010962  0.50012959  0.20646151
   0.16656428  0.16715475  0.27490341
   0.16701764  0.66596473  0.27484103
   0.66628096  0.16715475  0.27490341
   0.66681985  0.66636030  0.27517275
   0.33342998  0.33314004  0.34282642
   0.33178241  0.83424277  0.34293543
   0.83381805  0.33236390  0.34316217
   0.83397482  0.83424277  0.34293543
  -0.00012656  0.00025312  0.41052343
   0.00108814  0.50019391  0.40950507
   0.49843520  0.00312961  0.40965626
   0.49871794  0.50019391  0.40950507
   0.16274865  0.17128093  0.47832047
   0.16688399  0.66623203  0.47797352
   0.66597041  0.17128093  0.47832047
   0.66366952  0.67266095  0.47855854
   0.68367913  0.63264175  0.54694697
   0.60011220  0.79977559  0.55365486
Direct configuration=    12
  -0.00014113  0.00028226  0.00113803
   0.99978109  0.50003679  0.00113518
   0.50006431 -0.00012863  0.00119520
   0.50018211  0.50003679  0.00113518
   0.16664289  0.16678910  0.07028041
   0.16669414  0.66661173  0.07023160
   0.66656801  0.16678910  0.07028041
   0.66666046  0.66667908  0.07040837
   0.33338166  0.33323668  0.13806254
   0.33281213  0.83364067  0.13804599
   0.83350020  0.33299959  0.13805840
   0.83354720  0.83364067  0.13804599
  -0.00011152  0.00022305  0.20654619
  -0.00010170  0.50000753  0.20640363
   0.50015838 -0.00031676  0.20651992
   0.50009416  0.50000753  0.20640363
   0.16640991  0.16707598  0.27479176
   0.16690758  0.66618484  0.27474112
   0.66651411  0.16707598  0.27479176
   0.66682579  0.66634841  0.27507715
   0.33339827  0.33320346  0.34228635
   0.33173405  0.83437233  0.34263161
   0.83384334  0.33231332  0.34278598
   0.83389361  0.83437233  0.34263161
  -0.00025498  0.00050996  0.41032343
  -0.00135179  0.50158173  0.40968436
   0.49940044  0.00119913  0.40983542
   0.49977006  0.50158173  0.40968436
   0.16281605  0.17154142  0.47806400
   0.16652812  0.66694376  0.47772854
   0.66564253  0.17154142  0.47806400
   0.66353600  0.67292800  0.47903123
   0.68549839  0.62900323  0.54843044
   0.59983060  0.80033879  0.55370512
Direct configuration=    13
  -0.00013725  0.00027449  0.00115335
   0.99977475  0.50005394  0.00114886
   0.50006790 -0.00013580  0.00120881
   0.50017131  0.50005394  0.00114886
   0.16662319  0.16678176  0.07028593
   0.16668049  0.66663902  0.07024614
   0.66659506  0.16678176  0.07028593
   0.66665876  0.66668249  0.07041015
   0.33337640  0.33324720  0.13810268
   0.33278895  0.83364673  0.13808426
   0.83350499  0.33299001  0.13809905
   0.83356432  0.83364673  0.13808426
  -0.00012868  0.00025736  0.20651450
  -0.00004840  0.49996023  0.20638119
   0.50012319 -0.00024638  0.20649366
   0.50008817  0.49996023  0.20638119
   0.16635008  0.16704545  0.27474849
   0.16686493  0.66627015  0.27470240
   0.66660447  0.16704545  0.27474849
   0.66682810  0.66634381  0.27504010
   0.33338598  0.33322804  0.34207702
   0.33171531  0.83442256  0.34251385
   0.83385314  0.33229372  0.34264017
   0.83386213  0.83442256  0.34251385
  -0.00030476  0.00060952  0.41024591
  -0.00229751  0.50211965  0.40975385
   0.49977457  0.00045087  0.40990486
   0.50017786  0.50211965  0.40975385
   0.16284217  0.17164239  0.47796459
   0.16639018  0.66721964  0.47763359
   0.66551544  0.17164239  0.47796459
   0.66348424  0.67303151  0.47921444
   0.68620353  0.62759293  0.54900544
   0.59972145  0.80055709  0.55372460
Direct configuration=    14
  -0.00013253  0.00026506  0.00115739
   0.99978531  0.50007836  0.00114805
   0.50005567 -0.00011133  0.00120334
   0.50013632  0.50007836  0.00114805
   0.16660329  0.16679282  0.07030041
   0.16667204  0.66665592  0.07027796
   0.66660390  0.16679282  0.07030041
   0.66665139  0.66669722  0.07041826
   0.33336428  0.33327143  0.13816886
   0.33278796  0.83364528  0.13814976
   0.83349472  0.33301057  0.13816405
   0.83356676  0.83364528  0.13814976
  -0.00014274  0.00028547  0.20648010
   0.00002832  0.49991207  0.20637163
   0.50006182 -0.00012365  0.20647275
   0.50005961  0.49991207  0.20637163
   0.16625476  0.16694973  0.27452642
   0.16674507  0.66650985  0.27450393
   0.66679551  0.16694973  0.27452642
   0.66680340  0.66639320  0.27484770
   0.33330736  0.33338528  0.34202151
   0.33183805  0.83442336  0.34236768
   0.83376905  0.33246189  0.34244656
   0.83373858  0.83442336  0.34236768
  -0.00045791  0.00091582  0.41002178
  -0.00350668  0.50287207  0.40985147
   0.50018043 -0.00036086  0.40998556
   0.50063460  0.50287207  0.40985147
   0.16283477  0.17174579  0.47784754
   0.16601977  0.66796046  0.47753751
   0.66541944  0.17174579  0.47784754
   0.66355965  0.67288070  0.47955370
   0.68625707  0.62748586  0.55011568
   0.60088542  0.79822916  0.55367639
Direct configuration=    15
  -0.00013015  0.00026029  0.00115943
   0.99979065  0.50009071  0.00114764
   0.50004948 -0.00009897  0.00120058
   0.50011864  0.50009071  0.00114764
   0.16659323  0.16679840  0.07030772
   0.16666777  0.66666446  0.07029404
   0.66660836  0.16679840  0.07030772
   0.66664767  0.66670467  0.07042235
   0.33335816  0.33328368  0.13820230
   0.33278747  0.83364454  0.13818286
   0.83348952  0.33302095  0.13819689
   0.83356799  0.83364454  0.13818286
  -0.00014984  0.00029968  0.20646271
   0.00006708  0.49988774  0.20636680
   0.50003081 -0.00006162  0.20646219
   0.50004518  0.49988774  0.20636680
   0.16620660  0.16690135  0.27441419
   0.16668451  0.66663099  0.27440363
   0.66689205  0.16690135  0.27441419
   0.66679092  0.66641816  0.27475047
   0.33326763  0.33346475  0.34199345
   0.33190008  0.83442377  0.34229382
   0.83372656  0.33254688  0.34234872
   0.83367615  0.83442377  0.34229382
  -0.00053531  0.00107062  0.40990851
  -0.00411774  0.50325232  0.40990080
   0.50038553 -0.00077107  0.41002634
   0.50086542  0.50325232  0.40990080
   0.16283103  0.17179805  0.47778838
   0.16583258  0.66833484  0.47748895
   0.66537092  0.17179805  0.47778838
   0.66359776  0.67280449  0.47972515
   0.68628412  0.62743175  0.55067675
   0.60147363  0.79705273  0.55365202
Direct configuration=    16
  -0.00012613  0.00025226  0.00115568
   0.99981325  0.50011529  0.00113674
   0.50002343 -0.00004685  0.00117992
   0.50007147  0.50011529  0.00113674
   0.16659397  0.16682946  0.07034494
   0.16667342  0.66665316  0.07034432
   0.66657657  0.16682946  0.07034494
   0.66663444  0.66673113  0.07045347
   0.33334937  0.33330127  0.13823564
   0.33284737  0.83363046  0.13822103
   0.83345457  0.33309087  0.13822810
   0.83352217  0.83363046  0.13822103
  -0.00013453  0.00026906  0.20641002
   0.00006692  0.49992535  0.20635249
   0.50000480 -0.00000960  0.20643113
   0.50000773  0.49992535  0.20635249
   0.16622932  0.16684576  0.27412157
   0.16660340  0.66679321  0.27414142
   0.66692491  0.16684576  0.27412157
   0.66672684  0.66654633  0.27446674
   0.33314461  0.33371078  0.34222840
   0.33220613  0.83434717  0.34219806
   0.83351431  0.33297139  0.34222270
   0.83344670  0.83434717  0.34219806
  -0.00075599  0.00151199  0.40960150
  -0.00446992  0.50362568  0.40990328
   0.50034797 -0.00069593  0.41001123
   0.50084424  0.50362568  0.40990328
   0.16281452  0.17179788  0.47772676
   0.16533571  0.66932859  0.47746352
   0.66538760  0.17179788  0.47772676
   0.66378096  0.67243808  0.48004772
   0.68764358  0.62471283  0.55188139
   0.60157080  0.79685840  0.55366625
Direct configuration=    17
  -0.00012531  0.00025063  0.00115492
   0.99981785  0.50012029  0.00113452
   0.50001813 -0.00003625  0.00117572
   0.50006187  0.50012029  0.00113452
   0.16659412  0.16683578  0.07035251
   0.16667457  0.66665086  0.07035455
   0.66657010  0.16683578  0.07035251
   0.66663175  0.66673651  0.07045980
   0.33334758  0.33330485  0.13824243
   0.33285956  0.83362759  0.13822880
   0.83344745  0.33310509  0.13823445
   0.83351284  0.83362759  0.13822880
  -0.00013142  0.00026283  0.20639929
   0.00006689  0.49993300  0.20634957
   0.49999951  0.00000099  0.20642481
   0.50000011  0.49993300  0.20634957
   0.16623395  0.16683445  0.27406203
   0.16658689  0.66682622  0.27408807
   0.66693160  0.16683445  0.27406203
   0.66671380  0.66657241  0.27440901
   0.33311958  0.33376084  0.34227620
   0.33226840  0.83433158  0.34217858
   0.83347112  0.33305776  0.34219705
   0.83340002  0.83433158  0.34217858
  -0.00080090  0.00160179  0.40953904
  -0.00454158  0.50370165  0.40990379
   0.50034032 -0.00068064  0.41000815
   0.50083994  0.50370165  0.40990379
   0.16281116  0.17179784  0.47771423
   0.16523461  0.66953079  0.47745834
   0.66539100  0.17179784  0.47771423
   0.66381824  0.67236353  0.48011335
   0.68792020  0.62415961  0.55212651
   0.60159057  0.79681886  0.55366915
Direct configuration=    18
  -0.00012368  0.00024736  0.00115340
   0.99982704  0.50013029  0.00113009
   0.50000752 -0.00001505  0.00116731
   0.50004267  0.50013029  0.00113009
   0.16659442  0.16684842  0.07036766
   0.16667687  0.66664625  0.07037501
   0.66655716  0.16684842  0.07036766
   0.66662636  0.66674728  0.07047246
   0.33334400  0.33331200  0.13825599
   0.33288394  0.83362186  0.13824434
   0.83343323  0.33313354  0.13824716
   0.83349419  0.83362186  0.13824434
  -0.00012519  0.00025037  0.20637785
   0.00006682  0.49994831  0.20634375
   0.49998892  0.00002216  0.20641217
   0.49998487  0.49994831  0.20634375
   0.16624320  0.16681183  0.27394296
   0.16655388  0.66689223  0.27398136
   0.66694497  0.16681183  0.27394296
   0.66668772  0.66662457  0.27429355
   0.33306952  0.33386097  0.34237181
   0.33239294  0.83430041  0.34213961
   0.83338474  0.33323051  0.34214577
   0.83330665  0.83430041  0.34213961
  -0.00089070  0.00178140  0.40941410
  -0.00468490  0.50385359  0.40990480
   0.50032503 -0.00065007  0.41000200
   0.50083132  0.50385359  0.40990480
   0.16280444  0.17179777  0.47768915
   0.16503240  0.66993519  0.47744799
   0.66539779  0.17179777  0.47768915
   0.66389279  0.67221442  0.48024461
   0.68847342  0.62305315  0.55261673
   0.60163011  0.79673977  0.55367494
Direct configuration=    19
  -0.00011959  0.00023917  0.00115603
   0.99983293  0.50014643  0.00112456
   0.49999222  0.00001555  0.00115137
   0.50002063  0.50014643  0.00112456
   0.16661377  0.16686471  0.07039797
   0.16668590  0.66662819  0.07040618
   0.66652152  0.16686471  0.07039797
   0.66661498  0.66677004  0.07049791
   0.33334467  0.33331067  0.13822666
   0.33295739  0.83360793  0.13821790
   0.83340601  0.33318799  0.13821503
   0.83343468  0.83360793  0.13821790
  -0.00008967  0.00017934  0.20626463
  -0.00001539  0.50004688  0.20625867
   0.50001329 -0.00002657  0.20631177
   0.49996851  0.50004688  0.20625867
   0.16645643  0.16696209  0.27389238
   0.16666871  0.66666258  0.27394038
   0.66658149  0.16696209  0.27389238
   0.66663571  0.66672858  0.27416615
   0.33297952  0.33404096  0.34258259
   0.33265772  0.83426354  0.34206426
   0.83317361  0.33365277  0.34207378
   0.83307875  0.83426354  0.34206426
  -0.00106033  0.00212066  0.40926669
  -0.00413119  0.50376779  0.40985187
   0.49994568  0.00010864  0.40994829
   0.50036340  0.50376779  0.40985187
   0.16286632  0.17165482  0.47771692
   0.16467642  0.67064716  0.47750082
   0.66547887  0.17165482  0.47771692
   0.66404259  0.67191481  0.48038533
   0.68861453  0.62277093  0.55334184
   0.60246439  0.79507121  0.55369445
Direct configuration=    20
  -0.00011769  0.00023537  0.00115725
   0.99983567  0.50015392  0.00112200
   0.49998513  0.00002975  0.00114397
   0.50001041  0.50015392  0.00112200
   0.16662275  0.16687226  0.07041203
   0.16669009  0.66661981  0.07042064
   0.66650499  0.16687226  0.07041203
   0.66660970  0.66678060  0.07050972
   0.33334497  0.33331005  0.13821306
   0.33299146  0.83360147  0.13820564
   0.83339338  0.33321324  0.13820013
   0.83340708  0.83360147  0.13820564
  -0.00007319  0.00014638  0.20621210
  -0.00005353  0.50009260  0.20621920
   0.50002459 -0.00004918  0.20626519
   0.49996093  0.50009260  0.20621920
   0.16655535  0.16703180  0.27386891
   0.16672198  0.66655603  0.27392136
   0.66641285  0.16703180  0.27386891
   0.66661159  0.66677683  0.27410705
   0.33293777  0.33412447  0.34268037
   0.33278055  0.83424643  0.34202929
   0.83307567  0.33384867  0.34204038
   0.83297301  0.83424643  0.34202929
  -0.00113903  0.00227805  0.40919831
  -0.00387431  0.50372798  0.40982731
   0.49976969  0.00046063  0.40992337
   0.50014632  0.50372798  0.40982731
   0.16289502  0.17158849  0.47772980
   0.16451127  0.67097746  0.47752533
   0.66551648  0.17158849  0.47772980
   0.66411209  0.67177581  0.48045061
   0.68868000  0.62264001  0.55367823
   0.60285144  0.79429712  0.55370350
Direct configuration=    21
  -0.00011742  0.00023484  0.00116551
   0.99981742  0.50017302  0.00112025
   0.49997851  0.00004298  0.00113224
   0.50000957  0.50017302  0.00112025
   0.16663923  0.16687564  0.07040781
   0.16668812  0.66662376  0.07041267
   0.66648513  0.16687564  0.07040781
   0.66659909  0.66680181  0.07049932
   0.33333854  0.33332293  0.13814658
   0.33302844  0.83359911  0.13813321
   0.83338418  0.33323164  0.13812904
   0.83337245  0.83359911  0.13813321
  -0.00005314  0.00010628  0.20610424
  -0.00010984  0.50016510  0.20610227
   0.50002597 -0.00005194  0.20613592
   0.49994475  0.50016510  0.20610227
   0.16678538  0.16729553  0.27396618
   0.16690226  0.66619548  0.27401508
   0.66591910  0.16729553  0.27396618
   0.66657951  0.66684098  0.27407243
   0.33286243  0.33427514  0.34274152
   0.33290853  0.83431776  0.34195405
   0.83289831  0.33420338  0.34197976
   0.83277371  0.83431776  0.34195405
  -0.00128117  0.00256234  0.40916854
  -0.00335395  0.50368215  0.40979143
   0.49945696  0.00108607  0.40989370
   0.49967180  0.50368215  0.40979143
   0.16304268  0.17139685  0.47779089
   0.16428348  0.67143305  0.47760282
   0.66556048  0.17139685  0.47779089
   0.66423470  0.67153060  0.48040417
   0.68948385  0.62103230  0.55428569
   0.60291546  0.79416909  0.55375752
Direct configuration=    22
  -0.00011737  0.00023474  0.00116710
   0.99981392  0.50017668  0.00111991
   0.49997724  0.00004552  0.00112999
   0.50000940  0.50017668  0.00111991
   0.16664240  0.16687628  0.07040700
   0.16668774  0.66662452  0.07041114
   0.66648132  0.16687628  0.07040700
   0.66659706  0.66680588  0.07049733
   0.33333730  0.33332540  0.13813383
   0.33303553  0.83359866  0.13811933
   0.83338242  0.33323517  0.13811540
   0.83336581  0.83359866  0.13811933
  -0.00004929  0.00009858  0.20608356
  -0.00012064  0.50017900  0.20607985
   0.50002623 -0.00005247  0.20611113
   0.49994164  0.50017900  0.20607985
   0.16682949  0.16734610  0.27398483
   0.16693683  0.66612634  0.27403305
   0.66582442  0.16734610  0.27398483
   0.66657336  0.66685328  0.27406579
   0.33284798  0.33430403  0.34275324
   0.33293307  0.83433144  0.34193963
   0.83286430  0.33427140  0.34196813
   0.83273549  0.83433144  0.34193963
  -0.00130843  0.00261686  0.40916283
  -0.00325417  0.50367336  0.40978455
   0.49939700  0.00120601  0.40988801
   0.49958080  0.50367336  0.40978455
   0.16307099  0.17136010  0.47780260
   0.16423980  0.67152041  0.47761768
   0.66556891  0.17136010  0.47780260
   0.66425821  0.67148358  0.48039526
   0.68963799  0.62072401  0.55440218
   0.60292773  0.79414454  0.55376788
Direct configuration=    23
  -0.00012342  0.00024685  0.00118002
   0.99978614  0.50019641  0.00112347
   0.49997163  0.00005674  0.00112650
   0.50001745  0.50019641  0.00112347
   0.16664724  0.16688170  0.07037027
   0.16667735  0.66664530  0.07037115
   0.66647106  0.16688170  0.07037027
   0.66658883  0.66682233  0.07045394
   0.33331909  0.33336183  0.13804730
   0.33302001  0.83361449  0.13802315
   0.83339081  0.33321837  0.13802615
   0.83336550  0.83361449  0.13802315
  -0.00005704  0.00011408  0.20604419
  -0.00010089  0.50019011  0.20598900
   0.49997680  0.00004640  0.20601386
   0.49991078  0.50019011  0.20598900
   0.16693791  0.16758724  0.27408739
   0.16704630  0.66590741  0.27412723
   0.66547486  0.16758724  0.27408739