  24  24   0   0
  0.3325872E+02  0.7260000E-09  0.5133596E-09  0.2141699E-08  0.5000000E-15
  1.000000000000000E-004
  CAR 
 unknown system                          
     10.25843894    -10.86471795  301     -0.03959039      1.00000000
    -10.865  0.0000E+00  0.0000E+00  0.0000E+00  0.0000E+00
    -10.794  0.0000E+00  0.0000E+00  0.0000E+00  0.0000E+00
    -10.724  0.0000E+00  0.0000E+00  0.0000E+00  0.0000E+00
    -10.653  0.0000E+00  0.0000E+00  0.0000E+00  0.0000E+00
    -10.583  0.0000E+00  0.0000E+00  0.0000E+00  0.0000E+00
    -10.513 -0.1499E-31 -0.1499E-31 -0.1055E-32 -0.1055E-32
    -10.442 -0.4178E-29 -0.4178E-29 -0.2952E-30 -0.2952E-30
    -10.372 -0.9095E-27 -0.9095E-27 -0.6433E-28 -0.6433E-28
    -10.301 -0.1542E-24 -0.1542E-24 -0.1092E-25 -0.1092E-25
    -10.231 -0.2033E-22 -0.2033E-22 -0.1443E-23 -0.1443E-23
    -10.161 -0.2087E-20 -0.2087E-20 -0.1484E-21 -0.1484E-21
    -10.090 -0.1665E-18 -0.1665E-18 -0.1187E-19 -0.1187E-19
    -10.020 -0.1000E-16 -0.1000E-16 -0.7161E-18 -0.7161E-18
     -9.949 -0.4811E-15 -0.4811E-15 -0.3459E-16 -0.3459E-16
     -9.879 -0.1790E-13 -0.1790E-13 -0.1295E-14 -0.1295E-14
     -9.809 -0.5157E-12 -0.5157E-12 -0.3761E-13 -0.3761E-13
     -9.738 -0.1149E-10 -0.1149E-10 -0.8464E-12 -0.8464E-12
     -9.668 -0.1973E-09 -0.1973E-09 -0.1474E-10 -0.1474E-10
     -9.597 -0.2606E-08 -0.2606E-08 -0.1982E-09 -0.1982E-09
     -9.527 -0.2633E-07 -0.2633E-07 -0.2052E-08 -0.2052E-08
     -9.457 -0.2022E-06 -0.2022E-06 -0.1629E-07 -0.1629E-07
     -9.386 -0.1167E-05 -0.1167E-05 -0.9845E-07 -0.9845E-07
     -9.316 -0.4964E-05 -0.4964E-05 -0.4480E-06 -0.4480E-06
     -9.245 -0.1496E-04 -0.1496E-04 -0.1502E-05 -0.1502E-05
     -9.175 -0.2880E-04 -0.2880E-04 -0.3529E-05 -0.3529E-05
     -9.104 -0.2053E-04 -0.2053E-04 -0.4975E-05 -0.4975E-05
     -9.034  0.6356E-04  0.6356E-04 -0.4999E-06 -0.4999E-06
     -8.964  0.2486E-03  0.2486E-03  0.1700E-04  0.1700E-04
     -8.893  0.4483E-03  0.4483E-03  0.4857E-04  0.4857E-04
     -8.823  0.5153E-03  0.5153E-03  0.8485E-04  0.8485E-04
     -8.752  0.4505E-03  0.4505E-03  0.1166E-03  0.1166E-03
     -8.682  0.4704E-03  0.4704E-03  0.1497E-03  0.1497E-03
     -8.612  0.7226E-03  0.7226E-03  0.2006E-03  0.2006E-03
     -8.541  0.1012E-02  0.1012E-02  0.2718E-03  0.2718E-03
     -8.471  0.1026E-02  0.1026E-02  0.3441E-03  0.3441E-03
     -8.400  0.7950E-03  0.7950E-03  0.4000E-03  0.4000E-03
     -8.330  0.6769E-03  0.6769E-03  0.4477E-03  0.4477E-03
     -8.260  0.8210E-03  0.8210E-03  0.5055E-03  0.5055E-03
     -8.189  0.9680E-03  0.9680E-03  0.5737E-03  0.5737E-03
     -8.119  0.9348E-03  0.9348E-03  0.6395E-03  0.6395E-03
     -8.048  0.1004E-02  0.1004E-02  0.7101E-03  0.7101E-03
     -7.978  0.1482E-02  0.1482E-02  0.8145E-03  0.8145E-03
     -7.907  0.2066E-02  0.2066E-02  0.9600E-03  0.9600E-03
     -7.837  0.2130E-02  0.2130E-02  0.1110E-02  0.1110E-02
     -7.767  0.1616E-02  0.1616E-02  0.1224E-02  0.1224E-02
     -7.696  0.1109E-02  0.1109E-02  0.1302E-02  0.1302E-02
     -7.626  0.9867E-03  0.9867E-03  0.1371E-02  0.1371E-02
     -7.555  0.1000E-02  0.1000E-02  0.1442E-02  0.1442E-02
     -7.485  0.8258E-03  0.8258E-03  0.1500E-02  0.1500E-02
     -7.415  0.5376E-03  0.5376E-03  0.1538E-02  0.1538E-02
     -7.344  0.3590E-03  0.3590E-03  0.1563E-02  0.1563E-02
     -7.274  0.3453E-03  0.3453E-03  0.1587E-02  0.1587E-02
     -7.203  0.5816E-03  0.5816E-03  0.1628E-02  0.1628E-02
     -7.133  0.1326E-02  0.1326E-02  0.1722E-02  0.1722E-02
     -7.063  0.2505E-02  0.2505E-02  0.1898E-02  0.1898E-02
     -6.992  0.3330E-02  0.3330E-02  0.2132E-02  0.2132E-02
     -6.922  0.3059E-02  0.3059E-02  0.2348E-02  0.2348E-02
     -6.851  0.1986E-02  0.1986E-02  0.2488E-02  0.2488E-02
     -6.781  0.1073E-02  0.1073E-02  0.2563E-02  0.2563E-02
     -6.710  0.7895E-03  0.7895E-03  0.2619E-02  0.2619E-02
     -6.640  0.9544E-03  0.9544E-03  0.2686E-02  0.2686E-02
     -6.570  0.1449E-02  0.1449E-02  0.2788E-02  0.2788E-02
     -6.499  0.2337E-02  0.2337E-02  0.2953E-02  0.2953E-02
     -6.429  0.3427E-02  0.3427E-02  0.3194E-02  0.3194E-02
     -6.358  0.4378E-02  0.4378E-02  0.3502E-02  0.3502E-02
     -6.288  0.5041E-02  0.5041E-02  0.3857E-02  0.3857E-02
     -6.218  0.5144E-02  0.5144E-02  0.4219E-02  0.4219E-02
     -6.147  0.4221E-02  0.4221E-02  0.4516E-02  0.4516E-02
     -6.077  0.2389E-02  0.2389E-02  0.4685E-02  0.4685E-02
     -6.006  0.5840E-03  0.5840E-03  0.4726E-02  0.4726E-02
     -5.936 -0.2326E-03 -0.2326E-03  0.4709E-02  0.4709E-02
     -5.866  0.3861E-03  0.3861E-03  0.4737E-02  0.4737E-02
     -5.795  0.2357E-02  0.2357E-02  0.4903E-02  0.4903E-02
     -5.725  0.4827E-02  0.4827E-02  0.5242E-02  0.5242E-02
     -5.654  0.6237E-02  0.6237E-02  0.5682E-02  0.5682E-02
     -5.584  0.5564E-02  0.5564E-02  0.6073E-02  0.6073E-02
     -5.514  0.3529E-02  0.3529E-02  0.6322E-02  0.6322E-02
     -5.443  0.1938E-02  0.1938E-02  0.6458E-02  0.6458E-02
     -5.373  0.1852E-02  0.1852E-02  0.6589E-02  0.6589E-02
     -5.302  0.2878E-02  0.2878E-02  0.6791E-02  0.6791E-02
     -5.232  0.4035E-02  0.4035E-02  0.7075E-02  0.7075E-02
     -5.161  0.4766E-02  0.4766E-02  0.7411E-02  0.7411E-02
     -5.091  0.5173E-02  0.5173E-02  0.7775E-02  0.7775E-02
     -5.021  0.5736E-02  0.5736E-02  0.8179E-02  0.8179E-02
     -4.950  0.6954E-02  0.6954E-02  0.8669E-02  0.8669E-02
     -4.880  0.9120E-02  0.9120E-02  0.9311E-02  0.9311E-02
     -4.809  0.1222E-01  0.1222E-01  0.1017E-01  0.1017E-01
     -4.739  0.1573E-01  0.1573E-01  0.1128E-01  0.1128E-01
     -4.669  0.1846E-01  0.1846E-01  0.1258E-01  0.1258E-01
     -4.598  0.1914E-01  0.1914E-01  0.1393E-01  0.1393E-01
     -4.528  0.1767E-01  0.1767E-01  0.1517E-01  0.1517E-01
     -4.457  0.1540E-01  0.1540E-01  0.1626E-01  0.1626E-01
     -4.387  0.1415E-01  0.1415E-01  0.1725E-01  0.1725E-01
     -4.317  0.1526E-01  0.1526E-01  0.1833E-01  0.1833E-01
     -4.246  0.1946E-01  0.1946E-01  0.1970E-01  0.1970E-01
     -4.176  0.2610E-01  0.2610E-01  0.2153E-01  0.2153E-01
     -4.105  0.3244E-01  0.3244E-01  0.2382E-01  0.2382E-01
     -4.035  0.3505E-01  0.3505E-01  0.2629E-01  0.2629E-01
     -3.964  0.3281E-01  0.3281E-01  0.2860E-01  0.2860E-01
     -3.894  0.2808E-01  0.2808E-01  0.3057E-01  0.3057E-01
     -3.824  0.2462E-01  0.2462E-01  0.3231E-01  0.3231E-01
     -3.753  0.2448E-01  0.2448E-01  0.3403E-01  0.3403E-01
     -3.683  0.2702E-01  0.2702E-01  0.3593E-01  0.3593E-01
     -3.612  0.3045E-01  0.3045E-01  0.3808E-01  0.3808E-01
     -3.542  0.3347E-01  0.3347E-01  0.4043E-01  0.4043E-01
     -3.472  0.3588E-01  0.3588E-01  0.4296E-01  0.4296E-01
     -3.401  0.3855E-01  0.3855E-01  0.4567E-01  0.4567E-01
     -3.331  0.4217E-01  0.4217E-01  0.4864E-01  0.4864E-01
     -3.260  0.4546E-01  0.4546E-01  0.5184E-01  0.5184E-01
     -3.190  0.4665E-01  0.4665E-01  0.5513E-01  0.5513E-01
     -3.120  0.4715E-01  0.4715E-01  0.5845E-01  0.5845E-01
     -3.049  0.5060E-01  0.5060E-01  0.6201E-01  0.6201E-01
     -2.979  0.5733E-01  0.5733E-01  0.6605E-01  0.6605E-01
     -2.908  0.6308E-01  0.6308E-01  0.7049E-01  0.7049E-01
     -2.838  0.6359E-01  0.6359E-01  0.7497E-01  0.7497E-01
     -2.768  0.5825E-01  0.5825E-01  0.7907E-01  0.7907E-01
     -2.697  0.4957E-01  0.4957E-01  0.8256E-01  0.8256E-01
     -2.627  0.4137E-01  0.4137E-01  0.8547E-01  0.8547E-01
     -2.556  0.3756E-01  0.3756E-01  0.8812E-01  0.8812E-01
     -2.486  0.4046E-01  0.4046E-01  0.9096E-01  0.9096E-01
     -2.415  0.4853E-01  0.4853E-01  0.9438E-01  0.9438E-01
     -2.345  0.5687E-01  0.5687E-01  0.9839E-01  0.9839E-01
     -2.275  0.6127E-01  0.6127E-01  0.1027E+00  0.1027E+00
     -2.204  0.6102E-01  0.6102E-01  0.1070E+00  0.1070E+00
     -2.134  0.5856E-01  0.5856E-01  0.1111E+00  0.1111E+00
     -2.063  0.5721E-01  0.5721E-01  0.1151E+00  0.1151E+00
     -1.993  0.5856E-01  0.5856E-01  0.1193E+00  0.1193E+00
     -1.923  0.6175E-01  0.6175E-01  0.1236E+00  0.1236E+00
     -1.852  0.6587E-01  0.6587E-01  0.1283E+00  0.1283E+00
     -1.782  0.7179E-01  0.7179E-01  0.1333E+00  0.1333E+00
     -1.711  0.7942E-01  0.7942E-01  0.1389E+00  0.1389E+00
     -1.641  0.8423E-01  0.8423E-01  0.1448E+00  0.1448E+00
     -1.571  0.7949E-01  0.7949E-01  0.1504E+00  0.1504E+00
     -1.500  0.6281E-01  0.6281E-01  0.1549E+00  0.1549E+00
     -1.430  0.3948E-01  0.3948E-01  0.1576E+00  0.1576E+00
     -1.359  0.1858E-01  0.1858E-01  0.1589E+00  0.1589E+00
     -1.289  0.5769E-02  0.5769E-02  0.1593E+00  0.1593E+00
     -1.218  0.4777E-03  0.4777E-03  0.1594E+00  0.1594E+00
     -1.148 -0.8493E-03 -0.8493E-03  0.1593E+00  0.1593E+00
     -1.078 -0.4197E-03 -0.4197E-03  0.1593E+00  0.1593E+00
     -1.007  0.1731E-02  0.1731E-02  0.1594E+00  0.1594E+00
     -0.937  0.5578E-02  0.5578E-02  0.1598E+00  0.1598E+00
     -0.866  0.9273E-02  0.9273E-02  0.1605E+00  0.1605E+00
     -0.796  0.1019E-01  0.1019E-01  0.1612E+00  0.1612E+00
     -0.726  0.7710E-02  0.7710E-02  0.1617E+00  0.1617E+00
     -0.655  0.4011E-02  0.4011E-02  0.1620E+00  0.1620E+00
     -0.585  0.1856E-02  0.1856E-02  0.1621E+00  0.1621E+00
     -0.514  0.2292E-02  0.2292E-02  0.1623E+00  0.1623E+00
     -0.444  0.4211E-02  0.4211E-02  0.1626E+00  0.1626E+00
     -0.374  0.5572E-02  0.5572E-02  0.1630E+00  0.1630E+00
     -0.303  0.5429E-02  0.5429E-02  0.1634E+00  0.1634E+00
     -0.233  0.4870E-02  0.4870E-02  0.1637E+00  0.1637E+00
     -0.162  0.5447E-02  0.5447E-02  0.1641E+00  0.1641E+00
     -0.092  0.7020E-02  0.7020E-02  0.1646E+00  0.1646E+00
     -0.021  0.7921E-02  0.7921E-02  0.1651E+00  0.1651E+00
      0.049  0.7037E-02  0.7037E-02  0.1656E+00  0.1656E+00
      0.119  0.5080E-02  0.5080E-02  0.1660E+00  0.1660E+00
      0.190  0.3710E-02  0.3710E-02  0.1663E+00  0.1663E+00
      0.260  0.3788E-02  0.3788E-02  0.1665E+00  0.1665E+00
      0.331  0.4756E-02  0.4756E-02  0.1669E+00  0.1669E+00
      0.401  0.5454E-02  0.5454E-02  0.1672E+00  0.1672E+00
      0.471  0.5314E-02  0.5314E-02  0.1676E+00  0.1676E+00
      0.542  0.4910E-02  0.4910E-02  0.1680E+00  0.1680E+00
      0.612  0.5267E-02  0.5267E-02  0.1683E+00  0.1683E+00
      0.683  0.6443E-02  0.6443E-02  0.1688E+00  0.1688E+00
      0.753  0.7283E-02  0.7283E-02  0.1693E+00  0.1693E+00
      0.823  0.6913E-02  0.6913E-02  0.1698E+00  0.1698E+00
      0.894  0.5774E-02  0.5774E-02  0.1702E+00  0.1702E+00
      0.964  0.4711E-02  0.4711E-02  0.1705E+00  0.1705E+00
      1.035  0.3802E-02  0.3802E-02  0.1708E+00  0.1708E+00
      1.105  0.2655E-02  0.2655E-02  0.1710E+00  0.1710E+00
      1.175  0.1404E-02  0.1404E-02  0.1711E+00  0.1711E+00
      1.246  0.7887E-03  0.7887E-03  0.1711E+00  0.1711E+00
      1.316  0.1352E-02  0.1352E-02  0.1712E+00  0.1712E+00
      1.387  0.2817E-02  0.2817E-02  0.1714E+00  0.1714E+00
      1.457  0.4279E-02  0.4279E-02  0.1717E+00  0.1717E+00
      1.528  0.5039E-02  0.5039E-02  0.1721E+00  0.1721E+00
      1.598  0.5314E-02  0.5314E-02  0.1725E+00  0.1725E+00
      1.668  0.5822E-02  0.5822E-02  0.1729E+00  0.1729E+00
      1.739  0.6490E-02  0.6490E-02  0.1733E+00  0.1733E+00
      1.809  0.6283E-02  0.6283E-02  0.1738E+00  0.1738E+00
      1.880  0.4794E-02  0.4794E-02  0.1741E+00  0.1741E+00
      1.950  0.3238E-02  0.3238E-02  0.1743E+00  0.1743E+00
      2.020  0.3109E-02  0.3109E-02  0.1746E+00  0.1746E+00
      2.091  0.4416E-02  0.4416E-02  0.1749E+00  0.1749E+00
      2.161  0.5980E-02  0.5980E-02  0.1753E+00  0.1753E+00
      2.232  0.7074E-02  0.7074E-02  0.1758E+00  0.1758E+00
      2.302  0.8015E-02  0.8015E-02  0.1763E+00  0.1763E+00
      2.372  0.9153E-02  0.9153E-02  0.1770E+00  0.1770E+00
      2.443  0.9829E-02  0.9829E-02  0.1777E+00  0.1777E+00
      2.513  0.8805E-02  0.8805E-02  0.1783E+00  0.1783E+00
      2.584  0.5859E-02  0.5859E-02  0.1787E+00  0.1787E+00
      2.654  0.2503E-02  0.2503E-02  0.1789E+00  0.1789E+00
      2.725  0.7241E-03  0.7241E-03  0.1789E+00  0.1789E+00
      2.795  0.1242E-02  0.1242E-02  0.1790E+00  0.1790E+00
      2.865  0.3001E-02  0.3001E-02  0.1792E+00  0.1792E+00
      2.936  0.4160E-02  0.4160E-02  0.1795E+00  0.1795E+00
      3.006  0.3884E-02  0.3884E-02  0.1798E+00  0.1798E+00
      3.077  0.3167E-02  0.3167E-02  0.1800E+00  0.1800E+00
      3.147  0.3418E-02  0.3418E-02  0.1803E+00  0.1803E+00
      3.217  0.4564E-02  0.4564E-02  0.1806E+00  0.1806E+00
      3.288  0.5328E-02  0.5328E-02  0.1810E+00  0.1810E+00
      3.358  0.5089E-02  0.5089E-02  0.1813E+00  0.1813E+00
      3.429  0.4501E-02  0.4501E-02  0.1816E+00  0.1816E+00
      3.499  0.4284E-02  0.4284E-02  0.1819E+00  0.1819E+00
      3.569  0.4259E-02  0.4259E-02  0.1822E+00  0.1822E+00
      3.640  0.3976E-02  0.3975E-02  0.1825E+00  0.1825E+00
      3.710  0.3624E-02  0.3624E-02  0.1828E+00  0.1828E+00
      3.781  0.3655E-02  0.3655E-02  0.1830E+00  0.1830E+00
      3.851  0.3826E-02  0.3826E-02  0.1833E+00  0.1833E+00
      3.921  0.3403E-02  0.3403E-02  0.1835E+00  0.1835E+00
      3.992  0.2260E-02  0.2260E-02  0.1837E+00  0.1837E+00
      4.062  0.1120E-02  0.1120E-02  0.1838E+00  0.1838E+00
      4.133  0.6591E-03  0.6588E-03  0.1838E+00  0.1838E+00
      4.203  0.1044E-02  0.1044E-02  0.1839E+00  0.1839E+00
      4.274  0.2432E-02  0.2431E-02  0.1841E+00  0.1841E+00
      4.344  0.5003E-02  0.5003E-02  0.1844E+00  0.1844E+00
      4.414  0.8027E-02  0.8027E-02  0.1850E+00  0.1850E+00
      4.485  0.9790E-02  0.9790E-02  0.1857E+00  0.1857E+00
      4.555  0.9318E-02  0.9319E-02  0.1863E+00  0.1863E+00
      4.626  0.7545E-02  0.7545E-02  0.1869E+00  0.1869E+00
      4.696  0.6158E-02  0.6158E-02  0.1873E+00  0.1873E+00
      4.766  0.5973E-02  0.5972E-02  0.1877E+00  0.1877E+00
      4.837  0.6812E-02  0.6812E-02  0.1882E+00  0.1882E+00
      4.907  0.8191E-02  0.8190E-02  0.1888E+00  0.1888E+00
      4.978  0.9526E-02  0.9525E-02  0.1894E+00  0.1894E+00
      5.048  0.1007E-01  0.1007E-01  0.1902E+00  0.1902E+00
      5.118  0.9369E-02  0.9370E-02  0.1908E+00  0.1908E+00
      5.189  0.8010E-02  0.8012E-02  0.1914E+00  0.1914E+00
      5.259  0.7200E-02  0.7202E-02  0.1919E+00  0.1919E+00
      5.330  0.7318E-02  0.7318E-02  0.1924E+00  0.1924E+00
      5.400  0.7535E-02  0.7535E-02  0.1929E+00  0.1929E+00
      5.471  0.7136E-02  0.7136E-02  0.1934E+00  0.1934E+00
      5.541  0.6451E-02  0.6450E-02  0.1939E+00  0.1939E+00
      5.611  0.6185E-02  0.6184E-02  0.1943E+00  0.1943E+00
      5.682  0.6555E-02  0.6554E-02  0.1948E+00  0.1948E+00
      5.752  0.7428E-02  0.7428E-02  0.1953E+00  0.1953E+00
      5.823  0.8725E-02  0.8725E-02  0.1959E+00  0.1959E+00
      5.893  0.1021E-01  0.1021E-01  0.1966E+00  0.1966E+00
      5.963  0.1118E-01  0.1118E-01  0.1974E+00  0.1974E+00
      6.034  0.1088E-01  0.1088E-01  0.1982E+00  0.1982E+00
      6.104  0.9254E-02  0.9254E-02  0.1989E+00  0.1988E+00
      6.175  0.7171E-02  0.7170E-02  0.1994E+00  0.1994E+00
      6.245  0.5671E-02  0.5669E-02  0.1998E+00  0.1998E+00
      6.315  0.5187E-02  0.5186E-02  0.2001E+00  0.2001E+00
      6.386  0.5569E-02  0.5568E-02  0.2005E+00  0.2005E+00
      6.456  0.6446E-02  0.6446E-02  0.2010E+00  0.2010E+00
      6.527  0.7244E-02  0.7245E-02  0.2015E+00  0.2015E+00
      6.597  0.7360E-02  0.7362E-02  0.2020E+00  0.2020E+00
      6.668  0.6715E-02  0.6716E-02  0.2025E+00  0.2025E+00
      6.738  0.5704E-02  0.5705E-02  0.2029E+00  0.2029E+00
      6.808  0.4653E-02  0.4653E-02  0.2032E+00  0.2032E+00
      6.879  0.3917E-02  0.3915E-02  0.2035E+00  0.2035E+00
      6.949  0.4152E-02  0.4149E-02  0.2038E+00  0.2038E+00
      7.020  0.5846E-02  0.5845E-02  0.2042E+00  0.2042E+00
      7.090  0.8813E-02  0.8814E-02  0.2048E+00  0.2048E+00
      7.160  0.1222E-01  0.1223E-01  0.2057E+00  0.2057E+00
      7.231  0.1480E-01  0.1480E-01  0.2067E+00  0.2067E+00
      7.301  0.1535E-01  0.1535E-01  0.2078E+00  0.2078E+00
      7.372  0.1376E-01  0.1376E-01  0.2087E+00  0.2087E+00
      7.442  0.1129E-01  0.1128E-01  0.2095E+00  0.2095E+00
      7.512  0.9188E-02  0.9186E-02  0.2102E+00  0.2102E+00
      7.583  0.7730E-02  0.7729E-02  0.2107E+00  0.2107E+00
      7.653  0.6820E-02  0.6820E-02  0.2112E+00  0.2112E+00
      7.724  0.6696E-02  0.6698E-02  0.2117E+00  0.2117E+00
      7.794  0.7390E-02  0.7393E-02  0.2122E+00  0.2122E+00
      7.864  0.8258E-02  0.8260E-02  0.2128E+00  0.2128E+00
      7.935  0.8467E-02  0.8467E-02  0.2134E+00  0.2134E+00
      8.005  0.7641E-02  0.7640E-02  0.2139E+00  0.2139E+00
      8.076  0.5997E-02  0.5995E-02  0.2143E+00  0.2143E+00
      8.146  0.4126E-02  0.4125E-02  0.2146E+00  0.2146E+00
      8.217  0.2599E-02  0.2598E-02  0.2148E+00  0.2148E+00
      8.287  0.1577E-02  0.1578E-02  0.2149E+00  0.2149E+00
      8.357  0.8694E-03  0.8718E-03  0.2150E+00  0.2150E+00
      8.428  0.3373E-03  0.3399E-03  0.2150E+00  0.2150E+00
      8.498  0.1379E-04  0.1529E-04  0.2150E+00  0.2150E+00
      8.569 -0.9142E-04 -0.9105E-04  0.2150E+00  0.2150E+00
      8.639 -0.7372E-04 -0.7385E-04  0.2150E+00  0.2150E+00
      8.709 -0.3378E-04 -0.3394E-04  0.2150E+00  0.2150E+00
      8.780 -0.1062E-04 -0.1069E-04  0.2150E+00  0.2150E+00
      8.850 -0.2424E-05 -0.2445E-05  0.2150E+00  0.2150E+00
      8.921 -0.4127E-06 -0.4169E-06  0.2150E+00  0.2150E+00
      8.991 -0.5312E-07 -0.5376E-07  0.2150E+00  0.2150E+00
      9.061 -0.5214E-08 -0.5285E-08  0.2150E+00  0.2150E+00
      9.132 -0.3926E-09 -0.3985E-09  0.2150E+00  0.2150E+00
      9.202 -0.2275E-10 -0.2313E-10  0.2150E+00  0.2150E+00
      9.273 -0.1018E-11 -0.1036E-11  0.2150E+00  0.2150E+00
      9.343 -0.3523E-13 -0.3592E-13  0.2150E+00  0.2150E+00
      9.414 -0.9448E-15 -0.9640E-15  0.2150E+00  0.2150E+00
      9.484 -0.1927E-16 -0.2015E-16  0.2150E+00  0.2150E+00
      9.554  0.0000E+00  0.0000E+00  0.2150E+00  0.2150E+00
      9.625  0.0000E+00  0.0000E+00  0.2150E+00  0.2150E+00
      9.695  0.0000E+00  0.0000E+00  0.2150E+00  0.2150E+00
      9.766  0.0000E+00  0.0000E+00  0.2150E+00  0.2150E+00
      9.836  0.0000E+00  0.0000E+00  0.2150E+00  0.2150E+00
      9.906  0.0000E+00  0.0000E+00  0.2150E+00  0.2150E+00
      9.977  0.0000E+00  0.0000E+00  0.2150E+00  0.2150E+00
     10.047  0.0000E+00  0.0000E+00  0.2150E+00  0.2150E+00
     10.118  0.0000E+00  0.0000E+00  0.2150E+00  0.2150E+00
     10.188  0.0000E+00  0.0000E+00  0.2150E+00  0.2150E+00
     10.258  0.0000E+00  0.0000E+00  0.2150E+00  0.2150E+00
