<?xml version="1.0" encoding="ISO-8859-1"?>
<modeling>
 <generator>
  <i name="program" type="string">vasp </i>
  <i name="version" type="string">6.3.2  </i>
  <i name="subversion" type="string">27Jun22 (build Aug 17 2022 15:43:34) complex                          parallel </i>
  <i name="platform" type="string">tv2STDVTST </i>
  <i name="date" type="string">2025 01 21 </i>
  <i name="time" type="string">16:10:25 </i>
 </generator>
 <incar>
  <i type="int" name="ISTART">     0</i>
  <i type="string" name="PREC">Normal</i>
  <i type="int" name="ISPIN">     2</i>
  <i type="int" name="ICHARG">     2</i>
  <i type="int" name="IBRION">     2</i>
  <i name="EDIFF">      0.00020000</i>
  <i name="EDIFFG">     -0.03000000</i>
  <i type="int" name="NSW">   800</i>
  <i type="int" name="ISIF">     2</i>
  <i type="int" name="ISYM">     1</i>
  <i name="ENCUT">    400.00000000</i>
  <i name="POTIM">      0.50000000</i>
  <i type="logical" name="LREAL"> F  </i>
  <i type="int" name="ISMEAR">     1</i>
  <i name="SIGMA">      0.20000000</i>
  <i type="logical" name="LWAVE"> F  </i>
  <i type="logical" name="LCHARG"> F  </i>
  <i type="string" name="GGA">PE</i>
  <i type="int" name="IDIPOL">     3</i>
  <i type="int" name="IVDW">    11</i>
 </incar>
 <primitive_cell>
  <structure name="primitive_cell" >
   <crystal>
    <varray name="basis" >
     <v>       0.00000000      -2.56679773       0.00000000 </v>
     <v>       3.63000011       0.00000000       0.00000000 </v>
     <v>       0.00000000       0.00000000      21.41699400 </v>
    </varray>
    <i name="volume">    199.55232895 </i>
    <varray name="rec_basis" >
     <v>       0.00000000      -0.38959050       0.00000000 </v>
     <v>       0.27548209       0.00000000       0.00000000 </v>
     <v>       0.00000000       0.00000000       0.04669189 </v>
    </varray>
   </crystal>
   <varray name="positions" >
    <v>       0.00000000       0.00000000       0.00000000 </v>
    <v>       0.50000000       0.50000000       0.05992432 </v>
    <v>       0.00000000       0.00000000       0.11984864 </v>
    <v>       0.50000000       0.50000000       0.17977296 </v>
    <v>       0.00000000       0.00000000       0.23969728 </v>
    <v>       0.50000000       0.50000000       0.29962161 </v>
   </varray>
  </structure>
  <varray name="primitive_index" >
   <v type="int" >        1 </v>
   <v type="int" >        6 </v>
   <v type="int" >        9 </v>
   <v type="int" >       14 </v>
   <v type="int" >       17 </v>
   <v type="int" >       22 </v>
  </varray>
 </primitive_cell>
 <kpoints>
  <generation param="Monkhorst-Pack">
   <v type="int" name="divisions">       3        3        1 </v>
   <v name="usershift">      0.00000000       0.00000000       0.00000000 </v>
   <v name="genvec1">      0.33333333       0.00000000       0.00000000 </v>
   <v name="genvec2">      0.00000000       0.33333333       0.00000000 </v>
   <v name="genvec3">      0.00000000       0.00000000       1.00000000 </v>
   <v name="shift">      0.00000000       0.00000000       0.00000000 </v>
  </generation>
  <varray name="kpointlist" >
   <v>       0.00000000       0.00000000       0.00000000 </v>
   <v>       0.33333333       0.00000000       0.00000000 </v>
   <v>       0.00000000       0.33333333       0.00000000 </v>
   <v>       0.33333333       0.33333333       0.00000000 </v>
  </varray>
  <varray name="weights" >
   <v>       0.11111111 </v>
   <v>       0.22222222 </v>
   <v>       0.22222222 </v>
   <v>       0.44444444 </v>
  </varray>
 </kpoints>
 <parameters>
  <separator name="general" >
   <i type="string" name="SYSTEM">unknown system</i>
   <i type="logical" name="LCOMPAT"> F  </i>
  </separator>
  <separator name="electronic" >
   <i type="string" name="PREC">normal</i>
   <i name="ENMAX">    400.00000000</i>
   <i name="ENAUG">    586.98000000</i>
   <i name="EDIFF">      0.00020000</i>
   <i type="int" name="IALGO">    38</i>
   <i type="int" name="IWAVPR">    11</i>
   <i type="int" name="NBANDS">   172</i>
   <i type="int" name="NBANDSLOW">    -1</i>
   <i type="int" name="NBANDSHIGH">    -1</i>
   <i name="NELECT">    264.00000000</i>
   <i type="int" name="TURBO">     0</i>
   <i type="int" name="IRESTART">     0</i>
   <i type="int" name="NREBOOT">     0</i>
   <i type="int" name="NMIN">     0</i>
   <i name="EREF">      0.00000000</i>
   <separator name="electronic smearing" >
    <i type="int" name="ISMEAR">     1</i>
    <i name="SIGMA">      0.20000000</i>
    <i name="KSPACING">      0.50000000</i>
    <i type="logical" name="KGAMMA"> T  </i>
    <i type="logical" name="KBLOWUP"> T  </i>
   </separator>
   <separator name="electronic projectors" >
    <i type="logical" name="LREAL"> F  </i>
    <v name="ROPT">      0.00000000</v>
    <i type="int" name="LMAXPAW">  -100</i>
    <i type="int" name="LMAXMIX">     2</i>
    <i type="logical" name="NLSPLINE"> F  </i>
   </separator>
   <separator name="electronic startup" >
    <i type="int" name="ISTART">     0</i>
    <i type="int" name="ICHARG">     2</i>
    <i type="int" name="INIWAV">     1</i>
   </separator>
   <separator name="electronic spin" >
    <i type="int" name="ISPIN">     2</i>
    <i type="logical" name="LNONCOLLINEAR"> F  </i>
    <v name="MAGMOM">      1.00000000      1.00000000      1.00000000      1.00000000      1.00000000      1.00000000      1.00000000      1.00000000      1.00000000      1.00000000      1.00000000      1.00000000      1.00000000      1.00000000      1.00000000      1.00000000      1.00000000      1.00000000      1.00000000      1.00000000
      1.00000000      1.00000000      1.00000000      1.00000000</v>
    <i name="NUPDOWN">     -1.00000000</i>
    <i type="logical" name="LSORBIT"> F  </i>
    <v name="SAXIS">      0.00000000      0.00000000      1.00000000</v>
    <i type="logical" name="LSPIRAL"> F  </i>
    <v name="QSPIRAL">      0.00000000      0.00000000      0.00000000</v>
    <i type="logical" name="LZEROZ"> F  </i>
   </separator>
   <separator name="electronic exchange-correlation" >
    <i type="logical" name="LASPH"> F  </i>
    <i type="logical" name="LMETAGGA"> F  </i>
   </separator>
   <separator name="electronic convergence" >
    <i type="int" name="NELM">    60</i>
    <i type="int" name="NELMDL">    -5</i>
    <i type="int" name="NELMIN">     2</i>
    <i name="ENINI">    400.00000000</i>
    <separator name="electronic convergence detail" >
     <i type="logical" name="LDIAG"> T  </i>
     <i type="logical" name="LSUBROT"> F  </i>
     <i name="WEIMIN">      0.00100000</i>
     <i name="EBREAK">      0.00000029</i>
     <i name="DEPER">      0.30000000</i>
     <i type="int" name="NRMM">     4</i>
     <i name="TIME">      0.40000000</i>
    </separator>
   </separator>
   <separator name="electronic mixer" >
    <i name="AMIX">      0.40000000</i>
    <i name="BMIX">      1.00000000</i>
    <i name="AMIN">      0.10000000</i>
    <i name="AMIX_MAG">      1.60000000</i>
    <i name="BMIX_MAG">      1.00000000</i>
    <separator name="electronic mixer details" >
     <i type="int" name="IMIX">     4</i>
     <i type="logical" name="MIXFIRST"> F  </i>
     <i type="int" name="MAXMIX">   -45</i>
     <i name="WC">    100.00000000</i>
     <i type="int" name="INIMIX">     1</i>
     <i type="int" name="MIXPRE">     1</i>
     <i type="int" name="MREMOVE">     5</i>
    </separator>
   </separator>
   <separator name="electronic dipolcorrection" >
    <i type="logical" name="LDIPOL"> F  </i>
    <i type="logical" name="LMONO"> F  </i>
    <i type="int" name="IDIPOL">     3</i>
    <i name="EPSILON">      1.00000000</i>
    <v name="DIPOL">   -100.00000000   -100.00000000   -100.00000000</v>
    <i name="EFIELD">      0.00000000</i>
   </separator>
  </separator>
  <separator name="grids" >
   <i type="int" name="NGX">    36</i>
   <i type="int" name="NGY">    28</i>
   <i type="int" name="NGZ">   108</i>
   <i type="int" name="NGXF">    72</i>
   <i type="int" name="NGYF">    56</i>
   <i type="int" name="NGZF">   216</i>
   <i type="logical" name="ADDGRID"> F  </i>
  </separator>
  <separator name="ionic" >
   <i type="int" name="NSW">   800</i>
   <i type="int" name="IBRION">     2</i>
   <i type="int" name="MDALGO">     0</i>
   <i type="int" name="ISIF">     2</i>
   <i name="PSTRESS">      0.00000000</i>
   <i name="EDIFFG">     -0.03000000</i>
   <i type="int" name="NFREE">     1</i>
   <i name="POTIM">      0.50000000</i>
   <i name="SMASS">     -3.00000000</i>
   <i name="SCALEE">      1.00000000</i>
  </separator>
  <separator name="ionic md" >
   <i name="TEBEG">      0.00010000</i>
   <i name="TEEND">      0.00010000</i>
   <i type="int" name="NBLOCK">     1</i>
   <i type="int" name="KBLOCK">   800</i>
   <i type="int" name="NPACO">   256</i>
   <i name="APACO">     10.00000000</i>
  </separator>
  <separator name="symmetry" >
   <i type="int" name="ISYM">     1</i>
   <i name="SYMPREC">      0.00001000</i>
  </separator>
  <separator name="dos" >
   <i type="int" name="LORBIT">     0</i>
   <v name="RWIGS">     -1.00000000</v>
   <i type="int" name="NEDOS">   301</i>
   <i name="EMIN">     10.00000000</i>
   <i name="EMAX">    -10.00000000</i>
   <i name="EFERMI">      0.00000000</i>
  </separator>
  <separator name="writing" >
   <i type="int" name="NWRITE">     2</i>
   <i type="logical" name="LWAVE"> F  </i>
   <i type="logical" name="LDOWNSAMPLE"> F  </i>
   <i type="logical" name="LCHARG"> F  </i>
   <i type="logical" name="LPARD"> F  </i>
   <i type="logical" name="LVTOT"> F  </i>
   <i type="logical" name="LVHAR"> F  </i>
   <i type="logical" name="LELF"> F  </i>
   <i type="logical" name="LOPTICS"> F  </i>
   <v name="STM">      0.00000000      0.00000000      0.00000000      0.00000000      0.00000000      0.00000000      0.00000000</v>
  </separator>
  <separator name="performance" >
   <i type="int" name="NPAR">     4</i>
   <i type="int" name="NSIM">     4</i>
   <i type="int" name="NBLK">    -1</i>
   <i type="logical" name="LPLANE"> T  </i>
   <i type="logical" name="LSCALAPACK"> T  </i>
   <i type="logical" name="LSCAAWARE"> F  </i>
   <i type="logical" name="LSCALU"> F  </i>
   <i type="logical" name="LASYNC"> F  </i>
   <i type="logical" name="LORBITALREAL"> F  </i>
  </separator>
  <separator name="miscellaneous" >
   <i type="int" name="IDIOT">     3</i>
   <i type="int" name="PHON_NSTRUCT">    -1</i>
   <i type="logical" name="LMUSIC"> F  </i>
   <v name="POMASS">     63.54600000</v>
   <v name="DARWINR">      0.00000000</v>
   <v name="DARWINV">      1.00000000</v>
   <i type="logical" name="LCORR"> T  </i>
  </separator>
  <i type="logical" name="GGA_COMPAT"> T  </i>
  <i type="logical" name="LBERRY"> F  </i>
  <i type="int" name="ICORELEVEL">     0</i>
  <i type="logical" name="LDAU"> F  </i>
  <i type="int" name="I_CONSTRAINED_M">     0</i>
  <separator name="electronic exchange-correlation" >
   <i type="string" name="GGA">PE</i>
   <i type="int" name="VOSKOWN">     0</i>
   <i type="logical" name="LHFCALC"> F  </i>
   <i type="string" name="PRECFOCK"></i>
   <i type="logical" name="LSYMGRAD"> F  </i>
   <i type="logical" name="LHFONE"> F  </i>
   <i type="logical" name="LRHFCALC"> F  </i>
   <i type="logical" name="LTHOMAS"> F  </i>
   <i type="logical" name="LMODELHF"> F  </i>
   <i type="logical" name="LFOCKACE"> F  </i>
   <i name="ENCUT4O">     -1.00000000</i>
   <i type="int" name="EXXOEP">     0</i>
   <i type="int" name="FOURORBIT">     0</i>
   <i name="AEXX">      0.00000000</i>
   <i name="HFALPHA">      0.00000000</i>
   <i name="MCALPHA">      0.00000000</i>
   <i name="ALDAX">      1.00000000</i>
   <i name="AGGAX">      1.00000000</i>
   <i name="ALDAC">      1.00000000</i>
   <i name="AGGAC">      1.00000000</i>
   <i type="int" name="NKREDX">     1</i>
   <i type="int" name="NKREDY">     1</i>
   <i type="int" name="NKREDZ">     1</i>
   <i type="logical" name="SHIFTRED"> F  </i>
   <i type="logical" name="ODDONLY"> F  </i>
   <i type="logical" name="EVENONLY"> F  </i>
   <i type="int" name="LMAXFOCK">     0</i>
   <i type="int" name="NMAXFOCKAE">     0</i>
   <i type="logical" name="LFOCKAEDFT"> F  </i>
   <i name="HFSCREEN">      0.00000000</i>
   <i name="HFSCREENC">      0.00000000</i>
   <i type="int" name="NBANDSGWLOW">     0</i>
  </separator>
  <separator name="vdW DFT" >
   <i type="logical" name="LUSE_VDW"> F  </i>
   <i name="Zab_VDW">     -0.84910000</i>
   <i name="PARAM1">      0.12340000</i>
   <i name="PARAM2">      1.00000000</i>
   <i name="PARAM3">      0.00000000</i>
  </separator>
  <separator name="model GW" >
   <i type="int" name="MODEL_GW">     0</i>
   <i name="MODEL_EPS0">     19.95523290</i>
   <i name="MODEL_ALPHA">      1.00000000</i>
  </separator>
  <separator name="linear response parameters" >
   <i type="logical" name="LEPSILON"> F  </i>
   <i type="logical" name="LRPA"> F  </i>
   <i type="logical" name="LNABLA"> F  </i>
   <i type="logical" name="LVEL"> F  </i>
   <i name="CSHIFT">      0.10000000</i>
   <i name="OMEGAMAX">     -1.00000000</i>
   <i name="DEG_THRESHOLD">      0.00200000</i>
   <i name="RTIME">     -0.10000000</i>
   <i name="WPLASMAI">      0.00000000</i>
   <v name="DFIELD">      0.00000000      0.00000000      0.00000000</v>
   <v name="WPLASMA">      0.00000000      0.00000000      0.00000000      0.00000000      0.00000000      0.00000000      0.00000000      0.00000000      0.00000000</v>
  </separator>
  <separator name="orbital magnetization" >
   <i type="logical" name="NUCIND"> F  </i>
   <v name="MAGPOS">      0.00000000      0.00000000      0.00000000</v>
   <i type="logical" name="LNICSALL"> T  </i>
   <i type="logical" name="ORBITALMAG"> F  </i>
   <i type="logical" name="LMAGBLOCH"> F  </i>
   <i type="logical" name="LCHIMAG"> F  </i>
   <i type="logical" name="LGAUGE"> T  </i>
   <i type="int" name="MAGATOM">     0</i>
   <v name="MAGDIPOL">      0.00000000      0.00000000      0.00000000</v>
   <v name="AVECCONST">      0.00000000      0.00000000      0.00000000</v>
  </separator>
  <separator name="response functions" >
   <i type="logical" name="LFINITE_TEMPERATURE"> F  </i>
   <i type="logical" name="LADDER"> F  </i>
   <i type="logical" name="LRPAFORCE"> F  </i>
   <i type="logical" name="LFXC"> F  </i>
   <i type="logical" name="LHARTREE"> T  </i>
   <i type="int" name="IBSE">     0</i>
   <v type="int" name="KPOINT">    -1     0     0     0</v>
   <i type="logical" name="LTCTC"> F  </i>
   <i type="logical" name="LTCTE"> F  </i>
   <i type="logical" name="LTETE"> F  </i>
   <i type="logical" name="LTRIPLET"> F  </i>
   <i type="logical" name="LFXCEPS"> F  </i>
   <i type="logical" name="LFXHEG"> F  </i>
   <i type="int" name="NATURALO">     2</i>
   <i type="logical" name="LHOLEGF"> F  </i>
   <i type="logical" name="L2ORDER"> F  </i>
   <i type="logical" name="LDMP1"> F  </i>
   <i type="logical" name="LMP2LT"> F  </i>
   <i type="logical" name="LSMP2LT"> F  </i>
   <i type="logical" name="LGWLF"> F  </i>
   <i name="ENCUTGW">     -2.00000000</i>
   <i name="ENCUTGWSOFT">     -2.00000000</i>
   <i name="ENCUTLF">     -1.00000000</i>
   <i type="logical" name="LESF_SPLINES"> F  </i>
   <i type="int" name="LMAXMP2">    -1</i>
   <i name="SCISSOR">      0.00000000</i>
   <i type="int" name="NOMEGA">     0</i>
   <i type="int" name="NOMEGAR">     0</i>
   <i type="int" name="NBANDSGW">    -1</i>
   <i type="int" name="NBANDSO">    -1</i>
   <i type="int" name="NBANDSV">    -1</i>
   <i type="int" name="NELMGW">     1</i>
   <i type="int" name="NELMHF">     1</i>
   <i type="int" name="DIM">     3</i>
   <i type="int" name="IESPILON">     4</i>
   <i type="int" name="ANTIRES">     0</i>
   <i name="OMEGAMAX">    -30.00000000</i>
   <i name="OMEGAMIN">    -30.00000000</i>
   <i name="OMEGATL">   -200.00000000</i>
   <i type="int" name="OMEGAGRID">     0</i>
   <i name="CSHIFT">     -0.10000000</i>
   <i type="logical" name="LSELFENERGY"> F  </i>
   <i type="logical" name="LSPECTRAL"> F  </i>
   <i type="logical" name="LSPECTRALGW"> F  </i>
   <i type="logical" name="LSINGLES"> F  </i>
   <i type="logical" name="LFERMIGW"> F  </i>
   <i type="logical" name="ODDONLYGW"> F  </i>
   <i type="logical" name="EVENONLYGW"> F  </i>
   <i type="int" name="NKREDLFX">     1</i>
   <i type="int" name="NKREDLFY">     1</i>
   <i type="int" name="NKREDLFZ">     1</i>
   <i type="int" name="MAXMEM">  2800</i>
   <i type="int" name="TELESCOPE">     0</i>
   <i type="int" name="NTAUPAR">    -1</i>
   <i type="int" name="NOMEGAPAR">    -1</i>
   <i name="DAMP_NEWTON">      0.80000001</i>
   <i name="LAMBDA">      1.00000000</i>
  </separator>
  <separator name="External order field" >
   <i name="OFIELD_KAPPA">      0.00000000</i>
   <v name="OFIELD_K">      0.00000000      0.00000000      0.00000000</v>
   <i name="OFIELD_Q6_NEAR">      0.00000000</i>
   <i name="OFIELD_Q6_FAR">      0.00000000</i>
   <i name="OFIELD_A">      0.00000000</i>
  </separator>
  <separator name="optional k-points parameters" >
   <i type="int" name="KPOINTS_OPT_MODE">     1</i>
   <i type="logical" name="LKPOINTS_OPT"> F  </i>
  </separator>
 </parameters>
 <atominfo>
  <atoms>      24 </atoms>
  <types>       1 </types>
  <array name="atoms" >
   <dimension dim="1">ion</dimension>
   <field type="string">element</field>
   <field type="int">atomtype</field>
   <set>
    <rc><c>Cu</c><c>   1</c></rc>
    <rc><c>Cu</c><c>   1</c></rc>
    <rc><c>Cu</c><c>   1</c></rc>
    <rc><c>Cu</c><c>   1</c></rc>
    <rc><c>Cu</c><c>   1</c></rc>
    <rc><c>Cu</c><c>   1</c></rc>
    <rc><c>Cu</c><c>   1</c></rc>
    <rc><c>Cu</c><c>   1</c></rc>
    <rc><c>Cu</c><c>   1</c></rc>
    <rc><c>Cu</c><c>   1</c></rc>
    <rc><c>Cu</c><c>   1</c></rc>
    <rc><c>Cu</c><c>   1</c></rc>
    <rc><c>Cu</c><c>   1</c></rc>
    <rc><c>Cu</c><c>   1</c></rc>
    <rc><c>Cu</c><c>   1</c></rc>
    <rc><c>Cu</c><c>   1</c></rc>
    <rc><c>Cu</c><c>   1</c></rc>
    <rc><c>Cu</c><c>   1</c></rc>
    <rc><c>Cu</c><c>   1</c></rc>
    <rc><c>Cu</c><c>   1</c></rc>
    <rc><c>Cu</c><c>   1</c></rc>
    <rc><c>Cu</c><c>   1</c></rc>
    <rc><c>Cu</c><c>   1</c></rc>
    <rc><c>Cu</c><c>   1</c></rc>
   </set>
  </array>
  <array name="atomtypes" >
   <dimension dim="1">type</dimension>
   <field type="int">atomspertype</field>
   <field type="string">element</field>
   <field>mass</field>
   <field>valence</field>
   <field type="string">pseudopotential</field>
   <set>
    <rc><c>  24</c><c>Cu</c><c>     63.54600000</c><c>     11.00000000</c><c>  PAW_PBE Cu 22Jun2005                  </c></rc>
   </set>
  </array>
 </atominfo>
 <structure name="initialpos" >
  <crystal>
   <varray name="basis" >
    <v>       7.26000023       0.00000000       0.00000000 </v>
    <v>       0.00000000       5.13359547       0.00000000 </v>
    <v>       0.00000000       0.00000000      21.41699400 </v>
   </varray>
   <i name="volume">    798.20931597 </i>
   <varray name="rec_basis" >
    <v>       0.13774104       0.00000000       0.00000000 </v>
    <v>       0.00000000       0.19479525       0.00000000 </v>
    <v>       0.00000000       0.00000000       0.04669189 </v>
   </varray>
  </crystal>
  <varray name="positions" >
   <v>       0.00000000       0.00000000       0.00000000 </v>
   <v>       0.00000000       0.50000000       0.00000000 </v>
   <v>       0.50000000       0.00000000       0.00000000 </v>
   <v>       0.50000000       0.50000000       0.00000000 </v>
   <v>       0.25000000       0.25000000       0.05992432 </v>
   <v>       0.25000000       0.75000000       0.05992432 </v>
   <v>       0.75000000       0.25000000       0.05992432 </v>
   <v>       0.75000000       0.75000000       0.05992432 </v>
   <v>       0.00000000       0.00000000       0.11984864 </v>
   <v>       0.00000000       0.50000000       0.11984864 </v>
   <v>       0.50000000       0.00000000       0.11984864 </v>
   <v>       0.50000000       0.50000000       0.11984864 </v>
   <v>       0.25000000       0.25000000       0.17977296 </v>
   <v>       0.25000000       0.75000000       0.17977296 </v>
   <v>       0.75000000       0.25000000       0.17977296 </v>
   <v>       0.75000000       0.75000000       0.17977296 </v>
   <v>       0.00000000       0.00000000       0.23969728 </v>
   <v>       0.00000000       0.50000000       0.23969728 </v>
   <v>       0.50000000       0.00000000       0.23969728 </v>
   <v>       0.50000000       0.50000000       0.23969728 </v>
   <v>       0.25000000       0.25000000       0.29962161 </v>
   <v>       0.25000000       0.75000000       0.29962161 </v>
   <v>       0.75000000       0.25000000       0.29962161 </v>
   <v>       0.75000000       0.75000000       0.29962161 </v>
  </varray>
  <varray name="selective"  type="logical" >
   <v type="logical" >  F  F  F </v>
   <v type="logical" >  F  F  F </v>
   <v type="logical" >  F  F  F </v>
   <v type="logical" >  F  F  F </v>
   <v type="logical" >  F  F  F </v>
   <v type="logical" >  F  F  F </v>
   <v type="logical" >  F  F  F </v>
   <v type="logical" >  F  F  F </v>
   <v type="logical" >  T  T  T </v>
   <v type="logical" >  T  T  T </v>
   <v type="logical" >  T  T  T </v>
   <v type="logical" >  T  T  T </v>
   <v type="logical" >  T  T  T </v>
   <v type="logical" >  T  T  T </v>
   <v type="logical" >  T  T  T </v>
   <v type="logical" >  T  T  T </v>
   <v type="logical" >  T  T  T </v>
   <v type="logical" >  T  T  T </v>
   <v type="logical" >  T  T  T </v>
   <v type="logical" >  T  T  T </v>
   <v type="logical" >  T  T  T </v>
   <v type="logical" >  T  T  T </v>
   <v type="logical" >  T  T  T </v>
   <v type="logical" >  T  T  T </v>
  </varray>
  <nose>
   <v>      -3.00000000       0.00000000       0.00010000       0.00010000 </v>
  </nose>
 </structure>
 <calculation>
  <scstep>
   <time name="dav">    4.09    4.12</time>
   <time name="total">    4.17    4.22</time>
   <energy>
    <i name="alphaZ">    527.73745042 </i>
    <i name="ewald">  99863.90309816 </i>
    <i name="hartreedc">-131883.98201195 </i>
    <i name="XCdc">   1093.35163844 </i>
    <i name="pawpsdc">  29474.33990517 </i>
    <i name="pawaedc"> -32014.10235660 </i>
    <i name="eentropy">      0.01670992 </i>
    <i name="bandstr">   1874.48202875 </i>
    <i name="atom">  33382.98336479 </i>
    <i name="e_fr_energy">   2318.72982710 </i>
    <i name="e_wo_entrp">   2318.71311718 </i>
    <i name="e_0_energy">   2318.72425713 </i>
   </energy>
  </scstep>
  <scstep>
   <time name="dav">    4.06    4.09</time>
   <time name="total">    4.06    4.09</time>
   <energy>
    <i name="e_fr_energy">    213.76439482 </i>
    <i name="e_wo_entrp">    213.77358964 </i>
    <i name="e_0_energy">    213.76745976 </i>
   </energy>
  </scstep>
  <scstep>
   <time name="dav">    4.07    4.11</time>
   <time name="total">    4.07    4.11</time>
   <energy>
    <i name="e_fr_energy">    -80.00587403 </i>
    <i name="e_wo_entrp">    -80.00734943 </i>
    <i name="e_0_energy">    -80.00636583 </i>
   </energy>
  </scstep>
  <scstep>
   <time name="dav">    4.43    4.47</time>
   <time name="total">    4.43    4.47</time>
   <energy>
    <i name="e_fr_energy">    -96.51271194 </i>
    <i name="e_wo_entrp">    -96.52004565 </i>
    <i name="e_0_energy">    -96.51515651 </i>
   </energy>
  </scstep>
  <scstep>
   <time name="dav">    4.48    4.51</time>
   <time name="total">    4.88    4.92</time>
   <energy>
    <i name="e_fr_energy">    -96.87914295 </i>
    <i name="e_wo_entrp">    -96.88704648 </i>
    <i name="e_0_energy">    -96.88177746 </i>
   </energy>
  </scstep>
  <scstep>
   <time name="dav">    4.20    4.23</time>
   <time name="total">    4.65    4.69</time>
   <energy>
    <i name="e_fr_energy">    -77.45178480 </i>
    <i name="e_wo_entrp">    -77.44967625 </i>
    <i name="e_0_energy">    -77.45108195 </i>
   </energy>
  </scstep>
  <scstep>
   <time name="dav">    4.28    4.31</time>
   <time name="total">    4.73    4.77</time>
   <energy>
    <i name="e_fr_energy">    -65.29354044 </i>
    <i name="e_wo_entrp">    -65.30586694 </i>
    <i name="e_0_energy">    -65.29764927 </i>
   </energy>
  </scstep>
  <scstep>
   <time name="dav">    4.49    4.52</time>
   <time name="total">    4.93    4.97</time>
   <energy>
    <i name="e_fr_energy">    -63.03287142 </i>
    <i name="e_wo_entrp">    -63.02681029 </i>
    <i name="e_0_energy">    -63.03085104 </i>
   </energy>
  </scstep>
  <scstep>
   <time name="dav">    5.18    5.23</time>
   <time name="total">    5.65    5.69</time>
   <energy>
    <i name="e_fr_energy">    -60.79636459 </i>
    <i name="e_wo_entrp">    -60.80610438 </i>
    <i name="e_0_energy">    -60.79961119 </i>
   </energy>
  </scstep>
  <scstep>
   <time name="dav">    5.44    5.49</time>
   <time name="total">    5.89    5.94</time>
   <energy>
    <i name="e_fr_energy">    -60.80754544 </i>
    <i name="e_wo_entrp">    -60.81551219 </i>
    <i name="e_0_energy">    -60.81020102 </i>
   </energy>
  </scstep>
  <scstep>
   <time name="dav">    4.52    4.56</time>
   <time name="total">    4.99    5.02</time>
   <energy>
    <i name="e_fr_energy">    -61.92299733 </i>
    <i name="e_wo_entrp">    -61.93589174 </i>
    <i name="e_0_energy">    -61.92729547 </i>
   </energy>
  </scstep>
  <scstep>
   <time name="dav">    4.64    4.68</time>
   <time name="total">    5.07    5.12</time>
   <energy>
    <i name="e_fr_energy">    -65.96679936 </i>
    <i name="e_wo_entrp">    -65.95379772 </i>
    <i name="e_0_energy">    -65.96246548 </i>
   </energy>
  </scstep>
  <scstep>
   <time name="dav">    5.34    5.38</time>
   <time name="total">    5.80    5.84</time>
   <energy>
    <i name="e_fr_energy">    -72.07940474 </i>
    <i name="e_wo_entrp">    -72.06946073 </i>
    <i name="e_0_energy">    -72.07609007 </i>
   </energy>
  </scstep>
  <scstep>
   <time name="dav">    5.28    5.32</time>
   <time name="total">    5.74    5.78</time>
   <energy>
    <i name="e_fr_energy">    -75.14095646 </i>
    <i name="e_wo_entrp">    -75.13234288 </i>
    <i name="e_0_energy">    -75.13808526 </i>
   </energy>
  </scstep>
  <scstep>
   <time name="dav">    4.41    4.44</time>
   <time name="total">    4.87    4.91</time>
   <energy>
    <i name="e_fr_energy">    -79.30460175 </i>
    <i name="e_wo_entrp">    -79.26206542 </i>
    <i name="e_0_energy">    -79.29042298 </i>
   </energy>
  </scstep>
  <scstep>
   <time name="dav">    4.39    4.43</time>
   <time name="total">    4.86    4.90</time>
   <energy>
    <i name="e_fr_energy">    -80.10816083 </i>
    <i name="e_wo_entrp">    -80.06900329 </i>
    <i name="e_0_energy">    -80.09510832 </i>
   </energy>
  </scstep>
  <scstep>
   <time name="dav">    4.83    4.87</time>
   <time name="total">    5.28    5.32</time>
   <energy>
    <i name="e_fr_energy">    -80.42941138 </i>
    <i name="e_wo_entrp">    -80.38339831 </i>
    <i name="e_0_energy">    -80.41407369 </i>
   </energy>
  </scstep>
  <scstep>
   <time name="dav">    4.72    4.76</time>
   <time name="total">    5.18    5.22</time>
   <energy>
    <i name="e_fr_energy">    -80.71085384 </i>
    <i name="e_wo_entrp">    -80.65831988 </i>
    <i name="e_0_energy">    -80.69334252 </i>
   </energy>
  </scstep>
  <scstep>
   <time name="dav">    4.74    4.78</time>
   <time name="total">    5.19    5.23</time>
   <energy>
    <i name="e_fr_energy">    -80.90610309 </i>
    <i name="e_wo_entrp">    -80.85261642 </i>
    <i name="e_0_energy">    -80.88827420 </i>
   </energy>
  </scstep>
  <scstep>
   <time name="dav">    4.94    4.98</time>
   <time name="total">    5.40    5.45</time>
   <energy>
    <i name="e_fr_energy">    -81.24477237 </i>
    <i name="e_wo_entrp">    -81.19211705 </i>
    <i name="e_0_energy">    -81.22722060 </i>
   </energy>
  </scstep>
  <scstep>
   <time name="dav">    4.70    4.73</time>
   <time name="total">    5.15    5.19</time>
   <energy>
    <i name="e_fr_energy">    -81.47406494 </i>
    <i name="e_wo_entrp">    -81.42078651 </i>
    <i name="e_0_energy">    -81.45630547 </i>
   </energy>
  </scstep>
  <scstep>
   <time name="dav">    4.99    5.03</time>
   <time name="total">    5.46    5.50</time>
   <energy>
    <i name="e_fr_energy">    -81.77708334 </i>
    <i name="e_wo_entrp">    -81.72268151 </i>
    <i name="e_0_energy">    -81.75894940 </i>
   </energy>
  </scstep>
  <scstep>
   <time name="dav">    5.18    5.22</time>
   <time name="total">    5.63    5.68</time>
   <energy>
    <i name="e_fr_energy">    -81.85878942 </i>
    <i name="e_wo_entrp">    -81.80614633 </i>
    <i name="e_0_energy">    -81.84124173 </i>
   </energy>
  </scstep>
  <scstep>
   <time name="dav">    4.75    4.79</time>
   <time name="total">    5.20    5.24</time>
   <energy>
    <i name="e_fr_energy">    -81.88639043 </i>
    <i name="e_wo_entrp">    -81.83281235 </i>
    <i name="e_0_energy">    -81.86853107 </i>
   </energy>
  </scstep>
  <scstep>
   <time name="dav">    4.59    4.63</time>
   <time name="total">    5.06    5.10</time>
   <energy>
    <i name="e_fr_energy">    -81.91475469 </i>
    <i name="e_wo_entrp">    -81.86204895 </i>
    <i name="e_0_energy">    -81.89718611 </i>
   </energy>
  </scstep>
  <scstep>
   <time name="dav">    3.48    3.50</time>
   <time name="total">    3.92    3.95</time>
   <energy>
    <i name="e_fr_energy">    -81.92431572 </i>
    <i name="e_wo_entrp">    -81.87137627 </i>
    <i name="e_0_energy">    -81.90666924 </i>
   </energy>
  </scstep>
  <scstep>
   <time name="dav">    3.21    3.23</time>
   <time name="total">    3.67    3.70</time>
   <energy>
    <i name="e_fr_energy">    -81.92711727 </i>
    <i name="e_wo_entrp">    -81.87381734 </i>
    <i name="e_0_energy">    -81.90935063 </i>
   </energy>
  </scstep>
  <scstep>
   <time name="dav">    3.21    3.23</time>
   <time name="total">    3.66    3.69</time>
   <energy>
    <i name="e_fr_energy">    -81.92861693 </i>
    <i name="e_wo_entrp">    -81.87542953 </i>
    <i name="e_0_energy">    -81.91088780 </i>
   </energy>
  </scstep>
  <scstep>
   <time name="dav">    3.00    3.02</time>
   <time name="total">    3.07    3.10</time>
   <energy>
    <i name="alphaZ">    527.73745042 </i>
    <i name="ewald">  99863.90309816 </i>
    <i name="hartreedc">-131595.63357381 </i>
    <i name="XCdc">   1067.25842094 </i>
    <i name="pawpsdc">  31111.86142974 </i>
    <i name="pawaedc"> -33691.77131100 </i>
    <i name="eentropy">     -0.05325646 </i>
    <i name="bandstr">   -748.21442723 </i>
    <i name="atom">  33382.98336479 </i>
    <i name="e_fr_energy">    -81.92880445 </i>
    <i name="e_wo_entrp">    -81.87554799 </i>
    <i name="e_0_energy">    -81.91105230 </i>
   </energy>
  </scstep>
  <dipole>
   <v name="dipole">      0.00000000       0.00000000       0.01420787 </v>
   <i name="Tr[quadrupol]">  -1954.28808310 </i>
   <i name="Echarged">      0.00000000 </i>
   <i name="Edipol_quadrupol">      0.00000000 </i>
   <i name="Eion">      0.00000000 </i>
  </dipole>
  <structure>
   <crystal>
    <varray name="basis" >
     <v>       7.26000023       0.00000000       0.00000000 </v>
     <v>       0.00000000       5.13359547       0.00000000 </v>
     <v>       0.00000000       0.00000000      21.41699400 </v>
    </varray>
    <i name="volume">    798.20931597 </i>
    <varray name="rec_basis" >
     <v>       0.13774104       0.00000000       0.00000000 </v>
     <v>       0.00000000       0.19479525       0.00000000 </v>
     <v>       0.00000000       0.00000000       0.04669189 </v>
    </varray>
   </crystal>
   <varray name="positions" >
    <v>       0.00000000       0.00000000       0.00000000 </v>
    <v>       0.00000000       0.50000000       0.00000000 </v>
    <v>       0.50000000       0.00000000       0.00000000 </v>
    <v>       0.50000000       0.50000000       0.00000000 </v>
    <v>       0.25000000       0.25000000       0.05992432 </v>
    <v>       0.25000000       0.75000000       0.05992432 </v>
    <v>       0.75000000       0.25000000       0.05992432 </v>
    <v>       0.75000000       0.75000000       0.05992432 </v>
    <v>       0.00000000       0.00000000       0.11984864 </v>
    <v>       0.00000000       0.50000000       0.11984864 </v>
    <v>       0.50000000       0.00000000       0.11984864 </v>
    <v>       0.50000000       0.50000000       0.11984864 </v>
    <v>       0.25000000       0.25000000       0.17977296 </v>
    <v>       0.25000000       0.75000000       0.17977296 </v>
    <v>       0.75000000       0.25000000       0.17977296 </v>
    <v>       0.75000000       0.75000000       0.17977296 </v>
    <v>       0.00000000       0.00000000       0.23969728 </v>
    <v>       0.00000000       0.50000000       0.23969728 </v>
    <v>       0.50000000       0.00000000       0.23969728 </v>
    <v>       0.50000000       0.50000000       0.23969728 </v>
    <v>       0.25000000       0.25000000       0.29962161 </v>
    <v>       0.25000000       0.75000000       0.29962161 </v>
    <v>       0.75000000       0.25000000       0.29962161 </v>
    <v>       0.75000000       0.75000000       0.29962161 </v>
   </varray>
  </structure>
  <varray name="forces" >
   <v>       0.00000000      -0.00000000       0.47997603 </v>
   <v>       0.00000000       0.00000000       0.47997603 </v>
   <v>      -0.00000000      -0.00000000       0.47997603 </v>
   <v>      -0.00000000      -0.00000000       0.47997603 </v>
   <v>       0.00000000      -0.00000000      -0.23213327 </v>
   <v>       0.00000000      -0.00000000      -0.23213327 </v>
   <v>      -0.00000000      -0.00000000      -0.23213327 </v>
   <v>       0.00000000      -0.00000000      -0.23213327 </v>
   <v>      -0.00000000      -0.00000000       0.12751961 </v>
   <v>      -0.00000000      -0.00000000       0.12751961 </v>
   <v>      -0.00000000      -0.00000000       0.12751961 </v>
   <v>      -0.00000000      -0.00000000       0.12751961 </v>
   <v>       0.00000000      -0.00000000      -0.12810535 </v>
   <v>      -0.00000000       0.00000000      -0.12810535 </v>
   <v>      -0.00000000      -0.00000000      -0.12810535 </v>
   <v>       0.00000000       0.00000000      -0.12810535 </v>
   <v>       0.00000000      -0.00000000       0.23516601 </v>
   <v>       0.00000000       0.00000000       0.23516601 </v>
   <v>       0.00000000      -0.00000000       0.23516601 </v>
   <v>      -0.00000000       0.00000000       0.23516601 </v>
   <v>      -0.00000000       0.00000000      -0.48242303 </v>
   <v>       0.00000000      -0.00000000      -0.48242303 </v>
   <v>       0.00000000       0.00000000      -0.48242303 </v>
   <v>       0.00000000      -0.00000000      -0.48242303 </v>
  </varray>
  <varray name="stress" >
   <v>     -42.53454598       0.00000000       0.00000000 </v>
   <v>       0.00000000     -35.67987354       0.00000000 </v>
   <v>       0.00000000       0.00000000     -22.09376088 </v>
  </varray>
  <energy>
   <i name="e_fr_energy">    -89.88640625 </i>
   <i name="e_wo_entrp">    -89.83314979 </i>
   <i name="e_0_energy">    -89.86865410 </i>
  </energy>
  <time name="totalsc">  148.34  149.54</time>
 </calculation>
 <calculation>
  <scstep>
   <time name="dav">    4.32    4.36</time>
   <time name="total">    4.78    4.82</time>
   <energy>
    <i name="alphaZ">    527.73745042 </i>
    <i name="ewald"> 100126.73460213 </i>
    <i name="hartreedc">-131857.41701195 </i>
    <i name="XCdc">   1067.40679724 </i>
    <i name="pawpsdc">  31111.71135620 </i>
    <i name="pawaedc"> -33691.62606125 </i>
    <i name="eentropy">     -0.05330367 </i>
    <i name="bandstr">   -749.42236431 </i>
    <i name="atom">  33382.98336479 </i>
    <i name="e_fr_energy">    -81.94517041 </i>
    <i name="e_wo_entrp">    -81.89186674 </i>
    <i name="e_0_energy">    -81.92740252 </i>
   </energy>
  </scstep>
  <scstep>
   <time name="dav">    5.50    5.55</time>
   <time name="total">    5.96    6.01</time>
   <energy>
    <i name="e_fr_energy">    -81.97668809 </i>
    <i name="e_wo_entrp">    -81.92333761 </i>
    <i name="e_0_energy">    -81.95890459 </i>
   </energy>
  </scstep>
  <scstep>
   <time name="dav">    4.28    4.31</time>
   <time name="total">    4.72    7.55</time>
   <energy>
    <i name="e_fr_energy">    -81.97357028 </i>
    <i name="e_wo_entrp">    -81.92112607 </i>
    <i name="e_0_energy">    -81.95608888 </i>
   </energy>
  </scstep>
  <scstep>
   <time name="dav">    4.39    4.43</time>
   <time name="total">    4.85    4.89</time>
   <energy>
    <i name="e_fr_energy">    -81.97343013 </i>
    <i name="e_wo_entrp">    -81.92048898 </i>
    <i name="e_0_energy">    -81.95578308 </i>
   </energy>
  </scstep>
  <scstep>
   <time name="dav">    4.02    4.06</time>
   <time name="total">    4.47    4.51</time>
   <energy>
    <i name="e_fr_energy">    -81.97330722 </i>
    <i name="e_wo_entrp">    -81.92005468 </i>
    <i name="e_0_energy">    -81.95555637 </i>
   </energy>
  </scstep>
  <scstep>
   <time name="dav">    4.32    4.35</time>
   <time name="total">    4.78    4.82</time>
   <energy>
    <i name="e_fr_energy">    -81.97286475 </i>
    <i name="e_wo_entrp">    -81.91978370 </i>
    <i name="e_0_energy">    -81.95517107 </i>
   </energy>
  </scstep>
  <scstep>
   <time name="dav">    3.90    3.93</time>
   <time name="total">    3.97    4.00</time>
   <energy>
    <i name="alphaZ">    527.73745042 </i>
    <i name="ewald"> 100126.73460213 </i>
    <i name="hartreedc">-131855.83675178 </i>
    <i name="XCdc">   1067.34788608 </i>
    <i name="pawpsdc">  31127.43145289 </i>
    <i name="pawaedc"> -33707.74694278 </i>
    <i name="eentropy">     -0.05337904 </i>
    <i name="bandstr">   -750.57059967 </i>
    <i name="atom">  33382.98336479 </i>
    <i name="e_fr_energy">    -81.97291694 </i>
    <i name="e_wo_entrp">    -81.91953790 </i>
    <i name="e_0_energy">    -81.95512393 </i>
   </energy>
  </scstep>
  <dipole>
   <v name="dipole">      0.00000000       0.00000000       0.00908116 </v>
   <i name="Tr[quadrupol]">  -1954.23163085 </i>
   <i name="Echarged">      0.00000000 </i>
   <i name="Edipol_quadrupol">      0.00000000 </i>
   <i name="Eion">      0.00000000 </i>
  </dipole>
  <structure>
   <crystal>
    <varray name="basis" >
     <v>       7.26000023       0.00000000       0.00000000 </v>
     <v>       0.00000000       5.13359547       0.00000000 </v>
     <v>       0.00000000       0.00000000      21.41699400 </v>
    </varray>
    <i name="volume">    798.20931597 </i>
    <varray name="rec_basis" >
     <v>       0.13774104       0.00000000       0.00000000 </v>
     <v>       0.00000000       0.19479525       0.00000000 </v>
     <v>       0.00000000       0.00000000       0.04669189 </v>
    </varray>
   </crystal>
   <varray name="positions" >
    <v>       0.00000000       0.00000000       0.00000000 </v>
    <v>       0.00000000       0.50000000       0.00000000 </v>
    <v>       0.50000000       0.00000000       0.00000000 </v>
    <v>       0.50000000       0.50000000       0.00000000 </v>
    <v>       0.25000000       0.25000000       0.05992432 </v>
    <v>       0.25000000       0.75000000       0.05992432 </v>
    <v>       0.75000000       0.25000000       0.05992432 </v>
    <v>       0.75000000       0.75000000       0.05992432 </v>
    <v>      -0.00000000      -0.00000000       0.12013589 </v>
    <v>      -0.00000000       0.50000000       0.12013589 </v>
    <v>       0.50000000      -0.00000000       0.12013589 </v>
    <v>       0.50000000       0.50000000       0.12013589 </v>
    <v>       0.25000000       0.25000000       0.17948440 </v>
    <v>       0.25000000       0.75000000       0.17948440 </v>
    <v>       0.75000000       0.25000000       0.17948440 </v>
    <v>       0.75000000       0.75000000       0.17948440 </v>
    <v>       0.00000000      -0.00000000       0.24022701 </v>
    <v>       0.00000000       0.50000000       0.24022701 </v>
    <v>       0.50000000      -0.00000000       0.24022701 </v>
    <v>       0.50000000       0.50000000       0.24022701 </v>
    <v>       0.25000000       0.25000000       0.29853493 </v>
    <v>       0.25000000       0.75000000       0.29853493 </v>
    <v>       0.75000000       0.25000000       0.29853493 </v>
    <v>       0.75000000       0.75000000       0.29853493 </v>
   </varray>
  </structure>
  <varray name="forces" >
   <v>      -0.00000000       0.00000000       0.48801379 </v>
   <v>      -0.00000000       0.00000000       0.48801379 </v>
   <v>       0.00000000       0.00000000       0.48801379 </v>
   <v>       0.00000000      -0.00000000       0.48801379 </v>
   <v>       0.00000000       0.00000000      -0.22505117 </v>
   <v>      -0.00000000      -0.00000000      -0.22505117 </v>
   <v>       0.00000000      -0.00000000      -0.22505117 </v>
   <v>       0.00000000      -0.00000000      -0.22505117 </v>
   <v>      -0.00000000      -0.00000000       0.09102303 </v>
   <v>      -0.00000000      -0.00000000       0.09102303 </v>
   <v>       0.00000000      -0.00000000       0.09102303 </v>
   <v>       0.00000000       0.00000000       0.09102303 </v>
   <v>       0.00000000      -0.00000000      -0.10047541 </v>
   <v>      -0.00000000      -0.00000000      -0.10047541 </v>
   <v>       0.00000000       0.00000000      -0.10047541 </v>
   <v>       0.00000000      -0.00000000      -0.10047541 </v>
   <v>      -0.00000000       0.00000000       0.14217570 </v>
   <v>      -0.00000000      -0.00000000       0.14217570 </v>
   <v>      -0.00000000       0.00000000       0.14217570 </v>
   <v>      -0.00000000       0.00000000       0.14217570 </v>
   <v>      -0.00000000      -0.00000000      -0.39568595 </v>
   <v>      -0.00000000      -0.00000000      -0.39568595 </v>
   <v>      -0.00000000       0.00000000      -0.39568595 </v>
   <v>      -0.00000000       0.00000000      -0.39568595 </v>
  </varray>
  <varray name="stress" >
   <v>     -42.39795654       0.00000000       0.00000000 </v>
   <v>       0.00000000     -36.02220705       0.00000000 </v>
   <v>       0.00000000       0.00000000     -21.96208033 </v>
  </varray>
  <energy>
   <i name="e_fr_energy">    -89.94108000 </i>
   <i name="e_wo_entrp">    -89.88770096 </i>
   <i name="e_0_energy">    -89.92328699 </i>
  </energy>
  <time name="totalsc">   41.19   44.36</time>
 </calculation>
 <calculation>
  <scstep>
   <time name="dav">    4.33    4.37</time>
   <time name="total">    4.80    4.84</time>
   <energy>
    <i name="alphaZ">    527.73745042 </i>
    <i name="ewald"> 100910.99441845 </i>
    <i name="hartreedc">-132638.28208920 </i>
    <i name="XCdc">   1067.85114675 </i>
    <i name="pawpsdc">  31127.46632934 </i>
    <i name="pawaedc"> -33707.76599896 </i>
    <i name="eentropy">     -0.05201185 </i>
    <i name="bandstr">   -752.64725329 </i>
    <i name="atom">  33382.98336479 </i>
    <i name="e_fr_energy">    -81.71464356 </i>
    <i name="e_wo_entrp">    -81.66263170 </i>
    <i name="e_0_energy">    -81.69730627 </i>
   </energy>
  </scstep>
  <scstep>
   <time name="dav">    5.66    5.71</time>
   <time name="total">    6.12    6.17</time>
   <energy>
    <i name="e_fr_energy">    -82.05918980 </i>
    <i name="e_wo_entrp">    -82.00448637 </i>
    <i name="e_0_energy">    -82.04095533 </i>
   </energy>
  </scstep>
  <scstep>
   <time name="dav">    4.30    4.34</time>
   <time name="total">    4.77    4.81</time>
   <energy>
    <i name="e_fr_energy">    -82.01986183 </i>
    <i name="e_wo_entrp">    -81.96793345 </i>
    <i name="e_0_energy">    -82.00255237 </i>
   </energy>
  </scstep>
  <scstep>
   <time name="dav">    4.37    4.41</time>
   <time name="total">    4.83    4.87</time>
   <energy>
    <i name="e_fr_energy">    -82.01991807 </i>
    <i name="e_wo_entrp">    -81.96779042 </i>
    <i name="e_0_energy">    -82.00254219 </i>
   </energy>
  </scstep>
  <scstep>
   <time name="dav">    4.17    4.21</time>
   <time name="total">    4.63    4.67</time>
   <energy>
    <i name="e_fr_energy">    -82.01936386 </i>
    <i name="e_wo_entrp">    -81.96641841 </i>
    <i name="e_0_energy">    -82.00171537 </i>
   </energy>
  </scstep>
  <scstep>
   <time name="dav">    5.11    5.15</time>
   <time name="total">    5.57    5.61</time>
   <energy>
    <i name="e_fr_energy">    -82.01523200 </i>
    <i name="e_wo_entrp">    -81.96409919 </i>
    <i name="e_0_energy">    -81.99818773 </i>
   </energy>
  </scstep>
  <scstep>
   <time name="dav">    5.96    6.01</time>
   <time name="total">    6.43    6.48</time>
   <energy>
    <i name="e_fr_energy">    -82.01530135 </i>
    <i name="e_wo_entrp">    -81.96263852 </i>
    <i name="e_0_energy">    -81.99774707 </i>
   </energy>
  </scstep>
  <scstep>
   <time name="dav">    4.12    4.16</time>
   <time name="total">    4.58    4.61</time>
   <energy>
    <i name="e_fr_energy">    -82.01491676 </i>
    <i name="e_wo_entrp">    -81.96300297 </i>
    <i name="e_0_energy">    -81.99761217 </i>
   </energy>
  </scstep>
  <scstep>
   <time name="dav">    3.04    3.06</time>
   <time name="total">    3.11    3.14</time>
   <energy>
    <i name="alphaZ">    527.73745042 </i>
    <i name="ewald"> 100910.99441845 </i>
    <i name="hartreedc">-132633.83967807 </i>
    <i name="XCdc">   1067.63341526 </i>
    <i name="pawpsdc">  31183.23207879 </i>
    <i name="pawaedc"> -33764.57373226 </i>
    <i name="eentropy">     -0.05197294 </i>
    <i name="bandstr">   -756.13017872 </i>
    <i name="atom">  33382.98336479 </i>
    <i name="e_fr_energy">    -82.01483428 </i>
    <i name="e_wo_entrp">    -81.96286134 </i>
    <i name="e_0_energy">    -81.99750997 </i>
   </energy>
  </scstep>
  <dipole>
   <v name="dipole">      0.00000000       0.00000000       0.01312952 </v>
   <i name="Tr[quadrupol]">  -1954.23358869 </i>
   <i name="Echarged">      0.00000000 </i>
   <i name="Edipol_quadrupol">      0.00000000 </i>
   <i name="Eion">      0.00000000 </i>
  </dipole>
  <structure>
   <crystal>
    <varray name="basis" >
     <v>       7.26000023       0.00000000       0.00000000 </v>
     <v>       0.00000000       5.13359547       0.00000000 </v>
     <v>       0.00000000       0.00000000      21.41699400 </v>
    </varray>
    <i name="volume">    798.20931597 </i>
    <varray name="rec_basis" >
     <v>       0.13774104       0.00000000       0.00000000 </v>
     <v>       0.00000000       0.19479525       0.00000000 </v>
     <v>       0.00000000       0.00000000       0.04669189 </v>
    </varray>
   </crystal>
   <varray name="positions" >
    <v>       0.00000000       0.00000000       0.00000000 </v>
    <v>       0.00000000       0.50000000       0.00000000 </v>
    <v>       0.50000000       0.00000000       0.00000000 </v>
    <v>       0.50000000       0.50000000       0.00000000 </v>
    <v>       0.25000000       0.25000000       0.05992432 </v>
    <v>       0.25000000       0.75000000       0.05992432 </v>
    <v>       0.75000000       0.25000000       0.05992432 </v>
    <v>       0.75000000       0.75000000       0.05992432 </v>
    <v>      -0.00000000      -0.00000000       0.12099761 </v>
    <v>      -0.00000000       0.50000000       0.12099761 </v>
    <v>       0.50000000      -0.00000000       0.12099761 </v>
    <v>       0.50000000       0.50000000       0.12099761 </v>
    <v>       0.25000000       0.25000000       0.17861871 </v>
    <v>       0.25000000       0.75000000       0.17861871 </v>
    <v>       0.75000000       0.25000000       0.17861871 </v>
    <v>       0.75000000       0.75000000       0.17861871 </v>
    <v>       0.00000000      -0.00000000       0.24181617 </v>
    <v>       0.00000000       0.50000000       0.24181617 </v>
    <v>       0.50000000      -0.00000000       0.24181617 </v>
    <v>       0.50000000       0.50000000       0.24181617 </v>
    <v>       0.25000000       0.25000000       0.29527490 </v>
    <v>       0.25000000       0.75000000       0.29527490 </v>
    <v>       0.75000000       0.25000000       0.29527490 </v>
    <v>       0.75000000       0.75000000       0.29527490 </v>
   </varray>
  </structure>
  <varray name="forces" >
   <v>      -0.00000000      -0.00000000       0.51725271 </v>
   <v>       0.00000000      -0.00000000       0.51725271 </v>
   <v>       0.00000000      -0.00000000       0.51725271 </v>
   <v>       0.00000000      -0.00000000       0.51725271 </v>
   <v>       0.00000000       0.00000000      -0.21871090 </v>
   <v>       0.00000000       0.00000000      -0.21871090 </v>
   <v>       0.00000000       0.00000000      -0.21871090 </v>
   <v>      -0.00000000       0.00000000      -0.21871090 </v>
   <v>       0.00000000       0.00000000      -0.03112214 </v>
   <v>       0.00000000      -0.00000000      -0.03112214 </v>
   <v>       0.00000000       0.00000000      -0.03112214 </v>
   <v>       0.00000000      -0.00000000      -0.03112214 </v>
   <v>       0.00000000       0.00000000      -0.03578931 </v>
   <v>       0.00000000       0.00000000      -0.03578931 </v>
   <v>      -0.00000000       0.00000000      -0.03578931 </v>
   <v>      -0.00000000       0.00000000      -0.03578931 </v>
   <v>      -0.00000000       0.00000000      -0.14266044 </v>
   <v>      -0.00000000      -0.00000000      -0.14266044 </v>
   <v>      -0.00000000       0.00000000      -0.14266044 </v>
   <v>      -0.00000000       0.00000000      -0.14266044 </v>
   <v>       0.00000000       0.00000000      -0.08896993 </v>
   <v>       0.00000000       0.00000000      -0.08896993 </v>
   <v>      -0.00000000      -0.00000000      -0.08896993 </v>
   <v>      -0.00000000       0.00000000      -0.08896993 </v>
  </varray>
  <varray name="stress" >
   <v>     -38.70797603       0.00000000       0.00000000 </v>
   <v>       0.00000000     -34.23975173       0.00000000 </v>
   <v>       0.00000000       0.00000000     -18.69539868 </v>
  </varray>
  <energy>
   <i name="e_fr_energy">    -90.01647292 </i>
   <i name="e_wo_entrp">    -89.96449997 </i>
   <i name="e_0_energy">    -89.99914860 </i>
  </energy>
  <time name="totalsc">   52.48   52.93</time>
 </calculation>
 <calculation>
  <scstep>
   <time name="dav">    4.32    4.35</time>
   <time name="total">    4.78    4.82</time>
   <energy>
    <i name="alphaZ">    527.73745042 </i>
    <i name="ewald"> 100943.63668232 </i>
    <i name="hartreedc">-132666.39821118 </i>
    <i name="XCdc">   1067.64719556 </i>
    <i name="pawpsdc">  31182.94696220 </i>
    <i name="pawaedc"> -33764.24590759 </i>
    <i name="eentropy">     -0.05195581 </i>
    <i name="bandstr">   -756.26862409 </i>
    <i name="atom">  33382.98336479 </i>
    <i name="e_fr_energy">    -82.01304338 </i>
    <i name="e_wo_entrp">    -81.96108757 </i>
    <i name="e_0_energy">    -81.99572477 </i>
   </energy>
  </scstep>
  <scstep>
   <time name="dav">    5.35    5.40</time>
   <time name="total">    5.81    5.86</time>
   <energy>
    <i name="e_fr_energy">    -82.01350185 </i>
    <i name="e_wo_entrp">    -81.96145834 </i>
    <i name="e_0_energy">    -81.99615401 </i>
   </energy>
  </scstep>
  <scstep>
   <time name="dav">    3.53    3.56</time>
   <time name="total">    3.60    3.63</time>
   <energy>
    <i name="alphaZ">    527.73745042 </i>
    <i name="ewald"> 100943.63668232 </i>
    <i name="hartreedc">-132666.15532141 </i>
    <i name="XCdc">   1067.63496104 </i>
    <i name="pawpsdc">  31183.89183412 </i>
    <i name="pawaedc"> -33765.13021880 </i>
    <i name="eentropy">     -0.05188640 </i>
    <i name="bandstr">   -756.56032446 </i>
    <i name="atom">  33382.98336479 </i>
    <i name="e_fr_energy">    -82.01345837 </i>
    <i name="e_wo_entrp">    -81.96157198 </i>
    <i name="e_0_energy">    -81.99616291 </i>
   </energy>
  </scstep>
  <dipole>
   <v name="dipole">      0.00000000       0.00000000       0.01380475 </v>
   <i name="Tr[quadrupol]">  -1954.24881320 </i>
   <i name="Echarged">      0.00000000 </i>
   <i name="Edipol_quadrupol">      0.00000000 </i>
   <i name="Eion">      0.00000000 </i>
  </dipole>
  <structure>
   <crystal>
    <varray name="basis" >
     <v>       7.26000023       0.00000000       0.00000000 </v>
     <v>       0.00000000       5.13359547       0.00000000 </v>
     <v>       0.00000000       0.00000000      21.41699400 </v>
    </varray>
    <i name="volume">    798.20931597 </i>
    <varray name="rec_basis" >
     <v>       0.13774104       0.00000000       0.00000000 </v>
     <v>       0.00000000       0.19479525       0.00000000 </v>
     <v>       0.00000000       0.00000000       0.04669189 </v>
    </varray>
   </crystal>
   <varray name="positions" >
    <v>       0.00000000       0.00000000       0.00000000 </v>
    <v>       0.00000000       0.50000000       0.00000000 </v>
    <v>       0.50000000       0.00000000       0.00000000 </v>
    <v>       0.50000000       0.50000000       0.00000000 </v>
    <v>       0.25000000       0.25000000       0.05992432 </v>
    <v>       0.25000000       0.75000000       0.05992432 </v>
    <v>       0.75000000       0.25000000       0.05992432 </v>
    <v>       0.75000000       0.75000000       0.05992432 </v>
    <v>      -0.00000000      -0.00000000       0.12103366 </v>
    <v>      -0.00000000       0.50000000       0.12103366 </v>
    <v>       0.50000000      -0.00000000       0.12103366 </v>
    <v>       0.50000000       0.50000000       0.12103366 </v>
    <v>       0.25000000       0.25000000       0.17858251 </v>
    <v>       0.25000000       0.75000000       0.17858251 </v>
    <v>       0.75000000       0.25000000       0.17858251 </v>
    <v>       0.75000000       0.75000000       0.17858251 </v>
    <v>       0.00000000      -0.00000000       0.24188264 </v>
    <v>       0.00000000       0.50000000       0.24188264 </v>
    <v>       0.50000000      -0.00000000       0.24188264 </v>
    <v>       0.50000000       0.50000000       0.24188264 </v>
    <v>       0.25000000       0.25000000       0.29513854 </v>
    <v>       0.25000000       0.75000000       0.29513854 </v>
    <v>       0.75000000       0.25000000       0.29513854 </v>
    <v>       0.75000000       0.75000000       0.29513854 </v>
   </varray>
  </structure>
  <varray name="forces" >
   <v>      -0.00000000      -0.00000000       0.51673647 </v>
   <v>       0.00000000      -0.00000000       0.51673647 </v>
   <v>       0.00000000      -0.00000000       0.51673647 </v>
   <v>       0.00000000      -0.00000000       0.51673647 </v>
   <v>      -0.00000000      -0.00000000      -0.21737583 </v>
   <v>      -0.00000000      -0.00000000      -0.21737583 </v>
   <v>      -0.00000000      -0.00000000      -0.21737583 </v>
   <v>      -0.00000000      -0.00000000      -0.21737583 </v>
   <v>      -0.00000000      -0.00000000      -0.03740182 </v>
   <v>      -0.00000000       0.00000000      -0.03740182 </v>
   <v>      -0.00000000      -0.00000000      -0.03740182 </v>
   <v>      -0.00000000       0.00000000      -0.03740182 </v>
   <v>       0.00000000      -0.00000000      -0.03442506 </v>
   <v>      -0.00000000       0.00000000      -0.03442506 </v>
   <v>       0.00000000       0.00000000      -0.03442506 </v>
   <v>       0.00000000       0.00000000      -0.03442506 </v>
   <v>       0.00000000       0.00000000      -0.16728014 </v>
   <v>       0.00000000      -0.00000000      -0.16728014 </v>
   <v>      -0.00000000      -0.00000000      -0.16728014 </v>
   <v>      -0.00000000      -0.00000000      -0.16728014 </v>
   <v>      -0.00000000      -0.00000000      -0.06025361 </v>
   <v>       0.00000000       0.00000000      -0.06025361 </v>
   <v>       0.00000000       0.00000000      -0.06025361 </v>
   <v>      -0.00000000       0.00000000      -0.06025361 </v>
  </varray>
  <varray name="stress" >
   <v>     -36.25401740       0.00000000       0.00000000 </v>
   <v>       0.00000000     -31.93414093       0.00000000 </v>
   <v>       0.00000000       0.00000000     -16.47253333 </v>
  </varray>
  <energy>
   <i name="e_fr_energy">    -90.01655516 </i>
   <i name="e_wo_entrp">    -89.96466876 </i>
   <i name="e_0_energy">    -89.99925969 </i>
  </energy>
  <time name="totalsc">   21.86   22.07</time>
 </calculation>
 <calculation>
  <scstep>
   <time name="dav">    4.36    4.39</time>
   <time name="total">    4.82    4.86</time>
   <energy>
    <i name="alphaZ">    527.73745042 </i>
    <i name="ewald"> 100926.80917916 </i>
    <i name="hartreedc">-132649.48535029 </i>
    <i name="XCdc">   1067.62696580 </i>
    <i name="pawpsdc">  31184.19114447 </i>
    <i name="pawaedc"> -33765.45261964 </i>
    <i name="eentropy">     -0.05197506 </i>
    <i name="bandstr">   -756.37224530 </i>
    <i name="atom">  33382.98336479 </i>
    <i name="e_fr_energy">    -82.01408564 </i>
    <i name="e_wo_entrp">    -81.96211059 </i>
    <i name="e_0_energy">    -81.99676062 </i>
   </energy>
  </scstep>
  <scstep>
   <time name="dav">    4.03    4.06</time>
   <time name="total">    4.10    4.14</time>
   <energy>
    <i name="alphaZ">    527.73745042 </i>
    <i name="ewald"> 100926.80917916 </i>
    <i name="hartreedc">-132649.56300435 </i>
    <i name="XCdc">   1067.63000200 </i>
    <i name="pawpsdc">  31184.17267452 </i>
    <i name="pawaedc"> -33765.44379084 </i>
    <i name="eentropy">     -0.05199597 </i>
    <i name="bandstr">   -756.28807639 </i>
    <i name="atom">  33382.98336479 </i>
    <i name="e_fr_energy">    -82.01419666 </i>
    <i name="e_wo_entrp">    -81.96220069 </i>
    <i name="e_0_energy">    -81.99686467 </i>
   </energy>
  </scstep>
  <dipole>
   <v name="dipole">      0.00000000       0.00000000       0.01479115 </v>
   <i name="Tr[quadrupol]">  -1954.22888578 </i>
   <i name="Echarged">      0.00000000 </i>
   <i name="Edipol_quadrupol">      0.00000000 </i>
   <i name="Eion">      0.00000000 </i>
  </dipole>
  <structure>
   <crystal>
    <varray name="basis" >
     <v>       7.26000023       0.00000000       0.00000000 </v>
     <v>       0.00000000       5.13359547       0.00000000 </v>
     <v>       0.00000000       0.00000000      21.41699400 </v>
    </varray>
    <i name="volume">    798.20931597 </i>
    <varray name="rec_basis" >
     <v>       0.13774104       0.00000000       0.00000000 </v>
     <v>       0.00000000       0.19479525       0.00000000 </v>
     <v>       0.00000000       0.00000000       0.04669189 </v>
    </varray>
   </crystal>
   <varray name="positions" >
    <v>       0.00000000       0.00000000       0.00000000 </v>
    <v>       0.00000000       0.50000000       0.00000000 </v>
    <v>       0.50000000       0.00000000       0.00000000 </v>
    <v>       0.50000000       0.50000000       0.00000000 </v>
    <v>       0.25000000       0.25000000       0.05992432 </v>
    <v>       0.25000000       0.75000000       0.05992432 </v>
    <v>       0.75000000       0.25000000       0.05992432 </v>
    <v>       0.75000000       0.75000000       0.05992432 </v>
    <v>      -0.00000000      -0.00000000       0.12101507 </v>
    <v>      -0.00000000       0.50000000       0.12101507 </v>
    <v>       0.50000000      -0.00000000       0.12101507 </v>
    <v>       0.50000000       0.50000000       0.12101507 </v>
    <v>       0.25000000       0.25000000       0.17860117 </v>
    <v>       0.25000000       0.75000000       0.17860117 </v>
    <v>       0.75000000       0.25000000       0.17860117 </v>
    <v>       0.75000000       0.75000000       0.17860117 </v>
    <v>       0.00000000      -0.00000000       0.24184837 </v>
    <v>       0.00000000       0.50000000       0.24184837 </v>
    <v>       0.50000000      -0.00000000       0.24184837 </v>
    <v>       0.50000000       0.50000000       0.24184837 </v>
    <v>       0.25000000       0.25000000       0.29520884 </v>
    <v>       0.25000000       0.75000000       0.29520884 </v>
    <v>       0.75000000       0.25000000       0.29520884 </v>
    <v>       0.75000000       0.75000000       0.29520884 </v>
   </varray>
  </structure>
  <varray name="forces" >
   <v>      -0.00000000      -0.00000000       0.51914163 </v>
   <v>      -0.00000000      -0.00000000       0.51914163 </v>
   <v>       0.00000000       0.00000000       0.51914163 </v>
   <v>       0.00000000      -0.00000000       0.51914163 </v>
   <v>       0.00000000      -0.00000000      -0.21443508 </v>
   <v>       0.00000000      -0.00000000      -0.21443508 </v>
   <v>      -0.00000000      -0.00000000      -0.21443508 </v>
   <v>      -0.00000000      -0.00000000      -0.21443508 </v>
   <v>      -0.00000000       0.00000000      -0.02051757 </v>
   <v>      -0.00000000      -0.00000000      -0.02051757 </v>
   <v>       0.00000000       0.00000000      -0.02051757 </v>
   <v>      -0.00000000      -0.00000000      -0.02051757 </v>
   <v>       0.00000000       0.00000000      -0.04181900 </v>
   <v>      -0.00000000      -0.00000000      -0.04181900 </v>
   <v>       0.00000000       0.00000000      -0.04181900 </v>
   <v>      -0.00000000       0.00000000      -0.04181900 </v>
   <v>       0.00000000      -0.00000000      -0.14089305 </v>
   <v>       0.00000000      -0.00000000      -0.14089305 </v>
   <v>      -0.00000000       0.00000000      -0.14089305 </v>
   <v>      -0.00000000       0.00000000      -0.14089305 </v>
   <v>      -0.00000000      -0.00000000      -0.10147693 </v>
   <v>      -0.00000000       0.00000000      -0.10147693 </v>
   <v>       0.00000000      -0.00000000      -0.10147693 </v>
   <v>       0.00000000       0.00000000      -0.10147693 </v>
  </varray>
  <varray name="stress" >
   <v>     -37.38489073       0.00000000       0.00000000 </v>
   <v>       0.00000000     -32.98767979       0.00000000 </v>
   <v>       0.00000000       0.00000000     -17.53782099 </v>
  </varray>
  <energy>
   <i name="e_fr_energy">    -90.01653682 </i>
   <i name="e_wo_entrp">    -89.96454085 </i>
   <i name="e_0_energy">    -89.99920483 </i>
  </energy>
  <time name="totalsc">   16.57   16.77</time>
 </calculation>
 <calculation>
  <scstep>
   <time name="dav">    4.30    4.34</time>
   <time name="total">    4.76    4.80</time>
   <energy>
    <i name="alphaZ">    527.73745042 </i>
    <i name="ewald"> 100937.50950827 </i>
    <i name="hartreedc">-132660.28121804 </i>
    <i name="XCdc">   1067.63663186 </i>
    <i name="pawpsdc">  31184.12801765 </i>
    <i name="pawaedc"> -33765.39359326 </i>
    <i name="eentropy">     -0.05192384 </i>
    <i name="bandstr">   -756.28193702 </i>
    <i name="atom">  33382.98336479 </i>
    <i name="e_fr_energy">    -82.01369917 </i>
    <i name="e_wo_entrp">    -81.96177533 </i>
    <i name="e_0_energy">    -81.99639122 </i>
   </energy>
  </scstep>
  <scstep>
   <time name="dav">    3.03    3.06</time>
   <time name="total">    3.11    3.13</time>
   <energy>
    <i name="alphaZ">    527.73745042 </i>
    <i name="ewald"> 100937.50950827 </i>
    <i name="hartreedc">-132660.33920238 </i>
    <i name="XCdc">   1067.63521731 </i>
    <i name="pawpsdc">  31184.37260899 </i>
    <i name="pawaedc"> -33765.63943880 </i>
    <i name="eentropy">     -0.05202336 </i>
    <i name="bandstr">   -756.22121031 </i>
    <i name="atom">  33382.98336479 </i>
    <i name="e_fr_energy">    -82.01372508 </i>
    <i name="e_wo_entrp">    -81.96170171 </i>
    <i name="e_0_energy">    -81.99638396 </i>
   </energy>
  </scstep>
  <dipole>
   <v name="dipole">      0.00000000       0.00000000       0.01409406 </v>
   <i name="Tr[quadrupol]">  -1954.24533907 </i>
   <i name="Echarged">      0.00000000 </i>
   <i name="Edipol_quadrupol">      0.00000000 </i>
   <i name="Eion">      0.00000000 </i>
  </dipole>
  <structure>
   <crystal>
    <varray name="basis" >
     <v>       7.26000023       0.00000000       0.00000000 </v>
     <v>       0.00000000       5.13359547       0.00000000 </v>
     <v>       0.00000000       0.00000000      21.41699400 </v>
    </varray>
    <i name="volume">    798.20931597 </i>
    <varray name="rec_basis" >
     <v>       0.13774104       0.00000000       0.00000000 </v>
     <v>       0.00000000       0.19479525       0.00000000 </v>
     <v>       0.00000000       0.00000000       0.04669189 </v>
    </varray>
   </crystal>
   <varray name="positions" >
    <v>       0.00000000       0.00000000       0.00000000 </v>
    <v>       0.00000000       0.50000000       0.00000000 </v>
    <v>       0.50000000       0.00000000       0.00000000 </v>
    <v>       0.50000000       0.50000000       0.00000000 </v>
    <v>       0.25000000       0.25000000       0.05992432 </v>
    <v>       0.25000000       0.75000000       0.05992432 </v>
    <v>       0.75000000       0.25000000       0.05992432 </v>
    <v>       0.75000000       0.75000000       0.05992432 </v>
    <v>      -0.00000000      -0.00000000       0.12102689 </v>
    <v>      -0.00000000       0.50000000       0.12102689 </v>
    <v>       0.50000000      -0.00000000       0.12102689 </v>
    <v>       0.50000000       0.50000000       0.12102689 </v>
    <v>       0.25000000       0.25000000       0.17858930 </v>
    <v>       0.25000000       0.75000000       0.17858930 </v>
    <v>       0.75000000       0.25000000       0.17858930 </v>
    <v>       0.75000000       0.75000000       0.17858930 </v>
    <v>       0.00000000      -0.00000000       0.24187016 </v>
    <v>       0.00000000       0.50000000       0.24187016 </v>
    <v>       0.50000000      -0.00000000       0.24187016 </v>
    <v>       0.50000000       0.50000000       0.24187016 </v>
    <v>       0.25000000       0.25000000       0.29516414 </v>
    <v>       0.25000000       0.75000000       0.29516414 </v>
    <v>       0.75000000       0.25000000       0.29516414 </v>
    <v>       0.75000000       0.75000000       0.29516414 </v>
   </varray>
  </structure>
  <varray name="forces" >
   <v>       0.00000000      -0.00000000       0.51600077 </v>
   <v>       0.00000000       0.00000000       0.51600077 </v>
   <v>       0.00000000       0.00000000       0.51600077 </v>
   <v>       0.00000000       0.00000000       0.51600077 </v>
   <v>      -0.00000000       0.00000000      -0.21676793 </v>
   <v>      -0.00000000      -0.00000000      -0.21676793 </v>
   <v>       0.00000000       0.00000000      -0.21676793 </v>
   <v>       0.00000000      -0.00000000      -0.21676793 </v>
   <v>      -0.00000000       0.00000000      -0.03643937 </v>
   <v>      -0.00000000       0.00000000      -0.03643937 </v>
   <v>       0.00000000       0.00000000      -0.03643937 </v>
   <v>       0.00000000      -0.00000000      -0.03643937 </v>
   <v>       0.00000000       0.00000000      -0.03059997 </v>
   <v>       0.00000000       0.00000000      -0.03059997 </v>
   <v>      -0.00000000       0.00000000      -0.03059997 </v>
   <v>      -0.00000000       0.00000000      -0.03059997 </v>
   <v>       0.00000000      -0.00000000      -0.16924501 </v>
   <v>       0.00000000      -0.00000000      -0.16924501 </v>
   <v>      -0.00000000       0.00000000      -0.16924501 </v>
   <v>      -0.00000000      -0.00000000      -0.16924501 </v>
   <v>       0.00000000      -0.00000000      -0.06294849 </v>
   <v>      -0.00000000       0.00000000      -0.06294849 </v>
   <v>      -0.00000000       0.00000000      -0.06294849 </v>
   <v>      -0.00000000       0.00000000      -0.06294849 </v>
  </varray>
  <varray name="stress" >
   <v>     -37.27740602       0.00000000       0.00000000 </v>
   <v>       0.00000000     -32.94102001       0.00000000 </v>
   <v>       0.00000000       0.00000000     -17.52035281 </v>
  </varray>
  <energy>
   <i name="e_fr_energy">    -90.01654645 </i>
   <i name="e_wo_entrp">    -89.96452309 </i>
   <i name="e_0_energy">    -89.99920533 </i>
  </energy>
  <time name="totalsc">   15.52   15.66</time>
 </calculation>
 <calculation>
  <scstep>
   <time name="dav">    4.79    4.83</time>
   <time name="total">    5.26    5.31</time>
   <energy>
    <i name="alphaZ">    527.73745042 </i>
    <i name="ewald"> 100932.15953338 </i>
    <i name="hartreedc">-132654.97942276 </i>
    <i name="XCdc">   1067.63158812 </i>
    <i name="pawpsdc">  31184.40609759 </i>
    <i name="pawaedc"> -33765.67209576 </i>
    <i name="eentropy">     -0.05195808 </i>
    <i name="bandstr">   -756.22852889 </i>
    <i name="atom">  33382.98336479 </i>
    <i name="e_fr_energy">    -82.01397117 </i>
    <i name="e_wo_entrp">    -81.96201310 </i>
    <i name="e_0_energy">    -81.99665181 </i>
   </energy>
  </scstep>
  <scstep>
   <time name="dav">    2.87    2.89</time>
   <time name="total">    2.94    2.97</time>
   <energy>
    <i name="alphaZ">    527.73745042 </i>
    <i name="ewald"> 100932.15953338 </i>
    <i name="hartreedc">-132655.00190778 </i>
    <i name="XCdc">   1067.63286638 </i>
    <i name="pawpsdc">  31184.37098488 </i>
    <i name="pawaedc"> -33765.64470372 </i>
    <i name="eentropy">     -0.05199295 </i>
    <i name="bandstr">   -756.19957279 </i>
    <i name="atom">  33382.98336479 </i>
    <i name="e_fr_energy">    -82.01397738 </i>
    <i name="e_wo_entrp">    -81.96198443 </i>
    <i name="e_0_energy">    -81.99664640 </i>
   </energy>
  </scstep>
  <dipole>
   <v name="dipole">      0.00000000       0.00000000       0.01390651 </v>
   <i name="Tr[quadrupol]">  -1954.24999324 </i>
   <i name="Echarged">      0.00000000 </i>
   <i name="Edipol_quadrupol">      0.00000000 </i>
   <i name="Eion">      0.00000000 </i>
  </dipole>
  <structure>
   <crystal>
    <varray name="basis" >
     <v>       7.26000023       0.00000000       0.00000000 </v>
     <v>       0.00000000       5.13359547       0.00000000 </v>
     <v>       0.00000000       0.00000000      21.41699400 </v>
    </varray>
    <i name="volume">    798.20931597 </i>
    <varray name="rec_basis" >
     <v>       0.13774104       0.00000000       0.00000000 </v>
     <v>       0.00000000       0.19479525       0.00000000 </v>
     <v>       0.00000000       0.00000000       0.04669189 </v>
    </varray>
   </crystal>
   <varray name="positions" >
    <v>       0.00000000       0.00000000       0.00000000 </v>
    <v>       0.00000000       0.50000000       0.00000000 </v>
    <v>       0.50000000       0.00000000       0.00000000 </v>
    <v>       0.50000000       0.50000000       0.00000000 </v>
    <v>       0.25000000       0.25000000       0.05992432 </v>
    <v>       0.25000000       0.75000000       0.05992432 </v>
    <v>       0.75000000       0.25000000       0.05992432 </v>
    <v>       0.75000000       0.75000000       0.05992432 </v>
    <v>      -0.00000000      -0.00000000       0.12102098 </v>
    <v>      -0.00000000       0.50000000       0.12102098 </v>
    <v>       0.50000000      -0.00000000       0.12102098 </v>
    <v>       0.50000000       0.50000000       0.12102098 </v>
    <v>       0.25000000       0.25000000       0.17859524 </v>
    <v>       0.25000000       0.75000000       0.17859524 </v>
    <v>       0.75000000       0.25000000       0.17859524 </v>
    <v>       0.75000000       0.75000000       0.17859524 </v>
    <v>       0.00000000      -0.00000000       0.24185926 </v>
    <v>       0.00000000       0.50000000       0.24185926 </v>
    <v>       0.50000000      -0.00000000       0.24185926 </v>
    <v>       0.50000000       0.50000000       0.24185926 </v>
    <v>       0.25000000       0.25000000       0.29518649 </v>
    <v>       0.25000000       0.75000000       0.29518649 </v>
    <v>       0.75000000       0.25000000       0.29518649 </v>
    <v>       0.75000000       0.75000000       0.29518649 </v>
   </varray>
  </structure>
  <varray name="forces" >
   <v>      -0.00000000       0.00000000       0.51863454 </v>
   <v>      -0.00000000       0.00000000       0.51863454 </v>
   <v>      -0.00000000       0.00000000       0.51863454 </v>
   <v>      -0.00000000       0.00000000       0.51863454 </v>
   <v>       0.00000000      -0.00000000      -0.21504849 </v>
   <v>      -0.00000000       0.00000000      -0.21504849 </v>
   <v>      -0.00000000      -0.00000000      -0.21504849 </v>
   <v>      -0.00000000       0.00000000      -0.21504849 </v>
   <v>       0.00000000       0.00000000      -0.02500930 </v>
   <v>      -0.00000000       0.00000000      -0.02500930 </v>
   <v>       0.00000000       0.00000000      -0.02500930 </v>
   <v>      -0.00000000      -0.00000000      -0.02500930 </v>
   <v>      -0.00000000      -0.00000000      -0.03931967 </v>
   <v>      -0.00000000       0.00000000      -0.03931967 </v>
   <v>       0.00000000      -0.00000000      -0.03931967 </v>
   <v>       0.00000000       0.00000000      -0.03931967 </v>
   <v>       0.00000000      -0.00000000      -0.14908188 </v>
   <v>       0.00000000      -0.00000000      -0.14908188 </v>
   <v>       0.00000000      -0.00000000      -0.14908188 </v>
   <v>       0.00000000       0.00000000      -0.14908188 </v>
   <v>       0.00000000      -0.00000000      -0.09017520 </v>
   <v>       0.00000000      -0.00000000      -0.09017520 </v>
   <v>      -0.00000000      -0.00000000      -0.09017520 </v>
   <v>      -0.00000000      -0.00000000      -0.09017520 </v>
  </varray>
  <varray name="stress" >
   <v>     -37.37539612       0.00000000       0.00000000 </v>
   <v>       0.00000000     -33.01752952       0.00000000 </v>
   <v>       0.00000000       0.00000000     -17.62916664 </v>
  </varray>
  <energy>
   <i name="e_fr_energy">    -90.01655982 </i>
   <i name="e_wo_entrp">    -89.96456687 </i>
   <i name="e_0_energy">    -89.99922884 </i>
  </energy>
  <time name="totalsc">   15.86   15.99</time>
 </calculation>
 <calculation>
  <scstep>
   <time name="dav">    4.66    4.69</time>
   <time name="total">    5.12    5.16</time>
   <energy>
    <i name="alphaZ">    527.73745042 </i>
    <i name="ewald"> 100934.85182073 </i>
    <i name="hartreedc">-132657.67268600 </i>
    <i name="XCdc">   1067.63421208 </i>
    <i name="pawpsdc">  31184.35164583 </i>
    <i name="pawaedc"> -33765.62214647 </i>
    <i name="eentropy">     -0.05194453 </i>
    <i name="bandstr">   -756.22557772 </i>
    <i name="atom">  33382.98336479 </i>
    <i name="e_fr_energy">    -82.01386086 </i>
    <i name="e_wo_entrp">    -81.96191633 </i>
    <i name="e_0_energy">    -81.99654602 </i>
   </energy>
  </scstep>
  <scstep>
   <time name="dav">    2.87    2.89</time>
   <time name="total">    2.94    2.97</time>
   <energy>
    <i name="alphaZ">    527.73745042 </i>
    <i name="ewald"> 100934.85182073 </i>
    <i name="hartreedc">-132657.65915215 </i>
    <i name="XCdc">   1067.63324295 </i>
    <i name="pawpsdc">  31184.39587755 </i>
    <i name="pawaedc"> -33765.66212688 </i>
    <i name="eentropy">     -0.05199760 </i>
    <i name="bandstr">   -756.24234747 </i>
    <i name="atom">  33382.98336479 </i>
    <i name="e_fr_energy">    -82.01386764 </i>
    <i name="e_wo_entrp">    -81.96187005 </i>
    <i name="e_0_energy">    -81.99653511 </i>
   </energy>
  </scstep>
  <dipole>
   <v name="dipole">      0.00000000       0.00000000       0.01424696 </v>
   <i name="Tr[quadrupol]">  -1954.25280798 </i>
   <i name="Echarged">      0.00000000 </i>
   <i name="Edipol_quadrupol">      0.00000000 </i>
   <i name="Eion">      0.00000000 </i>
  </dipole>
  <structure>
   <crystal>
    <varray name="basis" >
     <v>       7.26000023       0.00000000       0.00000000 </v>
     <v>       0.00000000       5.13359547       0.00000000 </v>
     <v>       0.00000000       0.00000000      21.41699400 </v>
    </varray>
    <i name="volume">    798.20931597 </i>
    <varray name="rec_basis" >
     <v>       0.13774104       0.00000000       0.00000000 </v>
     <v>       0.00000000       0.19479525       0.00000000 </v>
     <v>       0.00000000       0.00000000       0.04669189 </v>
    </varray>
   </crystal>
   <varray name="positions" >
    <v>       0.00000000       0.00000000       0.00000000 </v>
    <v>       0.00000000       0.50000000       0.00000000 </v>
    <v>       0.50000000       0.00000000       0.00000000 </v>
    <v>       0.50000000       0.50000000       0.00000000 </v>
    <v>       0.25000000       0.25000000       0.05992432 </v>
    <v>       0.25000000       0.75000000       0.05992432 </v>
    <v>       0.75000000       0.25000000       0.05992432 </v>
    <v>       0.75000000       0.75000000       0.05992432 </v>
    <v>      -0.00000000      -0.00000000       0.12102396 </v>
    <v>      -0.00000000       0.50000000       0.12102396 </v>
    <v>       0.50000000      -0.00000000       0.12102396 </v>
    <v>       0.50000000       0.50000000       0.12102396 </v>
    <v>       0.25000000       0.25000000       0.17859225 </v>
    <v>       0.25000000       0.75000000       0.17859225 </v>
    <v>       0.75000000       0.25000000       0.17859225 </v>
    <v>       0.75000000       0.75000000       0.17859225 </v>
    <v>       0.00000000      -0.00000000       0.24186475 </v>
    <v>       0.00000000       0.50000000       0.24186475 </v>
    <v>       0.50000000      -0.00000000       0.24186475 </v>
    <v>       0.50000000       0.50000000       0.24186475 </v>
    <v>       0.25000000       0.25000000       0.29517525 </v>
    <v>       0.25000000       0.75000000       0.29517525 </v>
    <v>       0.75000000       0.25000000       0.29517525 </v>
    <v>       0.75000000       0.75000000       0.29517525 </v>
   </varray>
  </structure>
  <varray name="forces" >
   <v>      -0.00000000      -0.00000000       0.51702115 </v>
   <v>       0.00000000      -0.00000000       0.51702115 </v>
   <v>      -0.00000000      -0.00000000       0.51702115 </v>
   <v>      -0.00000000       0.00000000       0.51702115 </v>
   <v>       0.00000000      -0.00000000      -0.21610022 </v>
   <v>       0.00000000       0.00000000      -0.21610022 </v>
   <v>      -0.00000000      -0.00000000      -0.21610022 </v>
   <v>       0.00000000       0.00000000      -0.21610022 </v>
   <v>      -0.00000000       0.00000000      -0.03410533 </v>
   <v>       0.00000000       0.00000000      -0.03410533 </v>
   <v>      -0.00000000      -0.00000000      -0.03410533 </v>
   <v>       0.00000000       0.00000000      -0.03410533 </v>
   <v>      -0.00000000       0.00000000      -0.03171940 </v>
   <v>       0.00000000       0.00000000      -0.03171940 </v>
   <v>       0.00000000      -0.00000000      -0.03171940 </v>
   <v>       0.00000000       0.00000000      -0.03171940 </v>
   <v>       0.00000000      -0.00000000      -0.16325376 </v>
   <v>       0.00000000      -0.00000000      -0.16325376 </v>
   <v>       0.00000000      -0.00000000      -0.16325376 </v>
   <v>       0.00000000      -0.00000000      -0.16325376 </v>
   <v>       0.00000000       0.00000000      -0.07184244 </v>
   <v>       0.00000000      -0.00000000      -0.07184244 </v>
   <v>      -0.00000000       0.00000000      -0.07184244 </v>
   <v>      -0.00000000      -0.00000000      -0.07184244 </v>
  </varray>
  <varray name="stress" >
   <v>     -37.23426600       0.00000000       0.00000000 </v>
   <v>       0.00000000     -32.88204076       0.00000000 </v>
   <v>       0.00000000       0.00000000     -17.48175538 </v>
  </varray>
  <energy>
   <i name="e_fr_energy">    -90.01656951 </i>
   <i name="e_wo_entrp">    -89.96457192 </i>
   <i name="e_0_energy">    -89.99923698 </i>
  </energy>
  <time name="totalsc">   15.71   15.86</time>
 </calculation>
 <calculation>
  <scstep>
   <time name="dav">    4.29    4.33</time>
   <time name="total">    4.76    4.79</time>
   <energy>
    <i name="alphaZ">    527.73745042 </i>
    <i name="ewald"> 101182.76696866 </i>
    <i name="hartreedc">-132904.93494003 </i>
    <i name="XCdc">   1067.72840285 </i>
    <i name="pawpsdc">  31184.40691914 </i>
    <i name="pawaedc"> -33765.67306424 </i>
    <i name="eentropy">     -0.05190220 </i>
    <i name="bandstr">   -756.96772009 </i>
    <i name="atom">  33382.98336479 </i>
    <i name="e_fr_energy">    -82.00452070 </i>
    <i name="e_wo_entrp">    -81.95261850 </i>
    <i name="e_0_energy">    -81.98721997 </i>
[...]
       <r>     7.5828     6.1838   168.5876 </r>
       <r>     7.6532     5.4558   168.9718 </r>
       <r>     7.7237     5.3566   169.3490 </r>
       <r>     7.7941     5.9120   169.7652 </r>
       <r>     7.8645     6.6065   170.2304 </r>
       <r>     7.9349     6.7737   170.7073 </r>
       <r>     8.0053     6.1132   171.1378 </r>
       <r>     8.0757     4.7977   171.4756 </r>
       <r>     8.1461     3.3009   171.7080 </r>
       <r>     8.2165     2.0793   171.8544 </r>
       <r>     8.2869     1.2615   171.9432 </r>
       <r>     8.3574     0.6956   171.9922 </r>
       <r>     8.4278     0.2698   172.0112 </r>
       <r>     8.4982     0.0110   172.0120 </r>
       <r>     8.5686    -0.0731   172.0068 </r>
       <r>     8.6390    -0.0590   172.0027 </r>
       <r>     8.7094    -0.0270   172.0008 </r>
       <r>     8.7798    -0.0085   172.0002 </r>
       <r>     8.8502    -0.0019   172.0000 </r>
       <r>     8.9206    -0.0003   172.0000 </r>
       <r>     8.9910    -0.0000   172.0000 </r>
       <r>     9.0615    -0.0000   172.0000 </r>
       <r>     9.1319    -0.0000   172.0000 </r>
       <r>     9.2023    -0.0000   172.0000 </r>
       <r>     9.2727    -0.0000   172.0000 </r>
       <r>     9.3431    -0.0000   172.0000 </r>
       <r>     9.4135    -0.0000   172.0000 </r>
       <r>     9.4839    -0.0000   172.0000 </r>
       <r>     9.5543     0.0000   172.0000 </r>
       <r>     9.6247     0.0000   172.0000 </r>
       <r>     9.6952     0.0000   172.0000 </r>
       <r>     9.7656     0.0000   172.0000 </r>
       <r>     9.8360     0.0000   172.0000 </r>
       <r>     9.9064     0.0000   172.0000 </r>
       <r>     9.9768     0.0000   172.0000 </r>
       <r>    10.0472     0.0000   172.0000 </r>
       <r>    10.1176     0.0000   172.0000 </r>
       <r>    10.1880     0.0000   172.0000 </r>
       <r>    10.2584     0.0000   172.0000 </r>
      </set>
      <set comment="spin 2">
       <r>   -10.8647     0.0000     0.0000 </r>
       <r>   -10.7943     0.0000     0.0000 </r>
       <r>   -10.7239     0.0000     0.0000 </r>
       <r>   -10.6535     0.0000     0.0000 </r>
       <r>   -10.5831     0.0000     0.0000 </r>
       <r>   -10.5127    -0.0000    -0.0000 </r>
       <r>   -10.4423    -0.0000    -0.0000 </r>
       <r>   -10.3718    -0.0000    -0.0000 </r>
       <r>   -10.3014    -0.0000    -0.0000 </r>
       <r>   -10.2310    -0.0000    -0.0000 </r>
       <r>   -10.1606    -0.0000    -0.0000 </r>
       <r>   -10.0902    -0.0000    -0.0000 </r>
       <r>   -10.0198    -0.0000    -0.0000 </r>
       <r>    -9.9494    -0.0000    -0.0000 </r>
       <r>    -9.8790    -0.0000    -0.0000 </r>
       <r>    -9.8086    -0.0000    -0.0000 </r>
       <r>    -9.7381    -0.0000    -0.0000 </r>
       <r>    -9.6677    -0.0000    -0.0000 </r>
       <r>    -9.5973    -0.0000    -0.0000 </r>
       <r>    -9.5269    -0.0000    -0.0000 </r>
       <r>    -9.4565    -0.0002    -0.0000 </r>
       <r>    -9.3861    -0.0009    -0.0001 </r>
       <r>    -9.3157    -0.0040    -0.0004 </r>
       <r>    -9.2453    -0.0120    -0.0012 </r>
       <r>    -9.1749    -0.0230    -0.0028 </r>
       <r>    -9.1045    -0.0164    -0.0040 </r>
       <r>    -9.0340     0.0508    -0.0004 </r>
       <r>    -8.9636     0.1989     0.0136 </r>
       <r>    -8.8932     0.3587     0.0389 </r>
       <r>    -8.8228     0.4122     0.0679 </r>
       <r>    -8.7524     0.3604     0.0933 </r>
       <r>    -8.6820     0.3763     0.1198 </r>
       <r>    -8.6116     0.5781     0.1605 </r>
       <r>    -8.5412     0.8098     0.2175 </r>
       <r>    -8.4708     0.8205     0.2752 </r>
       <r>    -8.4003     0.6360     0.3200 </r>
       <r>    -8.3299     0.5415     0.3582 </r>
       <r>    -8.2595     0.6568     0.4044 </r>
       <r>    -8.1891     0.7744     0.4589 </r>
       <r>    -8.1187     0.7478     0.5116 </r>
       <r>    -8.0483     0.8028     0.5681 </r>
       <r>    -7.9779     1.1856     0.6516 </r>
       <r>    -7.9075     1.6529     0.7680 </r>
       <r>    -7.8371     1.7041     0.8880 </r>
       <r>    -7.7667     1.2927     0.9790 </r>
       <r>    -7.6962     0.8876     1.0415 </r>
       <r>    -7.6258     0.7894     1.0971 </r>
       <r>    -7.5554     0.8002     1.1534 </r>
       <r>    -7.4850     0.6606     1.1999 </r>
       <r>    -7.4146     0.4301     1.2302 </r>
       <r>    -7.3442     0.2872     1.2504 </r>
       <r>    -7.2738     0.2762     1.2699 </r>
       <r>    -7.2034     0.4653     1.3026 </r>
       <r>    -7.1330     1.0610     1.3773 </r>
       <r>    -7.0625     2.0036     1.5184 </r>
       <r>    -6.9921     2.6639     1.7060 </r>
       <r>    -6.9217     2.4470     1.8783 </r>
       <r>    -6.8513     1.5886     1.9901 </r>
       <r>    -6.7809     0.8581     2.0505 </r>
       <r>    -6.7105     0.6316     2.0950 </r>
       <r>    -6.6401     0.7635     2.1488 </r>
       <r>    -6.5697     1.1589     2.2304 </r>
       <r>    -6.4993     1.8699     2.3620 </r>
       <r>    -6.4289     2.7415     2.5550 </r>
       <r>    -6.3584     3.5026     2.8017 </r>
       <r>    -6.2880     4.0327     3.0856 </r>
       <r>    -6.2176     4.1149     3.3753 </r>
       <r>    -6.1472     3.3770     3.6131 </r>
       <r>    -6.0768     1.9112     3.7477 </r>
       <r>    -6.0064     0.4672     3.7806 </r>
       <r>    -5.9360    -0.1861     3.7675 </r>
       <r>    -5.8656     0.3089     3.7892 </r>
       <r>    -5.7952     1.8858     3.9220 </r>
       <r>    -5.7247     3.8616     4.1939 </r>
       <r>    -5.6543     4.9894     4.5452 </r>
       <r>    -5.5839     4.4509     4.8586 </r>
       <r>    -5.5135     2.8233     5.0574 </r>
       <r>    -5.4431     1.5503     5.1666 </r>
       <r>    -5.3727     1.4816     5.2709 </r>
       <r>    -5.3023     2.3023     5.4330 </r>
       <r>    -5.2319     3.2282     5.6603 </r>
       <r>    -5.1615     3.8131     5.9288 </r>
       <r>    -5.0911     4.1382     6.2201 </r>
       <r>    -5.0206     4.5888     6.5432 </r>
       <r>    -4.9502     5.5631     6.9349 </r>
       <r>    -4.8798     7.2958     7.4486 </r>
       <r>    -4.8094     9.7786     8.1372 </r>
       <r>    -4.7390    12.5875     9.0234 </r>
       <r>    -4.6686    14.7681    10.0633 </r>
       <r>    -4.5982    15.3138    11.1415 </r>
       <r>    -4.5278    14.1324    12.1366 </r>
       <r>    -4.4574    12.3212    13.0041 </r>
       <r>    -4.3869    11.3200    13.8012 </r>
       <r>    -4.3165    12.2080    14.6608 </r>
       <r>    -4.2461    15.5671    15.7569 </r>
       <r>    -4.1757    20.8833    17.2273 </r>
       <r>    -4.1053    25.9553    19.0548 </r>
       <r>    -4.0349    28.0417    21.0292 </r>
       <r>    -3.9645    26.2475    22.8773 </r>
       <r>    -3.8941    22.4653    24.4591 </r>
       <r>    -3.8237    19.6975    25.8460 </r>
       <r>    -3.7533    19.5820    27.2248 </r>
       <r>    -3.6828    21.6143    28.7467 </r>
       <r>    -3.6124    24.3581    30.4617 </r>
       <r>    -3.5420    26.7779    32.3472 </r>
       <r>    -3.4716    28.7058    34.3684 </r>
       <r>    -3.4012    30.8370    36.5396 </r>
       <r>    -3.3308    33.7326    38.9147 </r>
       <r>    -3.2604    36.3696    41.4755 </r>
       <r>    -3.1900    37.3170    44.1031 </r>
       <r>    -3.1196    37.7202    46.7589 </r>
       <r>    -3.0491    40.4788    49.6091 </r>
       <r>    -2.9787    45.8608    52.8382 </r>
       <r>    -2.9083    50.4616    56.3912 </r>
       <r>    -2.8379    50.8749    59.9733 </r>
       <r>    -2.7675    46.6027    63.2546 </r>
       <r>    -2.6971    39.6578    66.0470 </r>
       <r>    -2.6267    33.0926    68.3770 </r>
       <r>    -2.5563    30.0450    70.4925 </r>
       <r>    -2.4859    32.3679    72.7716 </r>
       <r>    -2.4155    38.8206    75.5049 </r>
       <r>    -2.3450    45.4998    78.7086 </r>
       <r>    -2.2746    49.0128    82.1596 </r>
       <r>    -2.2042    48.8130    85.5966 </r>
       <r>    -2.1338    46.8484    88.8952 </r>
       <r>    -2.0634    45.7692    92.1178 </r>
       <r>    -1.9930    46.8518    95.4167 </r>
       <r>    -1.9226    49.3980    98.8948 </r>
       <r>    -1.8522    52.6929   102.6050 </r>
       <r>    -1.7818    57.4338   106.6489 </r>
       <r>    -1.7113    63.5352   111.1224 </r>
       <r>    -1.6409    67.3814   115.8668 </r>
       <r>    -1.5705    63.5896   120.3442 </r>
       <r>    -1.5001    50.2440   123.8819 </r>
       <r>    -1.4297    31.5855   126.1058 </r>
       <r>    -1.3593    14.8622   127.1523 </r>
       <r>    -1.2889     4.6152   127.4773 </r>
       <r>    -1.2185     0.3822   127.5042 </r>
       <r>    -1.1481    -0.6795   127.4563 </r>
       <r>    -1.0777    -0.3357   127.4327 </r>
       <r>    -1.0072     1.3850   127.5302 </r>
       <r>    -0.9368     4.4623   127.8444 </r>
       <r>    -0.8664     7.4181   128.3667 </r>
       <r>    -0.7960     8.1505   128.9406 </r>
       <r>    -0.7256     6.1676   129.3749 </r>
       <r>    -0.6552     3.2087   129.6008 </r>
       <r>    -0.5848     1.4849   129.7053 </r>
       <r>    -0.5144     1.8340   129.8345 </r>
       <r>    -0.4440     3.3691   130.0717 </r>
       <r>    -0.3736     4.4574   130.3855 </r>
       <r>    -0.3031     4.3428   130.6913 </r>
       <r>    -0.2327     3.8959   130.9656 </r>
       <r>    -0.1623     4.3574   131.2724 </r>
       <r>    -0.0919     5.6160   131.6679 </r>
       <r>    -0.0215     6.3368   132.1140 </r>
       <r>     0.0489     5.6292   132.5104 </r>
       <r>     0.1193     4.0642   132.7966 </r>
       <r>     0.1897     2.9681   133.0055 </r>
       <r>     0.2601     3.0307   133.2189 </r>
       <r>     0.3306     3.8051   133.4869 </r>
       <r>     0.4010     4.3631   133.7941 </r>
       <r>     0.4714     4.2508   134.0934 </r>
       <r>     0.5418     3.9279   134.3699 </r>
       <r>     0.6122     4.2137   134.6666 </r>
       <r>     0.6826     5.1547   135.0296 </r>
       <r>     0.7530     5.8266   135.4398 </r>
       <r>     0.8234     5.5307   135.8292 </r>
       <r>     0.8938     4.6189   136.1545 </r>
       <r>     0.9642     3.7691   136.4199 </r>
       <r>     1.0347     3.0413   136.6340 </r>
       <r>     1.1051     2.1240   136.7835 </r>
       <r>     1.1755     1.1230   136.8626 </r>
       <r>     1.2459     0.6310   136.9070 </r>
       <r>     1.3163     1.0816   136.9832 </r>
       <r>     1.3867     2.2536   137.1419 </r>
       <r>     1.4571     3.4232   137.3829 </r>
       <r>     1.5275     4.0310   137.6667 </r>
       <r>     1.5979     4.2515   137.9661 </r>
       <r>     1.6684     4.6576   138.2940 </r>
       <r>     1.7388     5.1920   138.6596 </r>
       <r>     1.8092     5.0261   139.0135 </r>
       <r>     1.8796     3.8349   139.2835 </r>
       <r>     1.9500     2.5900   139.4659 </r>
       <r>     2.0204     2.4869   139.6410 </r>
       <r>     2.0908     3.5327   139.8897 </r>
       <r>     2.1612     4.7841   140.2266 </r>
       <r>     2.2316     5.6595   140.6251 </r>
       <r>     2.3020     6.4119   141.0765 </r>
       <r>     2.3725     7.3221   141.5921 </r>
       <r>     2.4429     7.8632   142.1457 </r>
       <r>     2.5133     7.0441   142.6417 </r>
       <r>     2.5837     4.6875   142.9718 </r>
       <r>     2.6541     2.0026   143.1128 </r>
       <r>     2.7245     0.5793   143.1535 </r>
       <r>     2.7949     0.9937   143.2235 </r>
       <r>     2.8653     2.4005   143.3925 </r>
       <r>     2.9357     3.3280   143.6269 </r>
       <r>     3.0062     3.1071   143.8456 </r>
       <r>     3.0766     2.5335   144.0240 </r>
       <r>     3.1470     2.7348   144.2166 </r>
       <r>     3.2174     3.6510   144.4736 </r>
       <r>     3.2878     4.2625   144.7738 </r>
       <r>     3.3582     4.0711   145.0604 </r>
       <r>     3.4286     3.6010   145.3140 </r>
       <r>     3.4990     3.4274   145.5553 </r>
       <r>     3.5694     3.4073   145.7952 </r>
       <r>     3.6398     3.1804   146.0191 </r>
       <r>     3.7103     2.8994   146.2233 </r>
       <r>     3.7807     2.9238   146.4291 </r>
       <r>     3.8511     3.0608   146.6447 </r>
       <r>     3.9215     2.7225   146.8364 </r>
       <r>     3.9919     1.8079   146.9636 </r>
       <r>     4.0623     0.8958   147.0267 </r>
       <r>     4.1327     0.5270   147.0638 </r>
       <r>     4.2031     0.8353   147.1226 </r>
       <r>     4.2735     1.9451   147.2596 </r>
       <r>     4.3440     4.0021   147.5414 </r>
       <r>     4.4144     6.4213   147.9935 </r>
       <r>     4.4848     7.8320   148.5450 </r>
       <r>     4.5552     7.4549   149.0699 </r>
       <r>     4.6256     6.0363   149.4949 </r>
       <r>     4.6960     4.9263   149.8418 </r>
       <r>     4.7664     4.7777   150.1782 </r>
       <r>     4.8368     5.4494   150.5619 </r>
       <r>     4.9072     6.5520   151.0232 </r>
       <r>     4.9776     7.6198   151.5597 </r>
       <r>     5.0481     8.0539   152.1268 </r>
       <r>     5.1185     7.4959   152.6546 </r>
       <r>     5.1889     6.4099   153.1059 </r>
       <r>     5.2593     5.7614   153.5115 </r>
       <r>     5.3297     5.8545   153.9238 </r>
       <r>     5.4001     6.0277   154.3482 </r>
       <r>     5.4705     5.7086   154.7501 </r>
       <r>     5.5409     5.1600   155.1135 </r>
       <r>     5.6113     4.9470   155.4618 </r>
       <r>     5.6818     5.2429   155.8309 </r>
       <r>     5.7522     5.9423   156.2493 </r>
       <r>     5.8226     6.9799   156.7408 </r>
       <r>     5.8930     8.1666   157.3158 </r>
       <r>     5.9634     8.9466   157.9457 </r>
       <r>     6.0338     8.7045   158.5586 </r>
       <r>     6.1042     7.4029   159.0799 </r>
       <r>     6.1746     5.7358   159.4837 </r>
       <r>     6.2450     4.5355   159.8031 </r>
       <r>     6.3154     4.1485   160.0952 </r>
       <r>     6.3859     4.4546   160.4088 </r>
       <r>     6.4563     5.1571   160.7719 </r>
       <r>     6.5267     5.7964   161.1801 </r>
       <r>     6.5971     5.8893   161.5947 </r>
       <r>     6.6675     5.3728   161.9730 </r>
       <r>     6.7379     4.5637   162.2944 </r>
       <r>     6.8083     3.7222   162.5564 </r>
       <r>     6.8787     3.1321   162.7770 </r>
       <r>     6.9491     3.3194   163.0107 </r>
       <r>     7.0196     4.6762   163.3399 </r>
       <r>     7.0900     7.0514   163.8364 </r>
       <r>     7.1604     9.7811   164.5251 </r>
       <r>     7.2308    11.8439   165.3591 </r>
       <r>     7.3012    12.2788   166.2236 </r>
       <r>     7.3716    11.0081   166.9987 </r>
       <r>     7.4420     9.0275   167.6343 </r>
       <r>     7.5124     7.3492   168.1518 </r>
       <r>     7.5828     6.1829   168.5871 </r>
       <r>     7.6532     5.4562   168.9713 </r>
       <r>     7.7237     5.3583   169.3486 </r>
       <r>     7.7941     5.9142   169.7650 </r>
       <r>     7.8645     6.6080   170.2303 </r>
       <r>     7.9349     6.7736   170.7072 </r>
       <r>     8.0053     6.1119   171.1376 </r>
       <r>     8.0757     4.7962   171.4753 </r>
       <r>     8.1461     3.2996   171.7076 </r>
       <r>     8.2165     2.0788   171.8540 </r>
       <r>     8.2869     1.2623   171.9429 </r>
       <r>     8.3574     0.6975   171.9920 </r>
       <r>     8.4278     0.2719   172.0111 </r>
       <r>     8.4982     0.0122   172.0120 </r>
       <r>     8.5686    -0.0728   172.0068 </r>
       <r>     8.6390    -0.0591   172.0027 </r>
       <r>     8.7094    -0.0272   172.0008 </r>
       <r>     8.7798    -0.0086   172.0002 </r>
       <r>     8.8502    -0.0020   172.0000 </r>
       <r>     8.9206    -0.0003   172.0000 </r>
       <r>     8.9910    -0.0000   172.0000 </r>
       <r>     9.0615    -0.0000   172.0000 </r>
       <r>     9.1319    -0.0000   172.0000 </r>
       <r>     9.2023    -0.0000   172.0000 </r>
       <r>     9.2727    -0.0000   172.0000 </r>
       <r>     9.3431    -0.0000   172.0000 </r>
       <r>     9.4135    -0.0000   172.0000 </r>
       <r>     9.4839    -0.0000   172.0000 </r>
       <r>     9.5543     0.0000   172.0000 </r>
       <r>     9.6247     0.0000   172.0000 </r>
       <r>     9.6952     0.0000   172.0000 </r>
       <r>     9.7656     0.0000   172.0000 </r>
       <r>     9.8360     0.0000   172.0000 </r>
       <r>     9.9064     0.0000   172.0000 </r>
       <r>     9.9768     0.0000   172.0000 </r>
       <r>    10.0472     0.0000   172.0000 </r>
       <r>    10.1176     0.0000   172.0000 </r>
       <r>    10.1880     0.0000   172.0000 </r>
       <r>    10.2584     0.0000   172.0000 </r>
      </set>
     </set>
    </array>
   </total>
  </dos>
 </calculation>
 <structure name="finalpos" >
  <crystal>
   <varray name="basis" >
    <v>       7.26000023       0.00000000       0.00000000 </v>
    <v>       0.00000000       5.13359547       0.00000000 </v>
    <v>       0.00000000       0.00000000      21.41699400 </v>
   </varray>
   <i name="volume">    798.20931597 </i>
   <varray name="rec_basis" >
    <v>       0.13774104       0.00000000       0.00000000 </v>
    <v>       0.00000000       0.19479525       0.00000000 </v>
    <v>       0.00000000       0.00000000       0.04669189 </v>
   </varray>
  </crystal>
  <varray name="positions" >
   <v>       0.00000000       0.00000000       0.00000000 </v>
   <v>       0.00000000       0.50000000       0.00000000 </v>
   <v>       0.50000000       0.00000000       0.00000000 </v>
   <v>       0.50000000       0.50000000       0.00000000 </v>
   <v>       0.25000000       0.25000000       0.05992432 </v>
   <v>       0.25000000       0.75000000       0.05992432 </v>
   <v>       0.75000000       0.25000000       0.05992432 </v>
   <v>       0.75000000       0.75000000       0.05992432 </v>
   <v>      -0.00000000       0.00000000       0.11864485 </v>
   <v>       0.00000000       0.50000000       0.11864485 </v>
   <v>       0.50000000      -0.00000000       0.11864485 </v>
   <v>       0.50000000       0.50000000       0.11864485 </v>
   <v>       0.25000000       0.25000000       0.17546811 </v>
   <v>       0.25000000       0.75000000       0.17546811 </v>
   <v>       0.75000000       0.25000000       0.17546811 </v>
   <v>       0.75000000       0.75000000       0.17546811 </v>
   <v>       0.00000000      -0.00000000       0.23686639 </v>
   <v>       0.00000000       0.50000000       0.23686639 </v>
   <v>       0.50000000      -0.00000000       0.23686639 </v>
   <v>       0.50000000       0.50000000       0.23686639 </v>
   <v>       0.25000000       0.25000000       0.29035223 </v>
   <v>       0.25000000       0.75000000       0.29035223 </v>
   <v>       0.75000000       0.25000000       0.29035223 </v>
   <v>       0.75000000       0.75000000       0.29035223 </v>
  </varray>
  <varray name="selective"  type="logical" >
   <v type="logical" >  F  F  F </v>
   <v type="logical" >  F  F  F </v>
   <v type="logical" >  F  F  F </v>
   <v type="logical" >  F  F  F </v>
   <v type="logical" >  F  F  F </v>
   <v type="logical" >  F  F  F </v>
   <v type="logical" >  F  F  F </v>
   <v type="logical" >  F  F  F </v>
   <v type="logical" >  T  T  T </v>
   <v type="logical" >  T  T  T </v>
   <v type="logical" >  T  T  T </v>
   <v type="logical" >  T  T  T </v>
   <v type="logical" >  T  T  T </v>
   <v type="logical" >  T  T  T </v>
   <v type="logical" >  T  T  T </v>
   <v type="logical" >  T  T  T </v>
   <v type="logical" >  T  T  T </v>
   <v type="logical" >  T  T  T </v>
   <v type="logical" >  T  T  T </v>
   <v type="logical" >  T  T  T </v>
   <v type="logical" >  T  T  T </v>
   <v type="logical" >  T  T  T </v>
   <v type="logical" >  T  T  T </v>
   <v type="logical" >  T  T  T </v>
  </varray>
  <nose>
   <v>      -3.00000000       0.00000000       0.00010000       0.00010000 </v>
  </nose>
 </structure>
</modeling>
