  54  54   0   0
  0.3325872E+02  0.1089000E-08  0.7700393E-09  0.2141699E-08  0.5000000E-15
  1.000000000000000E-004
  CAR 
 unknown system                          
     10.06003578    -10.92401157  301     -0.13558630      1.00000000
    -10.924  0.0000E+00  0.0000E+00  0.0000E+00  0.0000E+00
    -10.854  0.0000E+00  0.0000E+00  0.0000E+00  0.0000E+00
    -10.784  0.0000E+00  0.0000E+00  0.0000E+00  0.0000E+00
    -10.714  0.0000E+00  0.0000E+00  0.0000E+00  0.0000E+00
    -10.644  0.0000E+00  0.0000E+00  0.0000E+00  0.0000E+00
    -10.574 -0.1248E-31 -0.1248E-31 -0.8728E-33 -0.8728E-33
    -10.504 -0.3382E-29 -0.3382E-29 -0.2374E-30 -0.2374E-30
    -10.434 -0.7182E-27 -0.7182E-27 -0.5047E-28 -0.5047E-28
    -10.364 -0.1191E-24 -0.1191E-24 -0.8383E-26 -0.8383E-26
    -10.294 -0.1543E-22 -0.1543E-22 -0.1088E-23 -0.1088E-23
    -10.225 -0.1560E-20 -0.1560E-20 -0.1102E-21 -0.1102E-21
    -10.155 -0.1231E-18 -0.1231E-18 -0.8719E-20 -0.8719E-20
    -10.085 -0.7352E-17 -0.7352E-17 -0.5230E-18 -0.5230E-18
    -10.015 -0.3511E-15 -0.3511E-15 -0.2508E-16 -0.2508E-16
     -9.945 -0.1305E-13 -0.1305E-13 -0.9378E-15 -0.9378E-15
     -9.875 -0.3770E-12 -0.3770E-12 -0.2731E-13 -0.2731E-13
     -9.805 -0.8451E-11 -0.8451E-11 -0.6184E-12 -0.6184E-12
     -9.735 -0.1468E-09 -0.1468E-09 -0.1088E-10 -0.1088E-10
     -9.665 -0.1969E-08 -0.1969E-08 -0.1486E-09 -0.1486E-09
     -9.595 -0.2034E-07 -0.2034E-07 -0.1571E-08 -0.1571E-08
     -9.525 -0.1610E-06 -0.1610E-06 -0.1283E-07 -0.1283E-07
     -9.455 -0.9697E-06 -0.9697E-06 -0.8066E-07 -0.8066E-07
     -9.385 -0.4394E-05 -0.4394E-05 -0.3880E-06 -0.3880E-06
     -9.315 -0.1468E-04 -0.1468E-04 -0.1415E-05 -0.1415E-05
     -9.245 -0.3460E-04 -0.3460E-04 -0.3835E-05 -0.3835E-05
     -9.175 -0.5041E-04 -0.5041E-04 -0.7361E-05 -0.7361E-05
     -9.105 -0.1371E-04 -0.1371E-04 -0.8320E-05 -0.8320E-05
     -9.035  0.1458E-03  0.1458E-03  0.1879E-05  0.1879E-05
     -8.966  0.4631E-03  0.4631E-03  0.3427E-04  0.3427E-04
     -8.896  0.8892E-03  0.8892E-03  0.9647E-04  0.9647E-04
     -8.826  0.1312E-02  0.1312E-02  0.1883E-03  0.1883E-03
     -8.756  0.1650E-02  0.1650E-02  0.3037E-03  0.3037E-03
     -8.686  0.1946E-02  0.1946E-02  0.4398E-03  0.4398E-03
     -8.616  0.2334E-02  0.2334E-02  0.6031E-03  0.6031E-03
     -8.546  0.2825E-02  0.2825E-02  0.8007E-03  0.8007E-03
     -8.476  0.3145E-02  0.3145E-02  0.1021E-02  0.1021E-02
     -8.406  0.2949E-02  0.2949E-02  0.1227E-02  0.1227E-02
     -8.336  0.2233E-02  0.2233E-02  0.1383E-02  0.1383E-02
     -8.266  0.1461E-02  0.1461E-02  0.1485E-02  0.1485E-02
     -8.196  0.1212E-02  0.1212E-02  0.1570E-02  0.1570E-02
     -8.126  0.1593E-02  0.1593E-02  0.1681E-02  0.1681E-02
     -8.056  0.2033E-02  0.2033E-02  0.1824E-02  0.1824E-02
     -7.986  0.1925E-02  0.1925E-02  0.1958E-02  0.1958E-02
     -7.916  0.1445E-02  0.1445E-02  0.2059E-02  0.2059E-02
     -7.846  0.1394E-02  0.1394E-02  0.2157E-02  0.2157E-02
     -7.776  0.2199E-02  0.2199E-02  0.2311E-02  0.2311E-02
     -7.706  0.3327E-02  0.3327E-02  0.2543E-02  0.2543E-02
     -7.637  0.3796E-02  0.3796E-02  0.2809E-02  0.2809E-02
     -7.567  0.3300E-02  0.3300E-02  0.3040E-02  0.3040E-02
     -7.497  0.2661E-02  0.2661E-02  0.3226E-02  0.3226E-02
     -7.427  0.2891E-02  0.2891E-02  0.3428E-02  0.3428E-02
     -7.357  0.3956E-02  0.3956E-02  0.3705E-02  0.3705E-02
     -7.287  0.4851E-02  0.4851E-02  0.4044E-02  0.4044E-02
     -7.217  0.4768E-02  0.4768E-02  0.4378E-02  0.4378E-02
     -7.147  0.3889E-02  0.3889E-02  0.4650E-02  0.4650E-02
     -7.077  0.3075E-02  0.3075E-02  0.4865E-02  0.4865E-02
     -7.007  0.2925E-02  0.2925E-02  0.5069E-02  0.5069E-02
     -6.937  0.3250E-02  0.3250E-02  0.5297E-02  0.5297E-02
     -6.867  0.3502E-02  0.3502E-02  0.5542E-02  0.5542E-02
     -6.797  0.3593E-02  0.3593E-02  0.5793E-02  0.5793E-02
     -6.727  0.4061E-02  0.4061E-02  0.6077E-02  0.6077E-02
     -6.657  0.5343E-02  0.5343E-02  0.6451E-02  0.6451E-02
     -6.587  0.7005E-02  0.7005E-02  0.6941E-02  0.6941E-02
     -6.517  0.7964E-02  0.7964E-02  0.7498E-02  0.7498E-02
     -6.447  0.7615E-02  0.7615E-02  0.8030E-02  0.8030E-02
     -6.377  0.6485E-02  0.6485E-02  0.8484E-02  0.8484E-02
     -6.308  0.5597E-02  0.5597E-02  0.8876E-02  0.8876E-02
     -6.238  0.5427E-02  0.5427E-02  0.9255E-02  0.9255E-02
     -6.168  0.5655E-02  0.5655E-02  0.9651E-02  0.9651E-02
     -6.098  0.5780E-02  0.5780E-02  0.1005E-01  0.1005E-01
     -6.028  0.5763E-02  0.5763E-02  0.1046E-01  0.1046E-01
     -5.958  0.5948E-02  0.5948E-02  0.1087E-01  0.1087E-01
     -5.888  0.6386E-02  0.6386E-02  0.1132E-01  0.1132E-01
     -5.818  0.6643E-02  0.6643E-02  0.1179E-01  0.1179E-01
     -5.748  0.6449E-02  0.6449E-02  0.1224E-01  0.1224E-01
     -5.678  0.5975E-02  0.5975E-02  0.1265E-01  0.1265E-01
     -5.608  0.5374E-02  0.5374E-02  0.1303E-01  0.1303E-01
     -5.538  0.4898E-02  0.4898E-02  0.1337E-01  0.1337E-01
     -5.468  0.5348E-02  0.5348E-02  0.1375E-01  0.1375E-01
     -5.398  0.7286E-02  0.7286E-02  0.1426E-01  0.1426E-01
     -5.328  0.1019E-01  0.1019E-01  0.1497E-01  0.1497E-01
     -5.258  0.1337E-01  0.1337E-01  0.1591E-01  0.1591E-01
     -5.188  0.1681E-01  0.1681E-01  0.1708E-01  0.1708E-01
     -5.118  0.2024E-01  0.2024E-01  0.1850E-01  0.1850E-01
     -5.048  0.2267E-01  0.2267E-01  0.2008E-01  0.2008E-01
     -4.979  0.2368E-01  0.2368E-01  0.2174E-01  0.2174E-01
     -4.909  0.2418E-01  0.2418E-01  0.2343E-01  0.2343E-01
     -4.839  0.2532E-01  0.2532E-01  0.2520E-01  0.2520E-01
     -4.769  0.2735E-01  0.2735E-01  0.2711E-01  0.2711E-01
     -4.699  0.2956E-01  0.2956E-01  0.2918E-01  0.2918E-01
     -4.629  0.3125E-01  0.3125E-01  0.3137E-01  0.3137E-01
     -4.559  0.3315E-01  0.3315E-01  0.3368E-01  0.3368E-01
     -4.489  0.3707E-01  0.3707E-01  0.3628E-01  0.3628E-01
     -4.419  0.4340E-01  0.4340E-01  0.3931E-01  0.3931E-01
     -4.349  0.5019E-01  0.5019E-01  0.4282E-01  0.4282E-01
     -4.279  0.5570E-01  0.5570E-01  0.4672E-01  0.4672E-01
     -4.209  0.6029E-01  0.6029E-01  0.5094E-01  0.5094E-01
     -4.139  0.6516E-01  0.6516E-01  0.5549E-01  0.5549E-01
     -4.069  0.6970E-01  0.6970E-01  0.6037E-01  0.6037E-01
     -3.999  0.7098E-01  0.7098E-01  0.6534E-01  0.6534E-01
     -3.929  0.6662E-01  0.6662E-01  0.7000E-01  0.7000E-01
     -3.859  0.5855E-01  0.5855E-01  0.7409E-01  0.7409E-01
     -3.789  0.5295E-01  0.5295E-01  0.7779E-01  0.7779E-01
     -3.719  0.5525E-01  0.5525E-01  0.8166E-01  0.8166E-01
     -3.650  0.6541E-01  0.6541E-01  0.8623E-01  0.8623E-01
     -3.580  0.7822E-01  0.7822E-01  0.9171E-01  0.9171E-01
     -3.510  0.8809E-01  0.8809E-01  0.9787E-01  0.9787E-01
     -3.440  0.9318E-01  0.9318E-01  0.1044E+00  0.1044E+00
     -3.370  0.9509E-01  0.9509E-01  0.1110E+00  0.1110E+00
     -3.300  0.9640E-01  0.9640E-01  0.1178E+00  0.1178E+00
     -3.230  0.9984E-01  0.9984E-01  0.1248E+00  0.1248E+00
     -3.160  0.1081E+00  0.1081E+00  0.1323E+00  0.1323E+00
     -3.090  0.1215E+00  0.1215E+00  0.1408E+00  0.1408E+00
     -3.020  0.1356E+00  0.1356E+00  0.1503E+00  0.1503E+00
     -2.950  0.1435E+00  0.1435E+00  0.1603E+00  0.1603E+00
     -2.880  0.1411E+00  0.1411E+00  0.1702E+00  0.1702E+00
     -2.810  0.1288E+00  0.1288E+00  0.1792E+00  0.1792E+00
     -2.740  0.1105E+00  0.1105E+00  0.1870E+00  0.1870E+00
     -2.670  0.9200E-01  0.9200E-01  0.1934E+00  0.1934E+00
     -2.600  0.8149E-01  0.8149E-01  0.1991E+00  0.1991E+00
     -2.530  0.8600E-01  0.8600E-01  0.2051E+00  0.2051E+00
     -2.460  0.1051E+00  0.1051E+00  0.2125E+00  0.2125E+00
     -2.390  0.1282E+00  0.1282E+00  0.2214E+00  0.2214E+00
     -2.321  0.1423E+00  0.1423E+00  0.2314E+00  0.2314E+00
     -2.251  0.1428E+00  0.1428E+00  0.2414E+00  0.2414E+00
     -2.181  0.1358E+00  0.1358E+00  0.2509E+00  0.2509E+00
     -2.111  0.1300E+00  0.1300E+00  0.2600E+00  0.2600E+00
     -2.041  0.1290E+00  0.1290E+00  0.2690E+00  0.2690E+00
     -1.971  0.1317E+00  0.1317E+00  0.2782E+00  0.2782E+00
     -1.901  0.1391E+00  0.1391E+00  0.2879E+00  0.2879E+00
     -1.831  0.1552E+00  0.1552E+00  0.2988E+00  0.2988E+00
     -1.761  0.1779E+00  0.1779E+00  0.3112E+00  0.3112E+00
     -1.691  0.1916E+00  0.1916E+00  0.3246E+00  0.3246E+00
     -1.621  0.1788E+00  0.1788E+00  0.3371E+00  0.3371E+00
     -1.551  0.1381E+00  0.1381E+00  0.3468E+00  0.3468E+00
     -1.481  0.8660E-01  0.8660E-01  0.3528E+00  0.3528E+00
     -1.411  0.4435E-01  0.4435E-01  0.3559E+00  0.3559E+00
     -1.341  0.1960E-01  0.1960E-01  0.3573E+00  0.3573E+00
     -1.271  0.8873E-02  0.8873E-02  0.3579E+00  0.3579E+00
     -1.201  0.5631E-02  0.5631E-02  0.3583E+00  0.3583E+00
     -1.131  0.6572E-02  0.6572E-02  0.3588E+00  0.3588E+00
     -1.062  0.1092E-01  0.1092E-01  0.3596E+00  0.3596E+00
     -0.992  0.1666E-01  0.1666E-01  0.3607E+00  0.3607E+00
     -0.922  0.1974E-01  0.1974E-01  0.3621E+00  0.3621E+00
     -0.852  0.1756E-01  0.1756E-01  0.3633E+00  0.3633E+00
     -0.782  0.1190E-01  0.1190E-01  0.3642E+00  0.3642E+00
     -0.712  0.7247E-02  0.7247E-02  0.3647E+00  0.3647E+00
     -0.642  0.6560E-02  0.6560E-02  0.3651E+00  0.3651E+00
     -0.572  0.9241E-02  0.9241E-02  0.3658E+00  0.3658E+00
     -0.502  0.1225E-01  0.1225E-01  0.3666E+00  0.3666E+00
     -0.432  0.1297E-01  0.1297E-01  0.3675E+00  0.3675E+00
     -0.362  0.1163E-01  0.1163E-01  0.3684E+00  0.3684E+00
     -0.292  0.1079E-01  0.1079E-01  0.3691E+00  0.3691E+00
     -0.222  0.1218E-01  0.1218E-01  0.3700E+00  0.3700E+00
     -0.152  0.1468E-01  0.1468E-01  0.3710E+00  0.3710E+00
     -0.082  0.1566E-01  0.1566E-01  0.3721E+00  0.3721E+00
     -0.012  0.1367E-01  0.1367E-01  0.3730E+00  0.3730E+00
      0.058  0.9594E-02  0.9594E-02  0.3737E+00  0.3737E+00
      0.128  0.5632E-02  0.5632E-02  0.3741E+00  0.3741E+00
      0.198  0.3788E-02  0.3788E-02  0.3744E+00  0.3744E+00
      0.267  0.5064E-02  0.5064E-02  0.3747E+00  0.3747E+00
      0.337  0.8896E-02  0.8896E-02  0.3753E+00  0.3753E+00
      0.407  0.1300E-01  0.1300E-01  0.3763E+00  0.3763E+00
      0.477  0.1476E-01  0.1476E-01  0.3773E+00  0.3773E+00
      0.547  0.1354E-01  0.1354E-01  0.3782E+00  0.3782E+00
      0.617  0.1154E-01  0.1154E-01  0.3790E+00  0.3790E+00
      0.687  0.1169E-01  0.1169E-01  0.3799E+00  0.3799E+00
      0.757  0.1418E-01  0.1418E-01  0.3809E+00  0.3809E+00
      0.827  0.1579E-01  0.1579E-01  0.3820E+00  0.3820E+00
      0.897  0.1347E-01  0.1347E-01  0.3829E+00  0.3829E+00
      0.967  0.8096E-02  0.8096E-02  0.3835E+00  0.3835E+00
      1.037  0.3486E-02  0.3486E-02  0.3837E+00  0.3837E+00
      1.107  0.2221E-02  0.2221E-02  0.3839E+00  0.3839E+00
      1.177  0.3706E-02  0.3706E-02  0.3841E+00  0.3841E+00
      1.247  0.5987E-02  0.5987E-02  0.3845E+00  0.3845E+00
      1.317  0.8297E-02  0.8297E-02  0.3851E+00  0.3851E+00
      1.387  0.1107E-01  0.1107E-01  0.3859E+00  0.3859E+00
      1.457  0.1399E-01  0.1399E-01  0.3869E+00  0.3869E+00
      1.527  0.1546E-01  0.1546E-01  0.3880E+00  0.3880E+00
      1.596  0.1462E-01  0.1462E-01  0.3890E+00  0.3890E+00
      1.666  0.1266E-01  0.1266E-01  0.3899E+00  0.3899E+00
      1.736  0.1149E-01  0.1149E-01  0.3907E+00  0.3907E+00
      1.806  0.1178E-01  0.1178E-01  0.3915E+00  0.3915E+00
      1.876  0.1305E-01  0.1305E-01  0.3924E+00  0.3924E+00
      1.946  0.1478E-01  0.1478E-01  0.3934E+00  0.3934E+00
      2.016  0.1621E-01  0.1621E-01  0.3946E+00  0.3946E+00
      2.086  0.1626E-01  0.1626E-01  0.3957E+00  0.3957E+00
      2.156  0.1473E-01  0.1473E-01  0.3967E+00  0.3967E+00
      2.226  0.1299E-01  0.1299E-01  0.3976E+00  0.3976E+00
      2.296  0.1245E-01  0.1245E-01  0.3985E+00  0.3985E+00
      2.366  0.1277E-01  0.1277E-01  0.3994E+00  0.3994E+00
      2.436  0.1236E-01  0.1236E-01  0.4003E+00  0.4003E+00
      2.506  0.1027E-01  0.1027E-01  0.4010E+00  0.4010E+00
      2.576  0.7251E-02  0.7251E-02  0.4015E+00  0.4015E+00
      2.646  0.5382E-02  0.5382E-02  0.4019E+00  0.4019E+00
      2.716  0.6149E-02  0.6149E-02  0.4023E+00  0.4023E+00
      2.786  0.8769E-02  0.8769E-02  0.4029E+00  0.4029E+00
      2.856  0.1083E-01  0.1083E-01  0.4037E+00  0.4037E+00
      2.925  0.1088E-01  0.1088E-01  0.4044E+00  0.4044E+00
      2.995  0.9677E-02  0.9677E-02  0.4051E+00  0.4051E+00
      3.065  0.8631E-02  0.8631E-02  0.4057E+00  0.4057E+00
      3.135  0.8121E-02  0.8121E-02  0.4063E+00  0.4063E+00
      3.205  0.7833E-02  0.7833E-02  0.4068E+00  0.4068E+00
      3.275  0.7870E-02  0.7870E-02  0.4074E+00  0.4074E+00
      3.345  0.8572E-02  0.8572E-02  0.4080E+00  0.4080E+00
      3.415  0.9604E-02  0.9604E-02  0.4087E+00  0.4087E+00
      3.485  0.1019E-01  0.1019E-01  0.4094E+00  0.4094E+00
      3.555  0.1028E-01  0.1028E-01  0.4101E+00  0.4101E+00
      3.625  0.1046E-01  0.1046E-01  0.4108E+00  0.4108E+00
      3.695  0.1091E-01  0.1091E-01  0.4116E+00  0.4116E+00
      3.765  0.1120E-01  0.1120E-01  0.4124E+00  0.4124E+00
      3.835  0.1111E-01  0.1111E-01  0.4131E+00  0.4131E+00
      3.905  0.1046E-01  0.1046E-01  0.4139E+00  0.4139E+00
      3.975  0.8919E-02  0.8919E-02  0.4145E+00  0.4145E+00
      4.045  0.6607E-02  0.6607E-02  0.4150E+00  0.4150E+00
      4.115  0.4641E-02  0.4641E-02  0.4153E+00  0.4153E+00
      4.185  0.4105E-02  0.4105E-02  0.4156E+00  0.4156E+00
      4.254  0.5072E-02  0.5072E-02  0.4159E+00  0.4159E+00
      4.324  0.7005E-02  0.7005E-02  0.4164E+00  0.4164E+00
      4.394  0.9574E-02  0.9574E-02  0.4171E+00  0.4171E+00
      4.464  0.1266E-01  0.1266E-01  0.4180E+00  0.4180E+00
      4.534  0.1580E-01  0.1580E-01  0.4191E+00  0.4191E+00
      4.604  0.1809E-01  0.1809E-01  0.4203E+00  0.4203E+00
      4.674  0.1894E-01  0.1894E-01  0.4217E+00  0.4217E+00
      4.744  0.1857E-01  0.1857E-01  0.4230E+00  0.4230E+00
      4.814  0.1756E-01  0.1756E-01  0.4242E+00  0.4242E+00
      4.884  0.1633E-01  0.1633E-01  0.4253E+00  0.4253E+00
      4.954  0.1522E-01  0.1522E-01  0.4264E+00  0.4264E+00
      5.024  0.1459E-01  0.1459E-01  0.4274E+00  0.4274E+00
      5.094  0.1515E-01  0.1515E-01  0.4285E+00  0.4285E+00
      5.164  0.1754E-01  0.1754E-01  0.4297E+00  0.4297E+00
      5.234  0.2084E-01  0.2084E-01  0.4312E+00  0.4312E+00
      5.304  0.2237E-01  0.2237E-01  0.4327E+00  0.4327E+00
      5.374  0.2019E-01  0.2019E-01  0.4341E+00  0.4341E+00
      5.444  0.1535E-01  0.1535E-01  0.4352E+00  0.4352E+00
      5.513  0.1078E-01  0.1078E-01  0.4360E+00  0.4360E+00
      5.583  0.8611E-02  0.8610E-02  0.4366E+00  0.4366E+00
      5.653  0.9105E-02  0.9105E-02  0.4372E+00  0.4372E+00
      5.723  0.1156E-01  0.1156E-01  0.4380E+00  0.4380E+00
      5.793  0.1531E-01  0.1531E-01  0.4391E+00  0.4391E+00
      5.863  0.1950E-01  0.1950E-01  0.4405E+00  0.4405E+00
      5.933  0.2257E-01  0.2257E-01  0.4420E+00  0.4420E+00
      6.003  0.2317E-01  0.2317E-01  0.4437E+00  0.4437E+00
      6.073  0.2160E-01  0.2160E-01  0.4452E+00  0.4452E+00
      6.143  0.1979E-01  0.1979E-01  0.4466E+00  0.4466E+00
      6.213  0.1965E-01  0.1965E-01  0.4479E+00  0.4479E+00
      6.283  0.2151E-01  0.2151E-01  0.4494E+00  0.4494E+00
      6.353  0.2357E-01  0.2357E-01  0.4511E+00  0.4511E+00
      6.423  0.2321E-01  0.2321E-01  0.4527E+00  0.4527E+00
      6.493  0.1943E-01  0.1943E-01  0.4541E+00  0.4541E+00
      6.563  0.1423E-01  0.1423E-01  0.4551E+00  0.4551E+00
      6.633  0.1108E-01  0.1108E-01  0.4558E+00  0.4558E+00
      6.703  0.1160E-01  0.1160E-01  0.4566E+00  0.4566E+00
      6.773  0.1426E-01  0.1426E-01  0.4576E+00  0.4576E+00
      6.842  0.1670E-01  0.1670E-01  0.4588E+00  0.4588E+00
      6.912  0.1830E-01  0.1830E-01  0.4601E+00  0.4601E+00
      6.982  0.1980E-01  0.1980E-01  0.4615E+00  0.4615E+00
      7.052  0.2164E-01  0.2164E-01  0.4630E+00  0.4630E+00
      7.122  0.2376E-01  0.2376E-01  0.4647E+00  0.4647E+00
      7.192  0.2568E-01  0.2568E-01  0.4664E+00  0.4664E+00
      7.262  0.2592E-01  0.2592E-01  0.4683E+00  0.4683E+00
      7.332  0.2298E-01  0.2297E-01  0.4699E+00  0.4699E+00
      7.402  0.1786E-01  0.1784E-01  0.4711E+00  0.4711E+00
      7.472  0.1381E-01  0.1380E-01  0.4721E+00  0.4721E+00
      7.542  0.1276E-01  0.1280E-01  0.4730E+00  0.4730E+00
      7.612  0.1401E-01  0.1419E-01  0.4740E+00  0.4740E+00
      7.682  0.1612E-01  0.1643E-01  0.4751E+00  0.4751E+00
      7.752  0.1777E-01  0.1804E-01  0.4763E+00  0.4764E+00
      7.822  0.1740E-01  0.1741E-01  0.4775E+00  0.4776E+00
      7.892  0.1434E-01  0.1408E-01  0.4785E+00  0.4786E+00
      7.962  0.9910E-02  0.9590E-02  0.4792E+00  0.4793E+00
      8.032  0.6028E-02  0.5835E-02  0.4797E+00  0.4797E+00
      8.102  0.3375E-02  0.3325E-02  0.4799E+00  0.4799E+00
      8.171  0.1611E-02  0.1624E-02  0.4800E+00  0.4800E+00
      8.241  0.4571E-03  0.4756E-03  0.4800E+00  0.4800E+00
      8.311 -0.1132E-03 -0.1044E-03  0.4800E+00  0.4800E+00
      8.381 -0.2289E-03 -0.2263E-03  0.4800E+00  0.4800E+00
      8.451 -0.1493E-03 -0.1487E-03  0.4800E+00  0.4800E+00
      8.521 -0.6200E-04 -0.6192E-04  0.4800E+00  0.4800E+00
      8.591 -0.1831E-04 -0.1830E-04  0.4800E+00  0.4800E+00
      8.661 -0.4000E-05 -0.3999E-05  0.4800E+00  0.4800E+00
      8.731 -0.6590E-06 -0.6590E-06  0.4800E+00  0.4800E+00
      8.801 -0.8276E-07 -0.8276E-07  0.4800E+00  0.4800E+00
      8.871 -0.7976E-08 -0.7976E-08  0.4800E+00  0.4800E+00
      8.941 -0.5925E-09 -0.5925E-09  0.4800E+00  0.4800E+00
      9.011 -0.3403E-10 -0.3403E-10  0.4800E+00  0.4800E+00
      9.081 -0.1515E-11 -0.1515E-11  0.4800E+00  0.4800E+00
      9.151 -0.5238E-13 -0.5238E-13  0.4800E+00  0.4800E+00
      9.221 -0.1407E-14 -0.1407E-14  0.4800E+00  0.4800E+00
      9.291 -0.2998E-16 -0.2998E-16  0.4800E+00  0.4800E+00
      9.361  0.0000E+00  0.0000E+00  0.4800E+00  0.4800E+00
      9.431  0.0000E+00  0.0000E+00  0.4800E+00  0.4800E+00
      9.500  0.0000E+00  0.0000E+00  0.4800E+00  0.4800E+00
      9.570  0.0000E+00  0.0000E+00  0.4800E+00  0.4800E+00
      9.640  0.0000E+00  0.0000E+00  0.4800E+00  0.4800E+00
      9.710  0.0000E+00  0.0000E+00  0.4800E+00  0.4800E+00
      9.780  0.0000E+00  0.0000E+00  0.4800E+00  0.4800E+00
      9.850  0.0000E+00  0.0000E+00  0.4800E+00  0.4800E+00
      9.920  0.0000E+00  0.0000E+00  0.4800E+00  0.4800E+00
      9.990  0.0000E+00  0.0000E+00  0.4800E+00  0.4800E+00
     10.060  0.0000E+00  0.0000E+00  0.4800E+00  0.4800E+00
