 vasp.6.3.2 27Jun22 (build Aug 17 2022 15:43:34) complex                        
  
 executed on           tv2STDVTST date 2025.02.03  10:46:11
 running   20 mpi-ranks, with    1 threads/rank
 distrk:  each k-point on   20 cores,    1 groups
 distr:  one band on NCORE=   5 cores,    4 groups


--------------------------------------------------------------------------------------------------------


 -----------------------------------------------------------------------------
|                                                                             |
|           W    W    AA    RRRRR   N    N  II  N    N   GGGG   !!!           |
|           W    W   A  A   R    R  NN   N  II  NN   N  G    G  !!!           |
|           W    W  A    A  R    R  N N  N  II  N N  N  G       !!!           |
|           W WW W  AAAAAA  RRRRR   N  N N  II  N  N N  G  GGG   !            |
|           WW  WW  A    A  R   R   N   NN  II  N   NN  G    G                |
|           W    W  A    A  R    R  N    N  II  N    N   GGGG   !!!           |
|                                                                             |
|     Found issues when parsing the INCAR file                                |
|     In line 64: Tagname --- R W I G S contains invalid characters.          |
|     Please check if the interpretation in the OUTCAR file is correct.       |
|                                                                             |
 -----------------------------------------------------------------------------

 INCAR:
    = \=\=\=\=\=\=\=\=\=\=\=\=\=\=\=\=\=\=\=\=\=\=\=\=\=\=\=\=\=\=\=\=\=\=\=\=\=\=\=\=\=\=\=\=\=\=\=\=\=\=\=\=\=\=\=\=\=\=\=\=\=\=\=\=\=\=\=\=\=\=\=\=
    = \=\=\=\=\=\=\=\=\=\=\=\=\=\=\=\=\=\=\=\=\=\=\=\=\=\=\=\=\=\=\=\=\=\=\=\=\=\=\=\=\=\=\=\=\=\=\=\=\=\=\=\=\=\=\=\=\=\=\=\=\=\=\=\=\=\=\=\=\=\=\=\=
   ISTART = 0
   ICHARG = 2
   IPIPOL = 3
   IVDW = 11
   IDIPOL = 3
   IVDW = 11
    = \=\=\=\=\=\=\=\=\=\=\=\=\=\=\=\=\=\=\=\=\=\=\=\=\=\=\=\=\=\=\=\=\=\=\=\=\=\=\=\=\=\=\=\=\=\=\=\=\=\=\=\=\=\=\=\=\=\=\=\=\=\=\=\=\=\=\=\=\=\=\=\=
    = \=\=\=\=\=\=\=\=\=\=\=\=\=\=\=\=\=\=\=\=\=\=\=\=\=\=\=\=\=\=\=\=\=\=\=\=\=\=\=\=\=\=\=\=\=\=\=\=\=\=\=\=\=\=\=\=\=\=\=\=\=\=\=\=\=\=\=\=\=\=\=\=
   ISPIN = 2
    = \=\=\=\=\=\=\=\=\=\=\=\=\=\=\=\=\=\=\=\=\=\=\=\=\=\=\=\=\=\=\=\=\=\=\=\=\=\=\=\=\=\=\=\=\=\=\=\=\=\=\=\=\=\=\=\=\=\=\=\=\=\=\=\=\=\=\=\=\=\=\=\=
    = \=\=\=\=\=\=\=\=\=\=\=\=\=\=\=\=\=\=\=\=\=\=\=\=\=\=\=\=\=\=\=\=\=\=\=\=\=\=\=\=\=\=\=\=\=\=\=\=\=\=\=\=\=\=\=\=\=\=\=\=\=\=\=\=\=\=\=\=\=\=\=\=
   ENCUT = 400
   PREC = Normal
   EDIFF = 2E-04
   GGA = PE
   ISMEAR = 1
   SIGMA = 0.2
   LREAL = .FALSE.
    = \=\=\=\=\=\=\=\=\=\=\=\=\=\=\=\=\=\=\=\=\=\=\=\=\=\=\=\=\=\=\=\=\=\=\=\=\=\=\=\=\=\=\=\=\=\=\=\=\=\=\=\=\=\=\=\=\=\=\=\=\=\=\=\=\=\=\=\=\=\=\=\=
    = \=\=\=\=\=\=\=\=\=\=\=\=\=\=\=\=\=\=\=\=\=\=\=\=\=\=\=\=\=\=\=\=\=\=\=\=\=\=\=\=\=\=\=\=\=\=\=\=\=\=\=\=\=\=\=\=\=\=\=\=\=\=\=\=\=\=\=\=\=\=\=\=
   ISYM = 1
   NSW = 800
   IBRION = 2
   POTIM = 0.5
   ISIF = 2
   EDIFFG = -.03
    = \=\=\=\=\=\=\=\=\=\=\=\=\=\=\=\=\=\=\=\=\=\=\=\=\=\=\=\=\=\=\=\=\=\=\=\=\=\=\=\=\=\=\=\=\=\=\=\=\=\=\=\=\=\=\=\=\=\=\=\=\=\=\=\=\=\=\=\=\=\=\=\=
    = \=\=\=\=\=\=\=\=\=\=\=\=\=\=\=\=\=\=\=\=\=\=\=\=\=\=\=\=\=\=\=\=\=\=\=\=\=\=\=\=\=\=\=\=\=\=\=\=\=\=\=\=\=\=\=\=\=\=\=\=\=\=\=\=\=\=\=\=\=\=\=\=
   NPAR = 4
   LWAVE = .FALSE.
   LCHARG = .FALSE.

 POTCAR:    PAW_PBE Cu 22Jun2005                  
 -----------------------------------------------------------------------------
|                                                                             |
|           W    W    AA    RRRRR   N    N  II  N    N   GGGG   !!!           |
|           W    W   A  A   R    R  NN   N  II  NN   N  G    G  !!!           |
|           W    W  A    A  R    R  N N  N  II  N N  N  G       !!!           |
|           W WW W  AAAAAA  RRRRR   N  N N  II  N  N N  G  GGG   !            |
|           WW  WW  A    A  R   R   N   NN  II  N   NN  G    G                |
|           W    W  A    A  R    R  N    N  II  N    N   GGGG   !!!           |
|                                                                             |
|     You use a magnetic or noncollinear calculation, but did not specify     |
|     the initial magnetic moment with the MAGMOM tag. Note that a            |
|     default of 1 will be used for all atoms. This ferromagnetic setup       |
|     may break the symmetry of the crystal, in particular it may rule        |
|     out finding an antiferromagnetic solution. Thence, we recommend         |
|     setting the initial magnetic moment manually or verifying carefully     |
|     that this magnetic setup is desired.                                    |
|                                                                             |
 -----------------------------------------------------------------------------

 POTCAR:    PAW_PBE Cu 22Jun2005                  
   SHA256 =  0e71e558f37a4e8407882b4609ceaae59938afaad9ced71dfe8490308a0ab630 Cu/POTCAR             
   COPYR  = (c) Copyright 22Jun2005 Georg Kresse                                                    
   COPYR  = This file is part of the software VASP. Any use, copying, and all other rights are regul
   COPYR  = If you do not have a valid VASP license, you may not use, copy or distribute this file. 
   VRHFIN =Cu: d10 p1                                                                               
   LEXCH  = PE                                                                                      
   EATOM  =  1390.9808 eV,  102.2342 Ry                                                             
                                                                                                    
   TITEL  = PAW_PBE Cu 22Jun2005                                                                    
   LULTRA =        F    use ultrasoft PP ?                                                          
   IUNSCR =        1    unscreen: 0-lin 1-nonlin 2-no                                               
   RPACOR =    2.000    partial core radius                                                         
   POMASS =   63.546; ZVAL   =   11.000    mass and valenz                                          
   RCORE  =    2.300    outmost cutoff radius                                                       
   RWIGS  =    2.200; RWIGS  =    1.164    wigner-seitz radius (au A)                               
   ENMAX  =  295.446; ENMIN  =  221.585 eV                                                          
   ICORE  =        3    local potential                                                             
   LCOR   =        T    correct aug charges                                                         
   LPAW   =        T    paw PP                                                                      
   EAUG   =  586.980                                                                                
   DEXC   =    0.000                                                                                
   RMAX   =    2.344    core radius for proj-oper                                                   
   RAUG   =    1.300    factor for augmentation sphere                                              
   RDEP   =    2.302    radius for radial grids                                                     
   RDEPT  =    1.771    core radius for aug-charge                                                  
                                                                                                    
   Atomic configuration                                                                             
    9 entries                                                                                       
     n  l   j            E        occ.                                                              
     1  0  0.50     -8850.2468   2.0000                                                             
     2  0  0.50     -1062.3498   2.0000                                                             
     2  1  1.50      -916.8226   6.0000                                                             
     3  0  0.50      -114.6929   2.0000                                                             
     3  1  1.50       -72.1325   6.0000                                                             
     3  2  2.50        -5.0394  10.0000                                                             
     4  0  0.50        -4.6097   1.0000                                                             
     4  1  0.50        -4.0817   0.0000                                                             
     4  3  2.50        -1.3606   0.0000                                                             
   Description                                                                                      
     l       E           TYP  RCUT    TYP  RCUT                                                     
     2     -5.0393973     23  2.200                                                                 
     2     10.8846608     23  2.200                                                                 
     0     -4.6097109     23  2.200                                                                 
     0      8.2520465     23  2.200                                                                 
     1     -2.7211652     23  2.200                                                                 
     1     21.7055443     23  2.200                                                                 
     3      2.7211652     23  2.300                                                                 
  local pseudopotential read in
  partial core-charges read in
  partial kinetic energy density read in
  atomic valenz-charges read in
  non local Contribution for L=           2  read in
    real space projection operators read in
  non local Contribution for L=           2  read in
    real space projection operators read in
  non local Contribution for L=           0  read in
    real space projection operators read in
  non local Contribution for L=           0  read in
    real space projection operators read in
  non local Contribution for L=           1  read in
    real space projection operators read in
  non local Contribution for L=           1  read in
    real space projection operators read in
    PAW grid and wavefunctions read in
 
   number of l-projection  operators is LMAX  =           6
   number of lm-projection operators is LMMAX =          18
 
 -----------------------------------------------------------------------------
|                                                                             |
|               ----> ADVICE to this user running VASP <----                  |
|                                                                             |
|     You have a (more or less) 'large supercell' and for larger cells it     |
|     might be more efficient to use real-space projection operators.         |
|     Therefore, try LREAL= Auto in the INCAR file.                           |
|     Mind: For very accurate calculation, you might also keep the            |
|     reciprocal projection scheme (i.e. LREAL=.FALSE.).                      |
|                                                                             |
 -----------------------------------------------------------------------------

  PAW_PBE Cu 22Jun2005                  :
 energy of atom  1       EATOM=-1390.9808
 kinetic energy error for atom=    0.0232 (will be added to EATOM!!)
 
 
 POSCAR: FCC Cu
  positions in cartesian coordinates
  velocities in cartesian coordinates
  No initial velocities read in
 exchange correlation table for  LEXCH =        8
   RHO(1)=    0.500       N(1)  =     2000
   RHO(2)=  100.500       N(2)  =     4000

 VTST: version 4.2, (08/11/21)

 CHAIN: initializing optimizer
 
 OPT: Using VASP Conjugate-Gradient optimizer
 CHAIN: Read ICHAIN            0
 
 POSCAR: FCC Cu
  positions in cartesian coordinates
  velocities in cartesian coordinates
  No initial velocities read in
 


--------------------------------------------------------------------------------------------------------


 ion  position               nearest neighbor table
   1  0.000  0.000  0.000-  19 2.57  12 2.57  18 2.57  10 2.57  16 2.57   3 2.57   2 2.57
   2  0.000  0.333  0.000-  20 2.57  10 2.57  16 2.57  11 2.57  17 2.57   1 2.57   3 2.57
   3  0.000  0.667  0.000-  21 2.57  12 2.57  11 2.57  18 2.57  17 2.57   1 2.57   2 2.57
   4  0.333  0.000  0.000-  22 2.57  12 2.57  15 2.57  10 2.57  13 2.57   6 2.57   5 2.57
   5  0.333  0.333  0.000-  23 2.57  10 2.57  13 2.57  11 2.57  14 2.57   4 2.57   6 2.57
   6  0.333  0.667  0.000-  24 2.57  12 2.57  11 2.57  15 2.57  14 2.57   4 2.57   5 2.57
   7  0.667  0.000  0.000-  25 2.57  18 2.57  16 2.57  15 2.57  13 2.57   9 2.57   8 2.57
   8  0.667  0.333  0.000-  26 2.57  16 2.57  17 2.57  13 2.57  14 2.57   7 2.57   9 2.57
   9  0.667  0.667  0.000-  27 2.57  18 2.57  17 2.57  15 2.57  14 2.57   7 2.57   8 2.57
  10  0.167  0.167  0.060-  28 2.57  23 2.57  20 2.57  19 2.57  22 2.57   5 2.57   2 2.57   1 2.57
                             4 2.57  12 2.57  11 2.57
  11  0.167  0.500  0.060-  29 2.57  21 2.57  23 2.57  24 2.57  20 2.57   3 2.57   5 2.57   6 2.57
                             2 2.57  10 2.57  12 2.57
  12  0.167  0.833  0.060-  30 2.57  22 2.57  19 2.57  24 2.57  21 2.57   4 2.57   1 2.57   6 2.57
                             3 2.57  10 2.57  11 2.57
  13  0.500  0.167  0.060-  31 2.57  23 2.57  22 2.57  26 2.57   5 2.57  25 2.57   4 2.57   8 2.57
                             7 2.57  15 2.57  14 2.57
  14  0.500  0.500  0.060-  32 2.57  24 2.57  23 2.57  27 2.57  26 2.57   6 2.57   5 2.57   9 2.57
                             8 2.57  13 2.57  15 2.57
  15  0.500  0.833  0.060-  33 2.57  22 2.57  24 2.57  25 2.57   4 2.57  27 2.57   6 2.57   7 2.57
                             9 2.57  13 2.57  14 2.57
  16  0.833  0.167  0.060-  34 2.57  26 2.57  20 2.57  25 2.57  19 2.57   8 2.57   2 2.57   7 2.57
                             1 2.57  18 2.57  17 2.57
  17  0.833  0.500  0.060-  35 2.57  27 2.57  26 2.57  21 2.57  20 2.57   9 2.57   8 2.57   3 2.57
                             2 2.57  16 2.57  18 2.57
  18  0.833  0.833  0.060-  36 2.57  25 2.57  19 2.57  27 2.57  21 2.57   7 2.57   1 2.57   9 2.57
                             3 2.57  16 2.57  17 2.57
  19  0.000  0.000  0.120-   1 2.57  37 2.57  12 2.57  18 2.57  10 2.57  16 2.57  30 2.57  36 2.57
                            28 2.57  34 2.57  21 2.57  20 2.57
  20  0.000  0.333  0.120-   2 2.57  38 2.57  10 2.57  16 2.57  11 2.57  17 2.57  28 2.57  34 2.57
                            29 2.57  35 2.57  19 2.57  21 2.57
  21  0.000  0.667  0.120-   3 2.57  39 2.57  12 2.57  11 2.57  18 2.57  17 2.57  30 2.57  29 2.57
                            36 2.57  35 2.57  19 2.57  20 2.57
  22  0.333  0.000  0.120-   4 2.57  40 2.57  12 2.57  15 2.57  10 2.57  13 2.57  30 2.57  33 2.57
                            28 2.57  31 2.57  24 2.57  23 2.57
  23  0.333  0.333  0.120-   5 2.57  41 2.57  10 2.57  13 2.57  11 2.57  14 2.57  28 2.57  31 2.57
                            29 2.57  32 2.57  22 2.57  24 2.57
  24  0.333  0.667  0.120-   6 2.57  42 2.57  12 2.57  11 2.57  15 2.57  14 2.57  30 2.57  29 2.57
                            33 2.57  32 2.57  22 2.57  23 2.57
  25  0.667  0.000  0.120-   7 2.57  43 2.57  18 2.57  16 2.57  15 2.57  36 2.57  13 2.57  34 2.57
                            33 2.57  31 2.57  27 2.57  26 2.57
  26  0.667  0.333  0.120-   8 2.57  44 2.57  16 2.57  17 2.57  13 2.57  34 2.57  14 2.57  35 2.57
                            31 2.57  32 2.57  25 2.57  27 2.57
  27  0.667  0.667  0.120-   9 2.57  45 2.57  18 2.57  17 2.57  15 2.57  14 2.57  36 2.57  35 2.57
                            33 2.57  32 2.57  25 2.57  26 2.57
  28  0.167  0.167  0.180-  46 2.57  10 2.57  41 2.57  38 2.57  37 2.57  40 2.57  23 2.57  20 2.57
                            19 2.57  22 2.57  30 2.57  29 2.57
  29  0.167  0.500  0.180-  47 2.57  11 2.57  39 2.57  41 2.57  42 2.57  38 2.57  21 2.57  23 2.57
                            24 2.57  20 2.57  28 2.57  30 2.57
  30  0.167  0.833  0.180-  48 2.57  12 2.57  40 2.57  37 2.57  22 2.57  19 2.57  42 2.57  39 2.57
                            24 2.57  21 2.57  28 2.57  29 2.57
  31  0.500  0.167  0.180-  49 2.57  13 2.57  41 2.57  40 2.57  23 2.57  44 2.57  22 2.57  43 2.57
                            26 2.57  25 2.57  33 2.57  32 2.57
  32  0.500  0.500  0.180-  50 2.57  14 2.57  42 2.57  41 2.57  24 2.57  23 2.57  45 2.57  44 2.57
                            27 2.57  26 2.57  31 2.57  33 2.57
  33  0.500  0.833  0.180-  51 2.57  15 2.57  40 2.57  22 2.57  42 2.57  43 2.57  24 2.57  25 2.57
                            45 2.57  27 2.57  31 2.57  32 2.57
  34  0.833  0.167  0.180-  52 2.57  16 2.57  44 2.57  38 2.57  43 2.57  26 2.57  37 2.57  20 2.57
                            25 2.57  19 2.57  36 2.57  35 2.57
  35  0.833  0.500  0.180-  53 2.57  17 2.57  45 2.57  44 2.57  39 2.57  38 2.57  27 2.57  26 2.57
                            21 2.57  20 2.57  34 2.57  36 2.57
  36  0.833  0.833  0.180-  54 2.57  18 2.57  43 2.57  37 2.57  25 2.57  45 2.57  19 2.57  39 2.57
                            27 2.57  21 2.57  34 2.57  35 2.57
  37  0.000  0.000  0.240-  19 2.57  30 2.57  48 2.57  36 2.57  54 2.57  28 2.57  46 2.57  34 2.57
                            52 2.57  39 2.57  38 2.57
  38  0.000  0.333  0.240-  20 2.57  28 2.57  46 2.57  34 2.57  52 2.57  29 2.57  47 2.57  35 2.57
                            53 2.57  37 2.57  39 2.57
  39  0.000  0.667  0.240-  21 2.57  29 2.57  30 2.57  47 2.57  48 2.57  35 2.57  36 2.57  53 2.57
                            54 2.57  37 2.57  38 2.57
  40  0.333  0.000  0.240-  22 2.57  30 2.57  33 2.57  48 2.57  51 2.57  28 2.57  31 2.57  46 2.57
                            49 2.57  42 2.57  41 2.57
  41  0.333  0.333  0.240-  23 2.57  28 2.57  31 2.57  46 2.57  49 2.57  29 2.57  32 2.57  47 2.57
                            50 2.57  40 2.57  42 2.57
  42  0.333  0.667  0.240-  24 2.57  29 2.57  30 2.57  32 2.57  33 2.57  47 2.57  48 2.57  50 2.57
                            51 2.57  40 2.57  41 2.57
  43  0.667  0.000  0.240-  25 2.57  36 2.57  54 2.57  34 2.57  52 2.57  33 2.57  51 2.57  31 2.57
                            49 2.57  45 2.57  44 2.57
  44  0.667  0.333  0.240-  26 2.57  34 2.57  52 2.57  35 2.57  53 2.57  31 2.57  49 2.57  32 2.57
                            50 2.57  43 2.57  45 2.57
  45  0.667  0.667  0.240-  27 2.57  35 2.57  36 2.57  53 2.57  54 2.57  32 2.57  33 2.57  50 2.57
                            51 2.57  43 2.57  44 2.57
  46  0.167  0.167  0.300-  28 2.57  38 2.57  41 2.57  40 2.57  37 2.57  48 2.57  47 2.57
  47  0.167  0.500  0.300-  29 2.57  38 2.57  39 2.57  41 2.57  42 2.57  46 2.57  48 2.57
  48  0.167  0.833  0.300-  30 2.57  37 2.57  40 2.57  39 2.57  42 2.57  46 2.57  47 2.57
  49  0.500  0.167  0.300-  31 2.57  41 2.57  40 2.57  44 2.57  43 2.57  51 2.57  50 2.57
  50  0.500  0.500  0.300-  32 2.57  41 2.57  42 2.57  44 2.57  45 2.57  49 2.57  51 2.57
  51  0.500  0.833  0.300-  33 2.57  40 2.57  42 2.57  43 2.57  45 2.57  49 2.57  50 2.57
  52  0.833  0.167  0.300-  34 2.57  44 2.57  38 2.57  43 2.57  37 2.57  54 2.57  53 2.57
  53  0.833  0.500  0.300-  35 2.57  44 2.57  45 2.57  38 2.57  39 2.57  52 2.57  54 2.57
  54  0.833  0.833  0.300-  36 2.57  43 2.57  37 2.57  45 2.57  39 2.57  52 2.57  53 2.57
 
  LATTYP: Found a simple orthorhombic cell.
 ALAT       =     7.7003931999
 B/A-ratio  =     1.4142135422
 C/A-ratio  =     2.7812857661
  
  Lattice vectors:
  
 A1 = (   0.0000000000,  -7.7003931999,   0.0000000000)
 A2 = (  10.8900003433,   0.0000000000,   0.0000000000)
 A3 = (   0.0000000000,   0.0000000000,  21.4169940000)


Analysis of symmetry for initial positions (statically):
=====================================================================
 Subroutine PRICEL returns following result:
 
  LATTYP: Found a simple orthorhombic cell.
 ALAT       =     2.5667977330
 B/A-ratio  =     1.4142135422
 C/A-ratio  =     8.3438572992
  
  Lattice vectors:
  
 A1 = (   0.0000000000,  -2.5667977330,   0.0000000000)
 A2 = (   3.6300001140,   0.0000000000,   0.0000000000)
 A3 = (   0.0000000000,   0.0000000000,  21.4169940000)
 
   9 primitive cells build up your supercell.
 

 Routine SETGRP: Setting up the symmetry group for a 
 simple orthorhombic supercell.


 Subroutine GETGRP returns: Found  8 space group operations
 (whereof  4 operations were pure point group operations)
 out of a pool of  8 trial point group operations.


The static configuration has the point symmetry C_2v.
 The point group associated with its full space group is D_2h.


Analysis of symmetry for dynamics (positions and initial velocities):
=====================================================================
 Subroutine PRICEL returns following result:
 
  LATTYP: Found a simple orthorhombic cell.
 ALAT       =     2.5667977330
 B/A-ratio  =     1.4142135422
 C/A-ratio  =     8.3438572992
  
  Lattice vectors:
  
 A1 = (   0.0000000000,  -2.5667977330,   0.0000000000)
 A2 = (   3.6300001140,   0.0000000000,   0.0000000000)
 A3 = (   0.0000000000,   0.0000000000,  21.4169940000)
 
   9 primitive cells build up your supercell.
 

 Routine SETGRP: Setting up the symmetry group for a 
 simple orthorhombic supercell.


 Subroutine GETGRP returns: Found  8 space group operations
 (whereof  4 operations were pure point group operations)
 out of a pool of  8 trial point group operations.


The dynamic configuration has the point symmetry C_2v.
 The point group associated with its full space group is D_2h.


Analysis of constrained symmetry for selective dynamics:
=====================================================================
 Subroutine PRICEL returns following result:
 
  LATTYP: Found a simple orthorhombic cell.
 ALAT       =     2.5667977330
 B/A-ratio  =     1.4142135422
 C/A-ratio  =     8.3438572992
  
  Lattice vectors:
  
 A1 = (   0.0000000000,  -2.5667977330,   0.0000000000)
 A2 = (   3.6300001140,   0.0000000000,   0.0000000000)
 A3 = (   0.0000000000,   0.0000000000,  21.4169940000)
 
   9 primitive cells build up your supercell.
 

 Routine SETGRP: Setting up the symmetry group for a 
 simple orthorhombic supercell.


 Subroutine GETGRP returns: Found  4 space group operations
 (whereof  4 operations were pure point group operations)
 out of a pool of  8 trial point group operations.


The constrained configuration has the point symmetry C_2v.


Analysis of structural, dynamic, and magnetic symmetry:
=====================================================================
 Subroutine PRICEL returns following result:
 
  LATTYP: Found a simple orthorhombic cell.
 ALAT       =     2.5667977330
 B/A-ratio  =     1.4142135422
 C/A-ratio  =     8.3438572992
  
  Lattice vectors:
  
 A1 = (   0.0000000000,  -2.5667977330,   0.0000000000)
 A2 = (   3.6300001140,   0.0000000000,   0.0000000000)
 A3 = (   0.0000000000,   0.0000000000,  21.4169940000)
 
   9 primitive cells build up your supercell.
 

 Routine SETGRP: Setting up the symmetry group for a 
 simple orthorhombic supercell.


 Subroutine GETGRP returns: Found  4 space group operations
 (whereof  4 operations were pure point group operations)
 out of a pool of  8 trial point group operations.


The overall configuration has the point symmetry C_2v.


 Subroutine INISYM returns: Found  4 space group operations
 (whereof  4 operations are pure point group operations),
 and found     9 'primitive' translations


----------------------------------------------------------------------------------------

                                     Primitive cell                                     

  volume of cell :     199.5523

  direct lattice vectors                    reciprocal lattice vectors
     0.000000000 -2.566797733  0.000000000     0.000000000 -0.389590495  0.000000000
     3.630000114  0.000000000  0.000000000     0.275482085  0.000000000  0.000000000
     0.000000000  0.000000000 21.416994000     0.000000000  0.000000000  0.046691893

  length of vectors
     2.566797733  3.630000114 21.416994000     0.389590495  0.275482085  0.046691893

  position of ions in fractional coordinates (direct lattice)
     0.000000000  0.000000000  0.000000000
     0.499999999  0.500000000  0.059924321
     0.000000000  0.000000000  0.119848642
     0.499999999  0.500000000  0.179772964
     0.000000000  0.000000000  0.239697285
     0.499999999  0.500000000  0.299621606

  ion indices of the primitive-cell ions
   primitive index   ion index
                 1           1
                 2          12
                 3          19
                 4          30
                 5          37
                 6          48

----------------------------------------------------------------------------------------

 
 
 KPOINTS: Auto-mesh                               

Automatic generation of k-mesh.
 Grid dimensions read from file:
 generate k-points for:    3    3    1

 Generating k-lattice:

  Cartesian coordinates                     Fractional coordinates (reciprocal lattice)
     0.030609121  0.000000000  0.000000000     0.333333333  0.000000000  0.000000000
     0.000000000  0.043287833  0.000000000     0.000000000  0.333333333  0.000000000
     0.000000000  0.000000000  0.046691893     0.000000000  0.000000000  1.000000000

  Length of vectors
     0.030609121  0.043287833  0.046691893

  Shift w.r.t. Gamma in fractional coordinates (k-lattice)
     0.000000000  0.000000000  0.000000000

 
 Subroutine IBZKPT returns following result:
 ===========================================
 
 Found      4 irreducible k-points:
 
 Following reciprocal coordinates:
            Coordinates               Weight
  0.000000  0.000000  0.000000      1.000000
  0.333333  0.000000  0.000000      2.000000
  0.000000  0.333333  0.000000      2.000000
  0.333333  0.333333  0.000000      4.000000
 
 Following cartesian coordinates:
            Coordinates               Weight
  0.000000  0.000000  0.000000      1.000000
  0.030609  0.000000  0.000000      2.000000
  0.000000  0.043288  0.000000      2.000000
  0.030609  0.043288  0.000000      4.000000
 


--------------------------------------------------------------------------------------------------------




 Dimension of arrays:
   k-points           NKPTS =      4   k-points in BZ     NKDIM =      4   number of bands    NBANDS=    384
   number of dos      NEDOS =    301   number of ions     NIONS =     54
   non local maximal  LDIM  =      6   non local SUM 2l+1 LMDIM =     18
   total plane-waves  NPLWV = 233280
   max r-space proj   IRMAX =      1   max aug-charges    IRDMAX=   3961
   dimension x,y,z NGX =    54 NGY =   40 NGZ =  108
   dimension x,y,z NGXF=   108 NGYF=   80 NGZF=  216
   support grid    NGXF=   108 NGYF=   80 NGZF=  216
   ions per type =              54
   NGX,Y,Z   is equivalent  to a cutoff of   8.24,  8.64,  8.38 a.u.
   NGXF,Y,Z  is equivalent  to a cutoff of  16.49, 17.27, 16.77 a.u.

 SYSTEM =  unknown system                          
 POSCAR =  FCC Cu                                  

 Startparameter for this run:
   NWRITE =      2    write-flag & timer
   PREC   = normal    normal or accurate (medium, high low for compatibility)
   ISTART =      0    job   : 0-new  1-cont  2-samecut
   ICHARG =      2    charge: 1-file 2-atom 10-const
   ISPIN  =      2    spin polarized calculation?
   LNONCOLLINEAR =      F non collinear calculations
   LSORBIT =      F    spin-orbit coupling
   INIWAV =      1    electr: 0-lowe 1-rand  2-diag
   LASPH  =      F    aspherical Exc in radial PAW
 Electronic Relaxation 1
   ENCUT  =  400.0 eV  29.40 Ry    5.42 a.u.  17.76 12.56 34.93*2*pi/ulx,y,z
   ENINI  =  400.0     initial cutoff
   ENAUG  =  587.0 eV  augmentation charge cutoff
   NELM   =     60;   NELMIN=  2; NELMDL= -5     # of ELM steps 
   EDIFF  = 0.2E-03   stopping-criterion for ELM
   LREAL  =      F    real-space projection
   NLSPLINE    = F    spline interpolate recip. space projectors
   LCOMPAT=      F    compatible to vasp.4.4
   GGA_COMPAT  = T    GGA compatible to vasp.4.4-vasp.4.6
   LMAXPAW     = -100 max onsite density
   LMAXMIX     =    2 max onsite mixed and CHGCAR
   VOSKOWN=      0    Vosko Wilk Nusair interpolation
   ROPT   =    0.00000
 Ionic relaxation
   EDIFFG = -.3E-01   stopping-criterion for IOM
   NSW    =    800    number of steps for IOM
   NBLOCK =      1;   KBLOCK =    800    inner block; outer block 
   IBRION =      2    ionic relax: 0-MD 1-quasi-New 2-CG
   NFREE  =      1    steps in history (QN), initial steepest desc. (CG)
   ISIF   =      2    stress and relaxation
   IWAVPR =     11    prediction:  0-non 1-charg 2-wave 3-comb
   ISYM   =      1    0-nonsym 1-usesym 2-fastsym
   LCORR  =      T    Harris-Foulkes like correction to forces

   POTIM  = 0.5000    time-step for ionic-motion
   TEIN   =    0.0    initial temperature
   TEBEG  =    0.0;   TEEND  =   0.0 temperature during run
   SMASS  =  -3.00    Nose mass-parameter (am)
   estimated Nose-frequenzy (Omega)   =  0.10E-29 period in steps = 0.13E+47 mass=  -0.271E-26a.u.
   SCALEE = 1.0000    scale energy and forces
   NPACO  =    256;   APACO  = 10.0  distance and # of slots for P.C.
   PSTRESS=    0.0 pullay stress

  Mass of Ions in am
   POMASS =  63.55
  Ionic Valenz
   ZVAL   =  11.00
  Atomic Wigner-Seitz radii
   RWIGS  =  -1.00
  virtual crystal weights 
   VCA    =   1.00
   NELECT =     594.0000    total number of electrons
   NUPDOWN=      -1.0000    fix difference up-down

 DOS related values:
   EMIN   =  10.00;   EMAX   =-10.00  energy-range for DOS
   EFERMI =   0.00
   ISMEAR =     1;   SIGMA  =   0.20  broadening in eV -4-tet -1-fermi 0-gaus

 Electronic relaxation 2 (details)
   IALGO  =     38    algorithm
   LDIAG  =      T    sub-space diagonalisation (order eigenvalues)
   LSUBROT=      F    optimize rotation matrix (better conditioning)
   TURBO    =      0    0=normal 1=particle mesh
   IRESTART =      0    0=no restart 2=restart with 2 vectors
   NREBOOT  =      0    no. of reboots
   NMIN     =      0    reboot dimension
   EREF     =   0.00    reference energy to select bands
   IMIX   =      4    mixing-type and parameters
     AMIX     =   0.40;   BMIX     =  1.00
     AMIX_MAG =   1.60;   BMIX_MAG =  1.00
     AMIN     =   0.10
     WC   =   100.;   INIMIX=   1;  MIXPRE=   1;  MAXMIX= -45

 Intra band minimization:
   WEIMIN = 0.0010     energy-eigenvalue tresh-hold
   EBREAK =  0.13E-06  absolut break condition
   DEPER  =   0.30     relativ break condition  

   TIME   =   0.40     timestep for ELM

  volume/ion in A,a.u.               =      33.26       224.44
  Fermi-wavevector in a.u.,A,eV,Ry     =   1.132150  2.139453 17.439445  1.281763
  Thomas-Fermi vector in A             =   2.268850
 
 Write flags
   LWAVE        =      F    write WAVECAR
   LDOWNSAMPLE  =      F    k-point downsampling of WAVECAR
   LCHARG       =      F    write CHGCAR
   LVTOT        =      F    write LOCPOT, total local potential
   LVHAR        =      F    write LOCPOT, Hartree potential only
   LELF         =      F    write electronic localiz. function (ELF)
   LORBIT       =      0    0 simple, 1 ext, 2 COOP (PROOUT), +10 PAW based schemes


 Dipole corrections
   LMONO  =      F    monopole corrections only (constant potential shift)
   LDIPOL =      F    correct potential (dipole corrections)
   IDIPOL =      3    1-x, 2-y, 3-z, 4-all directions 
   EPSILON=  1.0000000 bulk dielectric constant

 Exchange correlation treatment:
   GGA     =    PE    GGA type
   LEXCH   =     8    internal setting for exchange type
   LIBXC   =     F    Libxc                    
   VOSKOWN =     0    Vosko Wilk Nusair interpolation
   LHFCALC =     F    Hartree Fock is set to
   LHFONE  =     F    Hartree Fock one center treatment
   AEXX    =    0.0000 exact exchange contribution

 Linear response parameters
   LEPSILON=     F    determine dielectric tensor
   LRPA    =     F    only Hartree local field effects (RPA)
   LNABLA  =     F    use nabla operator in PAW spheres
   LVEL    =     F    velocity operator in full k-point grid
   CSHIFT  =0.1000    complex shift for real part using Kramers Kronig
   OMEGAMAX=  -1.0    maximum frequency
   DEG_THRESHOLD= 0.2000000E-02 threshold for treating states as degnerate
   RTIME   =   -0.100 relaxation time in fs
  (WPLASMAI=    0.000 imaginary part of plasma frequency in eV, 0.658/RTIME)
   DFIELD  = 0.0000000 0.0000000 0.0000000 field for delta impulse in time
 
  Optional k-point grid parameters
   LKPOINTS_OPT  =     F    use optional k-point grid
   KPOINTS_OPT_MODE=     1    mode for optional k-point grid
 
 Orbital magnetization related:
   ORBITALMAG=     F  switch on orbital magnetization
   LCHIMAG   =     F  perturbation theory with respect to B field
   DQ        =  0.001000  dq finite difference perturbation B field
   LLRAUG    =     F  two centre corrections for induced B field



--------------------------------------------------------------------------------------------------------


 conjugate gradient relaxation of ions
   using selective dynamics as specified on POSCAR
   WARNING: If single coordinates had been selected the selection of coordinates
            is made according to the corresponding   d i r e c t   coordinates!
            Don't support selection of single cartesian coordinates -- sorry ...
  !
 charge density and potential will be updated during run
 spin polarized calculation
 Variant of blocked Davidson
 Davidson routine will perform the subspace rotation
 perform sub-space diagonalisation
    after iterative eigenvector-optimisation
 modified Broyden-mixing scheme, WC =      100.0
 initial mixing is a Kerker type mixing with AMIX =  0.4000 and BMIX =      1.0000
 Hartree-type preconditioning will be used
 using additional bands           87
 reciprocal scheme for non local part
 use partial core corrections
 calculate Harris-corrections to forces 
   (improved forces if not selfconsistent)
 use gradient corrections 
 use of overlap-Matrix (Vanderbilt PP)
 Methfessel and Paxton  Order N= 1 SIGMA  =   0.20


--------------------------------------------------------------------------------------------------------


  energy-cutoff  :      400.00
  volume of cell :     1795.97
      direct lattice vectors                 reciprocal lattice vectors
    10.890000343  0.000000000  0.000000000     0.091827362  0.000000000  0.000000000
     0.000000000  7.700393200  0.000000000     0.000000000  0.129863498  0.000000000
     0.000000000  0.000000000 21.416994000     0.000000000  0.000000000  0.046691893

  length of vectors
    10.890000343  7.700393200 21.416994000     0.091827362  0.129863498  0.046691893


 
 k-points in units of 2pi/SCALE and weight: Auto-mesh                               
   0.00000000  0.00000000  0.00000000       0.111
   0.03060912  0.00000000  0.00000000       0.222
   0.00000000  0.04328783  0.00000000       0.222
   0.03060912  0.04328783  0.00000000       0.444
 
 k-points in reciprocal lattice and weights: Auto-mesh                               
   0.00000000  0.00000000  0.00000000       0.111
   0.33333333  0.00000000  0.00000000       0.222
   0.00000000  0.33333333  0.00000000       0.222
   0.33333333  0.33333333  0.00000000       0.444
 
 position of ions in fractional coordinates (direct lattice) 
   0.00000000  0.00000000  0.00000000
   0.00000000  0.33333333  0.00000000
   0.00000000  0.66666667  0.00000000
   0.33333333  0.00000000  0.00000000
   0.33333333  0.33333333  0.00000000
   0.33333333  0.66666667  0.00000000
   0.66666667  0.00000000  0.00000000
   0.66666667  0.33333333  0.00000000
   0.66666667  0.66666667  0.00000000
   0.16666667  0.16666667  0.05992432
   0.16666667  0.50000000  0.05992432
   0.16666667  0.83333333  0.05992432
   0.50000000  0.16666667  0.05992432
   0.50000000  0.50000000  0.05992432
   0.50000000  0.83333333  0.05992432
   0.83333333  0.16666667  0.05992432
   0.83333333  0.50000000  0.05992432
   0.83333333  0.83333333  0.05992432
   0.00000000  0.00000000  0.11984864
   0.00000000  0.33333333  0.11984864
   0.00000000  0.66666667  0.11984864
   0.33333333  0.00000000  0.11984864
   0.33333333  0.33333333  0.11984864
   0.33333333  0.66666667  0.11984864
   0.66666667  0.00000000  0.11984864
   0.66666667  0.33333333  0.11984864
   0.66666667  0.66666667  0.11984864
   0.16666667  0.16666667  0.17977296
   0.16666667  0.50000000  0.17977296
   0.16666667  0.83333333  0.17977296
   0.50000000  0.16666667  0.17977296
   0.50000000  0.50000000  0.17977296
   0.50000000  0.83333333  0.17977296
   0.83333333  0.16666667  0.17977296
   0.83333333  0.50000000  0.17977296
   0.83333333  0.83333333  0.17977296
   0.00000000  0.00000000  0.23969728
   0.00000000  0.33333333  0.23969728
   0.00000000  0.66666667  0.23969728
   0.33333333  0.00000000  0.23969728
   0.33333333  0.33333333  0.23969728
   0.33333333  0.66666667  0.23969728
   0.66666667  0.00000000  0.23969728
   0.66666667  0.33333333  0.23969728
   0.66666667  0.66666667  0.23969728
   0.16666667  0.16666667  0.29962161
   0.16666667  0.50000000  0.29962161
   0.16666667  0.83333333  0.29962161
   0.50000000  0.16666667  0.29962161
   0.50000000  0.50000000  0.29962161
   0.50000000  0.83333333  0.29962161
   0.83333333  0.16666667  0.29962161
   0.83333333  0.50000000  0.29962161
   0.83333333  0.83333333  0.29962161
 
 position of ions in cartesian coordinates  (Angst):
   0.00000000  0.00000000  0.00000000
   0.00000000  2.56679773  0.00000000
   0.00000000  5.13359547  0.00000000
   3.63000011  0.00000000  0.00000000
   3.63000011  2.56679773  0.00000000
   3.63000011  5.13359547  0.00000000
   7.26000023  0.00000000  0.00000000
   7.26000023  2.56679773  0.00000000
   7.26000023  5.13359547  0.00000000
   1.81500006  1.28339887  1.28339883
   1.81500006  3.85019660  1.28339883
   1.81500006  6.41699433  1.28339883
   5.44500017  1.28339887  1.28339883
   5.44500017  3.85019660  1.28339883
   5.44500017  6.41699433  1.28339883
   9.07500029  1.28339887  1.28339883
   9.07500029  3.85019660  1.28339883
   9.07500029  6.41699433  1.28339883
   0.00000000  0.00000000  2.56679766
   0.00000000  2.56679773  2.56679766
   0.00000000  5.13359547  2.56679766
   3.63000011  0.00000000  2.56679766
   3.63000011  2.56679773  2.56679766
   3.63000011  5.13359547  2.56679766
   7.26000023  0.00000000  2.56679766
   7.26000023  2.56679773  2.56679766
   7.26000023  5.13359547  2.56679766
   1.81500006  1.28339887  3.85019649
   1.81500006  3.85019660  3.85019649
   1.81500006  6.41699433  3.85019649
   5.44500017  1.28339887  3.85019649
   5.44500017  3.85019660  3.85019649
   5.44500017  6.41699433  3.85019649
   9.07500029  1.28339887  3.85019649
   9.07500029  3.85019660  3.85019649
   9.07500029  6.41699433  3.85019649
   0.00000000  0.00000000  5.13359531
   0.00000000  2.56679773  5.13359531
   0.00000000  5.13359547  5.13359531
   3.63000011  0.00000000  5.13359531
   3.63000011  2.56679773  5.13359531
   3.63000011  5.13359547  5.13359531
   7.26000023  0.00000000  5.13359531
   7.26000023  2.56679773  5.13359531
   7.26000023  5.13359547  5.13359531
   1.81500006  1.28339887  6.41699414
   1.81500006  3.85019660  6.41699414
   1.81500006  6.41699433  6.41699414
   5.44500017  1.28339887  6.41699414
   5.44500017  3.85019660  6.41699414
   5.44500017  6.41699433  6.41699414
   9.07500029  1.28339887  6.41699414
   9.07500029  3.85019660  6.41699414
   9.07500029  6.41699433  6.41699414
 


--------------------------------------------------------------------------------------------------------


 k-point   1 :   0.0000 0.0000 0.0000  plane waves:   32679
 k-point   2 :   0.3333 0.0000 0.0000  plane waves:   32624
 k-point   3 :   0.0000 0.3333 0.0000  plane waves:   32653
 k-point   4 :   0.3333 0.3333 0.0000  plane waves:   32612

 maximum and minimum number of plane-waves per node :      6563     6498

 maximum number of plane-waves:     32679
 maximum index in each direction: 
   IXMAX=   17   IYMAX=   12   IZMAX=   34
   IXMIN=  -18   IYMIN=  -12   IZMIN=  -34


 parallel 3D FFT for wavefunctions:
    minimum data exchange during FFTs selected (reduces bandwidth)
 parallel 3D FFT for charge:
    minimum data exchange during FFTs selected (reduces bandwidth)


 total amount of memory used by VASP MPI-rank0   138625. kBytes
=======================================================================

   base      :      30000. kBytes
   nonl-proj :       9400. kBytes
   fftplans  :       4876. kBytes
   grid      :      11334. kBytes
   one-center:        342. kBytes
   wavefun   :      82673. kBytes
 
     INWAV:  cpu time      0.0000: real time      0.0004
 Broyden mixing: mesh for mixing (old mesh)
   NGX = 35   NGY = 25   NGZ = 69
  (NGX  =108   NGY  = 80   NGZ  =216)
  gives a total of  60375 points

 initial charge density was supplied:
 charge density of overlapping atoms calculated
 number of electron     594.0000000 magnetization      54.0000000
 keeping initial charge density in first step


--------------------------------------------------------------------------------------------------------


 Maximum index for augmentation-charges          374 (set IRDMAX)


--------------------------------------------------------------------------------------------------------


 First call to EWALD:  gamma=   0.146
 Maximum number of real-space cells 3x 4x 2
 Maximum number of reciprocal cells 3x 2x 4

    FEWALD:  cpu time      0.0031: real time      0.0031


--------------------------------------- Iteration      1(   1)  ---------------------------------------


    POTLOK:  cpu time      0.1313: real time      0.1568
    SETDIJ:  cpu time      0.0184: real time      0.0185
     EDDAV:  cpu time     43.1967: real time     43.7879
       DOS:  cpu time      0.0037: real time      0.0038
    --------------------------------------------
      LOOP:  cpu time     43.3502: real time     43.9670

 eigenvalue-minimisations  :  6144
 total energy-change (2. order) : 0.5302182E+04  (-0.2121658E+05)
 number of electron     594.0000000 magnetization      54.0000000
 augmentation part      594.0000000 magnetization      54.0000000

 Free energy of the ion-electron system (eV)
  ---------------------------------------------------
  alpha Z        PSCENC =      1187.40926345
  Ewald energy   TEWEN  =    224693.77838714
  -Hartree energ DENC   =   -296738.95952811
  -exchange      EXHF   =         0.00000000
  -V(xc)+E(xc)   XCENC  =      2460.04125449
  PAW double counting   =     66317.26478664   -72031.73030235
  entropy T*S    EENTRO =        -0.00088799
  eigenvalues    EBANDS =      4302.66602649
  atomic energy  EATOM  =     75111.71257079
  Solvation  Ediel_sol  =         0.00000000
  ---------------------------------------------------
  free energy    TOTEN  =      5302.18157055 eV

  energy without entropy =     5302.18245854  energy(sigma->0) =     5302.18186654


--------------------------------------------------------------------------------------------------------




--------------------------------------- Iteration      1(   2)  ---------------------------------------


     EDDAV:  cpu time     42.5115: real time     42.9828
       DOS:  cpu time      0.0040: real time      0.0040
    --------------------------------------------
      LOOP:  cpu time     42.5155: real time     42.9868

 eigenvalue-minimisations  :  6144
 total energy-change (2. order) :-0.4763669E+04  (-0.4563357E+04)
 number of electron     594.0000000 magnetization      54.0000000
 augmentation part      594.0000000 magnetization      54.0000000

 Free energy of the ion-electron system (eV)
  ---------------------------------------------------
  alpha Z        PSCENC =      1187.40926345
  Ewald energy   TEWEN  =    224693.77838714
  -Hartree energ DENC   =   -296738.95952811
  -exchange      EXHF   =         0.00000000
  -V(xc)+E(xc)   XCENC  =      2460.04125449
  PAW double counting   =     66317.26478664   -72031.73030235
  entropy T*S    EENTRO =         0.00759509
  eigenvalues    EBANDS =      -461.01120053
  atomic energy  EATOM  =     75111.71257079
  Solvation  Ediel_sol  =         0.00000000
  ---------------------------------------------------
  free energy    TOTEN  =       538.51282661 eV

  energy without entropy =      538.50523151  energy(sigma->0) =      538.51029491


--------------------------------------------------------------------------------------------------------




--------------------------------------- Iteration      1(   3)  ---------------------------------------


     EDDAV:  cpu time     42.5643: real time     42.9764
       DOS:  cpu time      0.0048: real time      0.0048
    --------------------------------------------
      LOOP:  cpu time     42.5691: real time     42.9812

 eigenvalue-minimisations  :  6144
 total energy-change (2. order) :-0.7105757E+03  (-0.6397223E+03)
 number of electron     594.0000000 magnetization      54.0000000
 augmentation part      594.0000000 magnetization      54.0000000

 Free energy of the ion-electron system (eV)
  ---------------------------------------------------
  alpha Z        PSCENC =      1187.40926345
  Ewald energy   TEWEN  =    224693.77838714
  -Hartree energ DENC   =   -296738.95952811
  -exchange      EXHF   =         0.00000000
  -V(xc)+E(xc)   XCENC  =      2460.04125449
  PAW double counting   =     66317.26478664   -72031.73030235
  entropy T*S    EENTRO =         0.03176221
  eigenvalues    EBANDS =     -1171.61104352
  atomic energy  EATOM  =     75111.71257079
  Solvation  Ediel_sol  =         0.00000000
  ---------------------------------------------------
  free energy    TOTEN  =      -172.06284927 eV

  energy without entropy =     -172.09461148  energy(sigma->0) =     -172.07343667


--------------------------------------------------------------------------------------------------------




--------------------------------------- Iteration      1(   4)  ---------------------------------------


     EDDAV:  cpu time     46.7976: real time     47.1049
       DOS:  cpu time      0.0049: real time      0.0049
    --------------------------------------------
      LOOP:  cpu time     46.8025: real time     47.1098

 eigenvalue-minimisations  :  6928
 total energy-change (2. order) :-0.4493747E+02  (-0.4358710E+02)
 number of electron     594.0000000 magnetization      54.0000000
 augmentation part      594.0000000 magnetization      54.0000000

 Free energy of the ion-electron system (eV)
  ---------------------------------------------------
  alpha Z        PSCENC =      1187.40926345
  Ewald energy   TEWEN  =    224693.77838714
  -Hartree energ DENC   =   -296738.95952811
  -exchange      EXHF   =         0.00000000
  -V(xc)+E(xc)   XCENC  =      2460.04125449
  PAW double counting   =     66317.26478664   -72031.73030235
  entropy T*S    EENTRO =         0.05626751
  eigenvalues    EBANDS =     -1216.57301557
  atomic energy  EATOM  =     75111.71257079
  Solvation  Ediel_sol  =         0.00000000
  ---------------------------------------------------
  free energy    TOTEN  =      -217.00031601 eV

  energy without entropy =     -217.05658353  energy(sigma->0) =     -217.01907185


--------------------------------------------------------------------------------------------------------




--------------------------------------- Iteration      1(   5)  ---------------------------------------


     EDDAV:  cpu time     46.7857: real time     47.0856
       DOS:  cpu time      0.0053: real time      0.0054
    CHARGE:  cpu time      1.4440: real time      1.4507
    MIXING:  cpu time      0.0111: real time      0.0112
    --------------------------------------------
      LOOP:  cpu time     48.2461: real time     48.5528

 eigenvalue-minimisations  :  6920
 total energy-change (2. order) :-0.1077585E+01  (-0.1073492E+01)
 number of electron     594.0003607 magnetization      48.3174751
 augmentation part      352.8601290 magnetization      47.3786199

 Broyden mixing:
  rms(total) = 0.66520E+01    rms(broyden)= 0.66515E+01
  rms(prec ) = 0.69237E+01
  weight for this iteration     100.00

 Free energy of the ion-electron system (eV)
  ---------------------------------------------------
  alpha Z        PSCENC =      1187.40926345
  Ewald energy   TEWEN  =    224693.77838714
  -Hartree energ DENC   =   -296738.95952811
  -exchange      EXHF   =         0.00000000
  -V(xc)+E(xc)   XCENC  =      2460.04125449
  PAW double counting   =     66317.26478664   -72031.73030235
  entropy T*S    EENTRO =         0.05873667
  eigenvalues    EBANDS =     -1217.65307008
  atomic energy  EATOM  =     75111.71257079
  Solvation  Ediel_sol  =         0.00000000
  ---------------------------------------------------
  free energy    TOTEN  =      -218.07790136 eV

  energy without entropy =     -218.13663803  energy(sigma->0) =     -218.09748025


--------------------------------------------------------------------------------------------------------




--------------------------------------- Iteration      1(   6)  ---------------------------------------


    POTLOK:  cpu time      0.1353: real time      0.1390
    SETDIJ:  cpu time      0.0179: real time      0.0179
     EDDAV:  cpu time     47.3913: real time     47.9523
       DOS:  cpu time      0.0047: real time      0.0047
    CHARGE:  cpu time      1.3838: real time      1.5000
    MIXING:  cpu time      0.1623: real time      0.1736
    --------------------------------------------
      LOOP:  cpu time     49.0952: real time     49.7876

 eigenvalue-minimisations  :  6520
 total energy-change (2. order) : 0.4266292E+02  (-0.5488120E+02)
 number of electron     594.0004006 magnetization      44.8630404
 augmentation part      396.9289724 magnetization      32.1200587

 Broyden mixing:
  rms(total) = 0.34201E+01    rms(broyden)= 0.34194E+01
  rms(prec ) = 0.36104E+01
  weight for this iteration     100.00

 eigenvalues of (default mixing * dielectric matrix)
  average eigenvalue GAMMA=   0.7903
  0.7903

 Free energy of the ion-electron system (eV)
  ---------------------------------------------------
  alpha Z        PSCENC =      1187.40926345
  Ewald energy   TEWEN  =    224693.77838714
  -Hartree energ DENC   =   -295341.55014307
  -exchange      EXHF   =         0.00000000
  -V(xc)+E(xc)   XCENC  =      2401.96963172
  PAW double counting   =     66915.44043217   -72344.41491233
  entropy T*S    EENTRO =        -0.01564122
  eigenvalues    EBANDS =     -2799.74456947
  atomic energy  EATOM  =     75111.71257079
  Solvation  Ediel_sol  =         0.00000000
  ---------------------------------------------------
  free energy    TOTEN  =      -175.41498082 eV

  energy without entropy =     -175.39933960  energy(sigma->0) =     -175.40976708


--------------------------------------------------------------------------------------------------------




--------------------------------------- Iteration      1(   7)  ---------------------------------------


    POTLOK:  cpu time      0.3582: real time      0.3640
    SETDIJ:  cpu time      0.0179: real time      0.0180
     EDDAV:  cpu time     46.9677: real time     47.4555
       DOS:  cpu time      0.0052: real time      0.0052
    CHARGE:  cpu time      1.3984: real time      1.4053
    MIXING:  cpu time      0.0108: real time      0.0108
    --------------------------------------------
      LOOP:  cpu time     48.7582: real time     49.2588

 eigenvalue-minimisations  :  6648
 total energy-change (2. order) : 0.2766874E+02  (-0.1426078E+02)
 number of electron     594.0003866 magnetization      41.0018562
 augmentation part      381.4110053 magnetization      27.4991194

 Broyden mixing:
  rms(total) = 0.16212E+01    rms(broyden)= 0.16209E+01
  rms(prec ) = 0.16594E+01
  weight for this iteration     100.00

 eigenvalues of (default mixing * dielectric matrix)
  average eigenvalue GAMMA=   0.8155
  0.9964  0.6345

 Free energy of the ion-electron system (eV)
  ---------------------------------------------------
  alpha Z        PSCENC =      1187.40926345
  Ewald energy   TEWEN  =    224693.77838714
  -Hartree energ DENC   =   -296092.19814564
  -exchange      EXHF   =         0.00000000
  -V(xc)+E(xc)   XCENC  =      2434.62199958
  PAW double counting   =     68295.82676914   -73994.98000223
  entropy T*S    EENTRO =        -0.04001012
  eigenvalues    EBANDS =     -1783.87707667
  atomic energy  EATOM  =     75111.71257079
  Solvation  Ediel_sol  =         0.00000000
  ---------------------------------------------------
  free energy    TOTEN  =      -147.74624458 eV

  energy without entropy =     -147.70623446  energy(sigma->0) =     -147.73290787


--------------------------------------------------------------------------------------------------------




--------------------------------------- Iteration      1(   8)  ---------------------------------------


    POTLOK:  cpu time      0.1241: real time      0.1280
    SETDIJ:  cpu time      0.0178: real time      0.0178
     EDDAV:  cpu time     47.7331: real time     48.2661
       DOS:  cpu time      0.0046: real time      0.0046
    CHARGE:  cpu time      1.3841: real time      1.3906
    MIXING:  cpu time      0.0084: real time      0.0084
    --------------------------------------------
      LOOP:  cpu time     49.2720: real time     49.8156

 eigenvalue-minimisations  :  7024
 total energy-change (2. order) : 0.6084270E+01  (-0.3593121E+01)
 number of electron     594.0003848 magnetization      36.7251881
 augmentation part      379.4311665 magnetization      22.4648953

 Broyden mixing:
  rms(total) = 0.14988E+01    rms(broyden)= 0.14987E+01
  rms(prec ) = 0.15723E+01
  weight for this iteration     100.00

 eigenvalues of (default mixing * dielectric matrix)
  average eigenvalue GAMMA=   0.7441
  1.1512  0.6538  0.4274

 Free energy of the ion-electron system (eV)
  ---------------------------------------------------
  alpha Z        PSCENC =      1187.40926345
  Ewald energy   TEWEN  =    224693.77838714
  -Hartree energ DENC   =   -296190.99167910
  -exchange      EXHF   =         0.00000000
  -V(xc)+E(xc)   XCENC  =      2440.42724641
  PAW double counting   =     69090.09982432   -74853.51355350
  entropy T*S    EENTRO =        -0.04394877
  eigenvalues    EBANDS =     -1620.54008550
  atomic energy  EATOM  =     75111.71257079
  Solvation  Ediel_sol  =         0.00000000
  ---------------------------------------------------
  free energy    TOTEN  =      -141.66197477 eV

  energy without entropy =     -141.61802600  energy(sigma->0) =     -141.64732518


--------------------------------------------------------------------------------------------------------




--------------------------------------- Iteration      1(   9)  ---------------------------------------


    POTLOK:  cpu time      0.1296: real time      0.1313
    SETDIJ:  cpu time      0.0179: real time      0.0180
     EDDAV:  cpu time     54.4478: real time     54.8030
       DOS:  cpu time      0.0051: real time      0.0051
    CHARGE:  cpu time      1.4137: real time      1.4205
    MIXING:  cpu time      0.0119: real time      0.0120
    --------------------------------------------
      LOOP:  cpu time     56.0260: real time     56.3899

 eigenvalue-minimisations  :  8392
 total energy-change (2. order) : 0.4904976E+01  (-0.1110394E+01)
 number of electron     594.0003837 magnetization      24.8027032
 augmentation part      378.4060165 magnetization      10.3995269

 Broyden mixing:
  rms(total) = 0.11123E+01    rms(broyden)= 0.11122E+01
  rms(prec ) = 0.11228E+01
  weight for this iteration     100.00

 eigenvalues of (default mixing * dielectric matrix)
  average eigenvalue GAMMA=   1.2030
  2.4801  1.2081  0.7349  0.3890

 Free energy of the ion-electron system (eV)
  ---------------------------------------------------
  alpha Z        PSCENC =      1187.40926345
  Ewald energy   TEWEN  =    224693.77838714
  -Hartree energ DENC   =   -296310.44319572
  -exchange      EXHF   =         0.00000000
  -V(xc)+E(xc)   XCENC  =      2441.30995272
  PAW double counting   =     69761.25316516   -75567.73471848
  entropy T*S    EENTRO =         0.00440721
  eigenvalues    EBANDS =     -1454.04683081
  atomic energy  EATOM  =     75111.71257079
  Solvation  Ediel_sol  =         0.00000000
  ---------------------------------------------------
  free energy    TOTEN  =      -136.75699855 eV

  energy without entropy =     -136.76140576  energy(sigma->0) =     -136.75846762


--------------------------------------------------------------------------------------------------------




--------------------------------------- Iteration      1(  10)  ---------------------------------------


    POTLOK:  cpu time      0.1257: real time      0.1290
    SETDIJ:  cpu time      0.0179: real time      0.0179
     EDDAV:  cpu time     55.6314: real time     56.0043
       DOS:  cpu time      0.0087: real time      0.0087
    CHARGE:  cpu time      1.3686: real time      1.3748
    MIXING:  cpu time      0.0149: real time      0.0149
    --------------------------------------------
      LOOP:  cpu time     57.1672: real time     57.5496

 eigenvalue-minimisations  :  8592
 total energy-change (2. order) : 0.5319166E+00  (-0.1382735E+01)
 number of electron     594.0003869 magnetization      18.0463434
 augmentation part      382.2665383 magnetization       5.6639543

 Broyden mixing:
  rms(total) = 0.88803E+00    rms(broyden)= 0.88797E+00
  rms(prec ) = 0.92497E+00
  weight for this iteration     100.00

 eigenvalues of (default mixing * dielectric matrix)
  average eigenvalue GAMMA=   1.3057
  3.7179  1.1560  0.6338  0.6338  0.3868

 Free energy of the ion-electron system (eV)
  ---------------------------------------------------
  alpha Z        PSCENC =      1187.40926345
  Ewald energy   TEWEN  =    224693.77838714
  -Hartree energ DENC   =   -296254.82405990
  -exchange      EXHF   =         0.00000000
  -V(xc)+E(xc)   XCENC  =      2431.76187522
  PAW double counting   =     70592.89079639   -76403.64240918
  entropy T*S    EENTRO =         0.02160233
  eigenvalues    EBANDS =     -1495.33310822
  atomic energy  EATOM  =     75111.71257079
  Solvation  Ediel_sol  =         0.00000000
  ---------------------------------------------------
  free energy    TOTEN  =      -136.22508198 eV

  energy without entropy =     -136.24668431  energy(sigma->0) =     -136.23228276


--------------------------------------------------------------------------------------------------------




--------------------------------------- Iteration      1(  11)  ---------------------------------------


    POTLOK:  cpu time      0.1228: real time      0.1248
    SETDIJ:  cpu time      0.0178: real time      0.0179
     EDDAV:  cpu time     48.0653: real time     48.3806
       DOS:  cpu time      0.0050: real time      0.0050
    CHARGE:  cpu time      1.3875: real time      1.3943
    MIXING:  cpu time      0.0175: real time      0.0175
    --------------------------------------------
      LOOP:  cpu time     49.6160: real time     49.9401

 eigenvalue-minimisations  :  7160
 total energy-change (2. order) :-0.3785865E+01  (-0.5707963E+00)
 number of electron     594.0003864 magnetization      12.2819505
 augmentation part      381.8229513 magnetization       1.3769659

 Broyden mixing:
  rms(total) = 0.69435E+00    rms(broyden)= 0.69428E+00
  rms(prec ) = 0.72674E+00
  weight for this iteration     100.00

 eigenvalues of (default mixing * dielectric matrix)
  average eigenvalue GAMMA=   1.3979
  4.8000  1.1230  0.8265  0.8265  0.3910  0.4206

 Free energy of the ion-electron system (eV)
  ---------------------------------------------------
  alpha Z        PSCENC =      1187.40926345
  Ewald energy   TEWEN  =    224693.77838714
  -Hartree energ DENC   =   -296381.96863382
  -exchange      EXHF   =         0.00000000
  -V(xc)+E(xc)   XCENC  =      2429.73109567
  PAW double counting   =     70929.95144324   -76764.07522707
  entropy T*S    EENTRO =         0.02080487
  eigenvalues    EBANDS =     -1346.57065107
  atomic energy  EATOM  =     75111.71257079
  Solvation  Ediel_sol  =         0.00000000
  ---------------------------------------------------
  free energy    TOTEN  =      -140.01094680 eV

  energy without entropy =     -140.03175167  energy(sigma->0) =     -140.01788175


--------------------------------------------------------------------------------------------------------




--------------------------------------- Iteration      1(  12)  ---------------------------------------


    POTLOK:  cpu time      0.1240: real time      0.1284
    SETDIJ:  cpu time      0.0179: real time      0.0180
     EDDAV:  cpu time     52.1701: real time     53.0166
       DOS:  cpu time      0.0051: real time      0.0051
    CHARGE:  cpu time      1.4031: real time      1.4096
    MIXING:  cpu time      0.0121: real time      0.0121
    --------------------------------------------
      LOOP:  cpu time     53.7322: real time     54.5898

 eigenvalue-minimisations  :  7336
 total energy-change (2. order) :-0.7604083E+01  (-0.5502358E+00)
 number of electron     594.0003844 magnetization       8.1219320
 augmentation part      379.7506653 magnetization      -0.9967478

 Broyden mixing:
  rms(total) = 0.34337E+00    rms(broyden)= 0.34334E+00
  rms(prec ) = 0.36773E+00
  weight for this iteration     100.00

 eigenvalues of (default mixing * dielectric matrix)
  average eigenvalue GAMMA=   1.5990
  6.1584  1.7951  0.8954  0.7717  0.7717  0.3833  0.4175

 Free energy of the ion-electron system (eV)
  ---------------------------------------------------
  alpha Z        PSCENC =      1187.40926345
  Ewald energy   TEWEN  =    224693.77838714
  -Hartree energ DENC   =   -296514.42518455
  -exchange      EXHF   =         0.00000000
  -V(xc)+E(xc)   XCENC  =      2428.16372073
  PAW double counting   =     70959.36895664   -76814.33818949
  entropy T*S    EENTRO =         0.05044676
  eigenvalues    EBANDS =     -1199.33500116
  atomic energy  EATOM  =     75111.71257079
  Solvation  Ediel_sol  =         0.00000000
  ---------------------------------------------------
  free energy    TOTEN  =      -147.61502971 eV

  energy without entropy =     -147.66547646  energy(sigma->0) =     -147.63184529


--------------------------------------------------------------------------------------------------------




--------------------------------------- Iteration      1(  13)  ---------------------------------------


    POTLOK:  cpu time      0.1240: real time      0.1268
    SETDIJ:  cpu time      0.0179: real time      0.0180
     EDDAV:  cpu time     52.7168: real time     53.3640
       DOS:  cpu time      0.0051: real time      0.0051
    CHARGE:  cpu time      1.4114: real time      1.4179
    MIXING:  cpu time      0.0125: real time      0.0125
    --------------------------------------------
      LOOP:  cpu time     54.2878: real time     54.9443

 eigenvalue-minimisations  :  7680
 total energy-change (2. order) :-0.1738516E+02  (-0.1182082E+01)
 number of electron     594.0003831 magnetization       5.9619659
 augmentation part      378.6198537 magnetization      -0.1298833

 Broyden mixing:
  rms(total) = 0.30546E+00    rms(broyden)= 0.30542E+00
  rms(prec ) = 0.32882E+00
  weight for this iteration     100.00

 eigenvalues of (default mixing * dielectric matrix)
  average eigenvalue GAMMA=   1.8008
  7.6083  2.6713  1.0176  0.8426  0.8426  0.6288  0.3916  0.4039

 Free energy of the ion-electron system (eV)
  ---------------------------------------------------
  alpha Z        PSCENC =      1187.40926345
  Ewald energy   TEWEN  =    224693.77838714
  -Hartree energ DENC   =   -296487.94527688
  -exchange      EXHF   =         0.00000000
  -V(xc)+E(xc)   XCENC  =      2418.00633328
  PAW double counting   =     70342.27911688   -76167.66946445
  entropy T*S    EENTRO =        -0.01905875
  eigenvalues    EBANDS =     -1262.55206576
  atomic energy  EATOM  =     75111.71257079
  Solvation  Ediel_sol  =         0.00000000
  ---------------------------------------------------
  free energy    TOTEN  =      -165.00019430 eV

  energy without entropy =     -164.98113556  energy(sigma->0) =     -164.99384139


--------------------------------------------------------------------------------------------------------




--------------------------------------- Iteration      1(  14)  ---------------------------------------


    POTLOK:  cpu time      0.1247: real time      0.1299
    SETDIJ:  cpu time      0.0274: real time      0.0274
     EDDAV:  cpu time     47.9544: real time     48.2512
       DOS:  cpu time      0.0050: real time      0.0050
    CHARGE:  cpu time      1.4008: real time      1.4075
    MIXING:  cpu time      0.0127: real time      0.0128
    --------------------------------------------
      LOOP:  cpu time     49.5250: real time     49.8339

 eigenvalue-minimisations  :  7176
 total energy-change (2. order) :-0.1156408E+02  (-0.8805075E+00)
 number of electron     594.0003838 magnetization       4.9572946
 augmentation part      379.1922001 magnetization       1.1805907

 Broyden mixing:
  rms(total) = 0.20414E+00    rms(broyden)= 0.20404E+00
  rms(prec ) = 0.23184E+00
  weight for this iteration     100.00

 eigenvalues of (default mixing * dielectric matrix)
  average eigenvalue GAMMA=   1.7555
  8.0530  3.0720  1.0684  0.8461  0.8461  0.6591  0.3891  0.3891  0.4763

 Free energy of the ion-electron system (eV)
  ---------------------------------------------------
  alpha Z        PSCENC =      1187.40926345
  Ewald energy   TEWEN  =    224693.77838714
  -Hartree energ DENC   =   -296390.76049330
  -exchange      EXHF   =         0.00000000
  -V(xc)+E(xc)   XCENC  =      2409.04275370
  PAW double counting   =     69975.48895415   -75771.57892768
  entropy T*S    EENTRO =        -0.02688060
  eigenvalues    EBANDS =     -1391.62990575
  atomic energy  EATOM  =     75111.71257079
  Solvation  Ediel_sol  =         0.00000000
  ---------------------------------------------------
  free energy    TOTEN  =      -176.56427810 eV

  energy without entropy =     -176.53739750  energy(sigma->0) =     -176.55531790


--------------------------------------------------------------------------------------------------------




--------------------------------------- Iteration      1(  15)  ---------------------------------------


    POTLOK:  cpu time      0.1252: real time      0.1268
    SETDIJ:  cpu time      0.0178: real time      0.0178
     EDDAV:  cpu time     50.9048: real time     51.2175
       DOS:  cpu time      0.0055: real time      0.0055
    CHARGE:  cpu time      1.4140: real time      1.4203
    MIXING:  cpu time      0.0178: real time      0.0179
    --------------------------------------------
      LOOP:  cpu time     52.4850: real time     52.8058

 eigenvalue-minimisations  :  7712
 total energy-change (2. order) :-0.3217812E+01  (-0.2905305E+00)
 number of electron     594.0003839 magnetization       4.0731703
 augmentation part      379.6093949 magnetization       1.5277347

 Broyden mixing:
  rms(total) = 0.14803E+00    rms(broyden)= 0.14795E+00
  rms(prec ) = 0.16294E+00
  weight for this iteration     100.00

 eigenvalues of (default mixing * dielectric matrix)
  average eigenvalue GAMMA=   1.7257
  8.4965  3.4352  1.1381  0.8749  0.8749  0.7200  0.5888  0.3965  0.3965  0.3358

 Free energy of the ion-electron system (eV)
  ---------------------------------------------------
  alpha Z        PSCENC =      1187.40926345
  Ewald energy   TEWEN  =    224693.77838714
  -Hartree energ DENC   =   -296333.19783956
  -exchange      EXHF   =         0.00000000
  -V(xc)+E(xc)   XCENC  =      2406.46809631
  PAW double counting   =     69856.63406784   -75642.26416083
  entropy T*S    EENTRO =        -0.04044878
  eigenvalues    EBANDS =     -1460.28202644
  atomic energy  EATOM  =     75111.71257079
  Solvation  Ediel_sol  =         0.00000000
  ---------------------------------------------------
  free energy    TOTEN  =      -179.78209008 eV

  energy without entropy =     -179.74164130  energy(sigma->0) =     -179.76860715


--------------------------------------------------------------------------------------------------------




--------------------------------------- Iteration      1(  16)  ---------------------------------------


    POTLOK:  cpu time      0.1317: real time      0.1350
    SETDIJ:  cpu time      0.0180: real time      0.0181
     EDDAV:  cpu time     48.2246: real time     48.5213
       DOS:  cpu time      0.0097: real time      0.0097
    CHARGE:  cpu time      1.4089: real time      1.4154
    MIXING:  cpu time      0.0135: real time      0.0136
    --------------------------------------------
      LOOP:  cpu time     49.8064: real time     50.1131

 eigenvalue-minimisations  :  7208
 total energy-change (2. order) :-0.1044518E+01  (-0.1234173E+00)
 number of electron     594.0003843 magnetization       2.8348771
 augmentation part      379.8845385 magnetization       1.2673533

 Broyden mixing:
  rms(total) = 0.12932E+00    rms(broyden)= 0.12927E+00
  rms(prec ) = 0.13958E+00
  weight for this iteration     100.00

 eigenvalues of (default mixing * dielectric matrix)
  average eigenvalue GAMMA=   1.8435
  9.7987  3.4502  1.6416  0.9984  0.9984  0.8407  0.8407  0.6292  0.3921  0.3981
  0.2905

 Free energy of the ion-electron system (eV)
  ---------------------------------------------------
  alpha Z        PSCENC =      1187.40926345
  Ewald energy   TEWEN  =    224693.77838714
  -Hartree energ DENC   =   -296286.41853222
  -exchange      EXHF   =         0.00000000
  -V(xc)+E(xc)   XCENC  =      2405.71101091
  PAW double counting   =     69826.83353712   -75611.44958125
  entropy T*S    EENTRO =        -0.06292797
  eigenvalues    EBANDS =     -1508.34033638
  atomic energy  EATOM  =     75111.71257079
  Solvation  Ediel_sol  =         0.00000000
  ---------------------------------------------------
  free energy    TOTEN  =      -180.82660842 eV

  energy without entropy =     -180.76368045  energy(sigma->0) =     -180.80563243


--------------------------------------------------------------------------------------------------------




--------------------------------------- Iteration      1(  17)  ---------------------------------------


    POTLOK:  cpu time      0.1242: real time      0.1266
    SETDIJ:  cpu time      0.0178: real time      0.0179
     EDDAV:  cpu time     52.9617: real time     53.3805
       DOS:  cpu time      0.0052: real time      0.0052
    CHARGE:  cpu time      1.4084: real time      1.4148
    MIXING:  cpu time      0.0160: real time      0.0161
    --------------------------------------------
      LOOP:  cpu time     54.5333: real time     54.9611

 eigenvalue-minimisations  :  7976
 total energy-change (2. order) :-0.9715904E+00  (-0.5928117E-01)
 number of electron     594.0003839 magnetization       2.0021128
 augmentation part      379.4712414 magnetization       1.1519875

 Broyden mixing:
  rms(total) = 0.75748E-01    rms(broyden)= 0.75708E-01
  rms(prec ) = 0.90090E-01
  weight for this iteration     100.00

 eigenvalues of (default mixing * dielectric matrix)
  average eigenvalue GAMMA=   1.8455
 10.3532  3.6430  2.0763  0.8601  0.8601  0.9814  0.9101  0.7333  0.6452  0.3984
  0.3917  0.2933

 Free energy of the ion-electron system (eV)
  ---------------------------------------------------
  alpha Z        PSCENC =      1187.40926345
  Ewald energy   TEWEN  =    224693.77838714
  -Hartree energ DENC   =   -296259.07645520
  -exchange      EXHF   =         0.00000000
  -V(xc)+E(xc)   XCENC  =      2405.39612991
  PAW double counting   =     69921.29089093   -75719.11625860
  entropy T*S    EENTRO =        -0.06187669
  eigenvalues    EBANDS =     -1523.13085059
  atomic energy  EATOM  =     75111.71257079
  Solvation  Ediel_sol  =         0.00000000
  ---------------------------------------------------
  free energy    TOTEN  =      -181.79819886 eV

  energy without entropy =     -181.73632218  energy(sigma->0) =     -181.77757330


--------------------------------------------------------------------------------------------------------




--------------------------------------- Iteration      1(  18)  ---------------------------------------


    POTLOK:  cpu time      0.1357: real time      0.1401
    SETDIJ:  cpu time      0.0179: real time      0.0180
     EDDAV:  cpu time     51.7471: real time     52.2708
       DOS:  cpu time      0.0104: real time      0.0104
    CHARGE:  cpu time      1.4228: real time      1.4294
    MIXING:  cpu time      0.0207: real time      0.0207
    --------------------------------------------
      LOOP:  cpu time     53.3545: real time     53.8895

 eigenvalue-minimisations  :  7344
 total energy-change (2. order) :-0.5598616E+00  (-0.1841673E-01)
 number of electron     594.0003840 magnetization       1.6347704
 augmentation part      379.6039952 magnetization       1.2090369

 Broyden mixing:
  rms(total) = 0.59375E-01    rms(broyden)= 0.59361E-01
  rms(prec ) = 0.67591E-01
  weight for this iteration     100.00

 eigenvalues of (default mixing * dielectric matrix)
  average eigenvalue GAMMA=   1.8238
 10.4339  2.9725  2.9725  1.2357  1.0569  1.0569  0.7747  0.7747  0.7335  0.6136
  0.3983  0.3917  0.2953

 Free energy of the ion-electron system (eV)
  ---------------------------------------------------
  alpha Z        PSCENC =      1187.40926345
  Ewald energy   TEWEN  =    224693.77838714
  -Hartree energ DENC   =   -296202.74309929
  -exchange      EXHF   =         0.00000000
  -V(xc)+E(xc)   XCENC  =      2404.39651925
  PAW double counting   =     69962.27589148   -75764.29961958
  entropy T*S    EENTRO =        -0.06456422
  eigenvalues    EBANDS =     -1574.82340948
  atomic energy  EATOM  =     75111.71257079
  Solvation  Ediel_sol  =         0.00000000
  ---------------------------------------------------
  free energy    TOTEN  =      -182.35806047 eV

  energy without entropy =     -182.29349625  energy(sigma->0) =     -182.33653906


--------------------------------------------------------------------------------------------------------




--------------------------------------- Iteration      1(  19)  ---------------------------------------


    POTLOK:  cpu time      0.1248: real time      0.1269
    SETDIJ:  cpu time      0.0178: real time      0.0179
     EDDAV:  cpu time     50.1075: real time     50.9022
       DOS:  cpu time      0.0087: real time      0.0087
    CHARGE:  cpu time      1.4008: real time      1.4075
    MIXING:  cpu time      0.0156: real time      0.0157
    --------------------------------------------
      LOOP:  cpu time     51.6752: real time     52.4788

 eigenvalue-minimisations  :  7240
 total energy-change (2. order) :-0.9152963E+00  (-0.8667075E-02)
 number of electron     594.0003842 magnetization       1.2685972
 augmentation part      379.7349702 magnetization       0.8557627

 Broyden mixing:
  rms(total) = 0.64218E-01    rms(broyden)= 0.64214E-01
  rms(prec ) = 0.72739E-01
  weight for this iteration     100.00

 eigenvalues of (default mixing * dielectric matrix)
  average eigenvalue GAMMA=   1.7890
 10.6072  3.2313  3.2313  1.4479  1.0339  1.0339  0.7760  0.7760  0.7510  0.6214
  0.3944  0.3944  0.4522  0.2953

 Free energy of the ion-electron system (eV)
  ---------------------------------------------------
  alpha Z        PSCENC =      1187.40926345
  Ewald energy   TEWEN  =    224693.77838714
  -Hartree energ DENC   =   -296172.48221700
  -exchange      EXHF   =         0.00000000
  -V(xc)+E(xc)   XCENC  =      2402.99269540
  PAW double counting   =     70017.34056478   -75821.40929556
  entropy T*S    EENTRO =        -0.06410598
  eigenvalues    EBANDS =     -1602.55121976
  atomic energy  EATOM  =     75111.71257079
  Solvation  Ediel_sol  =         0.00000000
  ---------------------------------------------------
  free energy    TOTEN  =      -183.27335674 eV

  energy without entropy =     -183.20925076  energy(sigma->0) =     -183.25198808


--------------------------------------------------------------------------------------------------------




--------------------------------------- Iteration      1(  20)  ---------------------------------------


    POTLOK:  cpu time      0.1254: real time      0.1293
    SETDIJ:  cpu time      0.0179: real time      0.0180
     EDDAV:  cpu time     54.3765: real time     54.7480
       DOS:  cpu time      0.0109: real time      0.0110
    CHARGE:  cpu time      1.4080: real time      1.4151
    MIXING:  cpu time      0.0238: real time      0.0238
    --------------------------------------------
      LOOP:  cpu time     55.9626: real time     56.3453

 eigenvalue-minimisations  :  8368
 total energy-change (2. order) :-0.3776887E+00  (-0.2883364E-02)
 number of electron     594.0003842 magnetization       0.5018707
 augmentation part      379.7624319 magnetization       0.2192442

 Broyden mixing:
  rms(total) = 0.45592E-01    rms(broyden)= 0.45589E-01
  rms(prec ) = 0.50821E-01
  weight for this iteration     100.00

 eigenvalues of (default mixing * dielectric matrix)
  average eigenvalue GAMMA=   1.8205
 10.7786  3.5783  3.5783  1.8097  1.0430  1.0430  0.9365  0.9365  0.7883  0.6934
  0.6133  0.2951  0.3937  0.3962  0.4231

 Free energy of the ion-electron system (eV)
  ---------------------------------------------------
  alpha Z        PSCENC =      1187.40926345
  Ewald energy   TEWEN  =    224693.77838714
  -Hartree energ DENC   =   -296147.83954709
  -exchange      EXHF   =         0.00000000
  -V(xc)+E(xc)   XCENC  =      2402.58328174
  PAW double counting   =     70018.07788109   -75822.94703194
  entropy T*S    EENTRO =        -0.06451596
  eigenvalues    EBANDS =     -1626.36133462
  atomic energy  EATOM  =     75111.71257079
  Solvation  Ediel_sol  =         0.00000000
  ---------------------------------------------------
  free energy    TOTEN  =      -183.65104540 eV

  energy without entropy =     -183.58652944  energy(sigma->0) =     -183.62954008


--------------------------------------------------------------------------------------------------------




--------------------------------------- Iteration      1(  21)  ---------------------------------------


    POTLOK:  cpu time      0.1242: real time      0.1265
    SETDIJ:  cpu time      0.0178: real time      0.0179
     EDDAV:  cpu time     57.0022: real time     57.3846
       DOS:  cpu time      0.0094: real time      0.0094
    CHARGE:  cpu time      1.4189: real time      1.4257
    MIXING:  cpu time      0.0188: real time      0.0189
    --------------------------------------------
      LOOP:  cpu time     58.5915: real time     58.9831

 eigenvalue-minimisations  :  8848
 total energy-change (2. order) :-0.7257576E+00  (-0.5573145E-02)
 number of electron     594.0003841 magnetization       0.4450225
 augmentation part      379.6291551 magnetization       0.4165236

 Broyden mixing:
  rms(total) = 0.30121E-01    rms(broyden)= 0.30112E-01
  rms(prec ) = 0.34703E-01
  weight for this iteration     100.00

 eigenvalues of (default mixing * dielectric matrix)
  average eigenvalue GAMMA=   1.8687
 10.7884  4.2342  4.2342  2.2495  1.2956  1.0026  1.0026  0.8076  0.8076  0.6842
  0.6842  0.6016  0.2952  0.3923  0.3978  0.4210

 Free energy of the ion-electron system (eV)
  ---------------------------------------------------
  alpha Z        PSCENC =      1187.40926345
  Ewald energy   TEWEN  =    224693.77838714
  -Hartree energ DENC   =   -296103.90640383
  -exchange      EXHF   =         0.00000000
  -V(xc)+E(xc)   XCENC  =      2402.17314816
[...]
 -0.000   0.000   0.000   0.000  -0.000   0.000   0.000   0.000  -0.000  -0.000  -0.000   0.000   0.000   0.000   0.000  -0.000
  0.000  -0.000   0.000  -0.000  -0.000  -0.000   0.000  -0.000  -0.000   0.000  -0.000   0.000  -0.000  -0.000  -0.000   0.000
  0.000   0.000   0.000   0.000  -0.000   0.000  -0.000  -0.000   0.000   0.000   0.000   0.000   0.000   0.000   0.000   0.000
 -0.000  -0.000  -0.000  -0.000  -0.000   0.000  -0.000   0.000   0.000   0.000  -0.000   0.000  -0.000  -0.000   0.000  -0.000
  0.000  -0.000   0.000  -0.000   0.000  -0.000  -0.000  -0.000   0.000  -0.000   0.000  -0.000   0.000   0.000   0.000   0.000
 -0.000   0.000   0.000   0.000   0.000   0.000   0.000   0.000   0.000   0.000  -0.000   0.000   0.000  -0.000   0.000   0.000
 -0.000  -0.000  -0.000  -0.000   0.000  -0.000   0.000   0.000   0.000  -0.000   0.000   0.000   0.000   0.000   0.000  -0.000
  0.000   0.000   0.000   0.000  -0.000   0.000   0.000  -0.000   0.000  -0.000   0.000  -0.000   0.000   0.000   0.000   0.000
  0.000   0.000   0.000   0.000   0.000   0.000   0.000  -0.000   0.000   0.000   0.000   0.000   0.000   0.000   0.000   0.000
  0.000   0.000   0.000   0.000  -0.000   0.000  -0.000   0.000   0.000  -0.000   0.000   0.000  -0.000   0.000   0.000   0.000
  0.000   0.000  -0.000  -0.000  -0.000   0.000   0.000  -0.000  -0.000   0.000  -0.000   0.000   0.000  -0.000   0.000   0.000
  0.000  -0.000  -0.000  -0.000   0.000   0.000  -0.000  -0.000  -0.000  -0.000   0.000   0.000   0.000   0.000  -0.000   0.000


------------------------ aborting loop because EDIFF is reached ----------------------------------------



 DIPCOR: dipole corrections for dipol
 direction  3 min pos   146,
 dipolmoment           0.000000      0.000000      0.012678 electrons x Angstroem
 Tr[quadrupol]     -9288.657686

 energy correction for charged system         0.000000 eV
 dipol+quadrupol energy correction            0.000008 eV
 added-field ion interaction          0.000000 eV  (added to PSCEN)

 
  *************** adding dipol energy to TOTEN NOW **************** 
    CHARGE:  cpu time      1.4565: real time      1.4635
    FORLOC:  cpu time      0.0312: real time      0.0313
    FORNL :  cpu time     40.5139: real time     40.6921
    STRESS:  cpu time     47.6422: real time     47.9297
    FORCOR:  cpu time      0.1476: real time      0.1485
    FORHAR:  cpu time      0.0369: real time      0.0371
    MIXING:  cpu time      0.0048: real time      0.0049
    OFIELD:  cpu time      0.0000: real time      0.0000

 ---------------------------------------------------------------------------------------------

         DFTD3 V3.0 Rev 1        
 Edisp (eV)  -18.16772

 E6    (eV) :    -7.0826
 E8    (eV) :   -11.0851
 % E8        : 61.02
    FORVDW:  cpu time      0.2239: real time      0.2248

  FORCE on cell =-STRESS in cart. coord.  units (eV):
  Direction    XX          YY          ZZ          XY          YZ          ZX
  --------------------------------------------------------------------------------------
  Alpha Z  1187.40926  1187.40926  1187.40926
  Ewald  268657.79244270233.91428************    -0.00000    -0.00000     0.00000
  Hartree288685.25035289756.93991************     0.00000     0.00000    -0.00000
  E(xc)   -3468.35540 -3466.66093 -3473.04362     0.00000     0.00000    -0.00000
  Local  ************************577676.27639     0.00000     0.00000    -0.00000
  n-local -1193.78932 -1182.49100 -1196.49741     3.94928     0.00000    -0.00001
  augment  5102.92411  5097.46299  5118.72982     0.00000     0.00000    -0.00000
  Kinetic  4839.55958  4829.86617  4867.39323     5.34680    -0.00000     0.00001
  Fock        0.00000     0.00000     0.00000     0.00000     0.00000     0.00000
  vdW       -22.15060   -22.88166   -12.78038    -0.00000     0.00000    -0.00000
  -------------------------------------------------------------------------------------
  Total     -37.82375   -37.08684    -8.55629     0.00000     0.00000     0.00000
  in kB     -33.74239   -33.08499    -7.63303     0.00000     0.00000     0.00000
  external pressure =      -24.82 kB  Pullay stress =        0.00 kB


 VOLUME and BASIS-vectors are now :
 -----------------------------------------------------------------------------
  energy-cutoff  :      400.00
  volume of cell :     1795.97
      direct lattice vectors                 reciprocal lattice vectors
    10.890000343  0.000000000  0.000000000     0.091827362  0.000000000  0.000000000
     0.000000000  7.700393200  0.000000000     0.000000000  0.129863498  0.000000000
     0.000000000  0.000000000 21.416994000     0.000000000  0.000000000  0.046691893

  length of vectors
    10.890000343  7.700393200 21.416994000     0.091827362  0.129863498  0.046691893


 FORCES acting on ions
    electron-ion (+dipol)            ewald-force                    non-local-force                 convergence-correction
 -----------------------------------------------------------------------------------------------
   -.382E-13 0.627E-13 0.358E+04   -.191E-06 -.180E-08 -.358E+04   -.513E-22 0.000E+00 -.536E+01   0.323E-09 0.100E-09 -.608E-01
   -.430E-13 -.390E-04 0.358E+04   -.191E-06 0.437E-06 -.358E+04   -.331E-22 0.265E-21 -.536E+01   0.324E-09 0.172E-08 -.608E-01
   -.272E-13 0.386E-04 0.358E+04   -.191E-06 -.358E-06 -.358E+04   -.215E-22 0.000E+00 -.536E+01   0.324E-09 -.185E-08 -.608E-01
   0.176E-05 0.877E-13 0.358E+04   0.280E-06 -.180E-08 -.358E+04   0.000E+00 0.000E+00 -.536E+01   -.348E-09 0.998E-10 -.608E-01
   0.176E-05 -.390E-04 0.358E+04   0.280E-06 0.437E-06 -.358E+04   -.199E-22 0.727E-20 -.536E+01   -.348E-09 0.172E-08 -.608E-01
   0.176E-05 0.386E-04 0.358E+04   0.280E-06 -.358E-06 -.358E+04   -.993E-23 0.000E+00 -.536E+01   -.348E-09 -.185E-08 -.608E-01
   -.541E-06 0.110E-12 0.358E+04   -.292E-06 -.180E-08 -.358E+04   0.149E-22 0.000E+00 -.536E+01   0.130E-09 0.101E-09 -.608E-01
   -.541E-06 -.390E-04 0.358E+04   -.292E-06 0.437E-06 -.358E+04   0.265E-22 -.815E-20 -.536E+01   0.129E-09 0.172E-08 -.608E-01
   -.541E-06 0.386E-04 0.358E+04   -.292E-06 -.358E-06 -.358E+04   0.662E-23 0.000E+00 -.536E+01   0.129E-09 -.185E-08 -.608E-01
   0.809E-06 0.372E-04 0.232E+04   0.145E-07 0.102E-06 -.232E+04   0.926E-22 0.000E+00 0.222E-01   0.301E-10 0.291E-08 -.141E+00
   0.809E-06 -.188E-06 0.232E+04   0.145E-07 0.308E-06 -.232E+04   0.331E-22 0.000E+00 0.222E-01   0.304E-10 -.273E-09 -.141E+00
   0.809E-06 -.414E-04 0.232E+04   0.145E-07 -.567E-06 -.232E+04   0.265E-22 0.269E-20 0.222E-01   0.301E-10 -.289E-08 -.141E+00
   0.243E-05 0.372E-04 0.232E+04   0.578E-06 0.102E-06 -.232E+04   -.662E-22 0.000E+00 0.222E-01   -.432E-09 0.291E-08 -.141E+00
   0.243E-05 -.188E-06 0.232E+04   0.578E-06 0.308E-06 -.232E+04   0.000E+00 0.000E+00 0.222E-01   -.432E-09 -.273E-09 -.141E+00
   0.243E-05 -.414E-04 0.232E+04   0.578E-06 -.567E-06 -.232E+04   -.993E-23 -.358E-20 0.222E-01   -.432E-09 -.289E-08 -.141E+00
   0.311E-06 0.372E-04 0.232E+04   -.187E-06 0.102E-06 -.232E+04   0.199E-22 0.000E+00 0.222E-01   0.523E-09 0.291E-08 -.141E+00
   0.311E-06 -.188E-06 0.232E+04   -.187E-06 0.308E-06 -.232E+04   -.662E-23 0.000E+00 0.222E-01   0.523E-09 -.273E-09 -.141E+00
   0.311E-06 -.414E-04 0.232E+04   -.187E-06 -.567E-06 -.232E+04   0.232E-22 -.261E-20 0.222E-01   0.523E-09 -.288E-08 -.141E+00
   -.563E-13 0.649E-13 0.755E+03   -.300E-06 -.121E-07 -.754E+03   -.662E-23 0.000E+00 -.671E+00   0.422E-09 0.141E-09 -.151E+00
   -.587E-13 -.454E-04 0.755E+03   -.300E-06 0.587E-06 -.754E+03   0.662E-23 0.672E-20 -.671E+00   0.422E-09 0.514E-08 -.151E+00
   -.562E-13 0.450E-04 0.755E+03   -.300E-06 -.412E-06 -.754E+03   0.000E+00 0.000E+00 -.671E+00   0.423E-09 -.541E-08 -.151E+00
   0.163E-05 0.653E-13 0.755E+03   0.361E-06 -.121E-07 -.754E+03   0.000E+00 0.000E+00 -.671E+00   -.206E-09 0.141E-09 -.151E+00
   0.163E-05 -.454E-04 0.755E+03   0.361E-06 0.587E-06 -.754E+03   -.529E-22 0.129E-19 -.671E+00   -.206E-09 0.514E-08 -.151E+00
   0.163E-05 0.450E-04 0.755E+03   0.361E-06 -.412E-06 -.754E+03   0.331E-23 0.000E+00 -.671E+00   -.206E-09 -.542E-08 -.151E+00
   -.501E-06 0.577E-13 0.755E+03   -.479E-06 -.121E-07 -.754E+03   0.000E+00 0.000E+00 -.671E+00   0.288E-09 0.140E-09 -.151E+00
   -.501E-06 -.454E-04 0.755E+03   -.479E-06 0.587E-06 -.754E+03   0.662E-23 0.946E-20 -.671E+00   0.287E-09 0.514E-08 -.151E+00
   -.501E-06 0.450E-04 0.755E+03   -.479E-06 -.412E-06 -.754E+03   -.364E-22 0.000E+00 -.671E+00   0.287E-09 -.541E-08 -.151E+00
   0.823E-06 0.398E-04 -.727E+03   -.638E-09 0.108E-06 0.727E+03   0.265E-21 0.000E+00 0.738E+00   0.233E-10 -.749E-09 -.732E-01
   0.823E-06 -.189E-06 -.727E+03   -.638E-09 0.356E-06 0.727E+03   0.212E-21 0.000E+00 0.738E+00   0.236E-10 -.148E-09 -.732E-01
   0.823E-06 -.440E-04 -.727E+03   -.638E-09 -.618E-06 0.727E+03   0.238E-21 0.917E-20 0.738E+00   0.234E-10 0.105E-08 -.732E-01
   0.247E-05 0.398E-04 -.727E+03   0.626E-06 0.108E-06 0.727E+03   -.318E-21 0.000E+00 0.738E+00   -.376E-09 -.749E-09 -.732E-01
   0.247E-05 -.189E-06 -.727E+03   0.626E-06 0.356E-06 0.727E+03   -.106E-21 0.000E+00 0.738E+00   -.376E-09 -.148E-09 -.732E-01
   0.247E-05 -.440E-04 -.727E+03   0.626E-06 -.618E-06 0.727E+03   -.238E-21 0.357E-20 0.738E+00   -.375E-09 0.105E-08 -.732E-01
   0.316E-06 0.398E-04 -.727E+03   -.223E-06 0.108E-06 0.727E+03   -.794E-22 0.000E+00 0.738E+00   0.180E-09 -.749E-09 -.732E-01
   0.316E-06 -.189E-06 -.727E+03   -.223E-06 0.356E-06 0.727E+03   -.106E-21 0.000E+00 0.738E+00   0.180E-09 -.148E-09 -.732E-01
   0.316E-06 -.440E-04 -.727E+03   -.223E-06 -.618E-06 0.727E+03   0.265E-22 0.623E-20 0.738E+00   0.179E-09 0.105E-08 -.732E-01
   -.563E-13 0.766E-13 -.235E+04   -.286E-06 -.138E-07 0.235E+04   0.000E+00 0.000E+00 -.978E+00   -.116E-09 -.197E-10 -.200E-01
   -.624E-13 -.483E-04 -.235E+04   -.286E-06 0.544E-06 0.235E+04   0.000E+00 0.112E-19 -.978E+00   -.116E-09 0.219E-09 -.200E-01
   -.669E-13 0.479E-04 -.235E+04   -.286E-06 -.363E-06 0.235E+04   0.265E-22 0.000E+00 -.978E+00   -.115E-09 -.130E-09 -.200E-01
   0.160E-05 0.614E-13 -.235E+04   0.311E-06 -.138E-07 0.235E+04   0.794E-22 0.000E+00 -.978E+00   0.422E-10 -.197E-10 -.200E-01
   0.160E-05 -.483E-04 -.235E+04   0.311E-06 0.544E-06 0.235E+04   0.106E-21 -.907E-20 -.978E+00   0.423E-10 0.220E-09 -.200E-01
   0.160E-05 0.479E-04 -.235E+04   0.311E-06 -.363E-06 0.235E+04   0.000E+00 0.000E+00 -.978E+00   0.423E-10 -.130E-09 -.200E-01
   -.493E-06 0.143E-13 -.235E+04   -.451E-06 -.138E-07 0.235E+04   0.265E-22 0.000E+00 -.978E+00   -.174E-09 -.201E-10 -.200E-01
   -.493E-06 -.483E-04 -.235E+04   -.451E-06 0.544E-06 0.235E+04   0.265E-22 0.112E-19 -.978E+00   -.174E-09 0.219E-09 -.200E-01
   -.493E-06 0.479E-04 -.235E+04   -.451E-06 -.363E-06 0.235E+04   0.265E-22 0.000E+00 -.978E+00   -.174E-09 -.129E-09 -.200E-01
   0.869E-06 0.388E-04 -.358E+04   -.147E-07 0.729E-07 0.357E+04   -.662E-22 0.000E+00 0.539E+01   -.520E-10 0.769E-08 0.482E-01
   0.869E-06 -.192E-06 -.358E+04   -.147E-07 0.315E-06 0.357E+04   -.662E-22 0.000E+00 0.539E+01   -.518E-10 0.233E-09 0.482E-01
   0.869E-06 -.430E-04 -.358E+04   -.147E-07 -.483E-06 0.357E+04   0.199E-21 0.109E-19 0.539E+01   -.519E-10 -.757E-08 0.482E-01
   0.261E-05 0.388E-04 -.358E+04   0.438E-06 0.729E-07 0.357E+04   -.529E-22 0.000E+00 0.539E+01   0.211E-09 0.769E-08 0.482E-01
   0.261E-05 -.192E-06 -.358E+04   0.438E-06 0.315E-06 0.357E+04   -.106E-21 0.000E+00 0.539E+01   0.211E-09 0.233E-09 0.482E-01
   0.261E-05 -.430E-04 -.358E+04   0.438E-06 -.483E-06 0.357E+04   0.159E-21 0.884E-20 0.539E+01   0.211E-09 -.757E-08 0.482E-01
   0.334E-06 0.388E-04 -.358E+04   -.185E-06 0.729E-07 0.357E+04   0.476E-21 0.000E+00 0.539E+01   -.414E-09 0.769E-08 0.482E-01
   0.334E-06 -.192E-06 -.358E+04   -.185E-06 0.315E-06 0.357E+04   0.529E-22 0.000E+00 0.539E+01   -.414E-09 0.233E-09 0.482E-01
   0.334E-06 -.430E-04 -.358E+04   -.185E-06 -.483E-06 0.357E+04   -.635E-21 0.805E-20 0.539E+01   -.415E-09 -.757E-08 0.482E-01
 -----------------------------------------------------------------------------------------------
   0.433E-04 -.427E-04 0.114E+02   0.954E-13 0.690E-14 0.150E-10   0.910E-22 0.850E-19 -.777E+01   0.163E-09 0.462E-09 -.358E+01
 
 
 POSITION                                       TOTAL-FORCE (eV/Angst)
 -----------------------------------------------------------------------------------
      0.00000      0.00000      0.00000        -0.000000     -0.000000      0.441538
      0.00000      2.56680      0.00000         0.000000     -0.000000      0.441538
      0.00000      5.13360      0.00000         0.000000     -0.000000      0.441538
      3.63000      0.00000      0.00000        -0.000000     -0.000000      0.441538
      3.63000      2.56680      0.00000         0.000000     -0.000000      0.441538
      3.63000      5.13360      0.00000        -0.000000     -0.000000      0.441538
      7.26000      0.00000      0.00000        -0.000000     -0.000000      0.441538
      7.26000      2.56680      0.00000         0.000000     -0.000000      0.441538
      7.26000      5.13360      0.00000        -0.000000     -0.000000      0.441538
      1.81500      1.28340      1.28340         0.000000     -0.000000     -0.458378
      1.81500      3.85020      1.28340         0.000000      0.000000     -0.458378
      1.81500      6.41699      1.28340         0.000000     -0.000000     -0.458378
      5.44500      1.28340      1.28340        -0.000000      0.000000     -0.458378
      5.44500      3.85020      1.28340        -0.000000     -0.000000     -0.458378
      5.44500      6.41699      1.28340         0.000000      0.000000     -0.458378
      9.07500      1.28340      1.28340         0.000000     -0.000000     -0.458378
      9.07500      3.85020      1.28340        -0.000000     -0.000000     -0.458378
      9.07500      6.41699      1.28340        -0.000000      0.000000     -0.458378
      0.00000     -0.00000      2.54548         0.000000     -0.000000      0.014067
     -0.00000      2.56680      2.54548         0.000000      0.000000      0.014067
     -0.00000      5.13360      2.54548         0.000000     -0.000000      0.014067
      3.63000     -0.00000      2.54548        -0.000000     -0.000000      0.014067
      3.63000      2.56680      2.54548        -0.000000     -0.000000      0.014067
      3.63000      5.13360      2.54548        -0.000000     -0.000000      0.014067
      7.26000      0.00000      2.54548        -0.000000     -0.000000      0.014067
      7.26000      2.56680      2.54548        -0.000000      0.000000      0.014067
      7.26000      5.13360      2.54548        -0.000000     -0.000000      0.014067
      1.81500      1.28340      3.78078         0.000000     -0.000000      0.013517
      1.81500      3.85020      3.78078         0.000000      0.000000      0.013517
      1.81500      6.41699      3.78078        -0.000000     -0.000000      0.013517
      5.44500      1.28340      3.78078        -0.000000      0.000000      0.013517
      5.44500      3.85020      3.78078        -0.000000      0.000000      0.013517
      5.44500      6.41699      3.78078         0.000000     -0.000000      0.013517
      9.07500      1.28340      3.78078        -0.000000     -0.000000      0.013517
      9.07500      3.85020      3.78078         0.000000     -0.000000      0.013517
      9.07500      6.41699      3.78078         0.000000     -0.000000      0.013517
     -0.00000     -0.00000      5.10700         0.000000     -0.000000     -0.002719
      0.00000      2.56680      5.10700        -0.000000      0.000000     -0.002719
      0.00000      5.13360      5.10700         0.000000     -0.000000     -0.002719
      3.63000     -0.00000      5.10700        -0.000000     -0.000000     -0.002719
      3.63000      2.56680      5.10700        -0.000000      0.000000     -0.002719
      3.63000      5.13360      5.10700        -0.000000     -0.000000     -0.002719
      7.26000     -0.00000      5.10700         0.000000     -0.000000     -0.002719
      7.26000      2.56680      5.10700         0.000000      0.000000     -0.002719
      7.26000      5.13360      5.10700         0.000000     -0.000000     -0.002719
      1.81500      1.28340      6.25033        -0.000000     -0.000000     -0.008025
      1.81500      3.85020      6.25033        -0.000000     -0.000000     -0.008025
      1.81500      6.41699      6.25033         0.000000     -0.000000     -0.008025
      5.44500      1.28340      6.25033        -0.000000     -0.000000     -0.008025
      5.44500      3.85020      6.25033         0.000000     -0.000000     -0.008025
      5.44500      6.41699      6.25033        -0.000000     -0.000000     -0.008025
      9.07500      1.28340      6.25033        -0.000000     -0.000000     -0.008025
      9.07500      3.85020      6.25033         0.000000     -0.000000     -0.008025
      9.07500      6.41699      6.25033         0.000000     -0.000000     -0.008025
 -----------------------------------------------------------------------------------
    total drift:                                0.000043     -0.000043      0.017729


--------------------------------------------------------------------------------------------------------



  FREE ENERGIE OF THE ION-ELECTRON SYSTEM (eV)
  ---------------------------------------------------
  free  energy   TOTEN  =      -203.21606341 eV

  energy  without entropy=     -203.13494604  energy(sigma->0) =     -203.18902429
 
 d Force = 0.2683487E-02[-0.154E-02, 0.691E-02]  d Energy = 0.2781826E-02-0.983E-04
 d Force =-0.4124779E+03[-0.413E+03,-0.412E+03]  d Ewald  =-0.4124780E+03 0.727E-04


--------------------------------------------------------------------------------------------------------


    POTLOK:  cpu time      0.1439: real time      0.1447


--------------------------------------------------------------------------------------------------------


 stress matrix after NEB project (eV)
    -37.82375      0.00000      0.00000
      0.00000    -37.08684      0.00000
      0.00000      0.00000     -8.55629
  FORCES: max atom, RMS     0.014067    0.008683
  FORCE total and by dimension    0.063809    0.014067
  Stress total and by dimension   53.658919   37.823749
 Conjugate gradient step on ions:
 trial-energy change:   -0.002782  1 .order   -0.002683   -0.006905    0.001538
  (g-gl).g = 0.483E-02      g.g   = 0.268E-02  gl.gl    = 0.961E-02
 g(Force)  = 0.268E-02   g(Stress)= 0.000E+00 ortho     =-0.507E-03
 gamma     =   0.50256
 trial     =   2.85099
 opt step  =   2.33160  (harmonic =   2.33160) maximal distance =0.00000000
 next E    =  -203.216105   (d E  =  -0.00282)


--------------------------------------------------------------------------------------------------------


  
 reached required accuracy - stopping structural energy minimisation
     LOOP+:  cpu time    400.0507: real time    403.4064
    4ORBIT:  cpu time      0.0000: real time      0.0000

 total amount of memory used by VASP MPI-rank0   138625. kBytes
=======================================================================

   base      :      30000. kBytes
   nonl-proj :       9400. kBytes
   fftplans  :       4876. kBytes
   grid      :      11334. kBytes
   one-center:        342. kBytes
   wavefun   :      82673. kBytes
 
  
  
 General timing and accounting informations for this job:
 ========================================================
  
                  Total CPU time used (sec):     5305.261
                            User time (sec):     5228.389
                          System time (sec):       76.872
                         Elapsed time (sec):     5355.377
  
                   Maximum memory used (kb):      397464.
                   Average memory used (kb):          N/A
  
                          Minor page faults:      3894956
                          Major page faults:         5814
                 Voluntary context switches:        55663
