<?xml version="1.0" encoding="ISO-8859-1"?>
<modeling>
 <generator>
  <i name="program" type="string">vasp </i>
  <i name="version" type="string">6.3.2  </i>
  <i name="subversion" type="string">27Jun22 (build Aug 17 2022 15:43:34) complex                          parallel </i>
  <i name="platform" type="string">tv2STDVTST </i>
  <i name="date" type="string">2025 02 03 </i>
  <i name="time" type="string">10:46:11 </i>
 </generator>
 <incar>
  <i type="int" name="ISTART">     0</i>
  <i type="string" name="PREC">Normal</i>
  <i type="int" name="ISPIN">     2</i>
  <i type="int" name="ICHARG">     2</i>
  <i type="int" name="IBRION">     2</i>
  <i name="EDIFF">      0.00020000</i>
  <i name="EDIFFG">     -0.03000000</i>
  <i type="int" name="NSW">   800</i>
  <i type="int" name="ISIF">     2</i>
  <i type="int" name="ISYM">     1</i>
  <i name="ENCUT">    400.00000000</i>
  <i name="POTIM">      0.50000000</i>
  <i type="logical" name="LREAL"> F  </i>
  <i type="int" name="ISMEAR">     1</i>
  <i name="SIGMA">      0.20000000</i>
  <i type="logical" name="LWAVE"> F  </i>
  <i type="logical" name="LCHARG"> F  </i>
  <i type="string" name="GGA">PE</i>
  <i type="int" name="IDIPOL">     3</i>
  <i type="int" name="IVDW">    11</i>
 </incar>
 <primitive_cell>
  <structure name="primitive_cell" >
   <crystal>
    <varray name="basis" >
     <v>       0.00000000      -2.56679773       0.00000000 </v>
     <v>       3.63000011       0.00000000       0.00000000 </v>
     <v>       0.00000000       0.00000000      21.41699400 </v>
    </varray>
    <i name="volume">    199.55232895 </i>
    <varray name="rec_basis" >
     <v>       0.00000000      -0.38959050       0.00000000 </v>
     <v>       0.27548209       0.00000000       0.00000000 </v>
     <v>       0.00000000       0.00000000       0.04669189 </v>
    </varray>
   </crystal>
   <varray name="positions" >
    <v>       0.00000000       0.00000000       0.00000000 </v>
    <v>       0.50000000       0.50000000       0.05992432 </v>
    <v>       0.00000000       0.00000000       0.11984864 </v>
    <v>       0.50000000       0.50000000       0.17977296 </v>
    <v>       0.00000000       0.00000000       0.23969728 </v>
    <v>       0.50000000       0.50000000       0.29962161 </v>
   </varray>
  </structure>
  <varray name="primitive_index" >
   <v type="int" >        1 </v>
   <v type="int" >       12 </v>
   <v type="int" >       19 </v>
   <v type="int" >       30 </v>
   <v type="int" >       37 </v>
   <v type="int" >       48 </v>
  </varray>
 </primitive_cell>
 <kpoints>
  <generation param="Monkhorst-Pack">
   <v type="int" name="divisions">       3        3        1 </v>
   <v name="usershift">      0.00000000       0.00000000       0.00000000 </v>
   <v name="genvec1">      0.33333333       0.00000000       0.00000000 </v>
   <v name="genvec2">      0.00000000       0.33333333       0.00000000 </v>
   <v name="genvec3">      0.00000000       0.00000000       1.00000000 </v>
   <v name="shift">      0.00000000       0.00000000       0.00000000 </v>
  </generation>
  <varray name="kpointlist" >
   <v>       0.00000000       0.00000000       0.00000000 </v>
   <v>       0.33333333       0.00000000       0.00000000 </v>
   <v>       0.00000000       0.33333333       0.00000000 </v>
   <v>       0.33333333       0.33333333       0.00000000 </v>
  </varray>
  <varray name="weights" >
   <v>       0.11111111 </v>
   <v>       0.22222222 </v>
   <v>       0.22222222 </v>
   <v>       0.44444444 </v>
  </varray>
 </kpoints>
 <parameters>
  <separator name="general" >
   <i type="string" name="SYSTEM">unknown system</i>
   <i type="logical" name="LCOMPAT"> F  </i>
  </separator>
  <separator name="electronic" >
   <i type="string" name="PREC">normal</i>
   <i name="ENMAX">    400.00000000</i>
   <i name="ENAUG">    586.98000000</i>
   <i name="EDIFF">      0.00020000</i>
   <i type="int" name="IALGO">    38</i>
   <i type="int" name="IWAVPR">    11</i>
   <i type="int" name="NBANDS">   384</i>
   <i type="int" name="NBANDSLOW">    -1</i>
   <i type="int" name="NBANDSHIGH">    -1</i>
   <i name="NELECT">    594.00000000</i>
   <i type="int" name="TURBO">     0</i>
   <i type="int" name="IRESTART">     0</i>
   <i type="int" name="NREBOOT">     0</i>
   <i type="int" name="NMIN">     0</i>
   <i name="EREF">      0.00000000</i>
   <separator name="electronic smearing" >
    <i type="int" name="ISMEAR">     1</i>
    <i name="SIGMA">      0.20000000</i>
    <i name="KSPACING">      0.50000000</i>
    <i type="logical" name="KGAMMA"> T  </i>
    <i type="logical" name="KBLOWUP"> T  </i>
   </separator>
   <separator name="electronic projectors" >
    <i type="logical" name="LREAL"> F  </i>
    <v name="ROPT">      0.00000000</v>
    <i type="int" name="LMAXPAW">  -100</i>
    <i type="int" name="LMAXMIX">     2</i>
    <i type="logical" name="NLSPLINE"> F  </i>
   </separator>
   <separator name="electronic startup" >
    <i type="int" name="ISTART">     0</i>
    <i type="int" name="ICHARG">     2</i>
    <i type="int" name="INIWAV">     1</i>
   </separator>
   <separator name="electronic spin" >
    <i type="int" name="ISPIN">     2</i>
    <i type="logical" name="LNONCOLLINEAR"> F  </i>
    <v name="MAGMOM">      1.00000000      1.00000000      1.00000000      1.00000000      1.00000000      1.00000000      1.00000000      1.00000000      1.00000000      1.00000000      1.00000000      1.00000000      1.00000000      1.00000000      1.00000000      1.00000000      1.00000000      1.00000000      1.00000000      1.00000000
      1.00000000      1.00000000      1.00000000      1.00000000      1.00000000      1.00000000      1.00000000      1.00000000      1.00000000      1.00000000      1.00000000      1.00000000      1.00000000      1.00000000      1.00000000      1.00000000      1.00000000      1.00000000      1.00000000      1.00000000
      1.00000000      1.00000000      1.00000000      1.00000000      1.00000000      1.00000000      1.00000000      1.00000000      1.00000000      1.00000000      1.00000000      1.00000000      1.00000000      1.00000000</v>
    <i name="NUPDOWN">     -1.00000000</i>
    <i type="logical" name="LSORBIT"> F  </i>
    <v name="SAXIS">      0.00000000      0.00000000      1.00000000</v>
    <i type="logical" name="LSPIRAL"> F  </i>
    <v name="QSPIRAL">      0.00000000      0.00000000      0.00000000</v>
    <i type="logical" name="LZEROZ"> F  </i>
   </separator>
   <separator name="electronic exchange-correlation" >
    <i type="logical" name="LASPH"> F  </i>
    <i type="logical" name="LMETAGGA"> F  </i>
   </separator>
   <separator name="electronic convergence" >
    <i type="int" name="NELM">    60</i>
    <i type="int" name="NELMDL">    -5</i>
    <i type="int" name="NELMIN">     2</i>
    <i name="ENINI">    400.00000000</i>
    <separator name="electronic convergence detail" >
     <i type="logical" name="LDIAG"> T  </i>
     <i type="logical" name="LSUBROT"> F  </i>
     <i name="WEIMIN">      0.00100000</i>
     <i name="EBREAK">      0.00000013</i>
     <i name="DEPER">      0.30000000</i>
     <i type="int" name="NRMM">     4</i>
     <i name="TIME">      0.40000000</i>
    </separator>
   </separator>
   <separator name="electronic mixer" >
    <i name="AMIX">      0.40000000</i>
    <i name="BMIX">      1.00000000</i>
    <i name="AMIN">      0.10000000</i>
    <i name="AMIX_MAG">      1.60000000</i>
    <i name="BMIX_MAG">      1.00000000</i>
    <separator name="electronic mixer details" >
     <i type="int" name="IMIX">     4</i>
     <i type="logical" name="MIXFIRST"> F  </i>
     <i type="int" name="MAXMIX">   -45</i>
     <i name="WC">    100.00000000</i>
     <i type="int" name="INIMIX">     1</i>
     <i type="int" name="MIXPRE">     1</i>
     <i type="int" name="MREMOVE">     5</i>
    </separator>
   </separator>
   <separator name="electronic dipolcorrection" >
    <i type="logical" name="LDIPOL"> F  </i>
    <i type="logical" name="LMONO"> F  </i>
    <i type="int" name="IDIPOL">     3</i>
    <i name="EPSILON">      1.00000000</i>
    <v name="DIPOL">   -100.00000000   -100.00000000   -100.00000000</v>
    <i name="EFIELD">      0.00000000</i>
   </separator>
  </separator>
  <separator name="grids" >
   <i type="int" name="NGX">    54</i>
   <i type="int" name="NGY">    40</i>
   <i type="int" name="NGZ">   108</i>
   <i type="int" name="NGXF">   108</i>
   <i type="int" name="NGYF">    80</i>
   <i type="int" name="NGZF">   216</i>
   <i type="logical" name="ADDGRID"> F  </i>
  </separator>
  <separator name="ionic" >
   <i type="int" name="NSW">   800</i>
   <i type="int" name="IBRION">     2</i>
   <i type="int" name="MDALGO">     0</i>
   <i type="int" name="ISIF">     2</i>
   <i name="PSTRESS">      0.00000000</i>
   <i name="EDIFFG">     -0.03000000</i>
   <i type="int" name="NFREE">     1</i>
   <i name="POTIM">      0.50000000</i>
   <i name="SMASS">     -3.00000000</i>
   <i name="SCALEE">      1.00000000</i>
  </separator>
  <separator name="ionic md" >
   <i name="TEBEG">      0.00010000</i>
   <i name="TEEND">      0.00010000</i>
   <i type="int" name="NBLOCK">     1</i>
   <i type="int" name="KBLOCK">   800</i>
   <i type="int" name="NPACO">   256</i>
   <i name="APACO">     10.00000000</i>
  </separator>
  <separator name="symmetry" >
   <i type="int" name="ISYM">     1</i>
   <i name="SYMPREC">      0.00001000</i>
  </separator>
  <separator name="dos" >
   <i type="int" name="LORBIT">     0</i>
   <v name="RWIGS">     -1.00000000</v>
   <i type="int" name="NEDOS">   301</i>
   <i name="EMIN">     10.00000000</i>
   <i name="EMAX">    -10.00000000</i>
   <i name="EFERMI">      0.00000000</i>
  </separator>
  <separator name="writing" >
   <i type="int" name="NWRITE">     2</i>
   <i type="logical" name="LWAVE"> F  </i>
   <i type="logical" name="LDOWNSAMPLE"> F  </i>
   <i type="logical" name="LCHARG"> F  </i>
   <i type="logical" name="LPARD"> F  </i>
   <i type="logical" name="LVTOT"> F  </i>
   <i type="logical" name="LVHAR"> F  </i>
   <i type="logical" name="LELF"> F  </i>
   <i type="logical" name="LOPTICS"> F  </i>
   <v name="STM">      0.00000000      0.00000000      0.00000000      0.00000000      0.00000000      0.00000000      0.00000000</v>
  </separator>
  <separator name="performance" >
   <i type="int" name="NPAR">     4</i>
   <i type="int" name="NSIM">     4</i>
   <i type="int" name="NBLK">    -1</i>
   <i type="logical" name="LPLANE"> T  </i>
   <i type="logical" name="LSCALAPACK"> T  </i>
   <i type="logical" name="LSCAAWARE"> F  </i>
   <i type="logical" name="LSCALU"> F  </i>
   <i type="logical" name="LASYNC"> F  </i>
   <i type="logical" name="LORBITALREAL"> F  </i>
  </separator>
  <separator name="miscellaneous" >
   <i type="int" name="IDIOT">     3</i>
   <i type="int" name="PHON_NSTRUCT">    -1</i>
   <i type="logical" name="LMUSIC"> F  </i>
   <v name="POMASS">     63.54600000</v>
   <v name="DARWINR">      0.00000000</v>
   <v name="DARWINV">      1.00000000</v>
   <i type="logical" name="LCORR"> T  </i>
  </separator>
  <i type="logical" name="GGA_COMPAT"> T  </i>
  <i type="logical" name="LBERRY"> F  </i>
  <i type="int" name="ICORELEVEL">     0</i>
  <i type="logical" name="LDAU"> F  </i>
  <i type="int" name="I_CONSTRAINED_M">     0</i>
  <separator name="electronic exchange-correlation" >
   <i type="string" name="GGA">PE</i>
   <i type="int" name="VOSKOWN">     0</i>
   <i type="logical" name="LHFCALC"> F  </i>
   <i type="string" name="PRECFOCK"></i>
   <i type="logical" name="LSYMGRAD"> F  </i>
   <i type="logical" name="LHFONE"> F  </i>
   <i type="logical" name="LRHFCALC"> F  </i>
   <i type="logical" name="LTHOMAS"> F  </i>
   <i type="logical" name="LMODELHF"> F  </i>
   <i type="logical" name="LFOCKACE"> F  </i>
   <i name="ENCUT4O">     -1.00000000</i>
   <i type="int" name="EXXOEP">     0</i>
   <i type="int" name="FOURORBIT">     0</i>
   <i name="AEXX">      0.00000000</i>
   <i name="HFALPHA">      0.00000000</i>
   <i name="MCALPHA">      0.00000000</i>
   <i name="ALDAX">      1.00000000</i>
   <i name="AGGAX">      1.00000000</i>
   <i name="ALDAC">      1.00000000</i>
   <i name="AGGAC">      1.00000000</i>
   <i type="int" name="NKREDX">     1</i>
   <i type="int" name="NKREDY">     1</i>
   <i type="int" name="NKREDZ">     1</i>
   <i type="logical" name="SHIFTRED"> F  </i>
   <i type="logical" name="ODDONLY"> F  </i>
   <i type="logical" name="EVENONLY"> F  </i>
   <i type="int" name="LMAXFOCK">     0</i>
   <i type="int" name="NMAXFOCKAE">     0</i>
   <i type="logical" name="LFOCKAEDFT"> F  </i>
   <i name="HFSCREEN">      0.00000000</i>
   <i name="HFSCREENC">      0.00000000</i>
   <i type="int" name="NBANDSGWLOW">     0</i>
  </separator>
  <separator name="vdW DFT" >
   <i type="logical" name="LUSE_VDW"> F  </i>
   <i name="Zab_VDW">     -0.84910000</i>
   <i name="PARAM1">      0.12340000</i>
   <i name="PARAM2">      1.00000000</i>
   <i name="PARAM3">      0.00000000</i>
  </separator>
  <separator name="model GW" >
   <i type="int" name="MODEL_GW">     0</i>
   <i name="MODEL_EPS0">     19.95523290</i>
   <i name="MODEL_ALPHA">      1.00000000</i>
  </separator>
  <separator name="linear response parameters" >
   <i type="logical" name="LEPSILON"> F  </i>
   <i type="logical" name="LRPA"> F  </i>
   <i type="logical" name="LNABLA"> F  </i>
   <i type="logical" name="LVEL"> F  </i>
   <i name="CSHIFT">      0.10000000</i>
   <i name="OMEGAMAX">     -1.00000000</i>
   <i name="DEG_THRESHOLD">      0.00200000</i>
   <i name="RTIME">     -0.10000000</i>
   <i name="WPLASMAI">      0.00000000</i>
   <v name="DFIELD">      0.00000000      0.00000000      0.00000000</v>
   <v name="WPLASMA">      0.00000000      0.00000000      0.00000000      0.00000000      0.00000000      0.00000000      0.00000000      0.00000000      0.00000000</v>
  </separator>
  <separator name="orbital magnetization" >
   <i type="logical" name="NUCIND"> F  </i>
   <v name="MAGPOS">      0.00000000      0.00000000      0.00000000</v>
   <i type="logical" name="LNICSALL"> T  </i>
   <i type="logical" name="ORBITALMAG"> F  </i>
   <i type="logical" name="LMAGBLOCH"> F  </i>
   <i type="logical" name="LCHIMAG"> F  </i>
   <i type="logical" name="LGAUGE"> T  </i>
   <i type="int" name="MAGATOM">     0</i>
   <v name="MAGDIPOL">      0.00000000      0.00000000      0.00000000</v>
   <v name="AVECCONST">      0.00000000      0.00000000      0.00000000</v>
  </separator>
  <separator name="response functions" >
   <i type="logical" name="LFINITE_TEMPERATURE"> F  </i>
   <i type="logical" name="LADDER"> F  </i>
   <i type="logical" name="LRPAFORCE"> F  </i>
   <i type="logical" name="LFXC"> F  </i>
   <i type="logical" name="LHARTREE"> T  </i>
   <i type="int" name="IBSE">     0</i>
   <v type="int" name="KPOINT">    -1     0     0     0</v>
   <i type="logical" name="LTCTC"> F  </i>
   <i type="logical" name="LTCTE"> F  </i>
   <i type="logical" name="LTETE"> F  </i>
   <i type="logical" name="LTRIPLET"> F  </i>
   <i type="logical" name="LFXCEPS"> F  </i>
   <i type="logical" name="LFXHEG"> F  </i>
   <i type="int" name="NATURALO">     2</i>
   <i type="logical" name="LHOLEGF"> F  </i>
   <i type="logical" name="L2ORDER"> F  </i>
   <i type="logical" name="LDMP1"> F  </i>
   <i type="logical" name="LMP2LT"> F  </i>
   <i type="logical" name="LSMP2LT"> F  </i>
   <i type="logical" name="LGWLF"> F  </i>
   <i name="ENCUTGW">     -2.00000000</i>
   <i name="ENCUTGWSOFT">     -2.00000000</i>
   <i name="ENCUTLF">     -1.00000000</i>
   <i type="logical" name="LESF_SPLINES"> F  </i>
   <i type="int" name="LMAXMP2">    -1</i>
   <i name="SCISSOR">      0.00000000</i>
   <i type="int" name="NOMEGA">     0</i>
   <i type="int" name="NOMEGAR">     0</i>
   <i type="int" name="NBANDSGW">    -1</i>
   <i type="int" name="NBANDSO">    -1</i>
   <i type="int" name="NBANDSV">    -1</i>
   <i type="int" name="NELMGW">     1</i>
   <i type="int" name="NELMHF">     1</i>
   <i type="int" name="DIM">     3</i>
   <i type="int" name="IESPILON">     4</i>
   <i type="int" name="ANTIRES">     0</i>
   <i name="OMEGAMAX">    -30.00000000</i>
   <i name="OMEGAMIN">    -30.00000000</i>
   <i name="OMEGATL">   -200.00000000</i>
   <i type="int" name="OMEGAGRID">     0</i>
   <i name="CSHIFT">     -0.10000000</i>
   <i type="logical" name="LSELFENERGY"> F  </i>
   <i type="logical" name="LSPECTRAL"> F  </i>
   <i type="logical" name="LSPECTRALGW"> F  </i>
   <i type="logical" name="LSINGLES"> F  </i>
   <i type="logical" name="LFERMIGW"> F  </i>
   <i type="logical" name="ODDONLYGW"> F  </i>
   <i type="logical" name="EVENONLYGW"> F  </i>
   <i type="int" name="NKREDLFX">     1</i>
   <i type="int" name="NKREDLFY">     1</i>
   <i type="int" name="NKREDLFZ">     1</i>
   <i type="int" name="MAXMEM">  2800</i>
   <i type="int" name="TELESCOPE">     0</i>
   <i type="int" name="NTAUPAR">    -1</i>
   <i type="int" name="NOMEGAPAR">    -1</i>
   <i name="DAMP_NEWTON">      0.80000001</i>
   <i name="LAMBDA">      1.00000000</i>
  </separator>
  <separator name="External order field" >
   <i name="OFIELD_KAPPA">      0.00000000</i>
   <v name="OFIELD_K">      0.00000000      0.00000000      0.00000000</v>
   <i name="OFIELD_Q6_NEAR">      0.00000000</i>
   <i name="OFIELD_Q6_FAR">      0.00000000</i>
   <i name="OFIELD_A">      0.00000000</i>
  </separator>
  <separator name="optional k-points parameters" >
   <i type="int" name="KPOINTS_OPT_MODE">     1</i>
   <i type="logical" name="LKPOINTS_OPT"> F  </i>
  </separator>
 </parameters>
 <atominfo>
  <atoms>      54 </atoms>
  <types>       1 </types>
  <array name="atoms" >
   <dimension dim="1">ion</dimension>
   <field type="string">element</field>
   <field type="int">atomtype</field>
   <set>
    <rc><c>Cu</c><c>   1</c></rc>
    <rc><c>Cu</c><c>   1</c></rc>
    <rc><c>Cu</c><c>   1</c></rc>
    <rc><c>Cu</c><c>   1</c></rc>
    <rc><c>Cu</c><c>   1</c></rc>
    <rc><c>Cu</c><c>   1</c></rc>
    <rc><c>Cu</c><c>   1</c></rc>
    <rc><c>Cu</c><c>   1</c></rc>
    <rc><c>Cu</c><c>   1</c></rc>
    <rc><c>Cu</c><c>   1</c></rc>
    <rc><c>Cu</c><c>   1</c></rc>
    <rc><c>Cu</c><c>   1</c></rc>
    <rc><c>Cu</c><c>   1</c></rc>
    <rc><c>Cu</c><c>   1</c></rc>
    <rc><c>Cu</c><c>   1</c></rc>
    <rc><c>Cu</c><c>   1</c></rc>
    <rc><c>Cu</c><c>   1</c></rc>
    <rc><c>Cu</c><c>   1</c></rc>
    <rc><c>Cu</c><c>   1</c></rc>
    <rc><c>Cu</c><c>   1</c></rc>
    <rc><c>Cu</c><c>   1</c></rc>
    <rc><c>Cu</c><c>   1</c></rc>
    <rc><c>Cu</c><c>   1</c></rc>
    <rc><c>Cu</c><c>   1</c></rc>
    <rc><c>Cu</c><c>   1</c></rc>
    <rc><c>Cu</c><c>   1</c></rc>
    <rc><c>Cu</c><c>   1</c></rc>
    <rc><c>Cu</c><c>   1</c></rc>
    <rc><c>Cu</c><c>   1</c></rc>
    <rc><c>Cu</c><c>   1</c></rc>
    <rc><c>Cu</c><c>   1</c></rc>
    <rc><c>Cu</c><c>   1</c></rc>
    <rc><c>Cu</c><c>   1</c></rc>
    <rc><c>Cu</c><c>   1</c></rc>
    <rc><c>Cu</c><c>   1</c></rc>
    <rc><c>Cu</c><c>   1</c></rc>
    <rc><c>Cu</c><c>   1</c></rc>
    <rc><c>Cu</c><c>   1</c></rc>
    <rc><c>Cu</c><c>   1</c></rc>
    <rc><c>Cu</c><c>   1</c></rc>
    <rc><c>Cu</c><c>   1</c></rc>
    <rc><c>Cu</c><c>   1</c></rc>
    <rc><c>Cu</c><c>   1</c></rc>
    <rc><c>Cu</c><c>   1</c></rc>
    <rc><c>Cu</c><c>   1</c></rc>
    <rc><c>Cu</c><c>   1</c></rc>
    <rc><c>Cu</c><c>   1</c></rc>
    <rc><c>Cu</c><c>   1</c></rc>
    <rc><c>Cu</c><c>   1</c></rc>
    <rc><c>Cu</c><c>   1</c></rc>
    <rc><c>Cu</c><c>   1</c></rc>
    <rc><c>Cu</c><c>   1</c></rc>
    <rc><c>Cu</c><c>   1</c></rc>
    <rc><c>Cu</c><c>   1</c></rc>
   </set>
  </array>
  <array name="atomtypes" >
   <dimension dim="1">type</dimension>
   <field type="int">atomspertype</field>
   <field type="string">element</field>
   <field>mass</field>
   <field>valence</field>
   <field type="string">pseudopotential</field>
   <set>
    <rc><c>  54</c><c>Cu</c><c>     63.54600000</c><c>     11.00000000</c><c>  PAW_PBE Cu 22Jun2005                  </c></rc>
   </set>
  </array>
 </atominfo>
 <structure name="initialpos" >
  <crystal>
   <varray name="basis" >
    <v>      10.89000034       0.00000000       0.00000000 </v>
    <v>       0.00000000       7.70039320       0.00000000 </v>
    <v>       0.00000000       0.00000000      21.41699400 </v>
   </varray>
   <i name="volume">   1795.97096093 </i>
   <varray name="rec_basis" >
    <v>       0.09182736       0.00000000       0.00000000 </v>
    <v>       0.00000000       0.12986350       0.00000000 </v>
    <v>       0.00000000       0.00000000       0.04669189 </v>
   </varray>
  </crystal>
  <varray name="positions" >
   <v>       0.00000000       0.00000000       0.00000000 </v>
   <v>       0.00000000       0.33333333       0.00000000 </v>
   <v>       0.00000000       0.66666667       0.00000000 </v>
   <v>       0.33333333       0.00000000       0.00000000 </v>
   <v>       0.33333333       0.33333333       0.00000000 </v>
   <v>       0.33333333       0.66666667       0.00000000 </v>
   <v>       0.66666667       0.00000000       0.00000000 </v>
   <v>       0.66666667       0.33333333       0.00000000 </v>
   <v>       0.66666667       0.66666667       0.00000000 </v>
   <v>       0.16666667       0.16666667       0.05992432 </v>
   <v>       0.16666667       0.50000000       0.05992432 </v>
   <v>       0.16666667       0.83333333       0.05992432 </v>
   <v>       0.50000000       0.16666667       0.05992432 </v>
   <v>       0.50000000       0.50000000       0.05992432 </v>
   <v>       0.50000000       0.83333333       0.05992432 </v>
   <v>       0.83333333       0.16666667       0.05992432 </v>
   <v>       0.83333333       0.50000000       0.05992432 </v>
   <v>       0.83333333       0.83333333       0.05992432 </v>
   <v>       0.00000000       0.00000000       0.11984864 </v>
   <v>       0.00000000       0.33333333       0.11984864 </v>
   <v>       0.00000000       0.66666667       0.11984864 </v>
   <v>       0.33333333       0.00000000       0.11984864 </v>
   <v>       0.33333333       0.33333333       0.11984864 </v>
   <v>       0.33333333       0.66666667       0.11984864 </v>
   <v>       0.66666667       0.00000000       0.11984864 </v>
   <v>       0.66666667       0.33333333       0.11984864 </v>
   <v>       0.66666667       0.66666667       0.11984864 </v>
   <v>       0.16666667       0.16666667       0.17977296 </v>
   <v>       0.16666667       0.50000000       0.17977296 </v>
   <v>       0.16666667       0.83333333       0.17977296 </v>
   <v>       0.50000000       0.16666667       0.17977296 </v>
   <v>       0.50000000       0.50000000       0.17977296 </v>
   <v>       0.50000000       0.83333333       0.17977296 </v>
   <v>       0.83333333       0.16666667       0.17977296 </v>
   <v>       0.83333333       0.50000000       0.17977296 </v>
   <v>       0.83333333       0.83333333       0.17977296 </v>
   <v>       0.00000000       0.00000000       0.23969728 </v>
   <v>       0.00000000       0.33333333       0.23969728 </v>
   <v>       0.00000000       0.66666667       0.23969728 </v>
   <v>       0.33333333       0.00000000       0.23969728 </v>
   <v>       0.33333333       0.33333333       0.23969728 </v>
   <v>       0.33333333       0.66666667       0.23969728 </v>
   <v>       0.66666667       0.00000000       0.23969728 </v>
   <v>       0.66666667       0.33333333       0.23969728 </v>
   <v>       0.66666667       0.66666667       0.23969728 </v>
   <v>       0.16666667       0.16666667       0.29962161 </v>
   <v>       0.16666667       0.50000000       0.29962161 </v>
   <v>       0.16666667       0.83333333       0.29962161 </v>
   <v>       0.50000000       0.16666667       0.29962161 </v>
   <v>       0.50000000       0.50000000       0.29962161 </v>
   <v>       0.50000000       0.83333333       0.29962161 </v>
   <v>       0.83333333       0.16666667       0.29962161 </v>
   <v>       0.83333333       0.50000000       0.29962161 </v>
   <v>       0.83333333       0.83333333       0.29962161 </v>
  </varray>
  <varray name="selective"  type="logical" >
   <v type="logical" >  F  F  F </v>
   <v type="logical" >  F  F  F </v>
   <v type="logical" >  F  F  F </v>
   <v type="logical" >  F  F  F </v>
   <v type="logical" >  F  F  F </v>
   <v type="logical" >  F  F  F </v>
   <v type="logical" >  F  F  F </v>
   <v type="logical" >  F  F  F </v>
   <v type="logical" >  F  F  F </v>
   <v type="logical" >  F  F  F </v>
   <v type="logical" >  F  F  F </v>
   <v type="logical" >  F  F  F </v>
   <v type="logical" >  F  F  F </v>
   <v type="logical" >  F  F  F </v>
   <v type="logical" >  F  F  F </v>
   <v type="logical" >  F  F  F </v>
   <v type="logical" >  F  F  F </v>
   <v type="logical" >  F  F  F </v>
   <v type="logical" >  T  T  T </v>
   <v type="logical" >  T  T  T </v>
   <v type="logical" >  T  T  T </v>
   <v type="logical" >  T  T  T </v>
   <v type="logical" >  T  T  T </v>
   <v type="logical" >  T  T  T </v>
   <v type="logical" >  T  T  T </v>
   <v type="logical" >  T  T  T </v>
   <v type="logical" >  T  T  T </v>
   <v type="logical" >  T  T  T </v>
   <v type="logical" >  T  T  T </v>
   <v type="logical" >  T  T  T </v>
   <v type="logical" >  T  T  T </v>
   <v type="logical" >  T  T  T </v>
   <v type="logical" >  T  T  T </v>
   <v type="logical" >  T  T  T </v>
   <v type="logical" >  T  T  T </v>
   <v type="logical" >  T  T  T </v>
   <v type="logical" >  T  T  T </v>
   <v type="logical" >  T  T  T </v>
   <v type="logical" >  T  T  T </v>
   <v type="logical" >  T  T  T </v>
   <v type="logical" >  T  T  T </v>
   <v type="logical" >  T  T  T </v>
   <v type="logical" >  T  T  T </v>
   <v type="logical" >  T  T  T </v>
   <v type="logical" >  T  T  T </v>
   <v type="logical" >  T  T  T </v>
   <v type="logical" >  T  T  T </v>
   <v type="logical" >  T  T  T </v>
   <v type="logical" >  T  T  T </v>
   <v type="logical" >  T  T  T </v>
   <v type="logical" >  T  T  T </v>
   <v type="logical" >  T  T  T </v>
   <v type="logical" >  T  T  T </v>
   <v type="logical" >  T  T  T </v>
  </varray>
  <nose>
   <v>      -3.00000000       0.00000000       0.00010000       0.00010000 </v>
  </nose>
 </structure>
 <calculation>
  <scstep>
   <time name="dav">   43.20   43.79</time>
   <time name="total">   43.35   43.97</time>
   <energy>
    <i name="alphaZ">   1187.40926345 </i>
    <i name="ewald"> 224693.77838714 </i>
    <i name="hartreedc">-296738.95952811 </i>
    <i name="XCdc">   2460.04125449 </i>
    <i name="pawpsdc">  66317.26478664 </i>
    <i name="pawaedc"> -72031.73030235 </i>
    <i name="eentropy">     -0.00088799 </i>
    <i name="bandstr">   4302.66602649 </i>
    <i name="atom">  75111.71257079 </i>
    <i name="e_fr_energy">   5302.18157055 </i>
    <i name="e_wo_entrp">   5302.18245854 </i>
    <i name="e_0_energy">   5302.18186654 </i>
   </energy>
  </scstep>
  <scstep>
   <time name="dav">   42.51   42.98</time>
   <time name="total">   42.52   42.99</time>
   <energy>
    <i name="e_fr_energy">    538.51282661 </i>
    <i name="e_wo_entrp">    538.50523151 </i>
    <i name="e_0_energy">    538.51029491 </i>
   </energy>
  </scstep>
  <scstep>
   <time name="dav">   42.56   42.98</time>
   <time name="total">   42.57   42.98</time>
   <energy>
    <i name="e_fr_energy">   -172.06284927 </i>
    <i name="e_wo_entrp">   -172.09461148 </i>
    <i name="e_0_energy">   -172.07343667 </i>
   </energy>
  </scstep>
  <scstep>
   <time name="dav">   46.80   47.10</time>
   <time name="total">   46.80   47.11</time>
   <energy>
    <i name="e_fr_energy">   -217.00031601 </i>
    <i name="e_wo_entrp">   -217.05658353 </i>
    <i name="e_0_energy">   -217.01907185 </i>
   </energy>
  </scstep>
  <scstep>
   <time name="dav">   46.79   47.09</time>
   <time name="total">   48.25   48.55</time>
   <energy>
    <i name="e_fr_energy">   -218.07790136 </i>
    <i name="e_wo_entrp">   -218.13663803 </i>
    <i name="e_0_energy">   -218.09748025 </i>
   </energy>
  </scstep>
  <scstep>
   <time name="dav">   47.39   47.95</time>
   <time name="total">   49.10   49.79</time>
   <energy>
    <i name="e_fr_energy">   -175.41498082 </i>
    <i name="e_wo_entrp">   -175.39933960 </i>
    <i name="e_0_energy">   -175.40976708 </i>
   </energy>
  </scstep>
  <scstep>
   <time name="dav">   46.97   47.46</time>
   <time name="total">   48.76   49.26</time>
   <energy>
    <i name="e_fr_energy">   -147.74624458 </i>
    <i name="e_wo_entrp">   -147.70623446 </i>
    <i name="e_0_energy">   -147.73290787 </i>
   </energy>
  </scstep>
  <scstep>
   <time name="dav">   47.73   48.27</time>
   <time name="total">   49.27   49.82</time>
   <energy>
    <i name="e_fr_energy">   -141.66197477 </i>
    <i name="e_wo_entrp">   -141.61802600 </i>
    <i name="e_0_energy">   -141.64732518 </i>
   </energy>
  </scstep>
  <scstep>
   <time name="dav">   54.45   54.80</time>
   <time name="total">   56.03   56.39</time>
   <energy>
    <i name="e_fr_energy">   -136.75699855 </i>
    <i name="e_wo_entrp">   -136.76140576 </i>
    <i name="e_0_energy">   -136.75846762 </i>
   </energy>
  </scstep>
  <scstep>
   <time name="dav">   55.63   56.00</time>
   <time name="total">   57.17   57.55</time>
   <energy>
    <i name="e_fr_energy">   -136.22508198 </i>
    <i name="e_wo_entrp">   -136.24668431 </i>
    <i name="e_0_energy">   -136.23228276 </i>
   </energy>
  </scstep>
  <scstep>
   <time name="dav">   48.07   48.38</time>
   <time name="total">   49.62   49.94</time>
   <energy>
    <i name="e_fr_energy">   -140.01094680 </i>
    <i name="e_wo_entrp">   -140.03175167 </i>
    <i name="e_0_energy">   -140.01788175 </i>
   </energy>
  </scstep>
  <scstep>
   <time name="dav">   52.17   53.02</time>
   <time name="total">   53.73   54.59</time>
   <energy>
    <i name="e_fr_energy">   -147.61502971 </i>
    <i name="e_wo_entrp">   -147.66547646 </i>
    <i name="e_0_energy">   -147.63184529 </i>
   </energy>
  </scstep>
  <scstep>
   <time name="dav">   52.72   53.36</time>
   <time name="total">   54.29   54.94</time>
   <energy>
    <i name="e_fr_energy">   -165.00019430 </i>
    <i name="e_wo_entrp">   -164.98113556 </i>
    <i name="e_0_energy">   -164.99384139 </i>
   </energy>
  </scstep>
  <scstep>
   <time name="dav">   47.95   48.25</time>
   <time name="total">   49.52   49.83</time>
   <energy>
    <i name="e_fr_energy">   -176.56427810 </i>
    <i name="e_wo_entrp">   -176.53739750 </i>
    <i name="e_0_energy">   -176.55531790 </i>
   </energy>
  </scstep>
  <scstep>
   <time name="dav">   50.90   51.22</time>
   <time name="total">   52.48   52.81</time>
   <energy>
    <i name="e_fr_energy">   -179.78209008 </i>
    <i name="e_wo_entrp">   -179.74164130 </i>
    <i name="e_0_energy">   -179.76860715 </i>
   </energy>
  </scstep>
  <scstep>
   <time name="dav">   48.22   48.52</time>
   <time name="total">   49.81   50.11</time>
   <energy>
    <i name="e_fr_energy">   -180.82660842 </i>
    <i name="e_wo_entrp">   -180.76368045 </i>
    <i name="e_0_energy">   -180.80563243 </i>
   </energy>
  </scstep>
  <scstep>
   <time name="dav">   52.96   53.38</time>
   <time name="total">   54.53   54.96</time>
   <energy>
    <i name="e_fr_energy">   -181.79819886 </i>
    <i name="e_wo_entrp">   -181.73632218 </i>
    <i name="e_0_energy">   -181.77757330 </i>
   </energy>
  </scstep>
  <scstep>
   <time name="dav">   51.75   52.27</time>
   <time name="total">   53.35   53.89</time>
   <energy>
    <i name="e_fr_energy">   -182.35806047 </i>
    <i name="e_wo_entrp">   -182.29349625 </i>
    <i name="e_0_energy">   -182.33653906 </i>
   </energy>
  </scstep>
  <scstep>
   <time name="dav">   50.11   50.90</time>
   <time name="total">   51.68   52.48</time>
   <energy>
    <i name="e_fr_energy">   -183.27335674 </i>
    <i name="e_wo_entrp">   -183.20925076 </i>
    <i name="e_0_energy">   -183.25198808 </i>
   </energy>
  </scstep>
  <scstep>
   <time name="dav">   54.38   54.75</time>
   <time name="total">   55.96   56.35</time>
   <energy>
    <i name="e_fr_energy">   -183.65104540 </i>
    <i name="e_wo_entrp">   -183.58652944 </i>
    <i name="e_0_energy">   -183.62954008 </i>
   </energy>
  </scstep>
  <scstep>
   <time name="dav">   57.00   57.38</time>
   <time name="total">   58.59   58.98</time>
   <energy>
    <i name="e_fr_energy">   -184.37680301 </i>
    <i name="e_wo_entrp">   -184.31238295 </i>
    <i name="e_0_energy">   -184.35532966 </i>
   </energy>
  </scstep>
  <scstep>
   <time name="dav">   53.86   54.20</time>
   <time name="total">   55.47   55.82</time>
   <energy>
    <i name="e_fr_energy">   -184.77855335 </i>
    <i name="e_wo_entrp">   -184.71484632 </i>
    <i name="e_0_energy">   -184.75731768 </i>
   </energy>
  </scstep>
  <scstep>
   <time name="dav">   56.24   56.78</time>
   <time name="total">   58.15   58.81</time>
   <energy>
    <i name="e_fr_energy">   -184.86677674 </i>
    <i name="e_wo_entrp">   -184.80236957 </i>
    <i name="e_0_energy">   -184.84530768 </i>
   </energy>
  </scstep>
  <scstep>
   <time name="dav">   49.57   50.29</time>
   <time name="total">   51.48   52.26</time>
   <energy>
    <i name="e_fr_energy">   -184.90815533 </i>
    <i name="e_wo_entrp">   -184.84350894 </i>
    <i name="e_0_energy">   -184.88660654 </i>
   </energy>
  </scstep>
  <scstep>
   <time name="dav">   47.67   47.97</time>
   <time name="total">   49.28   49.59</time>
   <energy>
    <i name="e_fr_energy">   -184.93550058 </i>
    <i name="e_wo_entrp">   -184.87106140 </i>
    <i name="e_0_energy">   -184.91402085 </i>
   </energy>
  </scstep>
  <scstep>
   <time name="dav">   33.69   33.90</time>
   <time name="total">   35.31   35.54</time>
   <energy>
    <i name="e_fr_energy">   -184.94214939 </i>
    <i name="e_wo_entrp">   -184.87776702 </i>
    <i name="e_0_energy">   -184.92068860 </i>
   </energy>
  </scstep>
  <scstep>
   <time name="dav">   32.91   33.12</time>
   <time name="total">   34.52   34.74</time>
   <energy>
    <i name="e_fr_energy">   -184.94695658 </i>
    <i name="e_wo_entrp">   -184.88260000 </i>
    <i name="e_0_energy">   -184.92550439 </i>
   </energy>
  </scstep>
  <scstep>
   <time name="dav">   32.37   32.58</time>
   <time name="total">   33.99   34.21</time>
   <energy>
    <i name="e_fr_energy">   -184.94805080 </i>
    <i name="e_wo_entrp">   -184.88364746 </i>
    <i name="e_0_energy">   -184.92658302 </i>
   </energy>
  </scstep>
  <scstep>
   <time name="dav">   30.82   31.02</time>
   <time name="total">   30.99   31.19</time>
   <energy>
    <i name="alphaZ">   1187.40926345 </i>
    <i name="ewald"> 224693.77838714 </i>
    <i name="hartreedc">-296078.53343260 </i>
    <i name="XCdc">   2401.44664513 </i>
    <i name="pawpsdc">  70004.94918368 </i>
    <i name="pawaedc"> -75809.35989928 </i>
    <i name="eentropy">     -0.06443434 </i>
    <i name="bandstr">  -1696.28648974 </i>
    <i name="atom">  75111.71257079 </i>
    <i name="e_fr_energy">   -184.94820577 </i>
    <i name="e_wo_entrp">   -184.88377143 </i>
    <i name="e_0_energy">   -184.92672766 </i>
   </energy>
  </scstep>
  <dipole>
   <v name="dipole">      0.00000000       0.00000000       0.02867127 </v>
   <i name="Tr[quadrupol]">  -9288.82730803 </i>
   <i name="Echarged">      0.00000000 </i>
   <i name="Edipol_quadrupol">      0.00000000 </i>
   <i name="Eion">      0.00000000 </i>
  </dipole>
  <structure>
   <crystal>
    <varray name="basis" >
     <v>      10.89000034       0.00000000       0.00000000 </v>
     <v>       0.00000000       7.70039320       0.00000000 </v>
     <v>       0.00000000       0.00000000      21.41699400 </v>
    </varray>
    <i name="volume">   1795.97096093 </i>
    <varray name="rec_basis" >
     <v>       0.09182736       0.00000000       0.00000000 </v>
     <v>       0.00000000       0.12986350       0.00000000 </v>
     <v>       0.00000000       0.00000000       0.04669189 </v>
    </varray>
   </crystal>
   <varray name="positions" >
    <v>       0.00000000       0.00000000       0.00000000 </v>
    <v>       0.00000000       0.33333333       0.00000000 </v>
    <v>       0.00000000       0.66666667       0.00000000 </v>
    <v>       0.33333333       0.00000000       0.00000000 </v>
    <v>       0.33333333       0.33333333       0.00000000 </v>
    <v>       0.33333333       0.66666667       0.00000000 </v>
    <v>       0.66666667       0.00000000       0.00000000 </v>
    <v>       0.66666667       0.33333333       0.00000000 </v>
    <v>       0.66666667       0.66666667       0.00000000 </v>
    <v>       0.16666667       0.16666667       0.05992432 </v>
    <v>       0.16666667       0.50000000       0.05992432 </v>
    <v>       0.16666667       0.83333333       0.05992432 </v>
    <v>       0.50000000       0.16666667       0.05992432 </v>
    <v>       0.50000000       0.50000000       0.05992432 </v>
    <v>       0.50000000       0.83333333       0.05992432 </v>
    <v>       0.83333333       0.16666667       0.05992432 </v>
    <v>       0.83333333       0.50000000       0.05992432 </v>
    <v>       0.83333333       0.83333333       0.05992432 </v>
    <v>       0.00000000       0.00000000       0.11984864 </v>
    <v>       0.00000000       0.33333333       0.11984864 </v>
    <v>       0.00000000       0.66666667       0.11984864 </v>
    <v>       0.33333333       0.00000000       0.11984864 </v>
    <v>       0.33333333       0.33333333       0.11984864 </v>
    <v>       0.33333333       0.66666667       0.11984864 </v>
    <v>       0.66666667       0.00000000       0.11984864 </v>
    <v>       0.66666667       0.33333333       0.11984864 </v>
    <v>       0.66666667       0.66666667       0.11984864 </v>
    <v>       0.16666667       0.16666667       0.17977296 </v>
    <v>       0.16666667       0.50000000       0.17977296 </v>
    <v>       0.16666667       0.83333333       0.17977296 </v>
    <v>       0.50000000       0.16666667       0.17977296 </v>
    <v>       0.50000000       0.50000000       0.17977296 </v>
    <v>       0.50000000       0.83333333       0.17977296 </v>
    <v>       0.83333333       0.16666667       0.17977296 </v>
    <v>       0.83333333       0.50000000       0.17977296 </v>
    <v>       0.83333333       0.83333333       0.17977296 </v>
    <v>       0.00000000       0.00000000       0.23969728 </v>
    <v>       0.00000000       0.33333333       0.23969728 </v>
    <v>       0.00000000       0.66666667       0.23969728 </v>
    <v>       0.33333333       0.00000000       0.23969728 </v>
    <v>       0.33333333       0.33333333       0.23969728 </v>
    <v>       0.33333333       0.66666667       0.23969728 </v>
    <v>       0.66666667       0.00000000       0.23969728 </v>
    <v>       0.66666667       0.33333333       0.23969728 </v>
    <v>       0.66666667       0.66666667       0.23969728 </v>
    <v>       0.16666667       0.16666667       0.29962161 </v>
    <v>       0.16666667       0.50000000       0.29962161 </v>
    <v>       0.16666667       0.83333333       0.29962161 </v>
    <v>       0.50000000       0.16666667       0.29962161 </v>
    <v>       0.50000000       0.50000000       0.29962161 </v>
    <v>       0.50000000       0.83333333       0.29962161 </v>
    <v>       0.83333333       0.16666667       0.29962161 </v>
    <v>       0.83333333       0.50000000       0.29962161 </v>
    <v>       0.83333333       0.83333333       0.29962161 </v>
   </varray>
  </structure>
  <varray name="forces" >
   <v>       0.00000000      -0.00000000       0.49108975 </v>
   <v>      -0.00000000       0.00000000       0.49108975 </v>
   <v>      -0.00000000      -0.00000000       0.49108975 </v>
   <v>      -0.00000000      -0.00000000       0.49108975 </v>
   <v>      -0.00000000       0.00000000       0.49108975 </v>
   <v>       0.00000000      -0.00000000       0.49108975 </v>
   <v>       0.00000000      -0.00000000       0.49108975 </v>
   <v>       0.00000000       0.00000000       0.49108975 </v>
   <v>       0.00000000      -0.00000000       0.49108975 </v>
   <v>       0.00000000      -0.00000000      -0.28499403 </v>
   <v>       0.00000000      -0.00000000      -0.28499403 </v>
   <v>      -0.00000000       0.00000000      -0.28499403 </v>
   <v>      -0.00000000      -0.00000000      -0.28499403 </v>
   <v>      -0.00000000      -0.00000000      -0.28499403 </v>
   <v>       0.00000000       0.00000000      -0.28499403 </v>
   <v>       0.00000000      -0.00000000      -0.28499403 </v>
   <v>       0.00000000      -0.00000000      -0.28499403 </v>
   <v>      -0.00000000       0.00000000      -0.28499403 </v>
   <v>       0.00000000      -0.00000000       0.06729075 </v>
   <v>      -0.00000000      -0.00000000       0.06729075 </v>
   <v>      -0.00000000      -0.00000000       0.06729075 </v>
   <v>       0.00000000      -0.00000000       0.06729075 </v>
   <v>       0.00000000      -0.00000000       0.06729075 </v>
   <v>      -0.00000000      -0.00000000       0.06729075 </v>
   <v>      -0.00000000       0.00000000       0.06729075 </v>
   <v>      -0.00000000       0.00000000       0.06729075 </v>
   <v>      -0.00000000      -0.00000000       0.06729075 </v>
   <v>       0.00000000      -0.00000000      -0.06690895 </v>
   <v>       0.00000000      -0.00000000      -0.06690895 </v>
   <v>      -0.00000000       0.00000000      -0.06690895 </v>
   <v>       0.00000000       0.00000000      -0.06690895 </v>
   <v>      -0.00000000      -0.00000000      -0.06690895 </v>
   <v>       0.00000000       0.00000000      -0.06690895 </v>
   <v>       0.00000000      -0.00000000      -0.06690895 </v>
   <v>      -0.00000000      -0.00000000      -0.06690895 </v>
   <v>      -0.00000000      -0.00000000      -0.06690895 </v>
   <v>       0.00000000      -0.00000000       0.28841611 </v>
   <v>      -0.00000000      -0.00000000       0.28841611 </v>
   <v>      -0.00000000      -0.00000000       0.28841611 </v>
   <v>      -0.00000000      -0.00000000       0.28841611 </v>
   <v>      -0.00000000       0.00000000       0.28841611 </v>
   <v>      -0.00000000      -0.00000000       0.28841611 </v>
   <v>      -0.00000000      -0.00000000       0.28841611 </v>
   <v>      -0.00000000      -0.00000000       0.28841611 </v>
   <v>      -0.00000000      -0.00000000       0.28841611 </v>
   <v>       0.00000000      -0.00000000      -0.49489362 </v>
   <v>       0.00000000      -0.00000000      -0.49489362 </v>
   <v>      -0.00000000       0.00000000      -0.49489362 </v>
   <v>      -0.00000000      -0.00000000      -0.49489362 </v>
   <v>      -0.00000000      -0.00000000      -0.49489362 </v>
   <v>      -0.00000000      -0.00000000      -0.49489362 </v>
   <v>       0.00000000      -0.00000000      -0.49489362 </v>
   <v>       0.00000000      -0.00000000      -0.49489362 </v>
   <v>       0.00000000       0.00000000      -0.49489362 </v>
  </varray>
  <varray name="stress" >
   <v>     -43.26008848       0.00000000       0.00000000 </v>
   <v>       0.00000000     -37.64590520       0.00000000 </v>
   <v>       0.00000000       0.00000000     -20.40970015 </v>
  </varray>
  <energy>
   <i name="e_fr_energy">   -202.85281988 </i>
   <i name="e_wo_entrp">   -202.78838554 </i>
   <i name="e_0_energy">   -202.83134177 </i>
  </energy>
  <time name="totalsc"> 1515.20 1529.33</time>
 </calculation>
 <calculation>
  <scstep>
   <time name="dav">   46.34   46.89</time>
   <time name="total">   47.95   48.51</time>
   <energy>
    <i name="alphaZ">   1187.40926345 </i>
    <i name="ewald"> 225211.95403717 </i>
    <i name="hartreedc">-296594.59629933 </i>
    <i name="XCdc">   2401.77444958 </i>
    <i name="pawpsdc">  70004.48187599 </i>
    <i name="pawaedc"> -75808.85755349 </i>
    <i name="eentropy">     -0.06471279 </i>
    <i name="bandstr">  -1698.80470762 </i>
    <i name="atom">  75111.71257079 </i>
    <i name="e_fr_energy">   -184.99107626 </i>
    <i name="e_wo_entrp">   -184.92636347 </i>
    <i name="e_0_energy">   -184.96950533 </i>
   </energy>
  </scstep>
  <scstep>
   <time name="dav">   60.01   60.40</time>
   <time name="total">   61.62   62.03</time>
   <energy>
    <i name="e_fr_energy">   -185.06775346 </i>
    <i name="e_wo_entrp">   -185.00162166 </i>
    <i name="e_0_energy">   -185.04570953 </i>
   </energy>
  </scstep>
  <scstep>
   <time name="dav">   45.30   45.60</time>
   <time name="total">   46.94   47.25</time>
   <energy>
    <i name="e_fr_energy">   -185.05962633 </i>
    <i name="e_wo_entrp">   -184.99424506 </i>
    <i name="e_0_energy">   -185.03783258 </i>
   </energy>
  </scstep>
  <scstep>
   <time name="dav">   45.86   46.17</time>
   <time name="total">   47.49   47.80</time>
   <energy>
    <i name="e_fr_energy">   -185.05962103 </i>
    <i name="e_wo_entrp">   -184.99433096 </i>
    <i name="e_0_energy">   -185.03785767 </i>
   </energy>
  </scstep>
  <scstep>
   <time name="dav">   46.51   46.92</time>
   <time name="total">   48.14   48.56</time>
   <energy>
    <i name="e_fr_energy">   -185.05927823 </i>
    <i name="e_wo_entrp">   -184.99401198 </i>
    <i name="e_0_energy">   -185.03752282 </i>
   </energy>
  </scstep>
  <scstep>
   <time name="dav">   51.37   52.24</time>
   <time name="total">   52.98   53.85</time>
   <energy>
    <i name="e_fr_energy">   -185.05835311 </i>
    <i name="e_wo_entrp">   -184.99336991 </i>
    <i name="e_0_energy">   -185.03669205 </i>
   </energy>
  </scstep>
  <scstep>
   <time name="dav">   49.76   50.17</time>
   <time name="total">   49.91   50.33</time>
   <energy>
    <i name="alphaZ">   1187.40926345 </i>
    <i name="ewald"> 225211.95403717 </i>
    <i name="hartreedc">-296590.02030586 </i>
    <i name="XCdc">   2401.64275167 </i>
    <i name="pawpsdc">  70040.31346248 </i>
    <i name="pawaedc"> -75845.59140097 </i>
    <i name="eentropy">     -0.06499162 </i>
    <i name="bandstr">  -1702.41384082 </i>
    <i name="atom">  75111.71257079 </i>
    <i name="e_fr_energy">   -185.05845372 </i>
    <i name="e_wo_entrp">   -184.99346209 </i>
    <i name="e_0_energy">   -185.03678984 </i>
   </energy>
  </scstep>
  <dipole>
   <v name="dipole">      0.00000000       0.00000000       0.01726127 </v>
   <i name="Tr[quadrupol]">  -9288.69398831 </i>
   <i name="Echarged">      0.00000000 </i>
   <i name="Edipol_quadrupol">      0.00000000 </i>
   <i name="Eion">      0.00000000 </i>
  </dipole>
  <structure>
   <crystal>
    <varray name="basis" >
     <v>      10.89000034       0.00000000       0.00000000 </v>
     <v>       0.00000000       7.70039320       0.00000000 </v>
     <v>       0.00000000       0.00000000      21.41699400 </v>
    </varray>
    <i name="volume">   1795.97096093 </i>
    <varray name="rec_basis" >
     <v>       0.09182736       0.00000000       0.00000000 </v>
     <v>       0.00000000       0.12986350       0.00000000 </v>
     <v>       0.00000000       0.00000000       0.04669189 </v>
    </varray>
   </crystal>
   <varray name="positions" >
    <v>       0.00000000       0.00000000       0.00000000 </v>
    <v>       0.00000000       0.33333333       0.00000000 </v>
    <v>       0.00000000       0.66666667       0.00000000 </v>
    <v>       0.33333333       0.00000000       0.00000000 </v>
    <v>       0.33333333       0.33333333       0.00000000 </v>
    <v>       0.33333333       0.66666667       0.00000000 </v>
    <v>       0.66666667       0.00000000       0.00000000 </v>
    <v>       0.66666667       0.33333333       0.00000000 </v>
    <v>       0.66666667       0.66666667       0.00000000 </v>
    <v>       0.16666667       0.16666667       0.05992432 </v>
    <v>       0.16666667       0.50000000       0.05992432 </v>
    <v>       0.16666667       0.83333333       0.05992432 </v>
    <v>       0.50000000       0.16666667       0.05992432 </v>
    <v>       0.50000000       0.50000000       0.05992432 </v>
    <v>       0.50000000       0.83333333       0.05992432 </v>
    <v>       0.83333333       0.16666667       0.05992432 </v>
    <v>       0.83333333       0.50000000       0.05992432 </v>
    <v>       0.83333333       0.83333333       0.05992432 </v>
    <v>       0.00000000      -0.00000000       0.12000022 </v>
    <v>      -0.00000000       0.33333333       0.12000022 </v>
    <v>      -0.00000000       0.66666667       0.12000022 </v>
    <v>       0.33333333      -0.00000000       0.12000022 </v>
    <v>       0.33333333       0.33333333       0.12000022 </v>
    <v>       0.33333333       0.66666667       0.12000022 </v>
    <v>       0.66666667       0.00000000       0.12000022 </v>
    <v>       0.66666667       0.33333333       0.12000022 </v>
    <v>       0.66666667       0.66666667       0.12000022 </v>
    <v>       0.16666667       0.16666667       0.17962225 </v>
    <v>       0.16666667       0.50000000       0.17962225 </v>
    <v>       0.16666667       0.83333333       0.17962225 </v>
    <v>       0.50000000       0.16666667       0.17962225 </v>
    <v>       0.50000000       0.50000000       0.17962225 </v>
    <v>       0.50000000       0.83333333       0.17962225 </v>
    <v>       0.83333333       0.16666667       0.17962225 </v>
    <v>       0.83333333       0.50000000       0.17962225 </v>
    <v>       0.83333333       0.83333333       0.17962225 </v>
    <v>       0.00000000      -0.00000000       0.24034695 </v>
    <v>      -0.00000000       0.33333333       0.24034695 </v>
    <v>      -0.00000000       0.66666667       0.24034695 </v>
    <v>       0.33333333      -0.00000000       0.24034695 </v>
    <v>       0.33333333       0.33333333       0.24034695 </v>
    <v>       0.33333333       0.66666667       0.24034695 </v>
    <v>       0.66666667      -0.00000000       0.24034695 </v>
    <v>       0.66666667       0.33333333       0.24034695 </v>
    <v>       0.66666667       0.66666667       0.24034695 </v>
    <v>       0.16666667       0.16666667       0.29850684 </v>
    <v>       0.16666667       0.50000000       0.29850684 </v>
    <v>       0.16666667       0.83333333       0.29850684 </v>
    <v>       0.50000000       0.16666667       0.29850684 </v>
    <v>       0.50000000       0.50000000       0.29850684 </v>
    <v>       0.50000000       0.83333333       0.29850684 </v>
    <v>       0.83333333       0.16666667       0.29850684 </v>
    <v>       0.83333333       0.50000000       0.29850684 </v>
    <v>       0.83333333       0.83333333       0.29850684 </v>
   </varray>
  </structure>
  <varray name="forces" >
   <v>      -0.00000000      -0.00000000       0.49563896 </v>
   <v>      -0.00000000       0.00000000       0.49563896 </v>
   <v>      -0.00000000       0.00000000       0.49563896 </v>
   <v>       0.00000000       0.00000000       0.49563896 </v>
   <v>      -0.00000000      -0.00000000       0.49563896 </v>
   <v>       0.00000000       0.00000000       0.49563896 </v>
   <v>       0.00000000       0.00000000       0.49563896 </v>
   <v>       0.00000000      -0.00000000       0.49563896 </v>
   <v>      -0.00000000       0.00000000       0.49563896 </v>
   <v>       0.00000000       0.00000000      -0.28039556 </v>
   <v>       0.00000000       0.00000000      -0.28039556 </v>
   <v>       0.00000000       0.00000000      -0.28039556 </v>
   <v>      -0.00000000       0.00000000      -0.28039556 </v>
   <v>      -0.00000000       0.00000000      -0.28039556 </v>
   <v>       0.00000000       0.00000000      -0.28039556 </v>
   <v>      -0.00000000       0.00000000      -0.28039556 </v>
   <v>       0.00000000       0.00000000      -0.28039556 </v>
   <v>       0.00000000      -0.00000000      -0.28039556 </v>
   <v>      -0.00000000       0.00000000       0.06181923 </v>
   <v>       0.00000000       0.00000000       0.06181923 </v>
   <v>       0.00000000       0.00000000       0.06181923 </v>
   <v>       0.00000000       0.00000000       0.06181923 </v>
   <v>       0.00000000      -0.00000000       0.06181923 </v>
   <v>      -0.00000000       0.00000000       0.06181923 </v>
   <v>      -0.00000000       0.00000000       0.06181923 </v>
   <v>      -0.00000000      -0.00000000       0.06181923 </v>
   <v>       0.00000000       0.00000000       0.06181923 </v>
   <v>      -0.00000000       0.00000000      -0.06137099 </v>
   <v>      -0.00000000       0.00000000      -0.06137099 </v>
   <v>      -0.00000000      -0.00000000      -0.06137099 </v>
   <v>      -0.00000000      -0.00000000      -0.06137099 </v>
   <v>      -0.00000000       0.00000000      -0.06137099 </v>
   <v>       0.00000000      -0.00000000      -0.06137099 </v>
   <v>      -0.00000000       0.00000000      -0.06137099 </v>
   <v>      -0.00000000       0.00000000      -0.06137099 </v>
   <v>       0.00000000      -0.00000000      -0.06137099 </v>
   <v>       0.00000000       0.00000000       0.17950934 </v>
   <v>      -0.00000000      -0.00000000       0.17950934 </v>
   <v>       0.00000000       0.00000000       0.17950934 </v>
   <v>       0.00000000       0.00000000       0.17950934 </v>
   <v>      -0.00000000       0.00000000       0.17950934 </v>
   <v>       0.00000000       0.00000000       0.17950934 </v>
   <v>      -0.00000000       0.00000000       0.17950934 </v>
   <v>      -0.00000000      -0.00000000       0.17950934 </v>
   <v>       0.00000000       0.00000000       0.17950934 </v>
   <v>      -0.00000000       0.00000000      -0.39520098 </v>
   <v>      -0.00000000       0.00000000      -0.39520098 </v>
   <v>      -0.00000000      -0.00000000      -0.39520098 </v>
   <v>       0.00000000       0.00000000      -0.39520098 </v>
   <v>       0.00000000       0.00000000      -0.39520098 </v>
   <v>       0.00000000      -0.00000000      -0.39520098 </v>
   <v>       0.00000000       0.00000000      -0.39520098 </v>
   <v>      -0.00000000       0.00000000      -0.39520098 </v>
   <v>       0.00000000      -0.00000000      -0.39520098 </v>
  </varray>
  <varray name="stress" >
   <v>     -43.42152559       0.00000000       0.00000000 </v>
   <v>       0.00000000     -38.25174744       0.00000000 </v>
   <v>       0.00000000       0.00000000     -20.46638228 </v>
  </varray>
  <energy>
   <i name="e_fr_energy">   -202.98111465 </i>
   <i name="e_wo_entrp">   -202.91612303 </i>
   <i name="e_0_energy">   -202.95945077 </i>
  </energy>
  <time name="totalsc">  451.67  455.50</time>
 </calculation>
 <calculation>
  <scstep>
   <time name="dav">   46.70   47.00</time>
   <time name="total">   48.29   48.60</time>
   <energy>
    <i name="alphaZ">   1187.40926345 </i>
    <i name="ewald"> 226757.10256474 </i>
    <i name="hartreedc">-298131.16460568 </i>
    <i name="XCdc">   2402.77894714 </i>
    <i name="pawpsdc">  70040.15640408 </i>
    <i name="pawaedc"> -75845.37604552 </i>
    <i name="eentropy">     -0.06394909 </i>
    <i name="bandstr">  -1706.97746046 </i>
    <i name="atom">  75111.71257079 </i>
    <i name="e_fr_energy">   -184.42231055 </i>
    <i name="e_wo_entrp">   -184.35836147 </i>
    <i name="e_0_energy">   -184.40099419 </i>
   </energy>
  </scstep>
  <scstep>
   <time name="dav">   63.53   64.27</time>
   <time name="total">   65.64   66.53</time>
   <energy>
    <i name="e_fr_energy">   -185.25495232 </i>
    <i name="e_wo_entrp">   -185.18794390 </i>
    <i name="e_0_energy">   -185.23261618 </i>
   </energy>
  </scstep>
  <scstep>
   <time name="dav">   47.64   48.19</time>
   <time name="total">   49.25   49.81</time>
   <energy>
    <i name="e_fr_energy">   -185.16235145 </i>
    <i name="e_wo_entrp">   -185.09611256 </i>
    <i name="e_0_energy">   -185.14027182 </i>
   </energy>
  </scstep>
  <scstep>
   <time name="dav">   45.46   45.76</time>
   <time name="total">   47.05   47.36</time>
   <energy>
    <i name="e_fr_energy">   -185.16604796 </i>
    <i name="e_wo_entrp">   -185.10025088 </i>
    <i name="e_0_energy">   -185.14411560 </i>
   </energy>
  </scstep>
  <scstep>
   <time name="dav">   45.72   46.02</time>
   <time name="total">   47.34   47.65</time>
   <energy>
    <i name="e_fr_energy">   -185.16459392 </i>
    <i name="e_wo_entrp">   -185.09877409 </i>
    <i name="e_0_energy">   -185.14265398 </i>
   </energy>
  </scstep>
  <scstep>
   <time name="dav">   56.33   56.70</time>
   <time name="total">   57.94   58.32</time>
   <energy>
    <i name="e_fr_energy">   -185.15587719 </i>
    <i name="e_wo_entrp">   -185.09061172 </i>
    <i name="e_0_energy">   -185.13412204 </i>
   </energy>
  </scstep>
  <scstep>
   <time name="dav">   57.57   57.94</time>
   <time name="total">   59.53   60.13</time>
   <energy>
    <i name="e_fr_energy">   -185.15550495 </i>
    <i name="e_wo_entrp">   -185.09053081 </i>
    <i name="e_0_energy">   -185.13384690 </i>
   </energy>
  </scstep>
  <scstep>
   <time name="dav">   47.11   47.78</time>
   <time name="total">   48.72   49.40</time>
   <energy>
    <i name="e_fr_energy">   -185.15469309 </i>
    <i name="e_wo_entrp">   -185.08952102 </i>
    <i name="e_0_energy">   -185.13296907 </i>
   </energy>
  </scstep>
  <scstep>
   <time name="dav">   39.90   40.77</time>
   <time name="total">   41.50   42.37</time>
   <energy>
    <i name="e_fr_energy">   -185.15441801 </i>
    <i name="e_wo_entrp">   -185.08922739 </i>
    <i name="e_0_energy">   -185.13268781 </i>
   </energy>
  </scstep>
  <scstep>
   <time name="dav">   41.07   41.34</time>
   <time name="total">   41.22   41.49</time>
   <energy>
    <i name="alphaZ">   1187.40926345 </i>
    <i name="ewald"> 226757.10256474 </i>
    <i name="hartreedc">-298117.22312506 </i>
    <i name="XCdc">   2402.27960083 </i>
    <i name="pawpsdc">  70166.69676459 </i>
    <i name="pawaedc"> -75974.26105429 </i>
    <i name="eentropy">     -0.06527310 </i>
    <i name="bandstr">  -1718.80565558 </i>
    <i name="atom">  75111.71257079 </i>
    <i name="e_fr_energy">   -185.15434363 </i>
    <i name="e_wo_entrp">   -185.08907053 </i>
    <i name="e_0_energy">   -185.13258593 </i>
   </energy>
  </scstep>
  <dipole>
   <v name="dipole">      0.00000000       0.00000000       0.02426828 </v>
   <i name="Tr[quadrupol]">  -9288.59364372 </i>
   <i name="Echarged">      0.00000000 </i>
   <i name="Edipol_quadrupol">      0.00000000 </i>
   <i name="Eion">      0.00000000 </i>
  </dipole>
  <structure>
   <crystal>
    <varray name="basis" >
     <v>      10.89000034       0.00000000       0.00000000 </v>
     <v>       0.00000000       7.70039320       0.00000000 </v>
     <v>       0.00000000       0.00000000      21.41699400 </v>
    </varray>
    <i name="volume">   1795.97096093 </i>
    <varray name="rec_basis" >
     <v>       0.09182736       0.00000000       0.00000000 </v>
     <v>       0.00000000       0.12986350       0.00000000 </v>
     <v>       0.00000000       0.00000000       0.04669189 </v>
    </varray>
   </crystal>
   <varray name="positions" >
    <v>       0.00000000       0.00000000       0.00000000 </v>
    <v>       0.00000000       0.33333333       0.00000000 </v>
    <v>       0.00000000       0.66666667       0.00000000 </v>
    <v>       0.33333333       0.00000000       0.00000000 </v>
    <v>       0.33333333       0.33333333       0.00000000 </v>
    <v>       0.33333333       0.66666667       0.00000000 </v>
    <v>       0.66666667       0.00000000       0.00000000 </v>
    <v>       0.66666667       0.33333333       0.00000000 </v>
    <v>       0.66666667       0.66666667       0.00000000 </v>
    <v>       0.16666667       0.16666667       0.05992432 </v>
    <v>       0.16666667       0.50000000       0.05992432 </v>
    <v>       0.16666667       0.83333333       0.05992432 </v>
    <v>       0.50000000       0.16666667       0.05992432 </v>
    <v>       0.50000000       0.50000000       0.05992432 </v>
    <v>       0.50000000       0.83333333       0.05992432 </v>
    <v>       0.83333333       0.16666667       0.05992432 </v>
    <v>       0.83333333       0.50000000       0.05992432 </v>
    <v>       0.83333333       0.83333333       0.05992432 </v>
    <v>       0.00000000      -0.00000000       0.12045494 </v>
    <v>      -0.00000000       0.33333333       0.12045494 </v>
    <v>      -0.00000000       0.66666667       0.12045494 </v>
    <v>       0.33333333      -0.00000000       0.12045494 </v>
    <v>       0.33333333       0.33333333       0.12045494 </v>
    <v>       0.33333333       0.66666667       0.12045494 </v>
    <v>       0.66666667       0.00000000       0.12045494 </v>
    <v>       0.66666667       0.33333333       0.12045494 </v>
    <v>       0.66666667       0.66666667       0.12045494 </v>
    <v>       0.16666667       0.16666667       0.17917010 </v>
    <v>       0.16666667       0.50000000       0.17917010 </v>
    <v>       0.16666667       0.83333333       0.17917010 </v>
    <v>       0.50000000       0.16666667       0.17917010 </v>
    <v>       0.50000000       0.50000000       0.17917010 </v>
    <v>       0.50000000       0.83333333       0.17917010 </v>
    <v>       0.83333333       0.16666667       0.17917010 </v>
    <v>       0.83333333       0.50000000       0.17917010 </v>
    <v>       0.83333333       0.83333333       0.17917010 </v>
    <v>       0.00000000      -0.00000000       0.24229596 </v>
    <v>      -0.00000000       0.33333333       0.24229596 </v>
    <v>      -0.00000000       0.66666667       0.24229596 </v>
    <v>       0.33333333      -0.00000000       0.24229596 </v>
    <v>       0.33333333       0.33333333       0.24229596 </v>
    <v>       0.33333333       0.66666667       0.24229596 </v>
    <v>       0.66666667      -0.00000000       0.24229596 </v>
    <v>       0.66666667       0.33333333       0.24229596 </v>
    <v>       0.66666667       0.66666667       0.24229596 </v>
    <v>       0.16666667       0.16666667       0.29516253 </v>
    <v>       0.16666667       0.50000000       0.29516253 </v>
    <v>       0.16666667       0.83333333       0.29516253 </v>
    <v>       0.50000000       0.16666667       0.29516253 </v>
    <v>       0.50000000       0.50000000       0.29516253 </v>
    <v>       0.50000000       0.83333333       0.29516253 </v>
    <v>       0.83333333       0.16666667       0.29516253 </v>
    <v>       0.83333333       0.50000000       0.29516253 </v>
    <v>       0.83333333       0.83333333       0.29516253 </v>
   </varray>
  </structure>
  <varray name="forces" >
   <v>      -0.00000000       0.00000000       0.51134346 </v>
   <v>       0.00000000       0.00000000       0.51134346 </v>
   <v>      -0.00000000       0.00000000       0.51134346 </v>
   <v>       0.00000000       0.00000000       0.51134346 </v>
   <v>      -0.00000000      -0.00000000       0.51134346 </v>
   <v>       0.00000000       0.00000000       0.51134346 </v>
   <v>      -0.00000000       0.00000000       0.51134346 </v>
   <v>       0.00000000      -0.00000000       0.51134346 </v>
   <v>       0.00000000       0.00000000       0.51134346 </v>
   <v>       0.00000000      -0.00000000      -0.27351598 </v>
   <v>      -0.00000000       0.00000000      -0.27351598 </v>
   <v>      -0.00000000      -0.00000000      -0.27351598 </v>
   <v>      -0.00000000       0.00000000      -0.27351598 </v>
   <v>      -0.00000000       0.00000000      -0.27351598 </v>
   <v>      -0.00000000       0.00000000      -0.27351598 </v>
   <v>       0.00000000       0.00000000      -0.27351598 </v>
   <v>       0.00000000       0.00000000      -0.27351598 </v>
   <v>       0.00000000      -0.00000000      -0.27351598 </v>
   <v>      -0.00000000       0.00000000       0.02558599 </v>
   <v>      -0.00000000       0.00000000       0.02558599 </v>
   <v>      -0.00000000       0.00000000       0.02558599 </v>
   <v>       0.00000000       0.00000000       0.02558599 </v>
   <v>       0.00000000      -0.00000000       0.02558599 </v>
   <v>       0.00000000       0.00000000       0.02558599 </v>
   <v>       0.00000000       0.00000000       0.02558599 </v>
   <v>       0.00000000       0.00000000       0.02558599 </v>
   <v>      -0.00000000       0.00000000       0.02558599 </v>
   <v>      -0.00000000       0.00000000      -0.07947526 </v>
   <v>      -0.00000000       0.00000000      -0.07947526 </v>
   <v>       0.00000000      -0.00000000      -0.07947526 </v>
   <v>      -0.00000000       0.00000000      -0.07947526 </v>
   <v>      -0.00000000       0.00000000      -0.07947526 </v>
   <v>       0.00000000      -0.00000000      -0.07947526 </v>
   <v>       0.00000000       0.00000000      -0.07947526 </v>
   <v>       0.00000000      -0.00000000      -0.07947526 </v>
   <v>      -0.00000000       0.00000000      -0.07947526 </v>
   <v>       0.00000000       0.00000000      -0.15493180 </v>
   <v>      -0.00000000       0.00000000      -0.15493180 </v>
   <v>       0.00000000       0.00000000      -0.15493180 </v>
   <v>      -0.00000000       0.00000000      -0.15493180 </v>
   <v>       0.00000000       0.00000000      -0.15493180 </v>
   <v>      -0.00000000       0.00000000      -0.15493180 </v>
   <v>       0.00000000       0.00000000      -0.15493180 </v>
   <v>       0.00000000      -0.00000000      -0.15493180 </v>
   <v>      -0.00000000       0.00000000      -0.15493180 </v>
   <v>      -0.00000000      -0.00000000      -0.02900641 </v>
   <v>      -0.00000000       0.00000000      -0.02900641 </v>
   <v>      -0.00000000       0.00000000      -0.02900641 </v>
   <v>       0.00000000       0.00000000      -0.02900641 </v>
   <v>      -0.00000000       0.00000000      -0.02900641 </v>
   <v>       0.00000000      -0.00000000      -0.02900641 </v>
   <v>       0.00000000       0.00000000      -0.02900641 </v>
   <v>       0.00000000       0.00000000      -0.02900641 </v>
   <v>      -0.00000000       0.00000000      -0.02900641 </v>
  </varray>
  <varray name="stress" >
   <v>     -39.77010473       0.00000000       0.00000000 </v>
   <v>       0.00000000     -36.60647478       0.00000000 </v>
   <v>       0.00000000       0.00000000     -17.02453467 </v>
  </varray>
  <energy>
   <i name="e_fr_energy">   -203.13441045 </i>
   <i name="e_wo_entrp">   -203.06913734 </i>
   <i name="e_0_energy">   -203.11265275 </i>
  </energy>
  <time name="totalsc">  603.04  608.79</time>
 </calculation>
 <calculation>
  <scstep>
   <time name="dav">   45.91   46.23</time>
   <time name="total">   47.53   47.87</time>
   <energy>
    <i name="alphaZ">   1187.40926345 </i>
    <i name="ewald"> 226628.71107962 </i>
    <i name="hartreedc">-297989.28072199 </i>
    <i name="XCdc">   2402.16609838 </i>
    <i name="pawpsdc">  70166.15271103 </i>
    <i name="pawaedc"> -75973.52200432 </i>
    <i name="eentropy">     -0.06546086 </i>
    <i name="bandstr">  -1718.44038771 </i>
    <i name="atom">  75111.71257079 </i>
    <i name="e_fr_energy">   -185.15685163 </i>
    <i name="e_wo_entrp">   -185.09139076 </i>
    <i name="e_0_energy">   -185.13503134 </i>
   </energy>
  </scstep>
  <scstep>
   <time name="dav">   59.31   60.14</time>
   <time name="total">   61.47   62.43</time>
   <energy>
    <i name="e_fr_energy">   -185.16088852 </i>
    <i name="e_wo_entrp">   -185.09543731 </i>
    <i name="e_0_energy">   -185.13907145 </i>
   </energy>
  </scstep>
  <scstep>
   <time name="dav">   40.49   40.88</time>
   <time name="total">   40.66   41.04</time>
   <energy>
    <i name="alphaZ">   1187.40926345 </i>
    <i name="ewald"> 226628.71107962 </i>
    <i name="hartreedc">-297989.87897397 </i>
    <i name="XCdc">   2402.18798159 </i>
    <i name="pawpsdc">  70161.16134449 </i>
    <i name="pawaedc"> -75968.37467433 </i>
    <i name="eentropy">     -0.06539946 </i>
    <i name="bandstr">  -1718.02398646 </i>
    <i name="atom">  75111.71257079 </i>
    <i name="e_fr_energy">   -185.16079429 </i>
    <i name="e_wo_entrp">   -185.09539484 </i>
    <i name="e_0_energy">   -185.13899447 </i>
   </energy>
  </scstep>
  <dipole>
   <v name="dipole">      0.00000000       0.00000000       0.02063458 </v>
   <i name="Tr[quadrupol]">  -9288.62151929 </i>
   <i name="Echarged">      0.00000000 </i>
   <i name="Edipol_quadrupol">      0.00000000 </i>
   <i name="Eion">      0.00000000 </i>
  </dipole>
  <structure>
   <crystal>
    <varray name="basis" >
     <v>      10.89000034       0.00000000       0.00000000 </v>
     <v>       0.00000000       7.70039320       0.00000000 </v>
     <v>       0.00000000       0.00000000      21.41699400 </v>
    </varray>
    <i name="volume">   1795.97096093 </i>
    <varray name="rec_basis" >
     <v>       0.09182736       0.00000000       0.00000000 </v>
     <v>       0.00000000       0.12986350       0.00000000 </v>
     <v>       0.00000000       0.00000000       0.04669189 </v>
    </varray>
   </crystal>
   <varray name="positions" >
    <v>       0.00000000       0.00000000       0.00000000 </v>
    <v>       0.00000000       0.33333333       0.00000000 </v>
    <v>       0.00000000       0.66666667       0.00000000 </v>
    <v>       0.33333333       0.00000000       0.00000000 </v>
    <v>       0.33333333       0.33333333       0.00000000 </v>
    <v>       0.33333333       0.66666667       0.00000000 </v>
    <v>       0.66666667       0.00000000       0.00000000 </v>
    <v>       0.66666667       0.33333333       0.00000000 </v>
    <v>       0.66666667       0.66666667       0.00000000 </v>
    <v>       0.16666667       0.16666667       0.05992432 </v>
    <v>       0.16666667       0.50000000       0.05992432 </v>
    <v>       0.16666667       0.83333333       0.05992432 </v>
    <v>       0.50000000       0.16666667       0.05992432 </v>
    <v>       0.50000000       0.50000000       0.05992432 </v>
    <v>       0.50000000       0.83333333       0.05992432 </v>
    <v>       0.83333333       0.16666667       0.05992432 </v>
    <v>       0.83333333       0.50000000       0.05992432 </v>
    <v>       0.83333333       0.83333333       0.05992432 </v>
    <v>       0.00000000      -0.00000000       0.12041697 </v>
    <v>      -0.00000000       0.33333333       0.12041697 </v>
    <v>      -0.00000000       0.66666667       0.12041697 </v>
    <v>       0.33333333      -0.00000000       0.12041697 </v>
    <v>       0.33333333       0.33333333       0.12041697 </v>
    <v>       0.33333333       0.66666667       0.12041697 </v>
    <v>       0.66666667       0.00000000       0.12041697 </v>
    <v>       0.66666667       0.33333333       0.12041697 </v>
    <v>       0.66666667       0.66666667       0.12041697 </v>
    <v>       0.16666667       0.16666667       0.17920786 </v>
    <v>       0.16666667       0.50000000       0.17920786 </v>
    <v>       0.16666667       0.83333333       0.17920786 </v>
    <v>       0.50000000       0.16666667       0.17920786 </v>
    <v>       0.50000000       0.50000000       0.17920786 </v>
    <v>       0.50000000       0.83333333       0.17920786 </v>
    <v>       0.83333333       0.16666667       0.17920786 </v>
    <v>       0.83333333       0.50000000       0.17920786 </v>
    <v>       0.83333333       0.83333333       0.17920786 </v>
    <v>       0.00000000      -0.00000000       0.24213321 </v>
    <v>      -0.00000000       0.33333333       0.24213321 </v>
    <v>      -0.00000000       0.66666667       0.24213321 </v>
    <v>       0.33333333      -0.00000000       0.24213321 </v>
    <v>       0.33333333       0.33333333       0.24213321 </v>
    <v>       0.33333333       0.66666667       0.24213321 </v>
    <v>       0.66666667      -0.00000000       0.24213321 </v>
    <v>       0.66666667       0.33333333       0.24213321 </v>
    <v>       0.66666667       0.66666667       0.24213321 </v>
    <v>       0.16666667       0.16666667       0.29544180 </v>
    <v>       0.16666667       0.50000000       0.29544180 </v>
    <v>       0.16666667       0.83333333       0.29544180 </v>
    <v>       0.50000000       0.16666667       0.29544180 </v>
    <v>       0.50000000       0.50000000       0.29544180 </v>
    <v>       0.50000000       0.83333333       0.29544180 </v>
    <v>       0.83333333       0.16666667       0.29544180 </v>
    <v>       0.83333333       0.50000000       0.29544180 </v>
    <v>       0.83333333       0.83333333       0.29544180 </v>
   </varray>
  </structure>
  <varray name="forces" >
   <v>       0.00000000      -0.00000000       0.50982655 </v>
   <v>      -0.00000000       0.00000000       0.50982655 </v>
   <v>       0.00000000      -0.00000000       0.50982655 </v>
   <v>       0.00000000      -0.00000000       0.50982655 </v>
   <v>       0.00000000       0.00000000       0.50982655 </v>
   <v>       0.00000000      -0.00000000       0.50982655 </v>
   <v>       0.00000000      -0.00000000       0.50982655 </v>
   <v>      -0.00000000       0.00000000       0.50982655 </v>
   <v>      -0.00000000      -0.00000000       0.50982655 </v>
   <v>      -0.00000000      -0.00000000      -0.27374223 </v>
   <v>      -0.00000000      -0.00000000      -0.27374223 </v>
   <v>      -0.00000000       0.00000000      -0.27374223 </v>
   <v>       0.00000000      -0.00000000      -0.27374223 </v>
   <v>       0.00000000      -0.00000000      -0.27374223 </v>
   <v>       0.00000000       0.00000000      -0.27374223 </v>
   <v>       0.00000000      -0.00000000      -0.27374223 </v>
   <v>       0.00000000      -0.00000000      -0.27374223 </v>
   <v>       0.00000000       0.00000000      -0.27374223 </v>
   <v>       0.00000000      -0.00000000       0.03009454 </v>
   <v>      -0.00000000      -0.00000000       0.03009454 </v>
   <v>      -0.00000000      -0.00000000       0.03009454 </v>
   <v>       0.00000000      -0.00000000       0.03009454 </v>
   <v>       0.00000000      -0.00000000       0.03009454 </v>
   <v>       0.00000000      -0.00000000       0.03009454 </v>
   <v>      -0.00000000      -0.00000000       0.03009454 </v>
   <v>       0.00000000       0.00000000       0.03009454 </v>
   <v>      -0.00000000      -0.00000000       0.03009454 </v>
   <v>       0.00000000      -0.00000000      -0.07627376 </v>
   <v>      -0.00000000      -0.00000000      -0.07627376 </v>
   <v>       0.00000000      -0.00000000      -0.07627376 </v>
   <v>      -0.00000000      -0.00000000      -0.07627376 </v>
   <v>      -0.00000000      -0.00000000      -0.07627376 </v>
   <v>       0.00000000      -0.00000000      -0.07627376 </v>
   <v>       0.00000000      -0.00000000      -0.07627376 </v>
   <v>       0.00000000      -0.00000000      -0.07627376 </v>
   <v>       0.00000000       0.00000000      -0.07627376 </v>
   <v>      -0.00000000      -0.00000000      -0.12611413 </v>
   <v>       0.00000000      -0.00000000      -0.12611413 </v>
   <v>       0.00000000      -0.00000000      -0.12611413 </v>
   <v>       0.00000000      -0.00000000      -0.12611413 </v>
   <v>      -0.00000000       0.00000000      -0.12611413 </v>
   <v>       0.00000000      -0.00000000      -0.12611413 </v>
   <v>      -0.00000000      -0.00000000      -0.12611413 </v>
   <v>       0.00000000       0.00000000      -0.12611413 </v>
   <v>      -0.00000000      -0.00000000      -0.12611413 </v>
   <v>      -0.00000000      -0.00000000      -0.06379097 </v>
   <v>      -0.00000000      -0.00000000      -0.06379097 </v>
   <v>      -0.00000000       0.00000000      -0.06379097 </v>
   <v>      -0.00000000      -0.00000000      -0.06379097 </v>
   <v>      -0.00000000      -0.00000000      -0.06379097 </v>
   <v>      -0.00000000      -0.00000000      -0.06379097 </v>
   <v>      -0.00000000      -0.00000000      -0.06379097 </v>
   <v>      -0.00000000      -0.00000000      -0.06379097 </v>
   <v>      -0.00000000      -0.00000000      -0.06379097 </v>
  </varray>
  <varray name="stress" >
   <v>     -36.89767119       0.00000000       0.00000000 </v>
   <v>       0.00000000     -33.52622304       0.00000000 </v>
   <v>       0.00000000       0.00000000     -14.04134625 </v>
  </varray>
  <energy>
   <i name="e_fr_energy">   -203.13588574 </i>
   <i name="e_wo_entrp">   -203.07048629 </i>
   <i name="e_0_energy">   -203.11408592 </i>
  </energy>
  <time name="totalsc">  246.49  248.90</time>
 </calculation>
 <calculation>
  <scstep>
   <time name="dav">   45.75   46.10</time>
   <time name="total">   47.36   47.73</time>
   <energy>
    <i name="alphaZ">   1187.40926345 </i>
    <i name="ewald"> 227088.23432807 </i>
    <i name="hartreedc">-298448.38961100 </i>
    <i name="XCdc">   2402.34786396 </i>
    <i name="pawpsdc">  70160.13970779 </i>
    <i name="pawaedc"> -75967.33037799 </i>
    <i name="eentropy">     -0.06696170 </i>
    <i name="bandstr">  -1719.19663893 </i>
    <i name="atom">  75111.71257079 </i>
    <i name="e_fr_energy">   -185.13985556 </i>
    <i name="e_wo_entrp">   -185.07289386 </i>
    <i name="e_0_energy">   -185.11753499 </i>
   </energy>
  </scstep>
  <scstep>
   <time name="dav">   57.36   57.72</time>
   <time name="total">   58.98   59.35</time>
   <energy>
    <i name="e_fr_energy">   -185.15390870 </i>
    <i name="e_wo_entrp">   -185.08718298 </i>
    <i name="e_0_energy">   -185.13166680 </i>
   </energy>
  </scstep>
  <scstep>
   <time name="dav">   45.72   46.42</time>
   <time name="total">   47.35   48.05</time>
   <energy>
    <i name="e_fr_energy">   -185.15386779 </i>
    <i name="e_wo_entrp">   -185.08710357 </i>
    <i name="e_0_energy">   -185.13161305 </i>
   </energy>
  </scstep>
  <scstep>
   <time name="dav">   45.24   46.02</time>
   <time name="total">   46.84   47.62</time>
   <energy>
    <i name="e_fr_energy">   -185.15383555 </i>
    <i name="e_wo_entrp">   -185.08705316 </i>
    <i name="e_0_energy">   -185.13157475 </i>
   </energy>
  </scstep>
  <scstep>
   <time name="dav">   39.08   39.43</time>
   <time name="total">   40.69   41.05</time>
   <energy>
    <i name="e_fr_energy">   -185.15359528 </i>
    <i name="e_wo_entrp">   -185.08686087 </i>
    <i name="e_0_energy">   -185.13135048 </i>
   </energy>
  </scstep>
  <scstep>
   <time name="dav">   44.53   44.80</time>
   <time name="total">   44.67   44.95</time>
   <energy>
    <i name="alphaZ">   1187.40926345 </i>
    <i name="ewald"> 227088.23432807 </i>
    <i name="hartreedc">-298448.08733130 </i>
    <i name="XCdc">   2402.32539407 </i>
    <i name="pawpsdc">  70172.04128708 </i>
    <i name="pawaedc"> -75979.65702016 </i>
    <i name="eentropy">     -0.06675063 </i>
    <i name="bandstr">  -1719.06524375 </i>
    <i name="atom">  75111.71257079 </i>
    <i name="e_fr_energy">   -185.15350238 </i>
    <i name="e_wo_entrp">   -185.08675174 </i>
    <i name="e_0_energy">   -185.13125217 </i>
   </energy>
  </scstep>
  <dipole>
   <v name="dipole">      0.00000000       0.00000000       0.01515191 </v>
   <i name="Tr[quadrupol]">  -9288.62166673 </i>
   <i name="Echarged">      0.00000000 </i>
   <i name="Edipol_quadrupol">      0.00000000 </i>
   <i name="Eion">      0.00000000 </i>
  </dipole>
  <structure>
   <crystal>
    <varray name="basis" >
     <v>      10.89000034       0.00000000       0.00000000 </v>
     <v>       0.00000000       7.70039320       0.00000000 </v>
     <v>       0.00000000       0.00000000      21.41699400 </v>
    </varray>
    <i name="volume">   1795.97096093 </i>
    <varray name="rec_basis" >
     <v>       0.09182736       0.00000000       0.00000000 </v>
     <v>       0.00000000       0.12986350       0.00000000 </v>
     <v>       0.00000000       0.00000000       0.04669189 </v>
    </varray>
   </crystal>
   <varray name="positions" >
    <v>       0.00000000       0.00000000       0.00000000 </v>
    <v>       0.00000000       0.33333333       0.00000000 </v>
    <v>       0.00000000       0.66666667       0.00000000 </v>
    <v>       0.33333333       0.00000000       0.00000000 </v>
    <v>       0.33333333       0.33333333       0.00000000 </v>
    <v>       0.33333333       0.66666667       0.00000000 </v>
    <v>       0.66666667       0.00000000       0.00000000 </v>
[...]
       <r>    -9.4551    -0.0008    -0.0001 </r>
       <r>    -9.3852    -0.0035    -0.0003 </r>
       <r>    -9.3152    -0.0117    -0.0011 </r>
       <r>    -9.2453    -0.0277    -0.0031 </r>
       <r>    -9.1753    -0.0403    -0.0059 </r>
       <r>    -9.1054    -0.0110    -0.0067 </r>
       <r>    -9.0354     0.1166     0.0015 </r>
       <r>    -8.9655     0.3705     0.0274 </r>
       <r>    -8.8956     0.7113     0.0772 </r>
       <r>    -8.8256     1.0500     0.1506 </r>
       <r>    -8.7557     1.3204     0.2430 </r>
       <r>    -8.6857     1.5566     0.3519 </r>
       <r>    -8.6158     1.8675     0.4825 </r>
       <r>    -8.5458     2.2604     0.6406 </r>
       <r>    -8.4759     2.5159     0.8166 </r>
       <r>    -8.4059     2.3588     0.9816 </r>
       <r>    -8.3360     1.7863     1.1065 </r>
       <r>    -8.2660     1.1688     1.1883 </r>
       <r>    -8.1961     0.9694     1.2561 </r>
       <r>    -8.1261     1.2741     1.3452 </r>
       <r>    -8.0562     1.6267     1.4590 </r>
       <r>    -7.9862     1.5404     1.5667 </r>
       <r>    -7.9163     1.1562     1.6476 </r>
       <r>    -7.8464     1.1151     1.7256 </r>
       <r>    -7.7764     1.7589     1.8486 </r>
       <r>    -7.7065     2.6612     2.0347 </r>
       <r>    -7.6365     3.0370     2.2472 </r>
       <r>    -7.5666     2.6396     2.4318 </r>
       <r>    -7.4966     2.1287     2.5807 </r>
       <r>    -7.4267     2.3132     2.7425 </r>
       <r>    -7.3567     3.1648     2.9639 </r>
       <r>    -7.2868     3.8807     3.2353 </r>
       <r>    -7.2168     3.8144     3.5021 </r>
       <r>    -7.1469     3.1113     3.7197 </r>
       <r>    -7.0769     2.4599     3.8918 </r>
       <r>    -7.0070     2.3402     4.0555 </r>
       <r>    -6.9370     2.5999     4.2373 </r>
       <r>    -6.8671     2.8018     4.4333 </r>
       <r>    -6.7971     2.8746     4.6344 </r>
       <r>    -6.7272     3.2484     4.8616 </r>
       <r>    -6.6573     4.2746     5.1606 </r>
       <r>    -6.5873     5.6042     5.5526 </r>
       <r>    -6.5174     6.3711     5.9982 </r>
       <r>    -6.4474     6.0920     6.4244 </r>
       <r>    -6.3775     5.1879     6.7872 </r>
       <r>    -6.3075     4.4777     7.1004 </r>
       <r>    -6.2376     4.3416     7.4041 </r>
       <r>    -6.1676     4.5237     7.7205 </r>
       <r>    -6.0977     4.6237     8.0440 </r>
       <r>    -6.0277     4.6106     8.3665 </r>
       <r>    -5.9578     4.7584     8.6993 </r>
       <r>    -5.8878     5.1090     9.0567 </r>
       <r>    -5.8179     5.3144     9.4284 </r>
       <r>    -5.7479     5.1589     9.7892 </r>
       <r>    -5.6780     4.7803    10.1236 </r>
       <r>    -5.6081     4.2988    10.4243 </r>
       <r>    -5.5381     3.9184    10.6984 </r>
       <r>    -5.4682     4.2788    10.9976 </r>
       <r>    -5.3982     5.8292    11.4054 </r>
       <r>    -5.3283     8.1549    11.9758 </r>
       <r>    -5.2583    10.6988    12.7241 </r>
       <r>    -5.1884    13.4458    13.6646 </r>
       <r>    -5.1184    16.1886    14.7970 </r>
       <r>    -5.0485    18.1323    16.0653 </r>
       <r>    -4.9785    18.9429    17.3903 </r>
       <r>    -4.9086    19.3427    18.7432 </r>
       <r>    -4.8386    20.2536    20.1599 </r>
       <r>    -4.7687    21.8779    21.6902 </r>
       <r>    -4.6987    23.6447    23.3441 </r>
       <r>    -4.6288    24.9966    25.0925 </r>
       <r>    -4.5589    26.5173    26.9473 </r>
       <r>    -4.4889    29.6575    29.0217 </r>
       <r>    -4.4190    34.7175    31.4501 </r>
       <r>    -4.3490    40.1538    34.2587 </r>
       <r>    -4.2791    44.5604    37.3756 </r>
       <r>    -4.2091    48.2360    40.7496 </r>
       <r>    -4.1392    52.1288    44.3958 </r>
       <r>    -4.0692    55.7598    48.2960 </r>
       <r>    -3.9993    56.7870    52.2681 </r>
       <r>    -3.9293    53.2984    55.9962 </r>
       <r>    -3.8594    46.8434    59.2727 </r>
       <r>    -3.7894    42.3573    62.2355 </r>
       <r>    -3.7195    44.1992    65.3271 </r>
       <r>    -3.6495    52.3293    68.9873 </r>
       <r>    -3.5796    62.5781    73.3645 </r>
       <r>    -3.5096    70.4745    78.2939 </r>
       <r>    -3.4397    74.5401    83.5078 </r>
       <r>    -3.3698    76.0705    88.8287 </r>
       <r>    -3.2998    77.1234    94.2232 </r>
       <r>    -3.2299    79.8739    99.8101 </r>
       <r>    -3.1599    86.4959   105.8602 </r>
       <r>    -3.0900    97.2134   112.6600 </r>
       <r>    -3.0200   108.4596   120.2464 </r>
       <r>    -2.9501   114.7833   128.2751 </r>
       <r>    -2.8801   112.8674   136.1699 </r>
       <r>    -2.8102   103.0773   143.3798 </r>
       <r>    -2.7402    88.3818   149.5618 </r>
       <r>    -2.6703    73.6005   154.7099 </r>
       <r>    -2.6003    65.1943   159.2701 </r>
       <r>    -2.5304    68.7973   164.0822 </r>
       <r>    -2.4604    84.0672   169.9625 </r>
       <r>    -2.3905   102.5826   177.1378 </r>
       <r>    -2.3206   113.8639   185.1022 </r>
       <r>    -2.2506   114.2506   193.0937 </r>
       <r>    -2.1807   108.6270   200.6918 </r>
       <r>    -2.1107   104.0087   207.9669 </r>
       <r>    -2.0408   103.2172   215.1866 </r>
       <r>    -1.9708   105.3790   222.5575 </r>
       <r>    -1.9009   111.2593   230.3397 </r>
       <r>    -1.8309   124.1737   239.0253 </r>
       <r>    -1.7610   142.2971   248.9785 </r>
       <r>    -1.6910   153.2788   259.6999 </r>
       <r>    -1.6211   143.0410   269.7051 </r>
       <r>    -1.5511   110.4605   277.4315 </r>
       <r>    -1.4812    69.2829   282.2776 </r>
       <r>    -1.4112    35.4799   284.7593 </r>
       <r>    -1.3413    15.6839   285.8564 </r>
       <r>    -1.2713     7.0983   286.3529 </r>
       <r>    -1.2014     4.5048   286.6680 </r>
       <r>    -1.1315     5.2573   287.0357 </r>
       <r>    -1.0615     8.7346   287.6467 </r>
       <r>    -0.9916    13.3263   288.5788 </r>
       <r>    -0.9216    15.7922   289.6834 </r>
       <r>    -0.8517    14.0466   290.6659 </r>
       <r>    -0.7817     9.5232   291.3320 </r>
       <r>    -0.7118     5.7980   291.7376 </r>
       <r>    -0.6418     5.2477   292.1046 </r>
       <r>    -0.5719     7.3931   292.6218 </r>
       <r>    -0.5019     9.8009   293.3073 </r>
       <r>    -0.4320    10.3782   294.0332 </r>
       <r>    -0.3620     9.3075   294.6843 </r>
       <r>    -0.2921     8.6344   295.2882 </r>
       <r>    -0.2221     9.7425   295.9697 </r>
       <r>    -0.1522    11.7423   296.7910 </r>
       <r>    -0.0823    12.5262   297.6672 </r>
       <r>    -0.0123    10.9347   298.4320 </r>
       <r>     0.0576     7.6751   298.9689 </r>
       <r>     0.1276     4.5059   299.2840 </r>
       <r>     0.1975     3.0305   299.4960 </r>
       <r>     0.2675     4.0509   299.7794 </r>
       <r>     0.3374     7.1165   300.2771 </r>
       <r>     0.4074    10.3998   301.0046 </r>
       <r>     0.4773    11.8045   301.8303 </r>
       <r>     0.5473    10.8299   302.5878 </r>
       <r>     0.6172     9.2343   303.2337 </r>
       <r>     0.6872     9.3494   303.8877 </r>
       <r>     0.7571    11.3448   304.6812 </r>
       <r>     0.8271    12.6337   305.5649 </r>
       <r>     0.8970    10.7744   306.3185 </r>
       <r>     0.9669     6.4770   306.7716 </r>
       <r>     1.0369     2.7886   306.9666 </r>
       <r>     1.1068     1.7769   307.0909 </r>
       <r>     1.1768     2.9646   307.2983 </r>
       <r>     1.2467     4.7893   307.6333 </r>
       <r>     1.3167     6.6380   308.0976 </r>
       <r>     1.3866     8.8576   308.7171 </r>
       <r>     1.4566    11.1888   309.4997 </r>
       <r>     1.5265    12.3662   310.3647 </r>
       <r>     1.5965    11.6934   311.1826 </r>
       <r>     1.6664    10.1300   311.8912 </r>
       <r>     1.7364     9.1954   312.5344 </r>
       <r>     1.8063     9.4219   313.1934 </r>
       <r>     1.8763    10.4430   313.9239 </r>
       <r>     1.9462    11.8223   314.7508 </r>
       <r>     2.0162    12.9694   315.6580 </r>
       <r>     2.0861    13.0111   316.5681 </r>
       <r>     2.1560    11.7803   317.3921 </r>
       <r>     2.2260    10.3900   318.1188 </r>
       <r>     2.2959     9.9605   318.8155 </r>
       <r>     2.3659    10.2159   319.5301 </r>
       <r>     2.4358     9.8918   320.2220 </r>
       <r>     2.5058     8.2128   320.7965 </r>
       <r>     2.5757     5.8004   321.2022 </r>
       <r>     2.6457     4.3058   321.5033 </r>
       <r>     2.7156     4.9196   321.8475 </r>
       <r>     2.7856     7.0155   322.3382 </r>
       <r>     2.8555     8.6641   322.9442 </r>
       <r>     2.9255     8.7053   323.5531 </r>
       <r>     2.9954     7.7415   324.0946 </r>
       <r>     3.0654     6.9051   324.5776 </r>
       <r>     3.1353     6.4967   325.0320 </r>
       <r>     3.2052     6.2666   325.4703 </r>
       <r>     3.2752     6.2962   325.9107 </r>
       <r>     3.3451     6.8577   326.3904 </r>
       <r>     3.4151     7.6831   326.9278 </r>
       <r>     3.4850     8.1549   327.4982 </r>
       <r>     3.5550     8.2223   328.0734 </r>
       <r>     3.6249     8.3718   328.6589 </r>
       <r>     3.6949     8.7285   329.2695 </r>
       <r>     3.7648     8.9631   329.8964 </r>
       <r>     3.8348     8.8843   330.5178 </r>
       <r>     3.9047     8.3716   331.1034 </r>
       <r>     3.9747     7.1350   331.6025 </r>
       <r>     4.0446     5.2857   331.9722 </r>
       <r>     4.1146     3.7129   332.2319 </r>
       <r>     4.1845     3.2841   332.4616 </r>
       <r>     4.2544     4.0574   332.7454 </r>
       <r>     4.3244     5.6038   333.1374 </r>
       <r>     4.3943     7.6592   333.6731 </r>
       <r>     4.4643    10.1285   334.3816 </r>
       <r>     4.5342    12.6383   335.2656 </r>
       <r>     4.6042    14.4710   336.2778 </r>
       <r>     4.6741    15.1555   337.3379 </r>
       <r>     4.7441    14.8597   338.3772 </r>
       <r>     4.8140    14.0444   339.3596 </r>
       <r>     4.8840    13.0670   340.2736 </r>
       <r>     4.9539    12.1759   341.1253 </r>
       <r>     5.0239    11.6701   341.9415 </r>
       <r>     5.0938    12.1183   342.7892 </r>
       <r>     5.1638    14.0285   343.7704 </r>
       <r>     5.2337    16.6708   344.9365 </r>
       <r>     5.3037    17.8950   346.1882 </r>
       <r>     5.3736    16.1550   347.3182 </r>
       <r>     5.4435    12.2837   348.1774 </r>
       <r>     5.5135     8.6234   348.7806 </r>
       <r>     5.5834     6.8881   349.2624 </r>
       <r>     5.6534     7.2840   349.7719 </r>
       <r>     5.7233     9.2441   350.4185 </r>
       <r>     5.7933    12.2453   351.2750 </r>
       <r>     5.8632    15.5984   352.3660 </r>
       <r>     5.9332    18.0572   353.6291 </r>
       <r>     6.0031    18.5375   354.9257 </r>
       <r>     6.0731    17.2817   356.1345 </r>
       <r>     6.1430    15.8287   357.2417 </r>
       <r>     6.2130    15.7231   358.3415 </r>
       <r>     6.2829    17.2075   359.5451 </r>
       <r>     6.3529    18.8535   360.8638 </r>
       <r>     6.4228    18.5674   362.1626 </r>
       <r>     6.4927    15.5409   363.2496 </r>
       <r>     6.5627    11.3812   364.0457 </r>
       <r>     6.6326     8.8639   364.6657 </r>
       <r>     6.7026     9.2811   365.3149 </r>
       <r>     6.7725    11.4083   366.1128 </r>
       <r>     6.8425    13.3583   367.0472 </r>
       <r>     6.9124    14.6416   368.0713 </r>
       <r>     6.9824    15.8413   369.1794 </r>
       <r>     7.0523    17.3152   370.3905 </r>
       <r>     7.1223    19.0115   371.7203 </r>
       <r>     7.1922    20.5444   373.1573 </r>
       <r>     7.2622    20.7334   374.6076 </r>
       <r>     7.3321    18.3749   375.8928 </r>
       <r>     7.4021    14.2756   376.8914 </r>
       <r>     7.4720    11.0372   377.6634 </r>
       <r>     7.5420    10.2433   378.3799 </r>
       <r>     7.6119    11.3528   379.1740 </r>
       <r>     7.6818    13.1446   380.0934 </r>
       <r>     7.7518    14.4299   381.1027 </r>
       <r>     7.8217    13.9280   382.0769 </r>
       <r>     7.8917    11.2648   382.8649 </r>
       <r>     7.9616     7.6721   383.4015 </r>
       <r>     8.0316     4.6679   383.7280 </r>
       <r>     8.1015     2.6600   383.9141 </r>
       <r>     8.1715     1.2995   384.0050 </r>
       <r>     8.2414     0.3805   384.0316 </r>
       <r>     8.3114    -0.0835   384.0257 </r>
       <r>     8.3813    -0.1810   384.0131 </r>
       <r>     8.4513    -0.1190   384.0048 </r>
       <r>     8.5212    -0.0495   384.0013 </r>
       <r>     8.5912    -0.0146   384.0003 </r>
       <r>     8.6611    -0.0032   384.0000 </r>
       <r>     8.7310    -0.0005   384.0000 </r>
       <r>     8.8010    -0.0001   384.0000 </r>
       <r>     8.8709    -0.0000   384.0000 </r>
       <r>     8.9409    -0.0000   384.0000 </r>
       <r>     9.0108    -0.0000   384.0000 </r>
       <r>     9.0808    -0.0000   384.0000 </r>
       <r>     9.1507    -0.0000   384.0000 </r>
       <r>     9.2207    -0.0000   384.0000 </r>
       <r>     9.2906    -0.0000   384.0000 </r>
       <r>     9.3606     0.0000   384.0000 </r>
       <r>     9.4305     0.0000   384.0000 </r>
       <r>     9.5005     0.0000   384.0000 </r>
       <r>     9.5704     0.0000   384.0000 </r>
       <r>     9.6404     0.0000   384.0000 </r>
       <r>     9.7103     0.0000   384.0000 </r>
       <r>     9.7802     0.0000   384.0000 </r>
       <r>     9.8502     0.0000   384.0000 </r>
       <r>     9.9201     0.0000   384.0000 </r>
       <r>     9.9901     0.0000   384.0000 </r>
       <r>    10.0600     0.0000   384.0000 </r>
      </set>
     </set>
    </array>
   </total>
  </dos>
 </calculation>
 <structure name="finalpos" >
  <crystal>
   <varray name="basis" >
    <v>      10.89000034       0.00000000       0.00000000 </v>
    <v>       0.00000000       7.70039320       0.00000000 </v>
    <v>       0.00000000       0.00000000      21.41699400 </v>
   </varray>
   <i name="volume">   1795.97096093 </i>
   <varray name="rec_basis" >
    <v>       0.09182736       0.00000000       0.00000000 </v>
    <v>       0.00000000       0.12986350       0.00000000 </v>
    <v>       0.00000000       0.00000000       0.04669189 </v>
   </varray>
  </crystal>
  <varray name="positions" >
   <v>       0.00000000       0.00000000       0.00000000 </v>
   <v>       0.00000000       0.33333333       0.00000000 </v>
   <v>       0.00000000       0.66666667       0.00000000 </v>
   <v>       0.33333333       0.00000000       0.00000000 </v>
   <v>       0.33333333       0.33333333       0.00000000 </v>
   <v>       0.33333333       0.66666667       0.00000000 </v>
   <v>       0.66666667       0.00000000       0.00000000 </v>
   <v>       0.66666667       0.33333333       0.00000000 </v>
   <v>       0.66666667       0.66666667       0.00000000 </v>
   <v>       0.16666667       0.16666667       0.05992432 </v>
   <v>       0.16666667       0.50000000       0.05992432 </v>
   <v>       0.16666667       0.83333333       0.05992432 </v>
   <v>       0.50000000       0.16666667       0.05992432 </v>
   <v>       0.50000000       0.50000000       0.05992432 </v>
   <v>       0.50000000       0.83333333       0.05992432 </v>
   <v>       0.83333333       0.16666667       0.05992432 </v>
   <v>       0.83333333       0.50000000       0.05992432 </v>
   <v>       0.83333333       0.83333333       0.05992432 </v>
   <v>       0.00000000      -0.00000000       0.11885351 </v>
   <v>      -0.00000000       0.33333333       0.11885351 </v>
   <v>      -0.00000000       0.66666667       0.11885351 </v>
   <v>       0.33333333      -0.00000000       0.11885351 </v>
   <v>       0.33333333       0.33333333       0.11885351 </v>
   <v>       0.33333333       0.66666667       0.11885351 </v>
   <v>       0.66666667       0.00000000       0.11885351 </v>
   <v>       0.66666667       0.33333333       0.11885351 </v>
   <v>       0.66666667       0.66666667       0.11885351 </v>
   <v>       0.16666667       0.16666667       0.17653172 </v>
   <v>       0.16666667       0.50000000       0.17653172 </v>
   <v>       0.16666667       0.83333333       0.17653172 </v>
   <v>       0.50000000       0.16666667       0.17653172 </v>
   <v>       0.50000000       0.50000000       0.17653172 </v>
   <v>       0.50000000       0.83333333       0.17653172 </v>
   <v>       0.83333333       0.16666667       0.17653172 </v>
   <v>       0.83333333       0.50000000       0.17653172 </v>
   <v>       0.83333333       0.83333333       0.17653172 </v>
   <v>      -0.00000000      -0.00000000       0.23845536 </v>
   <v>       0.00000000       0.33333333       0.23845536 </v>
   <v>       0.00000000       0.66666667       0.23845536 </v>
   <v>       0.33333333      -0.00000000       0.23845536 </v>
   <v>       0.33333333       0.33333333       0.23845536 </v>
   <v>       0.33333333       0.66666667       0.23845536 </v>
   <v>       0.66666667      -0.00000000       0.23845536 </v>
   <v>       0.66666667       0.33333333       0.23845536 </v>
   <v>       0.66666667       0.66666667       0.23845536 </v>
   <v>       0.16666667       0.16666667       0.29183992 </v>
   <v>       0.16666667       0.50000000       0.29183992 </v>
   <v>       0.16666667       0.83333333       0.29183992 </v>
   <v>       0.50000000       0.16666667       0.29183992 </v>
   <v>       0.50000000       0.50000000       0.29183992 </v>
   <v>       0.50000000       0.83333333       0.29183992 </v>
   <v>       0.83333333       0.16666667       0.29183992 </v>
   <v>       0.83333333       0.50000000       0.29183992 </v>
   <v>       0.83333333       0.83333333       0.29183992 </v>
  </varray>
  <varray name="selective"  type="logical" >
   <v type="logical" >  F  F  F </v>
   <v type="logical" >  F  F  F </v>
   <v type="logical" >  F  F  F </v>
   <v type="logical" >  F  F  F </v>
   <v type="logical" >  F  F  F </v>
   <v type="logical" >  F  F  F </v>
   <v type="logical" >  F  F  F </v>
   <v type="logical" >  F  F  F </v>
   <v type="logical" >  F  F  F </v>
   <v type="logical" >  F  F  F </v>
   <v type="logical" >  F  F  F </v>
   <v type="logical" >  F  F  F </v>
   <v type="logical" >  F  F  F </v>
   <v type="logical" >  F  F  F </v>
   <v type="logical" >  F  F  F </v>
   <v type="logical" >  F  F  F </v>
   <v type="logical" >  F  F  F </v>
   <v type="logical" >  F  F  F </v>
   <v type="logical" >  T  T  T </v>
   <v type="logical" >  T  T  T </v>
   <v type="logical" >  T  T  T </v>
   <v type="logical" >  T  T  T </v>
   <v type="logical" >  T  T  T </v>
   <v type="logical" >  T  T  T </v>
   <v type="logical" >  T  T  T </v>
   <v type="logical" >  T  T  T </v>
   <v type="logical" >  T  T  T </v>
   <v type="logical" >  T  T  T </v>
   <v type="logical" >  T  T  T </v>
   <v type="logical" >  T  T  T </v>
   <v type="logical" >  T  T  T </v>
   <v type="logical" >  T  T  T </v>
   <v type="logical" >  T  T  T </v>
   <v type="logical" >  T  T  T </v>
   <v type="logical" >  T  T  T </v>
   <v type="logical" >  T  T  T </v>
   <v type="logical" >  T  T  T </v>
   <v type="logical" >  T  T  T </v>
   <v type="logical" >  T  T  T </v>
   <v type="logical" >  T  T  T </v>
   <v type="logical" >  T  T  T </v>
   <v type="logical" >  T  T  T </v>
   <v type="logical" >  T  T  T </v>
   <v type="logical" >  T  T  T </v>
   <v type="logical" >  T  T  T </v>
   <v type="logical" >  T  T  T </v>
   <v type="logical" >  T  T  T </v>
   <v type="logical" >  T  T  T </v>
   <v type="logical" >  T  T  T </v>
   <v type="logical" >  T  T  T </v>
   <v type="logical" >  T  T  T </v>
   <v type="logical" >  T  T  T </v>
   <v type="logical" >  T  T  T </v>
   <v type="logical" >  T  T  T </v>
  </varray>
  <nose>
   <v>      -3.00000000       0.00000000       0.00010000       0.00010000 </v>
  </nose>
 </structure>
</modeling>
