 vasp.6.3.2 27Jun22 (build Aug 17 2022 15:43:34) complex                        
  
 executed on           tv2STDVTST date 2025.01.21  12:32:46
 running   20 mpi-ranks, with    1 threads/rank
 distrk:  each k-point on   20 cores,    1 groups
 distr:  one band on NCORE=   5 cores,    4 groups


--------------------------------------------------------------------------------------------------------


 -----------------------------------------------------------------------------
|                                                                             |
|           W    W    AA    RRRRR   N    N  II  N    N   GGGG   !!!           |
|           W    W   A  A   R    R  NN   N  II  NN   N  G    G  !!!           |
|           W    W  A    A  R    R  N N  N  II  N N  N  G       !!!           |
|           W WW W  AAAAAA  RRRRR   N  N N  II  N  N N  G  GGG   !            |
|           WW  WW  A    A  R   R   N   NN  II  N   NN  G    G                |
|           W    W  A    A  R    R  N    N  II  N    N   GGGG   !!!           |
|                                                                             |
|     Found issues when parsing the INCAR file                                |
|     In line 64: Tagname --- R W I G S contains invalid characters.          |
|     Please check if the interpretation in the OUTCAR file is correct.       |
|                                                                             |
 -----------------------------------------------------------------------------

 INCAR:
    = \=\=\=\=\=\=\=\=\=\=\=\=\=\=\=\=\=\=\=\=\=\=\=\=\=\=\=\=\=\=\=\=\=\=\=\=\=\=\=\=\=\=\=\=\=\=\=\=\=\=\=\=\=\=\=\=\=\=\=\=\=\=\=\=\=\=\=\=\=\=\=\=
    = \=\=\=\=\=\=\=\=\=\=\=\=\=\=\=\=\=\=\=\=\=\=\=\=\=\=\=\=\=\=\=\=\=\=\=\=\=\=\=\=\=\=\=\=\=\=\=\=\=\=\=\=\=\=\=\=\=\=\=\=\=\=\=\=\=\=\=\=\=\=\=\=
   ISTART = 0
   ICHARG = 2
   IPIPOL = 3
   IVDW = 11
   IDIPOL = 3
   IVDW = 11
    = \=\=\=\=\=\=\=\=\=\=\=\=\=\=\=\=\=\=\=\=\=\=\=\=\=\=\=\=\=\=\=\=\=\=\=\=\=\=\=\=\=\=\=\=\=\=\=\=\=\=\=\=\=\=\=\=\=\=\=\=\=\=\=\=\=\=\=\=\=\=\=\=
    = \=\=\=\=\=\=\=\=\=\=\=\=\=\=\=\=\=\=\=\=\=\=\=\=\=\=\=\=\=\=\=\=\=\=\=\=\=\=\=\=\=\=\=\=\=\=\=\=\=\=\=\=\=\=\=\=\=\=\=\=\=\=\=\=\=\=\=\=\=\=\=\=
   ISPIN = 2
    = \=\=\=\=\=\=\=\=\=\=\=\=\=\=\=\=\=\=\=\=\=\=\=\=\=\=\=\=\=\=\=\=\=\=\=\=\=\=\=\=\=\=\=\=\=\=\=\=\=\=\=\=\=\=\=\=\=\=\=\=\=\=\=\=\=\=\=\=\=\=\=\=
    = \=\=\=\=\=\=\=\=\=\=\=\=\=\=\=\=\=\=\=\=\=\=\=\=\=\=\=\=\=\=\=\=\=\=\=\=\=\=\=\=\=\=\=\=\=\=\=\=\=\=\=\=\=\=\=\=\=\=\=\=\=\=\=\=\=\=\=\=\=\=\=\=
   ENCUT = 400
   PREC = Normal
   EDIFF = 2E-04
   GGA = PE
   ISMEAR = 1
   SIGMA = 0.2
   LREAL = .FALSE.
    = \=\=\=\=\=\=\=\=\=\=\=\=\=\=\=\=\=\=\=\=\=\=\=\=\=\=\=\=\=\=\=\=\=\=\=\=\=\=\=\=\=\=\=\=\=\=\=\=\=\=\=\=\=\=\=\=\=\=\=\=\=\=\=\=\=\=\=\=\=\=\=\=
    = \=\=\=\=\=\=\=\=\=\=\=\=\=\=\=\=\=\=\=\=\=\=\=\=\=\=\=\=\=\=\=\=\=\=\=\=\=\=\=\=\=\=\=\=\=\=\=\=\=\=\=\=\=\=\=\=\=\=\=\=\=\=\=\=\=\=\=\=\=\=\=\=
   ISYM = 1
   NSW = 800
   IBRION = 2
   POTIM = 0.5
   ISIF = 2
   EDIFFG = -.03
    = \=\=\=\=\=\=\=\=\=\=\=\=\=\=\=\=\=\=\=\=\=\=\=\=\=\=\=\=\=\=\=\=\=\=\=\=\=\=\=\=\=\=\=\=\=\=\=\=\=\=\=\=\=\=\=\=\=\=\=\=\=\=\=\=\=\=\=\=\=\=\=\=
    = \=\=\=\=\=\=\=\=\=\=\=\=\=\=\=\=\=\=\=\=\=\=\=\=\=\=\=\=\=\=\=\=\=\=\=\=\=\=\=\=\=\=\=\=\=\=\=\=\=\=\=\=\=\=\=\=\=\=\=\=\=\=\=\=\=\=\=\=\=\=\=\=
   NPAR = 4
   LWAVE = .FALSE.
   LCHARG = .FALSE.

 POTCAR:    PAW_PBE Cu 22Jun2005                  
 -----------------------------------------------------------------------------
|                                                                             |
|           W    W    AA    RRRRR   N    N  II  N    N   GGGG   !!!           |
|           W    W   A  A   R    R  NN   N  II  NN   N  G    G  !!!           |
|           W    W  A    A  R    R  N N  N  II  N N  N  G       !!!           |
|           W WW W  AAAAAA  RRRRR   N  N N  II  N  N N  G  GGG   !            |
|           WW  WW  A    A  R   R   N   NN  II  N   NN  G    G                |
|           W    W  A    A  R    R  N    N  II  N    N   GGGG   !!!           |
|                                                                             |
|     You use a magnetic or noncollinear calculation, but did not specify     |
|     the initial magnetic moment with the MAGMOM tag. Note that a            |
|     default of 1 will be used for all atoms. This ferromagnetic setup       |
|     may break the symmetry of the crystal, in particular it may rule        |
|     out finding an antiferromagnetic solution. Thence, we recommend         |
|     setting the initial magnetic moment manually or verifying carefully     |
|     that this magnetic setup is desired.                                    |
|                                                                             |
 -----------------------------------------------------------------------------

 POTCAR:    PAW_PBE Cu 22Jun2005                  
   SHA256 =  0e71e558f37a4e8407882b4609ceaae59938afaad9ced71dfe8490308a0ab630 Cu/POTCAR             
   COPYR  = (c) Copyright 22Jun2005 Georg Kresse                                                    
   COPYR  = This file is part of the software VASP. Any use, copying, and all other rights are regul
   COPYR  = If you do not have a valid VASP license, you may not use, copy or distribute this file. 
   VRHFIN =Cu: d10 p1                                                                               
   LEXCH  = PE                                                                                      
   EATOM  =  1390.9808 eV,  102.2342 Ry                                                             
                                                                                                    
   TITEL  = PAW_PBE Cu 22Jun2005                                                                    
   LULTRA =        F    use ultrasoft PP ?                                                          
   IUNSCR =        1    unscreen: 0-lin 1-nonlin 2-no                                               
   RPACOR =    2.000    partial core radius                                                         
   POMASS =   63.546; ZVAL   =   11.000    mass and valenz                                          
   RCORE  =    2.300    outmost cutoff radius                                                       
   RWIGS  =    2.200; RWIGS  =    1.164    wigner-seitz radius (au A)                               
   ENMAX  =  295.446; ENMIN  =  221.585 eV                                                          
   ICORE  =        3    local potential                                                             
   LCOR   =        T    correct aug charges                                                         
   LPAW   =        T    paw PP                                                                      
   EAUG   =  586.980                                                                                
   DEXC   =    0.000                                                                                
   RMAX   =    2.344    core radius for proj-oper                                                   
   RAUG   =    1.300    factor for augmentation sphere                                              
   RDEP   =    2.302    radius for radial grids                                                     
   RDEPT  =    1.771    core radius for aug-charge                                                  
                                                                                                    
   Atomic configuration                                                                             
    9 entries                                                                                       
     n  l   j            E        occ.                                                              
     1  0  0.50     -8850.2468   2.0000                                                             
     2  0  0.50     -1062.3498   2.0000                                                             
     2  1  1.50      -916.8226   6.0000                                                             
     3  0  0.50      -114.6929   2.0000                                                             
     3  1  1.50       -72.1325   6.0000                                                             
     3  2  2.50        -5.0394  10.0000                                                             
     4  0  0.50        -4.6097   1.0000                                                             
     4  1  0.50        -4.0817   0.0000                                                             
     4  3  2.50        -1.3606   0.0000                                                             
   Description                                                                                      
     l       E           TYP  RCUT    TYP  RCUT                                                     
     2     -5.0393973     23  2.200                                                                 
     2     10.8846608     23  2.200                                                                 
     0     -4.6097109     23  2.200                                                                 
     0      8.2520465     23  2.200                                                                 
     1     -2.7211652     23  2.200                                                                 
     1     21.7055443     23  2.200                                                                 
     3      2.7211652     23  2.300                                                                 
  local pseudopotential read in
  partial core-charges read in
  partial kinetic energy density read in
  atomic valenz-charges read in
  non local Contribution for L=           2  read in
    real space projection operators read in
  non local Contribution for L=           2  read in
    real space projection operators read in
  non local Contribution for L=           0  read in
    real space projection operators read in
  non local Contribution for L=           0  read in
    real space projection operators read in
  non local Contribution for L=           1  read in
    real space projection operators read in
  non local Contribution for L=           1  read in
    real space projection operators read in
    PAW grid and wavefunctions read in
 
   number of l-projection  operators is LMAX  =           6
   number of lm-projection operators is LMMAX =          18
 
  PAW_PBE Cu 22Jun2005                  :
 energy of atom  1       EATOM=-1390.9808
 kinetic energy error for atom=    0.0232 (will be added to EATOM!!)
 
 
 POSCAR: FCC Cu
  positions in cartesian coordinates
  velocities in cartesian coordinates
  No initial velocities read in
 exchange correlation table for  LEXCH =        8
   RHO(1)=    0.500       N(1)  =     2000
   RHO(2)=  100.500       N(2)  =     4000

 VTST: version 4.2, (08/11/21)

 CHAIN: initializing optimizer
 
 OPT: Using VASP Conjugate-Gradient optimizer
 CHAIN: Read ICHAIN            0
 
 POSCAR: FCC Cu
  positions in cartesian coordinates
  velocities in cartesian coordinates
  No initial velocities read in
 


--------------------------------------------------------------------------------------------------------


 ion  position               nearest neighbor table
   1  0.000  0.000  0.000-   3 2.57   4 2.57   3 2.57   4 2.57   2 2.57   2 2.57   2 2.57   2 2.57

   2  0.500  0.500  0.000-   3 2.57   4 2.57   3 2.57   4 2.57   1 2.57   1 2.57   1 2.57   1 2.57

   3  0.000  0.500  0.070-   5 2.57   6 2.57   5 2.57   6 2.57   2 2.57   1 2.57   2 2.57   1 2.57
                             4 2.57   4 2.57   4 2.57   4 2.57
   4  0.500  0.000  0.070-   5 2.57   6 2.57   5 2.57   6 2.57   2 2.57   1 2.57   2 2.57   1 2.57
                             3 2.57   3 2.57   3 2.57   3 2.57
   5  0.000  0.000  0.140-   3 2.57   4 2.57   3 2.57   4 2.57   7 2.57   8 2.57   7 2.57   8 2.57
                             6 2.57   6 2.57   6 2.57   6 2.57
   6  0.500  0.500  0.140-   3 2.57   4 2.57   3 2.57   4 2.57   7 2.57   8 2.57   7 2.57   8 2.57
                             5 2.57   5 2.57   5 2.57   5 2.57
   7  0.000  0.500  0.210-   9 2.57  10 2.57   9 2.57  10 2.57   6 2.57   5 2.57   6 2.57   5 2.57
                             8 2.57   8 2.57   8 2.57   8 2.57
   8  0.500  0.000  0.210-   9 2.57  10 2.57   9 2.57  10 2.57   6 2.57   5 2.57   6 2.57   5 2.57
                             7 2.57   7 2.57   7 2.57   7 2.57
   9  0.000  0.000  0.280-   7 2.57   8 2.57  11 2.57  12 2.57   7 2.57  11 2.57   8 2.57  12 2.57
                            10 2.57  10 2.57  10 2.57  10 2.57
  10  0.500  0.500  0.280-   7 2.57   8 2.57  11 2.57  12 2.57   7 2.57  11 2.57   8 2.57  12 2.57
                             9 2.57   9 2.57   9 2.57   9 2.57
  11  0.000  0.500  0.351-  13 2.57  14 2.57  13 2.57  14 2.57  10 2.57   9 2.57  10 2.57   9 2.57
                            12 2.57  12 2.57  12 2.57  12 2.57
  12  0.500  0.000  0.351-  13 2.57  14 2.57  13 2.57  14 2.57  10 2.57   9 2.57  10 2.57   9 2.57
                            11 2.57  11 2.57  11 2.57  11 2.57
  13  0.000  0.000  0.421-  11 2.57  12 2.57  11 2.57  12 2.57  14 2.57  14 2.57  14 2.57  14 2.57

  14  0.500  0.500  0.421-  11 2.57  12 2.57  11 2.57  12 2.57  13 2.57  13 2.57  13 2.57  13 2.57

 
  LATTYP: Found a simple tetragonal cell.
 ALAT       =     3.6300001144
 C/A-ratio  =     7.1322311802
  
  Lattice vectors:
  
 A1 = (   3.6300001144,   0.0000000000,   0.0000000000)
 A2 = (   0.0000000000,   3.6300001144,   0.0000000000)
 A3 = (   0.0000000000,   0.0000000000,  25.8900000000)


Analysis of symmetry for initial positions (statically):
=====================================================================
 Subroutine PRICEL returns following result:
 
  LATTYP: Found a simple tetragonal cell.
 ALAT       =     2.5667976966
 C/A-ratio  =    10.0864980650
  
  Lattice vectors:
  
 A1 = (   1.8150000570,  -1.8150000574,   0.0000000000)
 A2 = (   1.8150000570,   1.8150000570,   0.0000000000)
 A3 = (   0.0000000000,   0.0000000000,  25.8900000000)
 
   2 primitive cells build up your supercell.
 

 Routine SETGRP: Setting up the symmetry group for a 
 simple tetragonal supercell.


 Subroutine GETGRP returns: Found 16 space group operations
 (whereof  8 operations were pure point group operations)
 out of a pool of 16 trial point group operations.


The static configuration has the point symmetry C_4v.
 The point group associated with its full space group is D_4h.


Analysis of symmetry for dynamics (positions and initial velocities):
=====================================================================
 Subroutine PRICEL returns following result:
 
  LATTYP: Found a simple tetragonal cell.
 ALAT       =     2.5667976966
 C/A-ratio  =    10.0864980650
  
  Lattice vectors:
  
 A1 = (   1.8150000570,  -1.8150000574,   0.0000000000)
 A2 = (   1.8150000570,   1.8150000570,   0.0000000000)
 A3 = (   0.0000000000,   0.0000000000,  25.8900000000)
 
   2 primitive cells build up your supercell.
 

 Routine SETGRP: Setting up the symmetry group for a 
 simple tetragonal supercell.


 Subroutine GETGRP returns: Found 16 space group operations
 (whereof  8 operations were pure point group operations)
 out of a pool of 16 trial point group operations.


The dynamic configuration has the point symmetry C_4v.
 The point group associated with its full space group is D_4h.


Analysis of constrained symmetry for selective dynamics:
=====================================================================
 Subroutine PRICEL returns following result:
 
  LATTYP: Found a simple tetragonal cell.
 ALAT       =     2.5667976966
 C/A-ratio  =    10.0864980650
  
  Lattice vectors:
  
 A1 = (   1.8150000570,  -1.8150000574,   0.0000000000)
 A2 = (   1.8150000570,   1.8150000570,   0.0000000000)
 A3 = (   0.0000000000,   0.0000000000,  25.8900000000)
 
   2 primitive cells build up your supercell.
 

 Routine SETGRP: Setting up the symmetry group for a 
 simple tetragonal supercell.


 Subroutine GETGRP returns: Found  8 space group operations
 (whereof  8 operations were pure point group operations)
 out of a pool of 16 trial point group operations.


The constrained configuration has the point symmetry C_4v.


Analysis of structural, dynamic, and magnetic symmetry:
=====================================================================
 Subroutine PRICEL returns following result:
 
  LATTYP: Found a simple tetragonal cell.
 ALAT       =     2.5667976966
 C/A-ratio  =    10.0864980650
  
  Lattice vectors:
  
 A1 = (   1.8150000570,  -1.8150000574,   0.0000000000)
 A2 = (   1.8150000570,   1.8150000570,   0.0000000000)
 A3 = (   0.0000000000,   0.0000000000,  25.8900000000)
 
   2 primitive cells build up your supercell.
 

 Routine SETGRP: Setting up the symmetry group for a 
 simple tetragonal supercell.


 Subroutine GETGRP returns: Found  8 space group operations
 (whereof  8 operations were pure point group operations)
 out of a pool of 16 trial point group operations.


The overall configuration has the point symmetry C_4v.


 Subroutine INISYM returns: Found  8 space group operations
 (whereof  8 operations are pure point group operations),
 and found     2 'primitive' translations


----------------------------------------------------------------------------------------

                                     Primitive cell                                     

  volume of cell :     170.5750

  direct lattice vectors                    reciprocal lattice vectors
     1.815000057 -1.815000057  0.000000000     0.275482085 -0.275482085  0.000000000
     1.815000057  1.815000057  0.000000000     0.275482085  0.275482085  0.000000000
     0.000000000  0.000000000 25.890000000     0.000000000  0.000000000  0.038624952

  length of vectors
     2.566797697  2.566797696 25.890000000     0.389590501  0.389590501  0.038624952

  position of ions in fractional coordinates (direct lattice)
     0.000000000  0.000000000  0.000000000
     0.500000000  0.500000000  0.070104288
     0.000000000  0.000000000  0.140208577
     0.500000000  0.500000000  0.210312865
     0.000000000  0.000000000  0.280417153
     0.500000000  0.500000000  0.350521442
     0.000000000  0.000000000  0.420625730

  ion indices of the primitive-cell ions
   primitive index   ion index
                 1           1
                 2           3
                 3           5
                 4           7
                 5           9
                 6          11
                 7          13

----------------------------------------------------------------------------------------

 
 
 KPOINTS: Auto-mesh                               

Automatic generation of k-mesh.
 Grid dimensions read from file:
 generate k-points for:    3    3    1

 Generating k-lattice:

  Cartesian coordinates                     Fractional coordinates (reciprocal lattice)
     0.091827362  0.000000000  0.000000000     0.333333333  0.000000000  0.000000000
     0.000000000  0.091827362  0.000000000     0.000000000  0.333333333  0.000000000
     0.000000000  0.000000000  0.038624952     0.000000000  0.000000000  1.000000000

  Length of vectors
     0.091827362  0.091827362  0.038624952

  Shift w.r.t. Gamma in fractional coordinates (k-lattice)
     0.000000000  0.000000000  0.000000000

 
 Subroutine IBZKPT returns following result:
 ===========================================
 
 Found      3 irreducible k-points:
 
 Following reciprocal coordinates:
            Coordinates               Weight
  0.000000  0.000000  0.000000      1.000000
  0.333333  0.000000  0.000000      4.000000
  0.333333  0.333333  0.000000      4.000000
 
 Following cartesian coordinates:
            Coordinates               Weight
  0.000000  0.000000  0.000000      1.000000
  0.091827  0.000000  0.000000      4.000000
  0.091827  0.091827  0.000000      4.000000
 


--------------------------------------------------------------------------------------------------------




 Dimension of arrays:
   k-points           NKPTS =      3   k-points in BZ     NKDIM =      3   number of bands    NBANDS=    100
   number of dos      NEDOS =    301   number of ions     NIONS =     14
   non local maximal  LDIM  =      6   non local SUM 2l+1 LMDIM =     18
   total plane-waves  NPLWV =  41472
   max r-space proj   IRMAX =      1   max aug-charges    IRDMAX=   3720
   dimension x,y,z NGX =    18 NGY =   18 NGZ =  128
   dimension x,y,z NGXF=    36 NGYF=   36 NGZF=  256
   support grid    NGXF=    36 NGYF=   36 NGZF=  256
   ions per type =              14
   NGX,Y,Z   is equivalent  to a cutoff of   8.24,  8.24,  8.22 a.u.
   NGXF,Y,Z  is equivalent  to a cutoff of  16.49, 16.49, 16.44 a.u.

 SYSTEM =  unknown system                          
 POSCAR =  FCC Cu                                  

 Startparameter for this run:
   NWRITE =      2    write-flag & timer
   PREC   = normal    normal or accurate (medium, high low for compatibility)
   ISTART =      0    job   : 0-new  1-cont  2-samecut
   ICHARG =      2    charge: 1-file 2-atom 10-const
   ISPIN  =      2    spin polarized calculation?
   LNONCOLLINEAR =      F non collinear calculations
   LSORBIT =      F    spin-orbit coupling
   INIWAV =      1    electr: 0-lowe 1-rand  2-diag
   LASPH  =      F    aspherical Exc in radial PAW
 Electronic Relaxation 1
   ENCUT  =  400.0 eV  29.40 Ry    5.42 a.u.   5.92  5.92 42.22*2*pi/ulx,y,z
   ENINI  =  400.0     initial cutoff
   ENAUG  =  587.0 eV  augmentation charge cutoff
   NELM   =     60;   NELMIN=  2; NELMDL= -5     # of ELM steps 
   EDIFF  = 0.2E-03   stopping-criterion for ELM
   LREAL  =      F    real-space projection
   NLSPLINE    = F    spline interpolate recip. space projectors
   LCOMPAT=      F    compatible to vasp.4.4
   GGA_COMPAT  = T    GGA compatible to vasp.4.4-vasp.4.6
   LMAXPAW     = -100 max onsite density
   LMAXMIX     =    2 max onsite mixed and CHGCAR
   VOSKOWN=      0    Vosko Wilk Nusair interpolation
   ROPT   =    0.00000
 Ionic relaxation
   EDIFFG = -.3E-01   stopping-criterion for IOM
   NSW    =    800    number of steps for IOM
   NBLOCK =      1;   KBLOCK =    800    inner block; outer block 
   IBRION =      2    ionic relax: 0-MD 1-quasi-New 2-CG
   NFREE  =      1    steps in history (QN), initial steepest desc. (CG)
   ISIF   =      2    stress and relaxation
   IWAVPR =     11    prediction:  0-non 1-charg 2-wave 3-comb
   ISYM   =      1    0-nonsym 1-usesym 2-fastsym
   LCORR  =      T    Harris-Foulkes like correction to forces

   POTIM  = 0.5000    time-step for ionic-motion
   TEIN   =    0.0    initial temperature
   TEBEG  =    0.0;   TEEND  =   0.0 temperature during run
   SMASS  =  -3.00    Nose mass-parameter (am)
   estimated Nose-frequenzy (Omega)   =  0.10E-29 period in steps = 0.13E+47 mass=  -0.301E-27a.u.
   SCALEE = 1.0000    scale energy and forces
   NPACO  =    256;   APACO  = 10.0  distance and # of slots for P.C.
   PSTRESS=    0.0 pullay stress

  Mass of Ions in am
   POMASS =  63.55
  Ionic Valenz
   ZVAL   =  11.00
  Atomic Wigner-Seitz radii
   RWIGS  =  -1.00
  virtual crystal weights 
   VCA    =   1.00
   NELECT =     154.0000    total number of electrons
   NUPDOWN=      -1.0000    fix difference up-down

 DOS related values:
   EMIN   =  10.00;   EMAX   =-10.00  energy-range for DOS
   EFERMI =   0.00
   ISMEAR =     1;   SIGMA  =   0.20  broadening in eV -4-tet -1-fermi 0-gaus

 Electronic relaxation 2 (details)
   IALGO  =     38    algorithm
   LDIAG  =      T    sub-space diagonalisation (order eigenvalues)
   LSUBROT=      F    optimize rotation matrix (better conditioning)
   TURBO    =      0    0=normal 1=particle mesh
   IRESTART =      0    0=no restart 2=restart with 2 vectors
   NREBOOT  =      0    no. of reboots
   NMIN     =      0    reboot dimension
   EREF     =   0.00    reference energy to select bands
   IMIX   =      4    mixing-type and parameters
     AMIX     =   0.40;   BMIX     =  1.00
     AMIX_MAG =   1.60;   BMIX_MAG =  1.00
     AMIN     =   0.10
     WC   =   100.;   INIMIX=   1;  MIXPRE=   1;  MAXMIX= -45

 Intra band minimization:
   WEIMIN = 0.0010     energy-eigenvalue tresh-hold
   EBREAK =  0.50E-06  absolut break condition
   DEPER  =   0.30     relativ break condition  

   TIME   =   0.40     timestep for ELM

  volume/ion in A,a.u.               =      24.37       164.44
  Fermi-wavevector in a.u.,A,eV,Ry     =   1.255837  2.373188 21.458112  1.577127
  Thomas-Fermi vector in A             =   2.389574
 
 Write flags
   LWAVE        =      F    write WAVECAR
   LDOWNSAMPLE  =      F    k-point downsampling of WAVECAR
   LCHARG       =      F    write CHGCAR
   LVTOT        =      F    write LOCPOT, total local potential
   LVHAR        =      F    write LOCPOT, Hartree potential only
   LELF         =      F    write electronic localiz. function (ELF)
   LORBIT       =      0    0 simple, 1 ext, 2 COOP (PROOUT), +10 PAW based schemes


 Dipole corrections
   LMONO  =      F    monopole corrections only (constant potential shift)
   LDIPOL =      F    correct potential (dipole corrections)
   IDIPOL =      3    1-x, 2-y, 3-z, 4-all directions 
   EPSILON=  1.0000000 bulk dielectric constant

 Exchange correlation treatment:
   GGA     =    PE    GGA type
   LEXCH   =     8    internal setting for exchange type
   LIBXC   =     F    Libxc                    
   VOSKOWN =     0    Vosko Wilk Nusair interpolation
   LHFCALC =     F    Hartree Fock is set to
   LHFONE  =     F    Hartree Fock one center treatment
   AEXX    =    0.0000 exact exchange contribution

 Linear response parameters
   LEPSILON=     F    determine dielectric tensor
   LRPA    =     F    only Hartree local field effects (RPA)
   LNABLA  =     F    use nabla operator in PAW spheres
   LVEL    =     F    velocity operator in full k-point grid
   CSHIFT  =0.1000    complex shift for real part using Kramers Kronig
   OMEGAMAX=  -1.0    maximum frequency
   DEG_THRESHOLD= 0.2000000E-02 threshold for treating states as degnerate
   RTIME   =   -0.100 relaxation time in fs
  (WPLASMAI=    0.000 imaginary part of plasma frequency in eV, 0.658/RTIME)
   DFIELD  = 0.0000000 0.0000000 0.0000000 field for delta impulse in time
 
  Optional k-point grid parameters
   LKPOINTS_OPT  =     F    use optional k-point grid
   KPOINTS_OPT_MODE=     1    mode for optional k-point grid
 
 Orbital magnetization related:
   ORBITALMAG=     F  switch on orbital magnetization
   LCHIMAG   =     F  perturbation theory with respect to B field
   DQ        =  0.001000  dq finite difference perturbation B field
   LLRAUG    =     F  two centre corrections for induced B field



--------------------------------------------------------------------------------------------------------


 conjugate gradient relaxation of ions
   using selective dynamics as specified on POSCAR
   WARNING: If single coordinates had been selected the selection of coordinates
            is made according to the corresponding   d i r e c t   coordinates!
            Don't support selection of single cartesian coordinates -- sorry ...
  !
 charge density and potential will be updated during run
 spin polarized calculation
 Variant of blocked Davidson
 Davidson routine will perform the subspace rotation
 perform sub-space diagonalisation
    after iterative eigenvector-optimisation
 modified Broyden-mixing scheme, WC =      100.0
 initial mixing is a Kerker type mixing with AMIX =  0.4000 and BMIX =      1.0000
 Hartree-type preconditioning will be used
 using additional bands           23
 reciprocal scheme for non local part
 use partial core corrections
 calculate Harris-corrections to forces 
   (improved forces if not selfconsistent)
 use gradient corrections 
 use of overlap-Matrix (Vanderbilt PP)
 Methfessel and Paxton  Order N= 1 SIGMA  =   0.20


--------------------------------------------------------------------------------------------------------


  energy-cutoff  :      400.00
  volume of cell :      341.15
      direct lattice vectors                 reciprocal lattice vectors
     3.630000114  0.000000000  0.000000000     0.275482085  0.000000000  0.000000000
     0.000000000  3.630000114  0.000000000     0.000000000  0.275482085  0.000000000
     0.000000000  0.000000000 25.890000000     0.000000000  0.000000000  0.038624952

  length of vectors
     3.630000114  3.630000114 25.890000000     0.275482085  0.275482085  0.038624952


 
 k-points in units of 2pi/SCALE and weight: Auto-mesh                               
   0.00000000  0.00000000  0.00000000       0.111
   0.09182736  0.00000000  0.00000000       0.444
   0.09182736  0.09182736  0.00000000       0.444
 
 k-points in reciprocal lattice and weights: Auto-mesh                               
   0.00000000  0.00000000  0.00000000       0.111
   0.33333333  0.00000000  0.00000000       0.444
   0.33333333  0.33333333  0.00000000       0.444
 
 position of ions in fractional coordinates (direct lattice) 
   0.00000000  0.00000000  0.00000000
   0.50000000  0.50000000  0.00000000
   0.00000000  0.50000000  0.07010429
   0.50000000  0.00000000  0.07010429
   0.00000000  0.00000000  0.14020858
   0.50000000  0.50000000  0.14020858
   0.00000000  0.50000000  0.21031287
   0.50000000  0.00000000  0.21031287
   0.00000000  0.00000000  0.28041715
   0.50000000  0.50000000  0.28041715
   0.00000000  0.50000000  0.35052144
   0.50000000  0.00000000  0.35052144
   0.00000000  0.00000000  0.42062573
   0.50000000  0.50000000  0.42062573
 
 position of ions in cartesian coordinates  (Angst):
   0.00000000  0.00000000  0.00000000
   1.81500006  1.81500006  0.00000000
   0.00000000  1.81500006  1.81500003
   1.81500006  0.00000000  1.81500003
   0.00000000  0.00000000  3.63000005
   1.81500006  1.81500006  3.63000005
   0.00000000  1.81500006  5.44500008
   1.81500006  0.00000000  5.44500008
   0.00000000  0.00000000  7.26000010
   1.81500006  1.81500006  7.26000010
   0.00000000  1.81500006  9.07500013
   1.81500006  0.00000000  9.07500013
   0.00000000  0.00000000 10.89000015
   1.81500006  1.81500006 10.89000015
 


--------------------------------------------------------------------------------------------------------


 k-point   1 :   0.0000 0.0000 0.0000  plane waves:    6185
 k-point   2 :   0.3333 0.0000 0.0000  plane waves:    6178
 k-point   3 :   0.3333 0.3333 0.0000  plane waves:    6210

 maximum and minimum number of plane-waves per node :      1262     1214

 maximum number of plane-waves:      6210
 maximum index in each direction: 
   IXMAX=    5   IYMAX=    5   IZMAX=   42
   IXMIN=   -6   IYMIN=   -6   IZMIN=  -42


 parallel 3D FFT for wavefunctions:
    minimum data exchange during FFTs selected (reduces bandwidth)
 parallel 3D FFT for charge:
    minimum data exchange during FFTs selected (reduces bandwidth)


 total amount of memory used by VASP MPI-rank0    36974. kBytes
=======================================================================

   base      :      30000. kBytes
   nonl-proj :        813. kBytes
   fftplans  :        884. kBytes
   grid      :       2074. kBytes
   one-center:         93. kBytes
   wavefun   :       3110. kBytes
 
     INWAV:  cpu time      0.0000: real time      0.0004
 Broyden mixing: mesh for mixing (old mesh)
   NGX = 11   NGY = 11   NGZ = 85
  (NGX  = 36   NGY  = 36   NGZ  =256)
  gives a total of  10285 points

 initial charge density was supplied:
 charge density of overlapping atoms calculated
 number of electron     154.0000000 magnetization      14.0000000
 keeping initial charge density in first step


--------------------------------------------------------------------------------------------------------


 Maximum index for augmentation-charges          277 (set IRDMAX)


--------------------------------------------------------------------------------------------------------


 First call to EWALD:  gamma=   0.254
 Maximum number of real-space cells 5x 5x 1
 Maximum number of reciprocal cells 2x 2x 9

    FEWALD:  cpu time      0.0019: real time      0.0019


--------------------------------------- Iteration      1(   1)  ---------------------------------------


    POTLOK:  cpu time      0.0245: real time      0.0248
    SETDIJ:  cpu time      0.0071: real time      0.0071
     EDDAV:  cpu time      0.6303: real time      0.6355
       DOS:  cpu time      0.0013: real time      0.0013
    --------------------------------------------
      LOOP:  cpu time      0.6631: real time      0.6687

 eigenvalue-minimisations  :  1200
 total energy-change (2. order) : 0.1400875E+04  (-0.5630215E+04)
 number of electron     154.0000000 magnetization      14.0000000
 augmentation part      154.0000000 magnetization      14.0000000

 Free energy of the ion-electron system (eV)
  ---------------------------------------------------
  alpha Z        PSCENC =       420.16799357
  Ewald energy   TEWEN  =     77561.47120639
  -Hartree energ DENC   =    -96604.57969930
  -exchange      EXHF   =         0.00000000
  -V(xc)+E(xc)   XCENC  =       639.64453959
  PAW double counting   =     17193.36494469   -18674.89304135
  entropy T*S    EENTRO =        -0.00408757
  eigenvalues    EBANDS =      1392.29664230
  atomic energy  EATOM  =     19473.40696280
  Solvation  Ediel_sol  =         0.00000000
  ---------------------------------------------------
  free energy    TOTEN  =      1400.87546111 eV

  energy without entropy =     1400.87954868  energy(sigma->0) =     1400.87682363


--------------------------------------------------------------------------------------------------------




--------------------------------------- Iteration      1(   2)  ---------------------------------------


     EDDAV:  cpu time      0.6315: real time      0.6375
       DOS:  cpu time      0.0010: real time      0.0010
    --------------------------------------------
      LOOP:  cpu time      0.6325: real time      0.6385

 eigenvalue-minimisations  :  1200
 total energy-change (2. order) :-0.1251234E+04  (-0.1202510E+04)
 number of electron     154.0000000 magnetization      14.0000000
 augmentation part      154.0000000 magnetization      14.0000000

 Free energy of the ion-electron system (eV)
  ---------------------------------------------------
  alpha Z        PSCENC =       420.16799357
  Ewald energy   TEWEN  =     77561.47120639
  -Hartree energ DENC   =    -96604.57969930
  -exchange      EXHF   =         0.00000000
  -V(xc)+E(xc)   XCENC  =       639.64453959
  PAW double counting   =     17193.36494469   -18674.89304135
  entropy T*S    EENTRO =        -0.03810360
  eigenvalues    EBANDS =       141.09653686
  atomic energy  EATOM  =     19473.40696280
  Solvation  Ediel_sol  =         0.00000000
  ---------------------------------------------------
  free energy    TOTEN  =       149.64133963 eV

  energy without entropy =      149.67944324  energy(sigma->0) =      149.65404083


--------------------------------------------------------------------------------------------------------




--------------------------------------- Iteration      1(   3)  ---------------------------------------


     EDDAV:  cpu time      0.6171: real time      0.6226
       DOS:  cpu time      0.0011: real time      0.0011
    --------------------------------------------
      LOOP:  cpu time      0.6182: real time      0.6237

 eigenvalue-minimisations  :  1208
 total energy-change (2. order) :-0.1971928E+03  (-0.1799767E+03)
 number of electron     154.0000000 magnetization      14.0000000
 augmentation part      154.0000000 magnetization      14.0000000

 Free energy of the ion-electron system (eV)
  ---------------------------------------------------
  alpha Z        PSCENC =       420.16799357
  Ewald energy   TEWEN  =     77561.47120639
  -Hartree energ DENC   =    -96604.57969930
  -exchange      EXHF   =         0.00000000
  -V(xc)+E(xc)   XCENC  =       639.64453959
  PAW double counting   =     17193.36494469   -18674.89304135
  entropy T*S    EENTRO =         0.00408604
  eigenvalues    EBANDS =       -56.13841390
  atomic energy  EATOM  =     19473.40696280
  Solvation  Ediel_sol  =         0.00000000
  ---------------------------------------------------
  free energy    TOTEN  =       -47.55142149 eV

  energy without entropy =      -47.55550752  energy(sigma->0) =      -47.55278350


--------------------------------------------------------------------------------------------------------




--------------------------------------- Iteration      1(   4)  ---------------------------------------


     EDDAV:  cpu time      0.6739: real time      0.6793
       DOS:  cpu time      0.0011: real time      0.0011
    --------------------------------------------
      LOOP:  cpu time      0.6750: real time      0.6804

 eigenvalue-minimisations  :  1356
 total energy-change (2. order) :-0.1095034E+02  (-0.1076530E+02)
 number of electron     154.0000000 magnetization      14.0000000
 augmentation part      154.0000000 magnetization      14.0000000

 Free energy of the ion-electron system (eV)
  ---------------------------------------------------
  alpha Z        PSCENC =       420.16799357
  Ewald energy   TEWEN  =     77561.47120639
  -Hartree energ DENC   =    -96604.57969930
  -exchange      EXHF   =         0.00000000
  -V(xc)+E(xc)   XCENC  =       639.64453959
  PAW double counting   =     17193.36494469   -18674.89304135
  entropy T*S    EENTRO =         0.00936762
  eigenvalues    EBANDS =       -67.09403149
  atomic energy  EATOM  =     19473.40696280
  Solvation  Ediel_sol  =         0.00000000
  ---------------------------------------------------
  free energy    TOTEN  =       -58.50175749 eV

  energy without entropy =      -58.51112511  energy(sigma->0) =      -58.50488003


--------------------------------------------------------------------------------------------------------




--------------------------------------- Iteration      1(   5)  ---------------------------------------


     EDDAV:  cpu time      0.6760: real time      0.6818
       DOS:  cpu time      0.0011: real time      0.0011
    CHARGE:  cpu time      0.1088: real time      0.1092
    MIXING:  cpu time      0.0041: real time      0.0041
    --------------------------------------------
      LOOP:  cpu time      0.7899: real time      0.7963

 eigenvalue-minimisations  :  1368
 total energy-change (2. order) :-0.2296203E+00  (-0.2292494E+00)
 number of electron     154.0002703 magnetization      13.0433708
 augmentation part       91.1310499 magnetization      12.5231033

 Broyden mixing:
  rms(total) = 0.33605E+01    rms(broyden)= 0.33600E+01
  rms(prec ) = 0.34624E+01
  weight for this iteration     100.00

 Free energy of the ion-electron system (eV)
  ---------------------------------------------------
  alpha Z        PSCENC =       420.16799357
  Ewald energy   TEWEN  =     77561.47120639
  -Hartree energ DENC   =    -96604.57969930
  -exchange      EXHF   =         0.00000000
  -V(xc)+E(xc)   XCENC  =       639.64453959
  PAW double counting   =     17193.36494469   -18674.89304135
  entropy T*S    EENTRO =         0.00957854
  eigenvalues    EBANDS =       -67.32386273
  atomic energy  EATOM  =     19473.40696280
  Solvation  Ediel_sol  =         0.00000000
  ---------------------------------------------------
  free energy    TOTEN  =       -58.73137781 eV

  energy without entropy =      -58.74095635  energy(sigma->0) =      -58.73457065


--------------------------------------------------------------------------------------------------------




--------------------------------------- Iteration      1(   6)  ---------------------------------------


    POTLOK:  cpu time      0.0242: real time      0.0245
    SETDIJ:  cpu time      0.0073: real time      0.0073
     EDDAV:  cpu time      0.6598: real time      0.6653
       DOS:  cpu time      0.0012: real time      0.0012
    CHARGE:  cpu time      0.1063: real time      0.1067
    MIXING:  cpu time      0.0016: real time      0.0016
    --------------------------------------------
      LOOP:  cpu time      0.8003: real time      0.8066

 eigenvalue-minimisations  :  1308
 total energy-change (2. order) : 0.9782697E+01  (-0.1381861E+02)
 number of electron     154.0003007 magnetization      12.4336768
 augmentation part      102.8444428 magnetization       8.8351920

 Broyden mixing:
  rms(total) = 0.17490E+01    rms(broyden)= 0.17482E+01
  rms(prec ) = 0.18083E+01
  weight for this iteration     100.00

 eigenvalues of (default mixing * dielectric matrix)
  average eigenvalue GAMMA=   0.7859
  0.7859

 Free energy of the ion-electron system (eV)
  ---------------------------------------------------
  alpha Z        PSCENC =       420.16799357
  Ewald energy   TEWEN  =     77561.47120639
  -Hartree energ DENC   =    -96243.71579533
  -exchange      EXHF   =         0.00000000
  -V(xc)+E(xc)   XCENC  =       622.65999180
  PAW double counting   =     17388.17871448   -18794.01676644
  entropy T*S    EENTRO =         0.02394086
  eigenvalues    EBANDS =      -477.12492855
  atomic energy  EATOM  =     19473.40696280
  Solvation  Ediel_sol  =         0.00000000
  ---------------------------------------------------
  free energy    TOTEN  =       -48.94868042 eV

  energy without entropy =      -48.97262129  energy(sigma->0) =      -48.95666071


--------------------------------------------------------------------------------------------------------




--------------------------------------- Iteration      1(   7)  ---------------------------------------


    POTLOK:  cpu time      0.0220: real time      0.0223
    SETDIJ:  cpu time      0.0063: real time      0.0063
     EDDAV:  cpu time      0.6532: real time      0.6587
       DOS:  cpu time      0.0010: real time      0.0010
    CHARGE:  cpu time      0.1028: real time      0.1033
    MIXING:  cpu time      0.0017: real time      0.0017
    --------------------------------------------
      LOOP:  cpu time      0.7869: real time      0.7933

 eigenvalue-minimisations  :  1308
 total energy-change (2. order) : 0.6639642E+01  (-0.3208799E+01)
 number of electron     154.0002893 magnetization      11.5824066
 augmentation part       98.4142501 magnetization       8.0208472

 Broyden mixing:
  rms(total) = 0.75909E+00    rms(broyden)= 0.75888E+00
  rms(prec ) = 0.76506E+00
  weight for this iteration     100.00

 eigenvalues of (default mixing * dielectric matrix)
  average eigenvalue GAMMA=   0.8497
  1.0581  0.6414

 Free energy of the ion-electron system (eV)
  ---------------------------------------------------
  alpha Z        PSCENC =       420.16799357
  Ewald energy   TEWEN  =     77561.47120639
  -Hartree energ DENC   =    -96430.27025608
  -exchange      EXHF   =         0.00000000
  -V(xc)+E(xc)   XCENC  =       630.49928171
  PAW double counting   =     17753.10630535   -19229.33103791
  entropy T*S    EENTRO =         0.01750664
  eigenvalues    EBANDS =      -221.37700081
  atomic energy  EATOM  =     19473.40696280
  Solvation  Ediel_sol  =         0.00000000
  ---------------------------------------------------
  free energy    TOTEN  =       -42.30903835 eV

  energy without entropy =      -42.32654499  energy(sigma->0) =      -42.31487389


--------------------------------------------------------------------------------------------------------




--------------------------------------- Iteration      1(   8)  ---------------------------------------


    POTLOK:  cpu time      0.0216: real time      0.0219
    SETDIJ:  cpu time      0.0062: real time      0.0063
     EDDAV:  cpu time      0.6678: real time      0.6730
       DOS:  cpu time      0.0010: real time      0.0010
    CHARGE:  cpu time      0.1022: real time      0.1027
    MIXING:  cpu time      0.0015: real time      0.0015
    --------------------------------------------
      LOOP:  cpu time      0.8004: real time      0.8063

 eigenvalue-minimisations  :  1352
 total energy-change (2. order) : 0.1198472E+01  (-0.4651004E+00)
 number of electron     154.0002884 magnetization      11.0319340
 augmentation part       98.1563621 magnetization       7.4032228

 Broyden mixing:
  rms(total) = 0.72565E+00    rms(broyden)= 0.72559E+00
  rms(prec ) = 0.73815E+00
  weight for this iteration     100.00

 eigenvalues of (default mixing * dielectric matrix)
  average eigenvalue GAMMA=   0.7265
  1.0817  0.5488  0.5488

 Free energy of the ion-electron system (eV)
  ---------------------------------------------------
  alpha Z        PSCENC =       420.16799357
  Ewald energy   TEWEN  =     77561.47120639
  -Hartree energ DENC   =    -96425.63472561
  -exchange      EXHF   =         0.00000000
  -V(xc)+E(xc)   XCENC  =       631.12098867
  PAW double counting   =     17999.83854448   -19492.78423444
  entropy T*S    EENTRO =         0.00830547
  eigenvalues    EBANDS =      -208.70560762
  atomic energy  EATOM  =     19473.40696280
  Solvation  Ediel_sol  =         0.00000000
  ---------------------------------------------------
  free energy    TOTEN  =       -41.11056631 eV

  energy without entropy =      -41.11887177  energy(sigma->0) =      -41.11333479


--------------------------------------------------------------------------------------------------------




--------------------------------------- Iteration      1(   9)  ---------------------------------------


    POTLOK:  cpu time      0.0209: real time      0.0212
    SETDIJ:  cpu time      0.0061: real time      0.0061
     EDDAV:  cpu time      0.7123: real time      0.7183
       DOS:  cpu time      0.0010: real time      0.0010
    CHARGE:  cpu time      0.1056: real time      0.1061
    MIXING:  cpu time      0.0016: real time      0.0016
    --------------------------------------------
      LOOP:  cpu time      0.8475: real time      0.8544

 eigenvalue-minimisations  :  1428
 total energy-change (2. order) : 0.2447955E+00  (-0.1364180E+00)
 number of electron     154.0002882 magnetization       9.0610255
 augmentation part       98.1138185 magnetization       5.4003021

 Broyden mixing:
  rms(total) = 0.62089E+00    rms(broyden)= 0.62087E+00
  rms(prec ) = 0.62589E+00
  weight for this iteration     100.00

 eigenvalues of (default mixing * dielectric matrix)
  average eigenvalue GAMMA=   0.8919
  1.2273  1.2273  0.7173  0.3956

 Free energy of the ion-electron system (eV)
  ---------------------------------------------------
  alpha Z        PSCENC =       420.16799357
  Ewald energy   TEWEN  =     77561.47120639
  -Hartree energ DENC   =    -96437.92447792
  -exchange      EXHF   =         0.00000000
  -V(xc)+E(xc)   XCENC  =       630.73859594
  PAW double counting   =     18103.79822645   -19602.58215562
  entropy T*S    EENTRO =         0.00796014
  eigenvalues    EBANDS =      -189.95008261
  atomic energy  EATOM  =     19473.40696280
  Solvation  Ediel_sol  =         0.00000000
  ---------------------------------------------------
  free energy    TOTEN  =       -40.86577085 eV

  energy without entropy =      -40.87373100  energy(sigma->0) =      -40.86842423


--------------------------------------------------------------------------------------------------------




--------------------------------------- Iteration      1(  10)  ---------------------------------------


    POTLOK:  cpu time      0.0221: real time      0.0224
    SETDIJ:  cpu time      0.0065: real time      0.0065
     EDDAV:  cpu time      0.8672: real time      0.8742
       DOS:  cpu time      0.0010: real time      0.0010
    CHARGE:  cpu time      0.1037: real time      0.1046
    MIXING:  cpu time      0.0017: real time      0.0017
    --------------------------------------------
      LOOP:  cpu time      1.0022: real time      1.0104

 eigenvalue-minimisations  :  1860
 total energy-change (2. order) :-0.5360945E+00  (-0.3639045E+00)
 number of electron     154.0002898 magnetization       7.8193803
 augmentation part       98.3587804 magnetization       4.6515556

 Broyden mixing:
  rms(total) = 0.64763E+00    rms(broyden)= 0.64751E+00
  rms(prec ) = 0.86510E+00
  weight for this iteration     100.00

 eigenvalues of (default mixing * dielectric matrix)
  average eigenvalue GAMMA=   0.9754
  2.3723  1.0501  0.6999  0.3773  0.3773

 Free energy of the ion-electron system (eV)
  ---------------------------------------------------
  alpha Z        PSCENC =       420.16799357
  Ewald energy   TEWEN  =     77561.47120639
  -Hartree energ DENC   =    -96436.09608931
  -exchange      EXHF   =         0.00000000
  -V(xc)+E(xc)   XCENC  =       629.05396406
  PAW double counting   =     18362.92635280   -19873.93738838
  entropy T*S    EENTRO =        -0.03682148
  eigenvalues    EBANDS =      -178.35804578
  atomic energy  EATOM  =     19473.40696280
  Solvation  Ediel_sol  =         0.00000000
  ---------------------------------------------------
  free energy    TOTEN  =       -41.40186533 eV

  energy without entropy =      -41.36504385  energy(sigma->0) =      -41.38959150


--------------------------------------------------------------------------------------------------------




--------------------------------------- Iteration      1(  11)  ---------------------------------------


    POTLOK:  cpu time      0.0209: real time      0.0212
    SETDIJ:  cpu time      0.0062: real time      0.0062
     EDDAV:  cpu time      0.9095: real time      0.9171
       DOS:  cpu time      0.0010: real time      0.0010
    CHARGE:  cpu time      0.1026: real time      0.1031
    MIXING:  cpu time      0.0016: real time      0.0016
    --------------------------------------------
      LOOP:  cpu time      1.0419: real time      1.0502

 eigenvalue-minimisations  :  1976
 total energy-change (2. order) :-0.6123076E-01  (-0.1061639E+01)
 number of electron     154.0002886 magnetization       5.5271478
 augmentation part       98.5304827 magnetization       2.6974640

 Broyden mixing:
  rms(total) = 0.58008E+00    rms(broyden)= 0.57990E+00
  rms(prec ) = 0.84995E+00
  weight for this iteration     100.00

 eigenvalues of (default mixing * dielectric matrix)
  average eigenvalue GAMMA=   1.0904
  3.7190  0.9669  0.6432  0.6432  0.4131  0.1568

 Free energy of the ion-electron system (eV)
  ---------------------------------------------------
  alpha Z        PSCENC =       420.16799357
  Ewald energy   TEWEN  =     77561.47120639
  -Hartree energ DENC   =    -96448.34437095
  -exchange      EXHF   =         0.00000000
  -V(xc)+E(xc)   XCENC  =       628.35650057
  PAW double counting   =     18496.34413363   -20014.13486839
  entropy T*S    EENTRO =        -0.04468848
  eigenvalues    EBANDS =      -158.68596522
  atomic energy  EATOM  =     19473.40696280
  Solvation  Ediel_sol  =         0.00000000
  ---------------------------------------------------
  free energy    TOTEN  =       -41.46309609 eV

  energy without entropy =      -41.41840761  energy(sigma->0) =      -41.44819993


--------------------------------------------------------------------------------------------------------




--------------------------------------- Iteration      1(  12)  ---------------------------------------


    POTLOK:  cpu time      0.0209: real time      0.0212
    SETDIJ:  cpu time      0.0061: real time      0.0062
     EDDAV:  cpu time      0.9707: real time      0.9787
       DOS:  cpu time      0.0010: real time      0.0010
    CHARGE:  cpu time      0.1052: real time      0.1059
    MIXING:  cpu time      0.0016: real time      0.0016
    --------------------------------------------
      LOOP:  cpu time      1.1057: real time      1.1146

 eigenvalue-minimisations  :  2132
 total energy-change (2. order) : 0.1782916E+00  (-0.4614743E+00)
 number of electron     154.0002899 magnetization       4.3482835
 augmentation part       98.7175992 magnetization       1.4550639

 Broyden mixing:
  rms(total) = 0.38547E+00    rms(broyden)= 0.38530E+00
  rms(prec ) = 0.45457E+00
  weight for this iteration     100.00

 eigenvalues of (default mixing * dielectric matrix)
  average eigenvalue GAMMA=   1.2856
  5.2969  1.2103  0.7484  0.7484  0.4276  0.4276  0.1396

 Free energy of the ion-electron system (eV)
  ---------------------------------------------------
  alpha Z        PSCENC =       420.16799357
  Ewald energy   TEWEN  =     77561.47120639
  -Hartree energ DENC   =    -96474.39295924
  -exchange      EXHF   =         0.00000000
  -V(xc)+E(xc)   XCENC  =       627.44563651
  PAW double counting   =     18687.16276792   -20215.63448124
  entropy T*S    EENTRO =        -0.01083744
  eigenvalues    EBANDS =      -120.90109373
  atomic energy  EATOM  =     19473.40696280
  Solvation  Ediel_sol  =         0.00000000
  ---------------------------------------------------
  free energy    TOTEN  =       -41.28480447 eV

  energy without entropy =      -41.27396703  energy(sigma->0) =      -41.28119199


--------------------------------------------------------------------------------------------------------




--------------------------------------- Iteration      1(  13)  ---------------------------------------


    POTLOK:  cpu time      0.0208: real time      0.0210
    SETDIJ:  cpu time      0.0061: real time      0.0061
     EDDAV:  cpu time      0.9285: real time      0.9360
       DOS:  cpu time      0.0010: real time      0.0010
    CHARGE:  cpu time      0.1070: real time      0.1078
    MIXING:  cpu time      0.0019: real time      0.0019
    --------------------------------------------
      LOOP:  cpu time      1.0652: real time      1.0739

 eigenvalue-minimisations  :  1984
 total energy-change (2. order) :-0.1424826E+01  (-0.1865534E+00)
 number of electron     154.0002898 magnetization       3.2652476
 augmentation part       98.7212627 magnetization       1.2499226

 Broyden mixing:
  rms(total) = 0.37712E+00    rms(broyden)= 0.37700E+00
  rms(prec ) = 0.44124E+00
  weight for this iteration     100.00

 eigenvalues of (default mixing * dielectric matrix)
  average eigenvalue GAMMA=   1.4481
  7.0061  1.3673  0.8551  0.8551  0.6423  0.4049  0.3165  0.1371

 Free energy of the ion-electron system (eV)
  ---------------------------------------------------
  alpha Z        PSCENC =       420.16799357
  Ewald energy   TEWEN  =     77561.47120639
  -Hartree energ DENC   =    -96454.45029798
  -exchange      EXHF   =         0.00000000
  -V(xc)+E(xc)   XCENC  =       626.73167488
  PAW double counting   =     18639.91968438   -20166.36523019
  entropy T*S    EENTRO =         0.00587838
  eigenvalues    EBANDS =      -143.59750284
  atomic energy  EATOM  =     19473.40696280
  Solvation  Ediel_sol  =         0.00000000
  ---------------------------------------------------
  free energy    TOTEN  =       -42.70963062 eV

  energy without entropy =      -42.71550900  energy(sigma->0) =      -42.71159008


--------------------------------------------------------------------------------------------------------




--------------------------------------- Iteration      1(  14)  ---------------------------------------


    POTLOK:  cpu time      0.0219: real time      0.0221
    SETDIJ:  cpu time      0.0064: real time      0.0065
     EDDAV:  cpu time      0.8298: real time      0.8363
       DOS:  cpu time      0.0010: real time      0.0010
    CHARGE:  cpu time      0.1046: real time      0.1050
    MIXING:  cpu time      0.0019: real time      0.0019
    --------------------------------------------
      LOOP:  cpu time      0.9655: real time      0.9728

 eigenvalue-minimisations  :  1772
 total energy-change (2. order) :-0.1873366E+01  (-0.1983418E+00)
 number of electron     154.0002888 magnetization       2.3261131
 augmentation part       98.3955999 magnetization       0.5344409

 Broyden mixing:
  rms(total) = 0.22511E+00    rms(broyden)= 0.22499E+00
  rms(prec ) = 0.31404E+00
  weight for this iteration     100.00

 eigenvalues of (default mixing * dielectric matrix)
  average eigenvalue GAMMA=   1.6268
  9.1705  1.7860  0.8406  0.8406  0.6359  0.5455  0.4162  0.2678  0.1380

 Free energy of the ion-electron system (eV)
  ---------------------------------------------------
  alpha Z        PSCENC =       420.16799357
  Ewald energy   TEWEN  =     77561.47120639
  -Hartree energ DENC   =    -96480.92883318
  -exchange      EXHF   =         0.00000000
  -V(xc)+E(xc)   XCENC  =       626.13332104
  PAW double counting   =     18503.51252823   -20023.95166793
  entropy T*S    EENTRO =        -0.03378484
  eigenvalues    EBANDS =      -124.36072228
  atomic energy  EATOM  =     19473.40696280
  Solvation  Ediel_sol  =         0.00000000
  ---------------------------------------------------
  free energy    TOTEN  =       -44.58299620 eV

  energy without entropy =      -44.54921136  energy(sigma->0) =      -44.57173459


--------------------------------------------------------------------------------------------------------




--------------------------------------- Iteration      1(  15)  ---------------------------------------


    POTLOK:  cpu time      0.0208: real time      0.0214
    SETDIJ:  cpu time      0.0062: real time      0.0063
     EDDAV:  cpu time      0.8227: real time      0.8291
       DOS:  cpu time      0.0010: real time      0.0010
    CHARGE:  cpu time      0.1011: real time      0.1017
    MIXING:  cpu time      0.0019: real time      0.0019
    --------------------------------------------
      LOOP:  cpu time      0.9538: real time      0.9614

 eigenvalue-minimisations  :  1748
 total energy-change (2. order) :-0.1606285E+01  (-0.1892832E+00)
 number of electron     154.0002885 magnetization       1.5978354
 augmentation part       98.1508905 magnetization       0.4117329

 Broyden mixing:
  rms(total) = 0.18845E+00    rms(broyden)= 0.18823E+00
  rms(prec ) = 0.23143E+00
  weight for this iteration     100.00

 eigenvalues of (default mixing * dielectric matrix)
  average eigenvalue GAMMA=   1.7366
 11.0222  2.1491  1.0593  0.6873  0.6873  0.6128  0.3941  0.3727  0.1381  0.2430

 Free energy of the ion-electron system (eV)
  ---------------------------------------------------
  alpha Z        PSCENC =       420.16799357
  Ewald energy   TEWEN  =     77561.47120639
  -Hartree energ DENC   =    -96479.50343338
  -exchange      EXHF   =         0.00000000
  -V(xc)+E(xc)   XCENC  =       625.65901770
  PAW double counting   =     18381.28487270   -19896.24167768
  entropy T*S    EENTRO =        -0.03298969
  eigenvalues    EBANDS =      -132.40123325
  atomic energy  EATOM  =     19473.40696280
  Solvation  Ediel_sol  =         0.00000000
  ---------------------------------------------------
  free energy    TOTEN  =       -46.18928084 eV

  energy without entropy =      -46.15629115  energy(sigma->0) =      -46.17828427


--------------------------------------------------------------------------------------------------------




--------------------------------------- Iteration      1(  16)  ---------------------------------------


    POTLOK:  cpu time      0.0208: real time      0.0211
    SETDIJ:  cpu time      0.0062: real time      0.0063
     EDDAV:  cpu time      0.8130: real time      0.8197
       DOS:  cpu time      0.0010: real time      0.0010
    CHARGE:  cpu time      0.1024: real time      0.1028
    MIXING:  cpu time      0.0022: real time      0.0022
    --------------------------------------------
      LOOP:  cpu time      0.9456: real time      0.9530

 eigenvalue-minimisations  :  1728
 total energy-change (2. order) :-0.7389359E+00  (-0.8892945E-01)
 number of electron     154.0002882 magnetization       1.2676175
 augmentation part       98.0506003 magnetization       0.4632323

 Broyden mixing:
  rms(total) = 0.11651E+00    rms(broyden)= 0.11642E+00
  rms(prec ) = 0.14070E+00
  weight for this iteration     100.00

 eigenvalues of (default mixing * dielectric matrix)
  average eigenvalue GAMMA=   1.7450
 12.0106  2.3992  1.0476  0.7165  0.7165  0.5888  0.5888  0.4180  0.3052  0.2652
  0.1381

 Free energy of the ion-electron system (eV)
  ---------------------------------------------------
  alpha Z        PSCENC =       420.16799357
  Ewald energy   TEWEN  =     77561.47120639
  -Hartree energ DENC   =    -96475.27669822
  -exchange      EXHF   =         0.00000000
  -V(xc)+E(xc)   XCENC  =       625.45338222
  PAW double counting   =     18312.22108000   -19823.55683127
  entropy T*S    EENTRO =        -0.04455553
  eigenvalues    EBANDS =      -140.77075665
  atomic energy  EATOM  =     19473.40696280
  Solvation  Ediel_sol  =         0.00000000
  ---------------------------------------------------
  free energy    TOTEN  =       -46.92821670 eV

  energy without entropy =      -46.88366117  energy(sigma->0) =      -46.91336486


--------------------------------------------------------------------------------------------------------




--------------------------------------- Iteration      1(  17)  ---------------------------------------


    POTLOK:  cpu time      0.0207: real time      0.0210
    SETDIJ:  cpu time      0.0061: real time      0.0061
     EDDAV:  cpu time      0.7121: real time      0.7181
       DOS:  cpu time      0.0010: real time      0.0010
    CHARGE:  cpu time      0.1010: real time      0.1015
    MIXING:  cpu time      0.0021: real time      0.0022
    --------------------------------------------
      LOOP:  cpu time      0.8431: real time      0.8499

 eigenvalue-minimisations  :  1472
 total energy-change (2. order) :-0.3199653E+00  (-0.3854334E-01)
 number of electron     154.0002882 magnetization       1.1071495
 augmentation part       98.1414680 magnetization       0.5330722

 Broyden mixing:
  rms(total) = 0.88598E-01    rms(broyden)= 0.88542E-01
  rms(prec ) = 0.98547E-01
  weight for this iteration     100.00

 eigenvalues of (default mixing * dielectric matrix)
  average eigenvalue GAMMA=   1.7328
 12.5603  2.5345  0.8683  0.8683  0.8728  0.7226  0.7226  0.5130  0.4138  0.1381
  0.3254  0.2546

 Free energy of the ion-electron system (eV)
  ---------------------------------------------------
  alpha Z        PSCENC =       420.16799357
  Ewald energy   TEWEN  =     77561.47120639
  -Hartree energ DENC   =    -96462.96154583
  -exchange      EXHF   =         0.00000000
  -V(xc)+E(xc)   XCENC  =       625.18793725
  PAW double counting   =     18277.75830928   -19786.38277751
  entropy T*S    EENTRO =        -0.04518220
  eigenvalues    EBANDS =      -155.85108580
  atomic energy  EATOM  =     19473.40696280
  Solvation  Ediel_sol  =         0.00000000
  ---------------------------------------------------
  free energy    TOTEN  =       -47.24818203 eV

  energy without entropy =      -47.20299984  energy(sigma->0) =      -47.23312130


--------------------------------------------------------------------------------------------------------




--------------------------------------- Iteration      1(  18)  ---------------------------------------


    POTLOK:  cpu time      0.0209: real time      0.0212
    SETDIJ:  cpu time      0.0061: real time      0.0062
     EDDAV:  cpu time      0.6744: real time      0.6800
       DOS:  cpu time      0.0010: real time      0.0010
    CHARGE:  cpu time      0.1063: real time      0.1067
    MIXING:  cpu time      0.0026: real time      0.0026
    --------------------------------------------
      LOOP:  cpu time      0.8113: real time      0.8176

 eigenvalue-minimisations  :  1372
 total energy-change (2. order) :-0.2594151E+00  (-0.1867197E-01)
 number of electron     154.0002885 magnetization       0.7488361
 augmentation part       98.1982420 magnetization       0.3379764

 Broyden mixing:
  rms(total) = 0.73838E-01    rms(broyden)= 0.73813E-01
  rms(prec ) = 0.80904E-01
  weight for this iteration     100.00

 eigenvalues of (default mixing * dielectric matrix)
  average eigenvalue GAMMA=   1.7972
 13.6073  2.6974  1.2464  1.2464  0.9726  0.7372  0.6440  0.6440  0.4210  0.4210
  0.1381  0.3328  0.2554

 Free energy of the ion-electron system (eV)
  ---------------------------------------------------
  alpha Z        PSCENC =       420.16799357
  Ewald energy   TEWEN  =     77561.47120639
  -Hartree energ DENC   =    -96453.42280097
  -exchange      EXHF   =         0.00000000
  -V(xc)+E(xc)   XCENC  =       624.98963325
  PAW double counting   =     18257.13394629   -19764.37219479
  entropy T*S    EENTRO =        -0.04405387
  eigenvalues    EBANDS =      -166.83828985
  atomic energy  EATOM  =     19473.40696280
  Solvation  Ediel_sol  =         0.00000000
  ---------------------------------------------------
  free energy    TOTEN  =       -47.50759718 eV

  energy without entropy =      -47.46354331  energy(sigma->0) =      -47.49291256


--------------------------------------------------------------------------------------------------------




--------------------------------------- Iteration      1(  19)  ---------------------------------------


    POTLOK:  cpu time      0.0223: real time      0.0226
    SETDIJ:  cpu time      0.0065: real time      0.0065
     EDDAV:  cpu time      0.8484: real time      0.8556
       DOS:  cpu time      0.0010: real time      0.0010
    CHARGE:  cpu time      0.1044: real time      0.1049
    MIXING:  cpu time      0.0027: real time      0.0027
    --------------------------------------------
      LOOP:  cpu time      0.9854: real time      0.9933

 eigenvalue-minimisations  :  1808
 total energy-change (2. order) :-0.2538162E+00  (-0.2007176E-01)
 number of electron     154.0002888 magnetization       0.5782926
 augmentation part       98.2964299 magnetization       0.3863858

 Broyden mixing:
  rms(total) = 0.73884E-01    rms(broyden)= 0.73848E-01
  rms(prec ) = 0.10080E+00
  weight for this iteration     100.00

 eigenvalues of (default mixing * dielectric matrix)
  average eigenvalue GAMMA=   1.7383
 14.0053  2.6203  1.5955  1.1609  0.8496  0.8496  0.6127  0.6127  0.1381  0.4572
  0.4290  0.4290  0.2547  0.3211

 Free energy of the ion-electron system (eV)
  ---------------------------------------------------
  alpha Z        PSCENC =       420.16799357
  Ewald energy   TEWEN  =     77561.47120639
  -Hartree energ DENC   =    -96434.78250777
  -exchange      EXHF   =         0.00000000
  -V(xc)+E(xc)   XCENC  =       624.71372734
  PAW double counting   =     18240.56016951   -19746.85278907
  entropy T*S    EENTRO =        -0.03434846
  eigenvalues    EBANDS =      -186.41182772
  atomic energy  EATOM  =     19473.40696280
  Solvation  Ediel_sol  =         0.00000000
  ---------------------------------------------------
  free energy    TOTEN  =       -47.76141341 eV

  energy without entropy =      -47.72706495  energy(sigma->0) =      -47.74996392


--------------------------------------------------------------------------------------------------------




--------------------------------------- Iteration      1(  20)  ---------------------------------------


    POTLOK:  cpu time      0.0217: real time      0.0219
    SETDIJ:  cpu time      0.0062: real time      0.0062
     EDDAV:  cpu time      0.7079: real time      0.7138
       DOS:  cpu time      0.0011: real time      0.0011
    CHARGE:  cpu time      0.1046: real time      0.1051
    MIXING:  cpu time      0.0027: real time      0.0027
    --------------------------------------------
      LOOP:  cpu time      0.8442: real time      0.8508

 eigenvalue-minimisations  :  1460
 total energy-change (2. order) :-0.1746617E+00  (-0.9027167E-02)
 number of electron     154.0002887 magnetization       0.4509337
 augmentation part       98.3003192 magnetization       0.3373299

 Broyden mixing:
  rms(total) = 0.49842E-01    rms(broyden)= 0.49811E-01
  rms(prec ) = 0.51645E-01
  weight for this iteration     100.00

 eigenvalues of (default mixing * dielectric matrix)
  average eigenvalue GAMMA=   1.7592
 14.2610  2.4897  2.4897  1.1441  1.1441  0.8113  0.8113  0.6796  0.5403  0.5403
  0.1381  0.4060  0.2547  0.3599  0.3185

 Free energy of the ion-electron system (eV)
  ---------------------------------------------------
  alpha Z        PSCENC =       420.16799357
  Ewald energy   TEWEN  =     77561.47120639
  -Hartree energ DENC   =    -96429.95434892
  -exchange      EXHF   =         0.00000000
  -V(xc)+E(xc)   XCENC  =       624.55930857
  PAW double counting   =     18245.66148917   -19752.47956850
  entropy T*S    EENTRO =        -0.03291799
  eigenvalues    EBANDS =      -190.73620019
  atomic energy  EATOM  =     19473.40696280
  Solvation  Ediel_sol  =         0.00000000
  ---------------------------------------------------
  free energy    TOTEN  =       -47.93607511 eV

  energy without entropy =      -47.90315712  energy(sigma->0) =      -47.92510245


--------------------------------------------------------------------------------------------------------




--------------------------------------- Iteration      1(  21)  ---------------------------------------


    POTLOK:  cpu time      0.0209: real time      0.0212
    SETDIJ:  cpu time      0.0061: real time      0.0062
     EDDAV:  cpu time      0.7215: real time      0.7278
       DOS:  cpu time      0.0010: real time      0.0010
    CHARGE:  cpu time      0.1036: real time      0.1040
    MIXING:  cpu time      0.0026: real time      0.0026
    --------------------------------------------
      LOOP:  cpu time      0.8558: real time      0.8628

 eigenvalue-minimisations  :  1496
 total energy-change (2. order) :-0.2639583E+00  (-0.6094965E-02)
 number of electron     154.0002886 magnetization       0.3891772
 augmentation part       98.2663486 magnetization       0.3138622

 Broyden mixing:
  rms(total) = 0.43608E-01    rms(broyden)= 0.43593E-01
  rms(prec ) = 0.50256E-01
  weight for this iteration     100.00

 eigenvalues of (default mixing * dielectric matrix)
  average eigenvalue GAMMA=   1.7628
 14.4307  3.3144  2.7329  1.0409  1.0409  0.8906  0.8906  0.5802  0.5802  0.6186
  0.6186  0.1381  0.4099  0.2546  0.3236  0.3400

 Free energy of the ion-electron system (eV)
  ---------------------------------------------------
  alpha Z        PSCENC =       420.16799357
  Ewald energy   TEWEN  =     77561.47120639
  -Hartree energ DENC   =    -96423.57323236
  -exchange      EXHF   =         0.00000000
  -V(xc)+E(xc)   XCENC  =       624.35337349
  PAW double counting   =     18260.64308622   -19768.85937528
  entropy T*S    EENTRO =        -0.03050549
  eigenvalues    EBANDS =      -195.77954277
  atomic energy  EATOM  =     19473.40696280
  Solvation  Ediel_sol  =         0.00000000
  ---------------------------------------------------
  free energy    TOTEN  =       -48.20003342 eV

  energy without entropy =      -48.16952794  energy(sigma->0) =      -48.18986493


--------------------------------------------------------------------------------------------------------




--------------------------------------- Iteration      1(  22)  ---------------------------------------


    POTLOK:  cpu time      0.0209: real time      0.0211
    SETDIJ:  cpu time      0.0061: real time      0.0062
     EDDAV:  cpu time      0.7758: real time      0.7823
       DOS:  cpu time      0.0011: real time      0.0011
    CHARGE:  cpu time      0.1035: real time      0.1039
    MIXING:  cpu time      0.0026: real time      0.0026
    --------------------------------------------
      LOOP:  cpu time      0.9099: real time      0.9172

 eigenvalue-minimisations  :  1636
 total energy-change (2. order) :-0.1947879E+00  (-0.3341698E-02)
 number of electron     154.0002886 magnetization       0.3152263
 augmentation part       98.2463732 magnetization       0.2698258

 Broyden mixing:
  rms(total) = 0.32216E-01    rms(broyden)= 0.32207E-01
  rms(prec ) = 0.35178E-01
  weight for this iteration     100.00

 eigenvalues of (default mixing * dielectric matrix)
  average eigenvalue GAMMA=   1.7757
 14.5140  4.4865  2.4810  1.3905  1.0222  1.0222  0.7139  0.7139  0.6726  0.6726
  0.5146  0.5146  0.1381  0.4068  0.2546  0.3253  0.3430

 Free energy of the ion-electron system (eV)
  ---------------------------------------------------
  alpha Z        PSCENC =       420.16799357
  Ewald energy   TEWEN  =     77561.47120639
  -Hartree energ DENC   =    -96414.87743151
  -exchange      EXHF   =         0.00000000
  -V(xc)+E(xc)   XCENC  =       624.21841205
  PAW double counting   =     18254.43048369   -19762.57679232
  entropy T*S    EENTRO =        -0.03032108
  eigenvalues    EBANDS =      -204.60533495
  atomic energy  EATOM  =     19473.40696280
  Solvation  Ediel_sol  =         0.00000000
  ---------------------------------------------------
  free energy    TOTEN  =       -48.39482135 eV

  energy without entropy =      -48.36450027  energy(sigma->0) =      -48.38471433


--------------------------------------------------------------------------------------------------------




--------------------------------------- Iteration      1(  23)  ---------------------------------------


    POTLOK:  cpu time      0.0212: real time      0.0241
    SETDIJ:  cpu time      0.0061: real time      0.0062
     EDDAV:  cpu time      0.7722: real time      0.7785
       DOS:  cpu time      0.0010: real time      0.0010
    CHARGE:  cpu time      0.1025: real time      0.1029
    MIXING:  cpu time      0.0026: real time      0.0026
    --------------------------------------------
      LOOP:  cpu time      0.9056: real time      0.9154

 eigenvalue-minimisations  :  1632
 total energy-change (2. order) :-0.1526613E+00  (-0.2624683E-02)
 number of electron     154.0002886 magnetization       0.2363205
 augmentation part       98.2585627 magnetization       0.2116495

 Broyden mixing:
  rms(total) = 0.29962E-01    rms(broyden)= 0.29944E-01
  rms(prec ) = 0.37592E-01
  weight for this iteration     100.00

 eigenvalues of (default mixing * dielectric matrix)
  average eigenvalue GAMMA=   1.7796
 14.4524  4.9985  2.6952  1.8087  1.0296  1.0296  0.9418  0.7716  0.6191  0.6191
  0.6220  0.6220  0.1381  0.2546  0.4101  0.3237  0.3479  0.3479

 Free energy of the ion-electron system (eV)
  ---------------------------------------------------
  alpha Z        PSCENC =       420.16799357
  Ewald energy   TEWEN  =     77561.47120639
  -Hartree energ DENC   =    -96405.48547535
  -exchange      EXHF   =         0.00000000
  -V(xc)+E(xc)   XCENC  =       624.06929636
  PAW double counting   =     18246.74198119   -19754.41813568
  entropy T*S    EENTRO =        -0.03078985
  eigenvalues    EBANDS =      -214.47052209
  atomic energy  EATOM  =     19473.40696280
  Solvation  Ediel_sol  =         0.00000000
  ---------------------------------------------------
  free energy    TOTEN  =       -48.54748267 eV

  energy without entropy =      -48.51669281  energy(sigma->0) =      -48.53721938


--------------------------------------------------------------------------------------------------------




--------------------------------------- Iteration      1(  24)  ---------------------------------------


    POTLOK:  cpu time      0.0208: real time      0.0210
    SETDIJ:  cpu time      0.0061: real time      0.0062
     EDDAV:  cpu time      0.7229: real time      0.7284
       DOS:  cpu time      0.0010: real time      0.0011
    CHARGE:  cpu time      0.1032: real time      0.1038
    MIXING:  cpu time      0.0030: real time      0.0030
    --------------------------------------------
      LOOP:  cpu time      0.8570: real time      0.8634

 eigenvalue-minimisations  :  1496
 total energy-change (2. order) :-0.1955476E+00  (-0.2172534E-02)
 number of electron     154.0002886 magnetization       0.1726813
 augmentation part       98.2693896 magnetization       0.1468574

 Broyden mixing:
  rms(total) = 0.17908E-01    rms(broyden)= 0.17895E-01
  rms(prec ) = 0.21969E-01
  weight for this iteration     100.00

 eigenvalues of (default mixing * dielectric matrix)
  average eigenvalue GAMMA=   1.8180
 14.4145  6.0386  3.0223  2.2122  1.0973  1.0336  1.0336  0.6669  0.6669  0.7504
  0.6726  0.5632  0.5632  0.1381  0.4090  0.2546  0.3209  0.3421  0.3421

 Free energy of the ion-electron system (eV)
  ---------------------------------------------------
  alpha Z        PSCENC =       420.16799357
  Ewald energy   TEWEN  =     77561.47120639
  -Hartree energ DENC   =    -96399.98410295
  -exchange      EXHF   =         0.00000000
  -V(xc)+E(xc)   XCENC  =       623.84358494
  PAW double counting   =     18250.67893155   -19758.32614415
  entropy T*S    EENTRO =        -0.03023031
  eigenvalues    EBANDS =      -219.97123211
  atomic energy  EATOM  =     19473.40696280
  Solvation  Ediel_sol  =         0.00000000
  ---------------------------------------------------
  free energy    TOTEN  =       -48.74303028 eV

  energy without entropy =      -48.71279997  energy(sigma->0) =      -48.73295351


--------------------------------------------------------------------------------------------------------




--------------------------------------- Iteration      1(  25)  ---------------------------------------


    POTLOK:  cpu time      0.0207: real time      0.0209
    SETDIJ:  cpu time      0.0058: real time      0.0061
     EDDAV:  cpu time      0.6870: real time      0.6922
       DOS:  cpu time      0.0010: real time      0.0010
    CHARGE:  cpu time      0.1015: real time      0.1019
    MIXING:  cpu time      0.0030: real time      0.0030
    --------------------------------------------
      LOOP:  cpu time      0.8190: real time      0.8252

 eigenvalue-minimisations  :  1404
 total energy-change (2. order) :-0.1373557E+00  (-0.6101319E-03)
 number of electron     154.0002886 magnetization      -0.0200288
 augmentation part       98.2629963 magnetization      -0.0395999

 Broyden mixing:
  rms(total) = 0.13444E-01    rms(broyden)= 0.13441E-01
  rms(prec ) = 0.14549E-01
  weight for this iteration     100.00

 eigenvalues of (default mixing * dielectric matrix)
  average eigenvalue GAMMA=   1.9288
 14.7087  8.0920  2.7716  2.7716  1.3644  1.2445  0.9747  0.9747  0.6948  0.6948
  0.7051  0.6302  0.5690  0.5690  0.1381  0.4097  0.2546  0.3219  0.3430  0.3430

 Free energy of the ion-electron system (eV)
  ---------------------------------------------------
  alpha Z        PSCENC =       420.16799357
  Ewald energy   TEWEN  =     77561.47120639
  -Hartree energ DENC   =    -96396.71281055
  -exchange      EXHF   =         0.00000000
  -V(xc)+E(xc)   XCENC  =       623.71779267
  PAW double counting   =     18251.55634561   -19759.21672870
  entropy T*S    EENTRO =        -0.03004928
  eigenvalues    EBANDS =      -223.24109848
  atomic energy  EATOM  =     19473.40696280
  Solvation  Ediel_sol  =         0.00000000
  ---------------------------------------------------
  free energy    TOTEN  =       -48.88038596 eV

  energy without entropy =      -48.85033668  energy(sigma->0) =      -48.87036953


--------------------------------------------------------------------------------------------------------




--------------------------------------- Iteration      1(  26)  ---------------------------------------


    POTLOK:  cpu time      0.0209: real time      0.0212
    SETDIJ:  cpu time      0.0061: real time      0.0061
     EDDAV:  cpu time      0.7282: real time      0.7342
       DOS:  cpu time      0.0011: real time      0.0011
    CHARGE:  cpu time      0.1035: real time      0.1039
    MIXING:  cpu time      0.0035: real time      0.0035
    --------------------------------------------
      LOOP:  cpu time      0.8632: real time      0.8699

 eigenvalue-minimisations  :  1456
 total energy-change (2. order) :-0.1372178E+00  (-0.5189671E-03)
 number of electron     154.0002886 magnetization       0.0368618
 augmentation part       98.2790004 magnetization       0.0564580

 Broyden mixing:
  rms(total) = 0.11004E-01    rms(broyden)= 0.10996E-01
  rms(prec ) = 0.13472E-01
[...]
     30      -1.6736      1.00000
     31      -1.6709      1.00000
     32      -1.6690      1.00000
     33      -1.6249      1.00000
     34      -1.6077      1.00000
     35      -1.5795      1.00000
     36      -1.5446      1.00000
     37      -1.5387      1.00000
     38      -1.5071      1.00000
     39      -1.4891      1.00000
     40      -1.4835      1.00000
     41      -1.4551      1.00000
     42      -1.4520      1.00000
     43      -1.3430      1.00000
     44      -1.3081      1.00000
     45      -1.2898      1.00000
     46      -1.2416      1.00000
     47      -1.2279      1.00000
     48      -1.1699      1.00000
     49      -1.1671      1.00000
     50      -1.1160      1.00000
     51      -1.0710      1.00000
     52      -1.0367      1.00000
     53      -0.9852      1.00000
     54      -0.9351      1.00000
     55      -0.8257      1.00000
     56      -0.7655      1.00000
     57      -0.6329      1.00000
     58      -0.6152      1.00000
     59      -0.6115      1.00000
     60      -0.5488      1.00000
     61      -0.5288      1.00000
     62      -0.4983      1.00000
     63      -0.4426      1.00000
     64      -0.3737      1.00000
     65      -0.3550      1.00000
     66      -0.3479      1.00000
     67      -0.3457      1.00000
     68      -0.3067      1.00000
     69      -0.2731      1.00000
     70      -0.2556      1.00000
     71      -0.2289      1.00000
     72      -0.2263      1.00000
     73      -0.2047      1.00000
     74      -0.0355      1.00000
     75       1.3015      0.94789
     76       1.3076      0.93578
     77       1.3149      0.92011
     78       1.5799      0.03190
     79       1.6131     -0.00970
     80       1.9897     -0.00031
     81       2.1956     -0.00000
     82       2.4107     -0.00000
     83       2.9949     -0.00000
     84       4.3165     -0.00000
     85       4.8434     -0.00000
     86       5.1354     -0.00000
     87       5.3173     -0.00000
     88       5.4731     -0.00000
     89       6.3136     -0.00000
     90       6.7620     -0.00000
     91       6.8368     -0.00000
     92       7.0010      0.00000
     93       7.9011      0.00000
     94       7.9482      0.00000
     95       8.2120      0.00000
     96       8.7391      0.00000
     97       8.8432      0.00000
     98       9.3991      0.00000
     99       9.4740      0.00000
    100       9.6623      0.00000


--------------------------------------------------------------------------------------------------------


 soft charge-density along one line, spin component           1
         0         1         2         3         4         5         6         7         8         9
 total charge-density along one line
 
 soft charge-density along one line, spin component           2
         0         1         2         3         4         5         6         7         8         9
 total charge-density along one line
 
 pseudopotential strength for first ion, spin component:           1
 -7.258  -0.000  -0.000  -0.000  -0.000  -1.436   0.000   0.000
 -0.000  -7.194  -0.000   0.000   0.000   0.000  -1.486   0.000
 -0.000  -0.000  -7.172  -0.000   0.000   0.000   0.000  -1.503
 -0.000   0.000  -0.000  -7.194  -0.000   0.000  -0.000   0.000
 -0.000   0.000   0.000  -0.000  -7.234   0.000  -0.000  -0.000
 -1.436   0.000   0.000   0.000   0.000   7.998  -0.000  -0.000
  0.000  -1.486   0.000  -0.000  -0.000  -0.000   8.034  -0.000
  0.000   0.000  -1.503   0.000  -0.000  -0.000  -0.000   8.046
  0.000  -0.000   0.000  -1.486   0.000  -0.000   0.000  -0.000
  0.000  -0.000  -0.000   0.000  -1.453  -0.000   0.000   0.000
 -0.000   0.000  -0.010   0.000   0.000  -0.000   0.000   0.004
 -0.000   0.000  -0.018   0.000   0.000  -0.000   0.000   0.006
  0.000  -0.009  -0.000  -0.000  -0.000  -0.000   0.009   0.000
 -0.000   0.000  -0.010   0.000  -0.000  -0.000  -0.000   0.009
  0.000  -0.000  -0.000  -0.009   0.000  -0.000  -0.000   0.000
  0.000  -0.010  -0.000   0.000  -0.000   0.000   0.011  -0.000
  0.000   0.000  -0.011   0.000   0.000  -0.000   0.000   0.011
  0.000   0.000  -0.000  -0.010   0.000   0.000  -0.000  -0.000
 pseudopotential strength for first ion, spin component:           2
 -7.258  -0.000   0.000  -0.000  -0.000  -1.436   0.000  -0.000
 -0.000  -7.194  -0.000  -0.000   0.000   0.000  -1.486   0.000
  0.000  -0.000  -7.172  -0.000   0.000  -0.000   0.000  -1.503
 -0.000  -0.000  -0.000  -7.194  -0.000   0.000   0.000   0.000
 -0.000   0.000   0.000  -0.000  -7.234   0.000  -0.000  -0.000
 -1.436   0.000  -0.000   0.000   0.000   7.998  -0.000   0.000
  0.000  -1.486   0.000   0.000  -0.000  -0.000   8.034  -0.000
 -0.000   0.000  -1.503   0.000  -0.000   0.000  -0.000   8.046
  0.000   0.000   0.000  -1.486   0.000  -0.000  -0.000  -0.000
  0.000  -0.000  -0.000   0.000  -1.453  -0.000   0.000   0.000
  0.000   0.000  -0.010   0.000   0.000   0.000   0.000   0.004
  0.000   0.000  -0.018   0.000   0.000   0.000   0.000   0.006
  0.000  -0.009  -0.000   0.000  -0.000  -0.000   0.009   0.000
  0.000   0.000  -0.010   0.000  -0.000   0.000  -0.000   0.009
  0.000   0.000  -0.000  -0.009   0.000  -0.000   0.000   0.000
  0.000  -0.010  -0.000  -0.000  -0.000   0.000   0.011  -0.000
 -0.000   0.000  -0.011   0.000   0.000   0.000   0.000   0.011
  0.000  -0.000  -0.000  -0.010   0.000   0.000   0.000  -0.000
 total augmentation occupancy for first ion, spin component:           1
  1.896   0.000   0.000  -0.000   0.000  -0.003  -0.000  -0.000  -0.000   0.000   0.000   0.000   0.000  -0.000   0.000   0.000
  0.000   1.930   0.000   0.000   0.000   0.000  -0.026   0.000   0.000  -0.000   0.000   0.000   0.030   0.000   0.000  -0.013
  0.000   0.000   1.941   0.000  -0.000   0.000   0.000  -0.035   0.000   0.000   0.029   0.007   0.000   0.034   0.000   0.000
 -0.000   0.000   0.000   1.930   0.000   0.000   0.000   0.000  -0.026  -0.000   0.000   0.000   0.000   0.000   0.030   0.000
  0.000   0.000   0.000   0.000   1.920   0.000  -0.000   0.000   0.000  -0.031   0.000  -0.000   0.000   0.000   0.000   0.000
 -0.003   0.000   0.000   0.000   0.000   0.011   0.000   0.000   0.000   0.000   0.000   0.000   0.000  -0.000  -0.000   0.000
  0.000  -0.026   0.000  -0.000  -0.000   0.000   0.010   0.000   0.000   0.000   0.000   0.000   0.022   0.000   0.000  -0.001
  0.000   0.000  -0.035   0.000   0.000  -0.000   0.000   0.011   0.000   0.000  -0.038   0.001   0.000   0.019  -0.000   0.000
  0.000   0.000   0.000  -0.026  -0.000  -0.000   0.000   0.000   0.010   0.000  -0.000   0.000   0.000  -0.000   0.022   0.000
  0.000   0.000   0.000   0.000  -0.031  -0.000  -0.000  -0.000   0.000   0.011   0.000   0.000   0.000   0.000  -0.000   0.000
  0.000   0.000   0.029   0.000   0.000   0.000  -0.000  -0.038   0.000   0.000   1.634  -0.122   0.000   0.149  -0.000   0.000
  0.000   0.000   0.007   0.000  -0.000   0.000   0.000   0.001  -0.000   0.000  -0.122   0.015   0.000  -0.025   0.000   0.000
  0.000   0.030   0.000   0.000  -0.000  -0.000   0.022   0.000  -0.000   0.000  -0.000   0.000   0.175  -0.000   0.000  -0.011
  0.000   0.000   0.034   0.000   0.000   0.000   0.000   0.019  -0.000  -0.000   0.149  -0.025   0.000   0.113   0.000   0.000
  0.000   0.000   0.000   0.030   0.000  -0.000   0.000  -0.000   0.022  -0.000  -0.000   0.000  -0.000  -0.000   0.175   0.000
  0.000  -0.013  -0.000   0.000   0.000   0.000  -0.001   0.000  -0.000   0.000   0.000   0.000  -0.011   0.000   0.000   0.001
  0.000  -0.000  -0.015   0.000   0.000   0.000   0.000  -0.001   0.000   0.000  -0.022   0.003   0.000  -0.008   0.000   0.000
 -0.000   0.000   0.000  -0.013   0.000   0.000   0.000  -0.000  -0.001   0.000   0.000   0.000   0.000   0.000  -0.011   0.000
 total augmentation occupancy for first ion, spin component:           2
 -0.000   0.000   0.000   0.000   0.000  -0.000   0.000   0.000  -0.000  -0.000   0.000   0.000   0.000   0.000  -0.000   0.000
  0.000   0.000   0.000   0.000  -0.000   0.000  -0.000   0.000   0.000   0.000   0.000   0.000   0.000   0.000   0.000   0.000
  0.000  -0.000  -0.000   0.000   0.000   0.000   0.000  -0.000   0.000  -0.000  -0.000  -0.000   0.000   0.000   0.000   0.000
  0.000   0.000   0.000   0.000   0.000  -0.000   0.000  -0.000  -0.000   0.000   0.000  -0.000   0.000   0.000   0.000   0.000
  0.000  -0.000   0.000   0.000  -0.000   0.000  -0.000   0.000   0.000  -0.000   0.000   0.000   0.000   0.000   0.000  -0.000
 -0.000   0.000   0.000  -0.000   0.000  -0.000   0.000   0.000  -0.000   0.000   0.000   0.000   0.000   0.000  -0.000   0.000
  0.000  -0.000   0.000   0.000   0.000   0.000  -0.000   0.000   0.000   0.000   0.000   0.000  -0.000  -0.000   0.000   0.000
  0.000   0.000  -0.000  -0.000   0.000   0.000   0.000   0.000   0.000   0.000  -0.000  -0.000   0.000  -0.000  -0.000   0.000
 -0.000   0.000   0.000  -0.000   0.000   0.000   0.000   0.000  -0.000   0.000   0.000   0.000   0.000  -0.000  -0.000  -0.000
 -0.000   0.000  -0.000  -0.000  -0.000  -0.000   0.000   0.000   0.000  -0.000   0.000   0.000   0.000   0.000   0.000   0.000
  0.000   0.000  -0.000   0.000   0.000   0.000   0.000  -0.000   0.000   0.000  -0.000   0.000   0.000   0.000   0.000   0.000
  0.000   0.000  -0.000   0.000   0.000   0.000   0.000  -0.000   0.000   0.000   0.000  -0.000   0.000   0.000   0.000   0.000
  0.000   0.000   0.000   0.000  -0.000   0.000  -0.000   0.000   0.000   0.000   0.000   0.000  -0.000   0.000   0.000   0.000
  0.000   0.000   0.000   0.000   0.000   0.000   0.000  -0.000  -0.000   0.000   0.000   0.000   0.000  -0.000   0.000   0.000
  0.000   0.000   0.000   0.000   0.000  -0.000   0.000  -0.000  -0.000   0.000   0.000  -0.000   0.000   0.000  -0.000   0.000
  0.000   0.000   0.000   0.000   0.000   0.000   0.000   0.000  -0.000   0.000   0.000   0.000   0.000   0.000   0.000  -0.000
  0.000   0.000  -0.000  -0.000   0.000  -0.000   0.000   0.000  -0.000   0.000   0.000  -0.000   0.000   0.000   0.000   0.000
  0.000   0.000  -0.000   0.000   0.000  -0.000  -0.000   0.000   0.000  -0.000   0.000   0.000   0.000  -0.000   0.000   0.000


------------------------ aborting loop because EDIFF is reached ----------------------------------------



 DIPCOR: dipole corrections for dipol
 direction  3 min pos   177,
 dipolmoment           0.000000      0.000000     -0.003406 electrons x Angstroem
 Tr[quadrupol]      -505.429905

 energy correction for charged system         0.000000 eV
 dipol+quadrupol energy correction            0.000003 eV
 added-field ion interaction          0.000000 eV  (added to PSCEN)

 
  *************** adding dipol energy to TOTEN NOW **************** 
    CHARGE:  cpu time      0.1059: real time      0.1063
    FORLOC:  cpu time      0.0035: real time      0.0035
    FORNL :  cpu time      0.4111: real time      0.4126
    STRESS:  cpu time      0.3695: real time      0.3714
    FORCOR:  cpu time      0.0215: real time      0.0216
    FORHAR:  cpu time      0.0036: real time      0.0036
    MIXING:  cpu time      0.0006: real time      0.0006
    OFIELD:  cpu time      0.0000: real time      0.0000

 ---------------------------------------------------------------------------------------------

         DFTD3 V3.0 Rev 1        
 Edisp (eV)   -5.73014

 E6    (eV) :    -2.3143
 E8    (eV) :    -3.4158
 % E8        : 59.61
    FORVDW:  cpu time      0.0567: real time      0.0572

  FORCE on cell =-STRESS in cart. coord.  units (eV):
  Direction    XX          YY          ZZ          XY          YZ          ZX
  --------------------------------------------------------------------------------------
  Alpha Z   420.16799   420.16799   420.16799
  Ewald   94412.97183 94412.97183************     0.00000     0.00000    -0.00000
  Hartree 99774.61696 99774.61696-96556.61747    -0.00000    -0.00000    -0.00000
  E(xc)    -900.00602  -900.00602  -901.00783    -0.00000     0.00000     0.00000
  Local  ************************199390.74496     0.00000    -0.00000    -0.00000
  n-local  -289.04009  -304.45764  -297.06546     6.15624     0.00000     0.00000
  augment  1324.05256  1324.05256  1329.55445     0.00000    -0.00000     0.00000
  Kinetic  1269.69365  1243.57791  1261.16027    -2.72336    -0.00000    -0.00000
  Fock        0.00000     0.00000     0.00000     0.00000     0.00000     0.00000
  vdW        -6.96299    -6.96299    -5.25291     0.00000     0.00000     0.00000
  -------------------------------------------------------------------------------------
  Total      -4.56115    -4.56115    -1.48520     0.00000     0.00000     0.00000
  in kB     -21.42099   -21.42099    -6.97510     0.00000     0.00000     0.00000
  external pressure =      -16.61 kB  Pullay stress =        0.00 kB


 VOLUME and BASIS-vectors are now :
 -----------------------------------------------------------------------------
  energy-cutoff  :      400.00
  volume of cell :      341.15
      direct lattice vectors                 reciprocal lattice vectors
     3.630000114  0.000000000  0.000000000     0.275482085  0.000000000  0.000000000
     0.000000000  3.630000114  0.000000000     0.000000000  0.275482085  0.000000000
     0.000000000  0.000000000 25.890000000     0.000000000  0.000000000  0.038624952

  length of vectors
     3.630000114  3.630000114 25.890000000     0.275482085  0.275482085  0.038624952


 FORCES acting on ions
    electron-ion (+dipol)            ewald-force                    non-local-force                 convergence-correction
 -----------------------------------------------------------------------------------------------
   -.794E-13 -.285E-12 0.517E+04   -.923E-07 -.923E-07 -.516E+04   0.000E+00 0.000E+00 -.268E+01   0.636E-11 0.665E-11 0.138E+00
   0.774E-06 0.774E-06 0.517E+04   0.923E-07 0.923E-07 -.516E+04   0.414E-24 -.165E-23 -.268E+01   0.272E-10 0.263E-10 0.138E+00
   -.390E-13 0.753E-06 0.353E+04   -.128E-06 0.128E-06 -.353E+04   0.000E+00 0.993E-23 -.178E+01   0.152E-09 -.668E-11 -.152E+00
   0.753E-06 -.490E-12 0.353E+04   0.128E-06 -.128E-06 -.353E+04   -.331E-23 0.662E-23 -.178E+01   -.661E-11 0.153E-09 -.152E+00
   -.173E-13 -.304E-12 0.178E+04   -.134E-06 -.134E-06 -.177E+04   0.000E+00 0.000E+00 0.393E+00   0.301E-10 0.304E-10 -.795E+00
   0.749E-06 0.749E-06 0.178E+04   0.134E-06 0.134E-06 -.177E+04   0.000E+00 0.000E+00 0.393E+00   0.445E-10 0.444E-10 -.795E+00
   -.249E-13 0.748E-06 0.470E+01   -.135E-06 0.135E-06 -.403E+01   0.000E+00 -.248E-23 0.232E-01   -.227E-09 0.874E-10 -.688E+00
   0.748E-06 -.315E-13 0.470E+01   0.135E-06 -.135E-06 -.403E+01   -.414E-24 0.331E-23 0.232E-01   0.875E-10 -.227E-09 -.688E+00
   -.151E-13 -.200E-11 -.176E+04   -.133E-06 -.133E-06 0.176E+04   0.000E+00 0.496E-23 -.334E+00   0.274E-10 0.276E-10 -.314E+00
   0.750E-06 0.750E-06 -.176E+04   0.133E-06 0.133E-06 0.176E+04   0.165E-23 -.165E-23 -.334E+00   -.584E-10 -.583E-10 -.314E+00
   -.381E-13 0.751E-06 -.352E+04   -.130E-06 0.130E-06 0.352E+04   0.000E+00 -.827E-24 0.168E+01   0.118E-09 -.968E-10 -.347E+00
   0.751E-06 0.128E-11 -.352E+04   0.130E-06 -.130E-06 0.352E+04   -.103E-24 -.662E-23 0.168E+01   -.971E-10 0.118E-09 -.347E+00
   -.566E-13 0.779E-12 -.519E+04   -.958E-07 -.958E-07 0.519E+04   0.000E+00 -.331E-23 0.289E+01   -.619E-10 -.617E-10 -.728E-01
   0.772E-06 0.772E-06 -.519E+04   0.958E-07 0.958E-07 0.519E+04   0.414E-24 0.496E-23 0.289E+01   -.729E-10 -.728E-10 -.728E-01
 -----------------------------------------------------------------------------------------------
   0.530E-05 0.530E-05 0.406E+01   -.319E-13 -.594E-13 0.182E-11   -.134E-23 0.132E-22 0.367E+00   -.305E-10 -.296E-10 -.446E+01
 
 
 POSITION                                       TOTAL-FORCE (eV/Angst)
 -----------------------------------------------------------------------------------
      0.00000      0.00000      0.00000        -0.000000      0.000000      0.211834
      1.81500      1.81500      0.00000         0.000000     -0.000000      0.211834
      0.00000      1.81500      1.81500        -0.000000      0.000000     -0.225809
      1.81500      0.00000      1.81500         0.000000     -0.000000     -0.225809
     -0.00000      0.00000      3.55573        -0.000000     -0.000000      0.008683
      1.81500      1.81500      3.55573        -0.000000     -0.000000      0.008683
      0.00000      1.81500      5.28000         0.000000     -0.000000      0.005998
      1.81500      0.00000      5.28000        -0.000000      0.000000      0.005998
      0.00000      0.00000      7.00724        -0.000000     -0.000000     -0.002320
      1.81500      1.81500      7.00724         0.000000      0.000000     -0.002320
     -0.00000      1.81500      8.75968        -0.000000     -0.000000     -0.001494
      1.81500      0.00000      8.75968        -0.000000      0.000000     -0.001494
      0.00000      0.00000     10.51467        -0.000000      0.000000      0.003108
      1.81500      1.81500     10.51467         0.000000      0.000000      0.003108
 -----------------------------------------------------------------------------------
    total drift:                                0.000005      0.000005     -0.033832


--------------------------------------------------------------------------------------------------------



  FREE ENERGIE OF THE ION-ELECTRON SYSTEM (eV)
  ---------------------------------------------------
  free  energy   TOTEN  =       -54.69195380 eV

  energy  without entropy=      -54.66567591  energy(sigma->0) =      -54.68319450
 
 d Force = 0.2336000E-03[-0.103E-03, 0.570E-03]  d Energy = 0.3354814E-03-0.102E-03
 d Force =-0.4532767E+01[-0.455E+01,-0.452E+01]  d Ewald  =-0.4532772E+01 0.545E-05


--------------------------------------------------------------------------------------------------------


    POTLOK:  cpu time      0.0296: real time      0.0298


--------------------------------------------------------------------------------------------------------


 stress matrix after NEB project (eV)
     -4.56115      0.00000      0.00000
      0.00000     -4.56115      0.00000
     -0.00000      0.00000     -1.48520
  FORCES: max atom, RMS     0.008683    0.004287
  FORCE total and by dimension    0.016041    0.008683
  Stress total and by dimension    6.619215    4.561150
 Conjugate gradient step on ions:
 trial-energy change:   -0.000335  1 .order   -0.000234   -0.000570    0.000103
  (g-gl).g = 0.217E-03      g.g   = 0.283E-03  gl.gl    = 0.527E-02
 g(Force)  = 0.283E-03   g(Stress)= 0.000E+00 ortho     = 0.171E-04
 gamma     =   0.04110
 trial     =   2.01106
 opt step  =   1.70321  (harmonic =   1.70321) maximal distance =0.00191420
 next E    =   -54.691860   (d E  =  -0.00024)


--------------------------------------------------------------------------------------------------------


  
 reached required accuracy - stopping structural energy minimisation
     LOOP+:  cpu time      3.3837: real time      3.4336
    4ORBIT:  cpu time      0.0000: real time      0.0000

 total amount of memory used by VASP MPI-rank0    36974. kBytes
=======================================================================

   base      :      30000. kBytes
   nonl-proj :        813. kBytes
   fftplans  :        884. kBytes
   grid      :       2074. kBytes
   one-center:         93. kBytes
   wavefun   :       3110. kBytes
 
  
  
 General timing and accounting informations for this job:
 ========================================================
  
                  Total CPU time used (sec):      171.885
                            User time (sec):      168.293
                          System time (sec):        3.592
                         Elapsed time (sec):      174.472
  
                   Maximum memory used (kb):      238684.
                   Average memory used (kb):          N/A
  
                          Minor page faults:       144303
                          Major page faults:         6628
                 Voluntary context switches:         3824
