<?xml version="1.0" encoding="ISO-8859-1"?>
<modeling>
 <generator>
  <i name="program" type="string">vasp </i>
  <i name="version" type="string">6.3.2  </i>
  <i name="subversion" type="string">27Jun22 (build Aug 17 2022 15:43:34) complex                          parallel </i>
  <i name="platform" type="string">tv2STDVTST </i>
  <i name="date" type="string">2025 01 21 </i>
  <i name="time" type="string">12:32:46 </i>
 </generator>
 <incar>
  <i type="int" name="ISTART">     0</i>
  <i type="string" name="PREC">Normal</i>
  <i type="int" name="ISPIN">     2</i>
  <i type="int" name="ICHARG">     2</i>
  <i type="int" name="IBRION">     2</i>
  <i name="EDIFF">      0.00020000</i>
  <i name="EDIFFG">     -0.03000000</i>
  <i type="int" name="NSW">   800</i>
  <i type="int" name="ISIF">     2</i>
  <i type="int" name="ISYM">     1</i>
  <i name="ENCUT">    400.00000000</i>
  <i name="POTIM">      0.50000000</i>
  <i type="logical" name="LREAL"> F  </i>
  <i type="int" name="ISMEAR">     1</i>
  <i name="SIGMA">      0.20000000</i>
  <i type="logical" name="LWAVE"> F  </i>
  <i type="logical" name="LCHARG"> F  </i>
  <i type="string" name="GGA">PE</i>
  <i type="int" name="IDIPOL">     3</i>
  <i type="int" name="IVDW">    11</i>
 </incar>
 <primitive_cell>
  <structure name="primitive_cell" >
   <crystal>
    <varray name="basis" >
     <v>       1.81500006      -1.81500006       0.00000000 </v>
     <v>       1.81500006       1.81500006       0.00000000 </v>
     <v>       0.00000000       0.00000000      25.89000000 </v>
    </varray>
    <i name="volume">    170.57498123 </i>
    <varray name="rec_basis" >
     <v>       0.27548208      -0.27548208       0.00000000 </v>
     <v>       0.27548209       0.27548208       0.00000000 </v>
     <v>       0.00000000       0.00000000       0.03862495 </v>
    </varray>
   </crystal>
   <varray name="positions" >
    <v>       0.00000000       0.00000000       0.00000000 </v>
    <v>       0.50000000       0.50000000       0.07010429 </v>
    <v>       0.00000000       0.00000000       0.14020858 </v>
    <v>       0.50000000       0.50000000       0.21031287 </v>
    <v>       0.00000000       0.00000000       0.28041715 </v>
    <v>       0.50000000       0.50000000       0.35052144 </v>
    <v>       0.00000000       0.00000000       0.42062573 </v>
   </varray>
  </structure>
  <varray name="primitive_index" >
   <v type="int" >        1 </v>
   <v type="int" >        3 </v>
   <v type="int" >        5 </v>
   <v type="int" >        7 </v>
   <v type="int" >        9 </v>
   <v type="int" >       11 </v>
   <v type="int" >       13 </v>
  </varray>
 </primitive_cell>
 <kpoints>
  <generation param="Monkhorst-Pack">
   <v type="int" name="divisions">       3        3        1 </v>
   <v name="usershift">      0.00000000       0.00000000       0.00000000 </v>
   <v name="genvec1">      0.33333333       0.00000000       0.00000000 </v>
   <v name="genvec2">      0.00000000       0.33333333       0.00000000 </v>
   <v name="genvec3">      0.00000000       0.00000000       1.00000000 </v>
   <v name="shift">      0.00000000       0.00000000       0.00000000 </v>
  </generation>
  <varray name="kpointlist" >
   <v>       0.00000000       0.00000000       0.00000000 </v>
   <v>       0.33333333       0.00000000       0.00000000 </v>
   <v>       0.33333333       0.33333333       0.00000000 </v>
  </varray>
  <varray name="weights" >
   <v>       0.11111111 </v>
   <v>       0.44444444 </v>
   <v>       0.44444444 </v>
  </varray>
 </kpoints>
 <parameters>
  <separator name="general" >
   <i type="string" name="SYSTEM">unknown system</i>
   <i type="logical" name="LCOMPAT"> F  </i>
  </separator>
  <separator name="electronic" >
   <i type="string" name="PREC">normal</i>
   <i name="ENMAX">    400.00000000</i>
   <i name="ENAUG">    586.98000000</i>
   <i name="EDIFF">      0.00020000</i>
   <i type="int" name="IALGO">    38</i>
   <i type="int" name="IWAVPR">    11</i>
   <i type="int" name="NBANDS">   100</i>
   <i type="int" name="NBANDSLOW">    -1</i>
   <i type="int" name="NBANDSHIGH">    -1</i>
   <i name="NELECT">    154.00000000</i>
   <i type="int" name="TURBO">     0</i>
   <i type="int" name="IRESTART">     0</i>
   <i type="int" name="NREBOOT">     0</i>
   <i type="int" name="NMIN">     0</i>
   <i name="EREF">      0.00000000</i>
   <separator name="electronic smearing" >
    <i type="int" name="ISMEAR">     1</i>
    <i name="SIGMA">      0.20000000</i>
    <i name="KSPACING">      0.50000000</i>
    <i type="logical" name="KGAMMA"> T  </i>
    <i type="logical" name="KBLOWUP"> T  </i>
   </separator>
   <separator name="electronic projectors" >
    <i type="logical" name="LREAL"> F  </i>
    <v name="ROPT">      0.00000000</v>
    <i type="int" name="LMAXPAW">  -100</i>
    <i type="int" name="LMAXMIX">     2</i>
    <i type="logical" name="NLSPLINE"> F  </i>
   </separator>
   <separator name="electronic startup" >
    <i type="int" name="ISTART">     0</i>
    <i type="int" name="ICHARG">     2</i>
    <i type="int" name="INIWAV">     1</i>
   </separator>
   <separator name="electronic spin" >
    <i type="int" name="ISPIN">     2</i>
    <i type="logical" name="LNONCOLLINEAR"> F  </i>
    <v name="MAGMOM">      1.00000000      1.00000000      1.00000000      1.00000000      1.00000000      1.00000000      1.00000000      1.00000000      1.00000000      1.00000000      1.00000000      1.00000000      1.00000000      1.00000000</v>
    <i name="NUPDOWN">     -1.00000000</i>
    <i type="logical" name="LSORBIT"> F  </i>
    <v name="SAXIS">      0.00000000      0.00000000      1.00000000</v>
    <i type="logical" name="LSPIRAL"> F  </i>
    <v name="QSPIRAL">      0.00000000      0.00000000      0.00000000</v>
    <i type="logical" name="LZEROZ"> F  </i>
   </separator>
   <separator name="electronic exchange-correlation" >
    <i type="logical" name="LASPH"> F  </i>
    <i type="logical" name="LMETAGGA"> F  </i>
   </separator>
   <separator name="electronic convergence" >
    <i type="int" name="NELM">    60</i>
    <i type="int" name="NELMDL">    -5</i>
    <i type="int" name="NELMIN">     2</i>
    <i name="ENINI">    400.00000000</i>
    <separator name="electronic convergence detail" >
     <i type="logical" name="LDIAG"> T  </i>
     <i type="logical" name="LSUBROT"> F  </i>
     <i name="WEIMIN">      0.00100000</i>
     <i name="EBREAK">      0.00000050</i>
     <i name="DEPER">      0.30000000</i>
     <i type="int" name="NRMM">     4</i>
     <i name="TIME">      0.40000000</i>
    </separator>
   </separator>
   <separator name="electronic mixer" >
    <i name="AMIX">      0.40000000</i>
    <i name="BMIX">      1.00000000</i>
    <i name="AMIN">      0.10000000</i>
    <i name="AMIX_MAG">      1.60000000</i>
    <i name="BMIX_MAG">      1.00000000</i>
    <separator name="electronic mixer details" >
     <i type="int" name="IMIX">     4</i>
     <i type="logical" name="MIXFIRST"> F  </i>
     <i type="int" name="MAXMIX">   -45</i>
     <i name="WC">    100.00000000</i>
     <i type="int" name="INIMIX">     1</i>
     <i type="int" name="MIXPRE">     1</i>
     <i type="int" name="MREMOVE">     5</i>
    </separator>
   </separator>
   <separator name="electronic dipolcorrection" >
    <i type="logical" name="LDIPOL"> F  </i>
    <i type="logical" name="LMONO"> F  </i>
    <i type="int" name="IDIPOL">     3</i>
    <i name="EPSILON">      1.00000000</i>
    <v name="DIPOL">   -100.00000000   -100.00000000   -100.00000000</v>
    <i name="EFIELD">      0.00000000</i>
   </separator>
  </separator>
  <separator name="grids" >
   <i type="int" name="NGX">    18</i>
   <i type="int" name="NGY">    18</i>
   <i type="int" name="NGZ">   128</i>
   <i type="int" name="NGXF">    36</i>
   <i type="int" name="NGYF">    36</i>
   <i type="int" name="NGZF">   256</i>
   <i type="logical" name="ADDGRID"> F  </i>
  </separator>
  <separator name="ionic" >
   <i type="int" name="NSW">   800</i>
   <i type="int" name="IBRION">     2</i>
   <i type="int" name="MDALGO">     0</i>
   <i type="int" name="ISIF">     2</i>
   <i name="PSTRESS">      0.00000000</i>
   <i name="EDIFFG">     -0.03000000</i>
   <i type="int" name="NFREE">     1</i>
   <i name="POTIM">      0.50000000</i>
   <i name="SMASS">     -3.00000000</i>
   <i name="SCALEE">      1.00000000</i>
  </separator>
  <separator name="ionic md" >
   <i name="TEBEG">      0.00010000</i>
   <i name="TEEND">      0.00010000</i>
   <i type="int" name="NBLOCK">     1</i>
   <i type="int" name="KBLOCK">   800</i>
   <i type="int" name="NPACO">   256</i>
   <i name="APACO">     10.00000000</i>
  </separator>
  <separator name="symmetry" >
   <i type="int" name="ISYM">     1</i>
   <i name="SYMPREC">      0.00001000</i>
  </separator>
  <separator name="dos" >
   <i type="int" name="LORBIT">     0</i>
   <v name="RWIGS">     -1.00000000</v>
   <i type="int" name="NEDOS">   301</i>
   <i name="EMIN">     10.00000000</i>
   <i name="EMAX">    -10.00000000</i>
   <i name="EFERMI">      0.00000000</i>
  </separator>
  <separator name="writing" >
   <i type="int" name="NWRITE">     2</i>
   <i type="logical" name="LWAVE"> F  </i>
   <i type="logical" name="LDOWNSAMPLE"> F  </i>
   <i type="logical" name="LCHARG"> F  </i>
   <i type="logical" name="LPARD"> F  </i>
   <i type="logical" name="LVTOT"> F  </i>
   <i type="logical" name="LVHAR"> F  </i>
   <i type="logical" name="LELF"> F  </i>
   <i type="logical" name="LOPTICS"> F  </i>
   <v name="STM">      0.00000000      0.00000000      0.00000000      0.00000000      0.00000000      0.00000000      0.00000000</v>
  </separator>
  <separator name="performance" >
   <i type="int" name="NPAR">     4</i>
   <i type="int" name="NSIM">     4</i>
   <i type="int" name="NBLK">    -1</i>
   <i type="logical" name="LPLANE"> T  </i>
   <i type="logical" name="LSCALAPACK"> T  </i>
   <i type="logical" name="LSCAAWARE"> F  </i>
   <i type="logical" name="LSCALU"> F  </i>
   <i type="logical" name="LASYNC"> F  </i>
   <i type="logical" name="LORBITALREAL"> F  </i>
  </separator>
  <separator name="miscellaneous" >
   <i type="int" name="IDIOT">     3</i>
   <i type="int" name="PHON_NSTRUCT">    -1</i>
   <i type="logical" name="LMUSIC"> F  </i>
   <v name="POMASS">     63.54600000</v>
   <v name="DARWINR">      0.00000000</v>
   <v name="DARWINV">      1.00000000</v>
   <i type="logical" name="LCORR"> T  </i>
  </separator>
  <i type="logical" name="GGA_COMPAT"> T  </i>
  <i type="logical" name="LBERRY"> F  </i>
  <i type="int" name="ICORELEVEL">     0</i>
  <i type="logical" name="LDAU"> F  </i>
  <i type="int" name="I_CONSTRAINED_M">     0</i>
  <separator name="electronic exchange-correlation" >
   <i type="string" name="GGA">PE</i>
   <i type="int" name="VOSKOWN">     0</i>
   <i type="logical" name="LHFCALC"> F  </i>
   <i type="string" name="PRECFOCK"></i>
   <i type="logical" name="LSYMGRAD"> F  </i>
   <i type="logical" name="LHFONE"> F  </i>
   <i type="logical" name="LRHFCALC"> F  </i>
   <i type="logical" name="LTHOMAS"> F  </i>
   <i type="logical" name="LMODELHF"> F  </i>
   <i type="logical" name="LFOCKACE"> F  </i>
   <i name="ENCUT4O">     -1.00000000</i>
   <i type="int" name="EXXOEP">     0</i>
   <i type="int" name="FOURORBIT">     0</i>
   <i name="AEXX">      0.00000000</i>
   <i name="HFALPHA">      0.00000000</i>
   <i name="MCALPHA">      0.00000000</i>
   <i name="ALDAX">      1.00000000</i>
   <i name="AGGAX">      1.00000000</i>
   <i name="ALDAC">      1.00000000</i>
   <i name="AGGAC">      1.00000000</i>
   <i type="int" name="NKREDX">     1</i>
   <i type="int" name="NKREDY">     1</i>
   <i type="int" name="NKREDZ">     1</i>
   <i type="logical" name="SHIFTRED"> F  </i>
   <i type="logical" name="ODDONLY"> F  </i>
   <i type="logical" name="EVENONLY"> F  </i>
   <i type="int" name="LMAXFOCK">     0</i>
   <i type="int" name="NMAXFOCKAE">     0</i>
   <i type="logical" name="LFOCKAEDFT"> F  </i>
   <i name="HFSCREEN">      0.00000000</i>
   <i name="HFSCREENC">      0.00000000</i>
   <i type="int" name="NBANDSGWLOW">     0</i>
  </separator>
  <separator name="vdW DFT" >
   <i type="logical" name="LUSE_VDW"> F  </i>
   <i name="Zab_VDW">     -0.84910000</i>
   <i name="PARAM1">      0.12340000</i>
   <i name="PARAM2">      1.00000000</i>
   <i name="PARAM3">      0.00000000</i>
  </separator>
  <separator name="model GW" >
   <i type="int" name="MODEL_GW">     0</i>
   <i name="MODEL_EPS0">     14.62071268</i>
   <i name="MODEL_ALPHA">      1.00000000</i>
  </separator>
  <separator name="linear response parameters" >
   <i type="logical" name="LEPSILON"> F  </i>
   <i type="logical" name="LRPA"> F  </i>
   <i type="logical" name="LNABLA"> F  </i>
   <i type="logical" name="LVEL"> F  </i>
   <i name="CSHIFT">      0.10000000</i>
   <i name="OMEGAMAX">     -1.00000000</i>
   <i name="DEG_THRESHOLD">      0.00200000</i>
   <i name="RTIME">     -0.10000000</i>
   <i name="WPLASMAI">      0.00000000</i>
   <v name="DFIELD">      0.00000000      0.00000000      0.00000000</v>
   <v name="WPLASMA">      0.00000000      0.00000000      0.00000000      0.00000000      0.00000000      0.00000000      0.00000000      0.00000000      0.00000000</v>
  </separator>
  <separator name="orbital magnetization" >
   <i type="logical" name="NUCIND"> F  </i>
   <v name="MAGPOS">      0.00000000      0.00000000      0.00000000</v>
   <i type="logical" name="LNICSALL"> T  </i>
   <i type="logical" name="ORBITALMAG"> F  </i>
   <i type="logical" name="LMAGBLOCH"> F  </i>
   <i type="logical" name="LCHIMAG"> F  </i>
   <i type="logical" name="LGAUGE"> T  </i>
   <i type="int" name="MAGATOM">     0</i>
   <v name="MAGDIPOL">      0.00000000      0.00000000      0.00000000</v>
   <v name="AVECCONST">      0.00000000      0.00000000      0.00000000</v>
  </separator>
  <separator name="response functions" >
   <i type="logical" name="LFINITE_TEMPERATURE"> F  </i>
   <i type="logical" name="LADDER"> F  </i>
   <i type="logical" name="LRPAFORCE"> F  </i>
   <i type="logical" name="LFXC"> F  </i>
   <i type="logical" name="LHARTREE"> T  </i>
   <i type="int" name="IBSE">     0</i>
   <v type="int" name="KPOINT">    -1     0     0     0</v>
   <i type="logical" name="LTCTC"> F  </i>
   <i type="logical" name="LTCTE"> F  </i>
   <i type="logical" name="LTETE"> F  </i>
   <i type="logical" name="LTRIPLET"> F  </i>
   <i type="logical" name="LFXCEPS"> F  </i>
   <i type="logical" name="LFXHEG"> F  </i>
   <i type="int" name="NATURALO">     2</i>
   <i type="logical" name="LHOLEGF"> F  </i>
   <i type="logical" name="L2ORDER"> F  </i>
   <i type="logical" name="LDMP1"> F  </i>
   <i type="logical" name="LMP2LT"> F  </i>
   <i type="logical" name="LSMP2LT"> F  </i>
   <i type="logical" name="LGWLF"> F  </i>
   <i name="ENCUTGW">     -2.00000000</i>
   <i name="ENCUTGWSOFT">     -2.00000000</i>
   <i name="ENCUTLF">     -1.00000000</i>
   <i type="logical" name="LESF_SPLINES"> F  </i>
   <i type="int" name="LMAXMP2">    -1</i>
   <i name="SCISSOR">      0.00000000</i>
   <i type="int" name="NOMEGA">     0</i>
   <i type="int" name="NOMEGAR">     0</i>
   <i type="int" name="NBANDSGW">    -1</i>
   <i type="int" name="NBANDSO">    -1</i>
   <i type="int" name="NBANDSV">    -1</i>
   <i type="int" name="NELMGW">     1</i>
   <i type="int" name="NELMHF">     1</i>
   <i type="int" name="DIM">     3</i>
   <i type="int" name="IESPILON">     4</i>
   <i type="int" name="ANTIRES">     0</i>
   <i name="OMEGAMAX">    -30.00000000</i>
   <i name="OMEGAMIN">    -30.00000000</i>
   <i name="OMEGATL">   -200.00000000</i>
   <i type="int" name="OMEGAGRID">     0</i>
   <i name="CSHIFT">     -0.10000000</i>
   <i type="logical" name="LSELFENERGY"> F  </i>
   <i type="logical" name="LSPECTRAL"> F  </i>
   <i type="logical" name="LSPECTRALGW"> F  </i>
   <i type="logical" name="LSINGLES"> F  </i>
   <i type="logical" name="LFERMIGW"> F  </i>
   <i type="logical" name="ODDONLYGW"> F  </i>
   <i type="logical" name="EVENONLYGW"> F  </i>
   <i type="int" name="NKREDLFX">     1</i>
   <i type="int" name="NKREDLFY">     1</i>
   <i type="int" name="NKREDLFZ">     1</i>
   <i type="int" name="MAXMEM">  2800</i>
   <i type="int" name="TELESCOPE">     0</i>
   <i type="int" name="NTAUPAR">    -1</i>
   <i type="int" name="NOMEGAPAR">    -1</i>
   <i name="DAMP_NEWTON">      0.80000001</i>
   <i name="LAMBDA">      1.00000000</i>
  </separator>
  <separator name="External order field" >
   <i name="OFIELD_KAPPA">      0.00000000</i>
   <v name="OFIELD_K">      0.00000000      0.00000000      0.00000000</v>
   <i name="OFIELD_Q6_NEAR">      0.00000000</i>
   <i name="OFIELD_Q6_FAR">      0.00000000</i>
   <i name="OFIELD_A">      0.00000000</i>
  </separator>
  <separator name="optional k-points parameters" >
   <i type="int" name="KPOINTS_OPT_MODE">     1</i>
   <i type="logical" name="LKPOINTS_OPT"> F  </i>
  </separator>
 </parameters>
 <atominfo>
  <atoms>      14 </atoms>
  <types>       1 </types>
  <array name="atoms" >
   <dimension dim="1">ion</dimension>
   <field type="string">element</field>
   <field type="int">atomtype</field>
   <set>
    <rc><c>Cu</c><c>   1</c></rc>
    <rc><c>Cu</c><c>   1</c></rc>
    <rc><c>Cu</c><c>   1</c></rc>
    <rc><c>Cu</c><c>   1</c></rc>
    <rc><c>Cu</c><c>   1</c></rc>
    <rc><c>Cu</c><c>   1</c></rc>
    <rc><c>Cu</c><c>   1</c></rc>
    <rc><c>Cu</c><c>   1</c></rc>
    <rc><c>Cu</c><c>   1</c></rc>
    <rc><c>Cu</c><c>   1</c></rc>
    <rc><c>Cu</c><c>   1</c></rc>
    <rc><c>Cu</c><c>   1</c></rc>
    <rc><c>Cu</c><c>   1</c></rc>
    <rc><c>Cu</c><c>   1</c></rc>
   </set>
  </array>
  <array name="atomtypes" >
   <dimension dim="1">type</dimension>
   <field type="int">atomspertype</field>
   <field type="string">element</field>
   <field>mass</field>
   <field>valence</field>
   <field type="string">pseudopotential</field>
   <set>
    <rc><c>  14</c><c>Cu</c><c>     63.54600000</c><c>     11.00000000</c><c>  PAW_PBE Cu 22Jun2005                  </c></rc>
   </set>
  </array>
 </atominfo>
 <structure name="initialpos" >
  <crystal>
   <varray name="basis" >
    <v>       3.63000011       0.00000000       0.00000000 </v>
    <v>       0.00000000       3.63000011       0.00000000 </v>
    <v>       0.00000000       0.00000000      25.89000000 </v>
   </varray>
   <i name="volume">    341.14996250 </i>
   <varray name="rec_basis" >
    <v>       0.27548208       0.00000000       0.00000000 </v>
    <v>       0.00000000       0.27548208       0.00000000 </v>
    <v>       0.00000000       0.00000000       0.03862495 </v>
   </varray>
  </crystal>
  <varray name="positions" >
   <v>       0.00000000       0.00000000       0.00000000 </v>
   <v>       0.50000000       0.50000000       0.00000000 </v>
   <v>       0.00000000       0.50000000       0.07010429 </v>
   <v>       0.50000000       0.00000000       0.07010429 </v>
   <v>       0.00000000       0.00000000       0.14020858 </v>
   <v>       0.50000000       0.50000000       0.14020858 </v>
   <v>       0.00000000       0.50000000       0.21031287 </v>
   <v>       0.50000000       0.00000000       0.21031287 </v>
   <v>       0.00000000       0.00000000       0.28041715 </v>
   <v>       0.50000000       0.50000000       0.28041715 </v>
   <v>       0.00000000       0.50000000       0.35052144 </v>
   <v>       0.50000000       0.00000000       0.35052144 </v>
   <v>       0.00000000       0.00000000       0.42062573 </v>
   <v>       0.50000000       0.50000000       0.42062573 </v>
  </varray>
  <varray name="selective"  type="logical" >
   <v type="logical" >  F  F  F </v>
   <v type="logical" >  F  F  F </v>
   <v type="logical" >  F  F  F </v>
   <v type="logical" >  F  F  F </v>
   <v type="logical" >  T  T  T </v>
   <v type="logical" >  T  T  T </v>
   <v type="logical" >  T  T  T </v>
   <v type="logical" >  T  T  T </v>
   <v type="logical" >  T  T  T </v>
   <v type="logical" >  T  T  T </v>
   <v type="logical" >  T  T  T </v>
   <v type="logical" >  T  T  T </v>
   <v type="logical" >  T  T  T </v>
   <v type="logical" >  T  T  T </v>
  </varray>
  <nose>
   <v>      -3.00000000       0.00000000       0.00010000       0.00010000 </v>
  </nose>
 </structure>
 <calculation>
  <scstep>
   <time name="dav">    0.63    0.64</time>
   <time name="total">    0.66    0.67</time>
   <energy>
    <i name="alphaZ">    420.16799357 </i>
    <i name="ewald">  77561.47120639 </i>
    <i name="hartreedc"> -96604.57969930 </i>
    <i name="XCdc">    639.64453959 </i>
    <i name="pawpsdc">  17193.36494469 </i>
    <i name="pawaedc"> -18674.89304135 </i>
    <i name="eentropy">     -0.00408757 </i>
    <i name="bandstr">   1392.29664230 </i>
    <i name="atom">  19473.40696280 </i>
    <i name="e_fr_energy">   1400.87546111 </i>
    <i name="e_wo_entrp">   1400.87954868 </i>
    <i name="e_0_energy">   1400.87682363 </i>
   </energy>
  </scstep>
  <scstep>
   <time name="dav">    0.63    0.64</time>
   <time name="total">    0.63    0.64</time>
   <energy>
    <i name="e_fr_energy">    149.64133963 </i>
    <i name="e_wo_entrp">    149.67944324 </i>
    <i name="e_0_energy">    149.65404083 </i>
   </energy>
  </scstep>
  <scstep>
   <time name="dav">    0.62    0.62</time>
   <time name="total">    0.62    0.62</time>
   <energy>
    <i name="e_fr_energy">    -47.55142149 </i>
    <i name="e_wo_entrp">    -47.55550752 </i>
    <i name="e_0_energy">    -47.55278350 </i>
   </energy>
  </scstep>
  <scstep>
   <time name="dav">    0.67    0.68</time>
   <time name="total">    0.68    0.68</time>
   <energy>
    <i name="e_fr_energy">    -58.50175749 </i>
    <i name="e_wo_entrp">    -58.51112511 </i>
    <i name="e_0_energy">    -58.50488003 </i>
   </energy>
  </scstep>
  <scstep>
   <time name="dav">    0.68    0.68</time>
   <time name="total">    0.79    0.80</time>
   <energy>
    <i name="e_fr_energy">    -58.73137781 </i>
    <i name="e_wo_entrp">    -58.74095635 </i>
    <i name="e_0_energy">    -58.73457065 </i>
   </energy>
  </scstep>
  <scstep>
   <time name="dav">    0.66    0.67</time>
   <time name="total">    0.80    0.81</time>
   <energy>
    <i name="e_fr_energy">    -48.94868042 </i>
    <i name="e_wo_entrp">    -48.97262129 </i>
    <i name="e_0_energy">    -48.95666071 </i>
   </energy>
  </scstep>
  <scstep>
   <time name="dav">    0.65    0.66</time>
   <time name="total">    0.79    0.79</time>
   <energy>
    <i name="e_fr_energy">    -42.30903835 </i>
    <i name="e_wo_entrp">    -42.32654499 </i>
    <i name="e_0_energy">    -42.31487389 </i>
   </energy>
  </scstep>
  <scstep>
   <time name="dav">    0.67    0.67</time>
   <time name="total">    0.80    0.81</time>
   <energy>
    <i name="e_fr_energy">    -41.11056631 </i>
    <i name="e_wo_entrp">    -41.11887177 </i>
    <i name="e_0_energy">    -41.11333479 </i>
   </energy>
  </scstep>
  <scstep>
   <time name="dav">    0.71    0.72</time>
   <time name="total">    0.85    0.85</time>
   <energy>
    <i name="e_fr_energy">    -40.86577085 </i>
    <i name="e_wo_entrp">    -40.87373100 </i>
    <i name="e_0_energy">    -40.86842423 </i>
   </energy>
  </scstep>
  <scstep>
   <time name="dav">    0.87    0.87</time>
   <time name="total">    1.00    1.01</time>
   <energy>
    <i name="e_fr_energy">    -41.40186533 </i>
    <i name="e_wo_entrp">    -41.36504385 </i>
    <i name="e_0_energy">    -41.38959150 </i>
   </energy>
  </scstep>
  <scstep>
   <time name="dav">    0.91    0.92</time>
   <time name="total">    1.04    1.05</time>
   <energy>
    <i name="e_fr_energy">    -41.46309609 </i>
    <i name="e_wo_entrp">    -41.41840761 </i>
    <i name="e_0_energy">    -41.44819993 </i>
   </energy>
  </scstep>
  <scstep>
   <time name="dav">    0.97    0.98</time>
   <time name="total">    1.11    1.11</time>
   <energy>
    <i name="e_fr_energy">    -41.28480447 </i>
    <i name="e_wo_entrp">    -41.27396703 </i>
    <i name="e_0_energy">    -41.28119199 </i>
   </energy>
  </scstep>
  <scstep>
   <time name="dav">    0.93    0.94</time>
   <time name="total">    1.07    1.07</time>
   <energy>
    <i name="e_fr_energy">    -42.70963062 </i>
    <i name="e_wo_entrp">    -42.71550900 </i>
    <i name="e_0_energy">    -42.71159008 </i>
   </energy>
  </scstep>
  <scstep>
   <time name="dav">    0.83    0.84</time>
   <time name="total">    0.97    0.97</time>
   <energy>
    <i name="e_fr_energy">    -44.58299620 </i>
    <i name="e_wo_entrp">    -44.54921136 </i>
    <i name="e_0_energy">    -44.57173459 </i>
   </energy>
  </scstep>
  <scstep>
   <time name="dav">    0.82    0.83</time>
   <time name="total">    0.95    0.96</time>
   <energy>
    <i name="e_fr_energy">    -46.18928084 </i>
    <i name="e_wo_entrp">    -46.15629115 </i>
    <i name="e_0_energy">    -46.17828427 </i>
   </energy>
  </scstep>
  <scstep>
   <time name="dav">    0.81    0.82</time>
   <time name="total">    0.95    0.95</time>
   <energy>
    <i name="e_fr_energy">    -46.92821670 </i>
    <i name="e_wo_entrp">    -46.88366117 </i>
    <i name="e_0_energy">    -46.91336486 </i>
   </energy>
  </scstep>
  <scstep>
   <time name="dav">    0.71    0.72</time>
   <time name="total">    0.84    0.85</time>
   <energy>
    <i name="e_fr_energy">    -47.24818203 </i>
    <i name="e_wo_entrp">    -47.20299984 </i>
    <i name="e_0_energy">    -47.23312130 </i>
   </energy>
  </scstep>
  <scstep>
   <time name="dav">    0.67    0.68</time>
   <time name="total">    0.81    0.82</time>
   <energy>
    <i name="e_fr_energy">    -47.50759718 </i>
    <i name="e_wo_entrp">    -47.46354331 </i>
    <i name="e_0_energy">    -47.49291256 </i>
   </energy>
  </scstep>
  <scstep>
   <time name="dav">    0.85    0.86</time>
   <time name="total">    0.99    0.99</time>
   <energy>
    <i name="e_fr_energy">    -47.76141341 </i>
    <i name="e_wo_entrp">    -47.72706495 </i>
    <i name="e_0_energy">    -47.74996392 </i>
   </energy>
  </scstep>
  <scstep>
   <time name="dav">    0.71    0.71</time>
   <time name="total">    0.84    0.85</time>
   <energy>
    <i name="e_fr_energy">    -47.93607511 </i>
    <i name="e_wo_entrp">    -47.90315712 </i>
    <i name="e_0_energy">    -47.92510245 </i>
   </energy>
  </scstep>
  <scstep>
   <time name="dav">    0.72    0.73</time>
   <time name="total">    0.86    0.86</time>
   <energy>
    <i name="e_fr_energy">    -48.20003342 </i>
    <i name="e_wo_entrp">    -48.16952794 </i>
    <i name="e_0_energy">    -48.18986493 </i>
   </energy>
  </scstep>
  <scstep>
   <time name="dav">    0.78    0.78</time>
   <time name="total">    0.91    0.92</time>
   <energy>
    <i name="e_fr_energy">    -48.39482135 </i>
    <i name="e_wo_entrp">    -48.36450027 </i>
    <i name="e_0_energy">    -48.38471433 </i>
   </energy>
  </scstep>
  <scstep>
   <time name="dav">    0.77    0.78</time>
   <time name="total">    0.91    0.92</time>
   <energy>
    <i name="e_fr_energy">    -48.54748267 </i>
    <i name="e_wo_entrp">    -48.51669281 </i>
    <i name="e_0_energy">    -48.53721938 </i>
   </energy>
  </scstep>
  <scstep>
   <time name="dav">    0.72    0.73</time>
   <time name="total">    0.86    0.86</time>
   <energy>
    <i name="e_fr_energy">    -48.74303028 </i>
    <i name="e_wo_entrp">    -48.71279997 </i>
    <i name="e_0_energy">    -48.73295351 </i>
   </energy>
  </scstep>
  <scstep>
   <time name="dav">    0.69    0.69</time>
   <time name="total">    0.82    0.83</time>
   <energy>
    <i name="e_fr_energy">    -48.88038596 </i>
    <i name="e_wo_entrp">    -48.85033668 </i>
    <i name="e_0_energy">    -48.87036953 </i>
   </energy>
  </scstep>
  <scstep>
   <time name="dav">    0.73    0.73</time>
   <time name="total">    0.86    0.87</time>
   <energy>
    <i name="e_fr_energy">    -49.01760377 </i>
    <i name="e_wo_entrp">    -48.98770699 </i>
    <i name="e_0_energy">    -49.00763817 </i>
   </energy>
  </scstep>
  <scstep>
   <time name="dav">    0.66    0.66</time>
   <time name="total">    0.80    0.80</time>
   <energy>
    <i name="e_fr_energy">    -49.04081013 </i>
    <i name="e_wo_entrp">    -49.01131705 </i>
    <i name="e_0_energy">    -49.03097911 </i>
   </energy>
  </scstep>
  <scstep>
   <time name="dav">    0.50    0.51</time>
   <time name="total">    0.64    0.65</time>
   <energy>
    <i name="e_fr_energy">    -49.05173988 </i>
    <i name="e_wo_entrp">    -49.02212143 </i>
    <i name="e_0_energy">    -49.04186706 </i>
   </energy>
  </scstep>
  <scstep>
   <time name="dav">    0.49    0.49</time>
   <time name="total">    0.62    0.63</time>
   <energy>
    <i name="e_fr_energy">    -49.05533999 </i>
    <i name="e_wo_entrp">    -49.02558755 </i>
    <i name="e_0_energy">    -49.04542251 </i>
   </energy>
  </scstep>
  <scstep>
   <time name="dav">    0.46    0.47</time>
   <time name="total">    0.60    0.60</time>
   <energy>
    <i name="e_fr_energy">    -49.05563927 </i>
    <i name="e_wo_entrp">    -49.02591568 </i>
    <i name="e_0_energy">    -49.04573141 </i>
   </energy>
  </scstep>
  <scstep>
   <time name="dav">    0.46    0.46</time>
   <time name="total">    0.48    0.49</time>
   <energy>
    <i name="alphaZ">    420.16799357 </i>
    <i name="ewald">  77561.47120639 </i>
    <i name="hartreedc"> -96390.57472364 </i>
    <i name="XCdc">    623.53645535 </i>
    <i name="pawpsdc">  18245.84154585 </i>
    <i name="pawaedc"> -19753.23064294 </i>
    <i name="eentropy">     -0.02972375 </i>
    <i name="bandstr">   -229.64477920 </i>
    <i name="atom">  19473.40696280 </i>
    <i name="e_fr_energy">    -49.05570558 </i>
    <i name="e_wo_entrp">    -49.02598183 </i>
    <i name="e_0_energy">    -49.04579766 </i>
   </energy>
  </scstep>
  <dipole>
   <v name="dipole">      0.00000000       0.00000000      -0.01091030 </v>
   <i name="Tr[quadrupol]">   -505.56173754 </i>
   <i name="Echarged">      0.00000000 </i>
   <i name="Edipol_quadrupol">      0.00000000 </i>
   <i name="Eion">      0.00000000 </i>
  </dipole>
  <structure>
   <crystal>
    <varray name="basis" >
     <v>       3.63000011       0.00000000       0.00000000 </v>
     <v>       0.00000000       3.63000011       0.00000000 </v>
     <v>       0.00000000       0.00000000      25.89000000 </v>
    </varray>
    <i name="volume">    341.14996250 </i>
    <varray name="rec_basis" >
     <v>       0.27548208       0.00000000       0.00000000 </v>
     <v>       0.00000000       0.27548208       0.00000000 </v>
     <v>       0.00000000       0.00000000       0.03862495 </v>
    </varray>
   </crystal>
   <varray name="positions" >
    <v>       0.00000000       0.00000000       0.00000000 </v>
    <v>       0.50000000       0.50000000       0.00000000 </v>
    <v>       0.00000000       0.50000000       0.07010429 </v>
    <v>       0.50000000       0.00000000       0.07010429 </v>
    <v>       0.00000000       0.00000000       0.14020858 </v>
    <v>       0.50000000       0.50000000       0.14020858 </v>
    <v>       0.00000000       0.50000000       0.21031287 </v>
    <v>       0.50000000       0.00000000       0.21031287 </v>
    <v>       0.00000000       0.00000000       0.28041715 </v>
    <v>       0.50000000       0.50000000       0.28041715 </v>
    <v>       0.00000000       0.50000000       0.35052144 </v>
    <v>       0.50000000       0.00000000       0.35052144 </v>
    <v>       0.00000000       0.00000000       0.42062573 </v>
    <v>       0.50000000       0.50000000       0.42062573 </v>
   </varray>
  </structure>
  <varray name="forces" >
   <v>      -0.00000000       0.00000000       0.23303116 </v>
   <v>       0.00000000       0.00000000       0.23303116 </v>
   <v>      -0.00000000      -0.00000000       0.00258608 </v>
   <v>      -0.00000000       0.00000000       0.00258608 </v>
   <v>      -0.00000000       0.00000000       0.07151348 </v>
   <v>      -0.00000000      -0.00000000       0.07151348 </v>
   <v>      -0.00000000      -0.00000000       0.00210953 </v>
   <v>      -0.00000000       0.00000000       0.00210953 </v>
   <v>      -0.00000000       0.00000000      -0.06981014 </v>
   <v>       0.00000000       0.00000000      -0.06981014 </v>
   <v>      -0.00000000       0.00000000      -0.00204561 </v>
   <v>      -0.00000000      -0.00000000      -0.00204561 </v>
   <v>       0.00000000       0.00000000      -0.23738450 </v>
   <v>      -0.00000000      -0.00000000      -0.23738450 </v>
  </varray>
  <varray name="stress" >
   <v>     -40.56438033       0.00000000       0.00000000 </v>
   <v>       0.00000000     -40.56438033      -0.00000000 </v>
   <v>       0.00000000      -0.00000000     -32.33547461 </v>
  </varray>
  <energy>
   <i name="e_fr_energy">    -54.58398492 </i>
   <i name="e_wo_entrp">    -54.55426117 </i>
   <i name="e_0_energy">    -54.57407700 </i>
  </energy>
  <time name="totalsc">   26.62   26.89</time>
 </calculation>
 <calculation>
  <scstep>
   <time name="dav">    0.65    0.66</time>
   <time name="total">    0.79    0.79</time>
   <energy>
    <i name="alphaZ">    420.16799357 </i>
    <i name="ewald">  77700.12770802 </i>
    <i name="hartreedc"> -96528.84082585 </i>
    <i name="XCdc">    623.57309227 </i>
    <i name="pawpsdc">  18245.83815504 </i>
    <i name="pawaedc"> -19753.23259934 </i>
    <i name="eentropy">     -0.02931311 </i>
    <i name="bandstr">   -230.06599381 </i>
    <i name="atom">  19473.40696280 </i>
    <i name="e_fr_energy">    -49.05482041 </i>
    <i name="e_wo_entrp">    -49.02550730 </i>
    <i name="e_0_energy">    -49.04504938 </i>
   </energy>
  </scstep>
  <scstep>
   <time name="dav">    0.87    0.88</time>
   <time name="total">    1.00    1.01</time>
   <energy>
    <i name="e_fr_energy">    -49.05825521 </i>
    <i name="e_wo_entrp">    -49.02770495 </i>
    <i name="e_0_energy">    -49.04807179 </i>
   </energy>
  </scstep>
  <scstep>
   <time name="dav">    0.68    0.69</time>
   <time name="total">    0.82    0.82</time>
   <energy>
    <i name="e_fr_energy">    -49.05819250 </i>
    <i name="e_wo_entrp">    -49.02851557 </i>
    <i name="e_0_energy">    -49.04830019 </i>
   </energy>
  </scstep>
  <scstep>
   <time name="dav">    0.64    0.64</time>
   <time name="total">    0.77    0.78</time>
   <energy>
    <i name="e_fr_energy">    -49.05764742 </i>
    <i name="e_wo_entrp">    -49.02845884 </i>
    <i name="e_0_energy">    -49.04791789 </i>
   </energy>
  </scstep>
  <scstep>
   <time name="dav">    0.51    0.52</time>
   <time name="total">    0.54    0.55</time>
   <energy>
    <i name="alphaZ">    420.16799357 </i>
    <i name="ewald">  77700.12770802 </i>
    <i name="hartreedc"> -96528.81593464 </i>
    <i name="XCdc">    623.56064894 </i>
    <i name="pawpsdc">  18247.99910055 </i>
    <i name="pawaedc"> -19755.36061531 </i>
    <i name="eentropy">     -0.02986987 </i>
    <i name="bandstr">   -230.11359582 </i>
    <i name="atom">  19473.40696280 </i>
    <i name="e_fr_energy">    -49.05760177 </i>
    <i name="e_wo_entrp">    -49.02773189 </i>
    <i name="e_0_energy">    -49.04764514 </i>
   </energy>
  </scstep>
  <dipole>
   <v name="dipole">      0.00000000       0.00000000      -0.00603086 </v>
   <i name="Tr[quadrupol]">   -505.55291712 </i>
   <i name="Echarged">      0.00000000 </i>
   <i name="Edipol_quadrupol">      0.00000000 </i>
   <i name="Eion">      0.00000000 </i>
  </dipole>
  <structure>
   <crystal>
    <varray name="basis" >
     <v>       3.63000011       0.00000000       0.00000000 </v>
     <v>       0.00000000       3.63000011       0.00000000 </v>
     <v>       0.00000000       0.00000000      25.89000000 </v>
    </varray>
    <i name="volume">    341.14996250 </i>
    <varray name="rec_basis" >
     <v>       0.27548208       0.00000000       0.00000000 </v>
     <v>       0.00000000       0.27548208       0.00000000 </v>
     <v>       0.00000000       0.00000000       0.03862495 </v>
    </varray>
   </crystal>
   <varray name="positions" >
    <v>       0.00000000       0.00000000       0.00000000 </v>
    <v>       0.50000000       0.50000000       0.00000000 </v>
    <v>       0.00000000       0.50000000       0.07010429 </v>
    <v>       0.50000000       0.00000000       0.07010429 </v>
    <v>      -0.00000000       0.00000000       0.14034183 </v>
    <v>       0.50000000       0.50000000       0.14034183 </v>
    <v>      -0.00000000       0.50000000       0.21031680 </v>
    <v>       0.50000000       0.00000000       0.21031680 </v>
    <v>      -0.00000000       0.00000000       0.28028707 </v>
    <v>       0.50000000       0.50000000       0.28028707 </v>
    <v>      -0.00000000       0.50000000       0.35051763 </v>
    <v>       0.50000000      -0.00000000       0.35051763 </v>
    <v>       0.00000000       0.00000000       0.42018339 </v>
    <v>       0.50000000       0.50000000       0.42018339 </v>
   </varray>
  </structure>
  <varray name="forces" >
   <v>      -0.00000000      -0.00000000       0.23496171 </v>
   <v>      -0.00000000      -0.00000000       0.23496171 </v>
   <v>      -0.00000000       0.00000000       0.01351758 </v>
   <v>      -0.00000000      -0.00000000       0.01351758 </v>
   <v>       0.00000000      -0.00000000       0.03471222 </v>
   <v>       0.00000000      -0.00000000       0.03471222 </v>
   <v>       0.00000000       0.00000000      -0.00375373 </v>
   <v>       0.00000000      -0.00000000      -0.00375373 </v>
   <v>      -0.00000000      -0.00000000      -0.04444152 </v>
   <v>       0.00000000      -0.00000000      -0.04444152 </v>
   <v>      -0.00000000       0.00000000      -0.04779782 </v>
   <v>      -0.00000000       0.00000000      -0.04779782 </v>
   <v>       0.00000000       0.00000000      -0.18719844 </v>
   <v>       0.00000000       0.00000000      -0.18719844 </v>
  </varray>
  <varray name="stress" >
   <v>     -37.33281110       0.00000000       0.00000000 </v>
   <v>       0.00000000     -37.33281110       0.00000000 </v>
   <v>      -0.00000000       0.00000000     -28.82566497 </v>
  </varray>
  <energy>
   <i name="e_fr_energy">    -54.58986430 </i>
   <i name="e_wo_entrp">    -54.55999443 </i>
   <i name="e_0_energy">    -54.57990768 </i>
  </energy>
  <time name="totalsc">    5.01    5.11</time>
 </calculation>
 <calculation>
  <scstep>
   <time name="dav">    0.65    0.66</time>
   <time name="total">    0.79    0.79</time>
   <energy>
    <i name="alphaZ">    420.16799357 </i>
    <i name="ewald">  78117.24835558 </i>
    <i name="hartreedc"> -96945.09557280 </i>
    <i name="XCdc">    623.67993261 </i>
    <i name="pawpsdc">  18248.36138330 </i>
    <i name="pawaedc"> -19755.75609666 </i>
    <i name="eentropy">     -0.02858684 </i>
    <i name="bandstr">   -231.01415167 </i>
    <i name="atom">  19473.40696280 </i>
    <i name="e_fr_energy">    -49.02978012 </i>
    <i name="e_wo_entrp">    -49.00119328 </i>
    <i name="e_0_energy">    -49.02025117 </i>
   </energy>
  </scstep>
  <scstep>
   <time name="dav">    0.85    0.86</time>
   <time name="total">    0.99    1.00</time>
   <energy>
    <i name="e_fr_energy">    -49.06467763 </i>
    <i name="e_wo_entrp">    -49.03134928 </i>
    <i name="e_0_energy">    -49.05356818 </i>
   </energy>
  </scstep>
  <scstep>
   <time name="dav">    0.73    0.74</time>
   <time name="total">    0.87    0.88</time>
   <energy>
    <i name="e_fr_energy">    -49.06552206 </i>
    <i name="e_wo_entrp">    -49.03730995 </i>
    <i name="e_0_energy">    -49.05611802 </i>
   </energy>
  </scstep>
  <scstep>
   <time name="dav">    0.70    0.71</time>
   <time name="total">    0.84    0.84</time>
   <energy>
    <i name="e_fr_energy">    -49.05871305 </i>
    <i name="e_wo_entrp">    -49.03031593 </i>
    <i name="e_0_energy">    -49.04924735 </i>
   </energy>
  </scstep>
  <scstep>
   <time name="dav">    0.90    0.91</time>
   <time name="total">    1.03    1.04</time>
   <energy>
    <i name="e_fr_energy">    -49.05791574 </i>
    <i name="e_wo_entrp">    -49.02732921 </i>
    <i name="e_0_energy">    -49.04772023 </i>
   </energy>
  </scstep>
  <scstep>
   <time name="dav">    0.68    0.68</time>
   <time name="total">    0.81    0.82</time>
   <energy>
    <i name="e_fr_energy">    -49.05758535 </i>
    <i name="e_wo_entrp">    -49.02818871 </i>
    <i name="e_0_energy">    -49.04778647 </i>
   </energy>
  </scstep>
  <scstep>
   <time name="dav">    0.83    0.83</time>
   <time name="total">    0.96    0.97</time>
   <energy>
    <i name="e_fr_energy">    -49.05708293 </i>
    <i name="e_wo_entrp">    -49.02691477 </i>
    <i name="e_0_energy">    -49.04702688 </i>
   </energy>
  </scstep>
  <scstep>
   <time name="dav">    0.61    0.61</time>
   <time name="total">    0.64    0.64</time>
   <energy>
    <i name="alphaZ">    420.16799357 </i>
    <i name="ewald">  78117.24835558 </i>
    <i name="hartreedc"> -96943.98378538 </i>
    <i name="XCdc">    623.63712219 </i>
    <i name="pawpsdc">  18262.90644321 </i>
    <i name="pawaedc"> -19770.66926935 </i>
    <i name="eentropy">     -0.03001621 </i>
    <i name="bandstr">   -231.74085055 </i>
    <i name="atom">  19473.40696280 </i>
    <i name="e_fr_energy">    -49.05704414 </i>
    <i name="e_wo_entrp">    -49.02702793 </i>
    <i name="e_0_energy">    -49.04703873 </i>
   </energy>
  </scstep>
  <dipole>
   <v name="dipole">      0.00000000       0.00000000      -0.00290913 </v>
   <i name="Tr[quadrupol]">   -505.53264452 </i>
   <i name="Echarged">      0.00000000 </i>
   <i name="Edipol_quadrupol">      0.00000000 </i>
   <i name="Eion">      0.00000000 </i>
  </dipole>
  <structure>
   <crystal>
    <varray name="basis" >
     <v>       3.63000011       0.00000000       0.00000000 </v>
     <v>       0.00000000       3.63000011       0.00000000 </v>
     <v>       0.00000000       0.00000000      25.89000000 </v>
    </varray>
    <i name="volume">    341.14996250 </i>
    <varray name="rec_basis" >
     <v>       0.27548208       0.00000000       0.00000000 </v>
     <v>       0.00000000       0.27548208       0.00000000 </v>
     <v>       0.00000000       0.00000000       0.03862495 </v>
    </varray>
   </crystal>
   <varray name="positions" >
    <v>       0.00000000       0.00000000       0.00000000 </v>
    <v>       0.50000000       0.50000000       0.00000000 </v>
    <v>       0.00000000       0.50000000       0.07010429 </v>
    <v>       0.50000000       0.00000000       0.07010429 </v>
    <v>      -0.00000000       0.00000000       0.14074160 </v>
    <v>       0.50000000       0.50000000       0.14074160 </v>
    <v>      -0.00000000       0.50000000       0.21032859 </v>
    <v>       0.50000000       0.00000000       0.21032859 </v>
    <v>      -0.00000000       0.00000000       0.27989682 </v>
    <v>       0.50000000       0.50000000       0.27989682 </v>
    <v>      -0.00000000       0.50000000       0.35050619 </v>
    <v>       0.50000000      -0.00000000       0.35050619 </v>
    <v>       0.00000000       0.00000000       0.41885639 </v>
    <v>       0.50000000       0.50000000       0.41885639 </v>
   </varray>
  </structure>
  <varray name="forces" >
   <v>       0.00000000      -0.00000000       0.23697213 </v>
   <v>       0.00000000      -0.00000000       0.23697213 </v>
   <v>       0.00000000       0.00000000       0.05020781 </v>
   <v>      -0.00000000      -0.00000000       0.05020781 </v>
   <v>       0.00000000      -0.00000000      -0.02422637 </v>
   <v>      -0.00000000       0.00000000      -0.02422637 </v>
   <v>       0.00000000       0.00000000       0.00175236 </v>
   <v>       0.00000000       0.00000000       0.00175236 </v>
   <v>      -0.00000000      -0.00000000       0.02280458 </v>
   <v>      -0.00000000      -0.00000000       0.02280458 </v>
   <v>       0.00000000      -0.00000000      -0.18430155 </v>
   <v>      -0.00000000       0.00000000      -0.18430155 </v>
   <v>       0.00000000      -0.00000000      -0.10320897 </v>
   <v>       0.00000000       0.00000000      -0.10320897 </v>
  </varray>
  <varray name="stress" >
   <v>     -41.22611580       0.00000000       0.00000000 </v>
   <v>       0.00000000     -41.22611580       0.00000000 </v>
   <v>       0.00000000       0.00000000     -31.42526650 </v>
  </varray>
  <energy>
   <i name="e_fr_energy">    -54.60127426 </i>
   <i name="e_wo_entrp">    -54.57125806 </i>
   <i name="e_0_energy">    -54.59126886 </i>
  </energy>
  <time name="totalsc">    8.00    8.08</time>
 </calculation>
 <calculation>
  <scstep>
   <time name="dav">    0.65    0.65</time>
   <time name="total">    0.78    0.79</time>
   <energy>
    <i name="alphaZ">    420.16799357 </i>
    <i name="ewald">  78956.57980137 </i>
    <i name="hartreedc"> -97781.86905069 </i>
    <i name="XCdc">    623.89454775 </i>
    <i name="pawpsdc">  18262.88043799 </i>
    <i name="pawaedc"> -19770.62635251 </i>
    <i name="eentropy">     -0.02943444 </i>
    <i name="bandstr">   -233.29918600 </i>
    <i name="atom">  19473.40696280 </i>
    <i name="e_fr_energy">    -48.89428015 </i>
    <i name="e_wo_entrp">    -48.86484571 </i>
    <i name="e_0_energy">    -48.88446867 </i>
   </energy>
  </scstep>
  <scstep>
   <time name="dav">    0.87    0.88</time>
   <time name="total">    1.01    1.02</time>
   <energy>
    <i name="e_fr_energy">    -49.05327048 </i>
    <i name="e_wo_entrp">    -49.01472412 </i>
    <i name="e_0_energy">    -49.04042169 </i>
   </energy>
  </scstep>
  <scstep>
   <time name="dav">    0.82    0.82</time>
   <time name="total">    0.95    0.96</time>
   <energy>
    <i name="e_fr_energy">    -49.05292552 </i>
    <i name="e_wo_entrp">    -49.02680102 </i>
    <i name="e_0_energy">    -49.04421735 </i>
   </energy>
  </scstep>
  <scstep>
   <time name="dav">    0.72    0.73</time>
   <time name="total">    0.86    0.87</time>
   <energy>
    <i name="e_fr_energy">    -49.02550188 </i>
    <i name="e_wo_entrp">    -48.99663802 </i>
    <i name="e_0_energy">    -49.01588059 </i>
   </energy>
  </scstep>
  <scstep>
   <time name="dav">    0.82    0.83</time>
   <time name="total">    0.96    0.97</time>
   <energy>
    <i name="e_fr_energy">    -49.02208306 </i>
    <i name="e_wo_entrp">    -48.98901340 </i>
    <i name="e_0_energy">    -49.01105984 </i>
   </energy>
  </scstep>
  <scstep>
   <time name="dav">    0.67    0.68</time>
   <time name="total">    0.81    0.81</time>
   <energy>
    <i name="e_fr_energy">    -49.02142592 </i>
    <i name="e_wo_entrp">    -48.98996400 </i>
    <i name="e_0_energy">    -49.01093861 </i>
   </energy>
  </scstep>
  <scstep>
   <time name="dav">    0.86    0.87</time>
   <time name="total">    0.99    1.00</time>
   <energy>
    <i name="e_fr_energy">    -49.01956920 </i>
    <i name="e_wo_entrp">    -48.98665343 </i>
    <i name="e_0_energy">    -49.00859727 </i>
   </energy>
  </scstep>
  <scstep>
   <time name="dav">    0.66    0.66</time>
   <time name="total">    0.79    0.80</time>
   <energy>
    <i name="e_fr_energy">    -49.01930436 </i>
    <i name="e_wo_entrp">    -48.98668041 </i>
    <i name="e_0_energy">    -49.00842971 </i>
   </energy>
  </scstep>
  <scstep>
   <time name="dav">    0.64    0.64</time>
   <time name="total">    0.77    0.78</time>
   <energy>
    <i name="e_fr_energy">    -49.01898005 </i>
    <i name="e_wo_entrp">    -48.98671378 </i>
    <i name="e_0_energy">    -49.00822463 </i>
   </energy>
  </scstep>
  <scstep>
   <time name="dav">    0.47    0.48</time>
   <time name="total">    0.50    0.50</time>
   <energy>
    <i name="alphaZ">    420.16799357 </i>
    <i name="ewald">  78956.57980137 </i>
    <i name="hartreedc"> -97779.80136789 </i>
    <i name="XCdc">    623.79611366 </i>
    <i name="pawpsdc">  18292.84375328 </i>
    <i name="pawaedc"> -19801.12609450 </i>
    <i name="eentropy">     -0.03222306 </i>
    <i name="bandstr">   -234.85391489 </i>
    <i name="atom">  19473.40696280 </i>
    <i name="e_fr_energy">    -49.01897565 </i>
    <i name="e_wo_entrp">    -48.98675259 </i>
    <i name="e_0_energy">    -49.00823463 </i>
   </energy>
  </scstep>
  <dipole>
   <v name="dipole">      0.00000000       0.00000000      -0.00352228 </v>
   <i name="Tr[quadrupol]">   -505.52708434 </i>
   <i name="Echarged">      0.00000000 </i>
   <i name="Edipol_quadrupol">      0.00000000 </i>
   <i name="Eion">      0.00000000 </i>
  </dipole>
  <structure>
   <crystal>
    <varray name="basis" >
     <v>       3.63000011       0.00000000       0.00000000 </v>
     <v>       0.00000000       3.63000011       0.00000000 </v>
     <v>       0.00000000       0.00000000      25.89000000 </v>
    </varray>
    <i name="volume">    341.14996250 </i>
    <varray name="rec_basis" >
     <v>       0.27548208       0.00000000       0.00000000 </v>
     <v>       0.00000000       0.27548208       0.00000000 </v>
     <v>       0.00000000       0.00000000       0.03862495 </v>
    </varray>
   </crystal>
   <varray name="positions" >
    <v>       0.00000000       0.00000000       0.00000000 </v>
    <v>       0.50000000       0.50000000       0.00000000 </v>
    <v>       0.00000000       0.50000000       0.07010429 </v>
    <v>       0.50000000       0.00000000       0.07010429 </v>
    <v>      -0.00000000       0.00000000       0.14154114 </v>
    <v>       0.50000000       0.50000000       0.14154114 </v>
    <v>      -0.00000000       0.50000000       0.21035217 </v>
    <v>       0.50000000       0.00000000       0.21035217 </v>
    <v>      -0.00000000       0.00000000       0.27911633 </v>
    <v>       0.50000000       0.50000000       0.27911633 </v>
    <v>      -0.00000000       0.50000000       0.35048332 </v>
    <v>       0.50000000      -0.00000000       0.35048332 </v>
    <v>       0.00000000       0.00000000       0.41620238 </v>
    <v>       0.50000000       0.50000000       0.41620238 </v>
   </varray>
  </structure>
  <varray name="forces" >
   <v>       0.00000000      -0.00000000       0.23973635 </v>
   <v>       0.00000000       0.00000000       0.23973635 </v>
   <v>       0.00000000       0.00000000       0.11106290 </v>
   <v>       0.00000000       0.00000000       0.11106290 </v>
   <v>       0.00000000       0.00000000      -0.16808003 </v>
   <v>      -0.00000000       0.00000000      -0.16808003 </v>
   <v>       0.00000000      -0.00000000       0.00666773 </v>
   <v>      -0.00000000      -0.00000000       0.00666773 </v>
   <v>       0.00000000       0.00000000       0.12685443 </v>
   <v>      -0.00000000       0.00000000       0.12685443 </v>
   <v>       0.00000000      -0.00000000      -0.50636095 </v>
   <v>       0.00000000      -0.00000000      -0.50636095 </v>
   <v>       0.00000000       0.00000000       0.19011957 </v>
   <v>       0.00000000      -0.00000000       0.19011957 </v>
  </varray>
  <varray name="stress" >
   <v>     -36.72447997       0.00000000       0.00000000 </v>
   <v>       0.00000000     -36.72447997       0.00000000 </v>
   <v>       0.00000000       0.00000000     -25.13038783 </v>
  </varray>
  <energy>
   <i name="e_fr_energy">    -54.58747782 </i>
   <i name="e_wo_entrp">    -54.55525476 </i>
   <i name="e_0_energy">    -54.57673680 </i>
  </energy>
  <time name="totalsc">    9.50    9.60</time>
 </calculation>
 <calculation>
  <scstep>
   <time name="dav">    0.64    0.65</time>
   <time name="total">    0.78    0.79</time>
   <energy>
    <i name="alphaZ">    420.16799357 </i>
    <i name="ewald">  78325.75295459 </i>
    <i name="hartreedc"> -97150.62445762 </i>
    <i name="XCdc">    623.62580731 </i>
    <i name="pawpsdc">  18292.71581375 </i>
    <i name="pawaedc"> -19800.97938863 </i>
    <i name="eentropy">     -0.03157011 </i>
    <i name="bandstr">   -233.01659970 </i>
    <i name="atom">  19473.40696280 </i>
    <i name="e_fr_energy">    -48.98248404 </i>
    <i name="e_wo_entrp">    -48.95091393 </i>
    <i name="e_0_energy">    -48.97196067 </i>
   </energy>
  </scstep>
  <scstep>
   <time name="dav">    0.89    0.89</time>
   <time name="total">    1.02    1.03</time>
   <energy>
    <i name="e_fr_energy">    -49.07408902 </i>
    <i name="e_wo_entrp">    -49.04786200 </i>
    <i name="e_0_energy">    -49.06534668 </i>
   </energy>
  </scstep>
  <scstep>
   <time name="dav">    0.84    0.84</time>
   <time name="total">    0.97    0.98</time>
   <energy>
    <i name="e_fr_energy">    -49.05813801 </i>
    <i name="e_wo_entrp">    -49.02841617 </i>
    <i name="e_0_energy">    -49.04823073 </i>
   </energy>
  </scstep>
  <scstep>
   <time name="dav">    0.73    0.73</time>
   <time name="total">    0.86    0.87</time>
   <energy>
    <i name="e_fr_energy">    -49.05497824 </i>
    <i name="e_wo_entrp">    -49.02362087 </i>
    <i name="e_0_energy">    -49.04452578 </i>
   </energy>
  </scstep>
  <scstep>
   <time name="dav">    0.70    0.70</time>
   <time name="total">    0.83    0.84</time>
   <energy>
    <i name="e_fr_energy">    -49.05491448 </i>
    <i name="e_wo_entrp">    -49.02616832 </i>
    <i name="e_0_energy">    -49.04533243 </i>
   </energy>
  </scstep>
  <scstep>
   <time name="dav">    0.80    0.80</time>
   <time name="total">    0.93    0.94</time>
   <energy>
    <i name="e_fr_energy">    -49.05313033 </i>
    <i name="e_wo_entrp">    -49.02162764 </i>
    <i name="e_0_energy">    -49.04262943 </i>
   </energy>
  </scstep>
  <scstep>
   <time name="dav">    0.87    0.88</time>
   <time name="total">    1.01    1.01</time>
   <energy>
    <i name="e_fr_energy">    -49.05280131 </i>
    <i name="e_wo_entrp">    -49.02294782 </i>
    <i name="e_0_energy">    -49.04285015 </i>
   </energy>
  </scstep>
  <scstep>
   <time name="dav">    0.71    0.72</time>
   <time name="total">    0.85    0.85</time>
   <energy>
    <i name="e_fr_energy">    -49.05245497 </i>
    <i name="e_wo_entrp">    -49.02243014 </i>
    <i name="e_0_energy">    -49.04244669 </i>
   </energy>
  </scstep>
  <scstep>
   <time name="dav">    0.51    0.51</time>
   <time name="total">    0.54    0.54</time>
   <energy>
    <i name="alphaZ">    420.16799357 </i>
    <i name="ewald">  78325.75295459 </i>
    <i name="hartreedc"> -97151.56064070 </i>
    <i name="XCdc">    623.67603626 </i>
    <i name="pawpsdc">  18269.84946962 </i>
    <i name="pawaedc"> -19777.71099864 </i>
    <i name="eentropy">     -0.03020919 </i>
    <i name="bandstr">   -232.60401476 </i>
    <i name="atom">  19473.40696280 </i>
    <i name="e_fr_energy">    -49.05244645 </i>
    <i name="e_wo_entrp">    -49.02223726 </i>
    <i name="e_0_energy">    -49.04237672 </i>
   </energy>
  </scstep>
  <dipole>
   <v name="dipole">      0.00000000       0.00000000      -0.00296474 </v>
   <i name="Tr[quadrupol]">   -505.51835590 </i>
   <i name="Echarged">      0.00000000 </i>
   <i name="Edipol_quadrupol">      0.00000000 </i>
   <i name="Eion">      0.00000000 </i>
  </dipole>
  <structure>
   <crystal>
    <varray name="basis" >
     <v>       3.63000011       0.00000000       0.00000000 </v>
     <v>       0.00000000       3.63000011       0.00000000 </v>
     <v>       0.00000000       0.00000000      25.89000000 </v>
    </varray>
    <i name="volume">    341.14996250 </i>
    <varray name="rec_basis" >
     <v>       0.27548208       0.00000000       0.00000000 </v>
     <v>       0.00000000       0.27548208       0.00000000 </v>
     <v>       0.00000000       0.00000000       0.03862495 </v>
    </varray>
   </crystal>
   <varray name="positions" >
    <v>       0.00000000       0.00000000       0.00000000 </v>
    <v>       0.50000000       0.50000000       0.00000000 </v>
    <v>       0.00000000       0.50000000       0.07010429 </v>
    <v>       0.50000000       0.00000000       0.07010429 </v>
    <v>      -0.00000000       0.00000000       0.14094082 </v>
    <v>       0.50000000       0.50000000       0.14094082 </v>
    <v>      -0.00000000       0.50000000       0.21033447 </v>
    <v>       0.50000000       0.00000000       0.21033447 </v>
    <v>      -0.00000000       0.00000000       0.27970235 </v>
    <v>       0.50000000       0.50000000       0.27970235 </v>
    <v>      -0.00000000       0.50000000       0.35050050 </v>
    <v>       0.50000000      -0.00000000       0.35050050 </v>
    <v>       0.00000000       0.00000000       0.41819510 </v>
    <v>       0.50000000       0.50000000       0.41819510 </v>
   </varray>
  </structure>
  <varray name="forces" >
   <v>       0.00000000      -0.00000000       0.23935471 </v>
   <v>      -0.00000000       0.00000000       0.23935471 </v>
   <v>       0.00000000      -0.00000000       0.06721734 </v>
   <v>      -0.00000000       0.00000000       0.06721734 </v>
   <v>       0.00000000      -0.00000000      -0.05628943 </v>
   <v>      -0.00000000      -0.00000000      -0.05628943 </v>
   <v>       0.00000000       0.00000000       0.00663919 </v>
   <v>       0.00000000       0.00000000       0.00663919 </v>
   <v>       0.00000000      -0.00000000       0.04434933 </v>
   <v>      -0.00000000      -0.00000000       0.04434933 </v>
   <v>      -0.00000000       0.00000000      -0.26816229 </v>
   <v>      -0.00000000       0.00000000      -0.26816229 </v>
   <v>       0.00000000      -0.00000000      -0.03310886 </v>
   <v>       0.00000000       0.00000000      -0.03310886 </v>
  </varray>
  <varray name="stress" >
   <v>     -40.09079297       0.00000000       0.00000000 </v>
   <v>       0.00000000     -40.09079297       0.00000000 </v>
   <v>       0.00000000       0.00000000     -30.02100316 </v>
  </varray>
  <energy>
   <i name="e_fr_energy">    -54.60268022 </i>
   <i name="e_wo_entrp">    -54.57247103 </i>
   <i name="e_0_energy">    -54.59261049 </i>
  </energy>
  <time name="totalsc">    8.87    8.99</time>
 </calculation>
 <calculation>
  <scstep>
   <time name="dav">    0.65    0.66</time>
   <time name="total">    0.79    0.79</time>
   <energy>
    <i name="alphaZ">    420.16799357 </i>
    <i name="ewald">  78510.17878221 </i>
    <i name="hartreedc"> -97335.68084837 </i>
    <i name="XCdc">    623.71050719 </i>
    <i name="pawpsdc">  18269.84126576 </i>
    <i name="pawaedc"> -19777.68918016 </i>
    <i name="eentropy">     -0.03039549 </i>
    <i name="bandstr">   -232.95325649 </i>
    <i name="atom">  19473.40696280 </i>
    <i name="e_fr_energy">    -49.04816899 </i>
    <i name="e_wo_entrp">    -49.01777350 </i>
    <i name="e_0_energy">    -49.03803716 </i>
   </energy>
  </scstep>
  <scstep>
   <time name="dav">    0.94    0.95</time>
   <time name="total">    1.07    1.08</time>
   <energy>
    <i name="e_fr_energy">    -49.05446734 </i>
    <i name="e_wo_entrp">    -49.02294300 </i>
    <i name="e_0_energy">    -49.04395922 </i>
   </energy>
  </scstep>
  <scstep>
   <time name="dav">    0.71    0.72</time>
   <time name="total">    0.85    0.86</time>
   <energy>
    <i name="e_fr_energy">    -49.05214426 </i>
    <i name="e_wo_entrp">    -49.02079976 </i>
    <i name="e_0_energy">    -49.04169609 </i>
   </energy>
  </scstep>
  <scstep>
   <time name="dav">    0.63    0.64</time>
   <time name="total">    0.77    0.77</time>
   <energy>
    <i name="e_fr_energy">    -49.05198054 </i>
    <i name="e_wo_entrp">    -49.02149939 </i>
    <i name="e_0_energy">    -49.04182015 </i>
   </energy>
  </scstep>
  <scstep>
   <time name="dav">    0.61    0.62</time>
   <time name="total">    0.64    0.64</time>
   <energy>
    <i name="alphaZ">    420.16799357 </i>
    <i name="ewald">  78510.17878221 </i>
    <i name="hartreedc"> -97335.56743866 </i>
    <i name="XCdc">    623.69518831 </i>
    <i name="pawpsdc">  18271.77465609 </i>
    <i name="pawaedc"> -19779.57168165 </i>
    <i name="eentropy">     -0.03105845 </i>
    <i name="bandstr">   -233.10536692 </i>
    <i name="atom">  19473.40696280 </i>
    <i name="e_fr_energy">    -49.05196270 </i>
    <i name="e_wo_entrp">    -49.02090425 </i>
    <i name="e_0_energy">    -49.04160988 </i>
   </energy>
  </scstep>
  <dipole>
   <v name="dipole">      0.00000000       0.00000000      -0.00198323 </v>
   <i name="Tr[quadrupol]">   -505.52227922 </i>
   <i name="Echarged">      0.00000000 </i>
   <i name="Edipol_quadrupol">      0.00000000 </i>
   <i name="Eion">      0.00000000 </i>
  </dipole>
  <structure>
   <crystal>
    <varray name="basis" >
     <v>       3.63000011       0.00000000       0.00000000 </v>
     <v>       0.00000000       3.63000011       0.00000000 </v>
     <v>       0.00000000       0.00000000      25.89000000 </v>
    </varray>
    <i name="volume">    341.14996250 </i>
    <varray name="rec_basis" >
     <v>       0.27548208       0.00000000       0.00000000 </v>
     <v>       0.00000000       0.27548208       0.00000000 </v>
     <v>       0.00000000       0.00000000       0.03862495 </v>
    </varray>
   </crystal>
   <varray name="positions" >
    <v>       0.00000000       0.00000000       0.00000000 </v>
    <v>       0.50000000       0.50000000       0.00000000 </v>
    <v>       0.00000000       0.50000000       0.07010429 </v>
    <v>       0.50000000       0.00000000       0.07010429 </v>
    <v>      -0.00000000       0.00000000       0.14097747 </v>
    <v>       0.50000000       0.50000000       0.14097747 </v>
    <v>       0.00000000       0.50000000       0.21034699 </v>
    <v>       0.50000000       0.00000000       0.21034699 </v>
    <v>      -0.00000000       0.00000000       0.27965196 </v>
    <v>       0.50000000       0.50000000       0.27965196 </v>
    <v>      -0.00000000       0.50000000       0.35012754 </v>
    <v>       0.50000000      -0.00000000       0.35012754 </v>
    <v>       0.00000000       0.00000000       0.41777021 </v>
    <v>       0.50000000       0.50000000       0.41777021 </v>
   </varray>
  </structure>
  <varray name="forces" >
   <v>      -0.00000000       0.00000000       0.23732087 </v>
   <v>      -0.00000000       0.00000000       0.23732087 </v>
   <v>      -0.00000000       0.00000000       0.07298945 </v>
   <v>       0.00000000       0.00000000       0.07298945 </v>
   <v>       0.00000000       0.00000000      -0.06406326 </v>
   <v>       0.00000000       0.00000000      -0.06406326 </v>
   <v>      -0.00000000       0.00000000      -0.00158027 </v>
   <v>      -0.00000000       0.00000000      -0.00158027 </v>
   <v>       0.00000000       0.00000000       0.02519031 </v>
   <v>       0.00000000      -0.00000000       0.02519031 </v>
   <v>      -0.00000000      -0.00000000      -0.25108066 </v>
   <v>       0.00000000      -0.00000000      -0.25108066 </v>
   <v>      -0.00000000      -0.00000000      -0.01877645 </v>
   <v>      -0.00000000      -0.00000000      -0.01877645 </v>
  </varray>
  <varray name="stress" >
   <v>     -34.21382386       0.00000000       0.00000000 </v>
   <v>       0.00000000     -34.21382386       0.00000000 </v>
   <v>      -0.00000000       0.00000000     -24.00464698 </v>
  </varray>
  <energy>
   <i name="e_fr_energy">    -54.60788366 </i>
   <i name="e_wo_entrp">    -54.57682521 </i>
   <i name="e_0_energy">    -54.59753085 </i>
  </energy>
  <time name="totalsc">    5.19    5.24</time>
 </calculation>
 <calculation>
  <scstep>
   <time name="dav">    0.66    0.66</time>
   <time name="total">    0.80    0.80</time>
   <energy>
    <i name="alphaZ">    420.16799357 </i>
    <i name="ewald">  79065.00930849 </i>
    <i name="hartreedc"> -97889.75448679 </i>
    <i name="XCdc">    623.81639600 </i>
    <i name="pawpsdc">  18272.51916470 </i>
    <i name="pawaedc"> -19780.37464544 </i>
    <i name="eentropy">     -0.03059193 </i>
    <i name="bandstr">   -233.77081479 </i>
    <i name="atom">  19473.40696280 </i>
    <i name="e_fr_energy">    -49.01071340 </i>
    <i name="e_wo_entrp">    -48.98012147 </i>
    <i name="e_0_energy">    -49.00051609 </i>
   </energy>
  </scstep>
  <scstep>
   <time name="dav">    0.87    0.88</time>
   <time name="total">    1.01    1.01</time>
   <energy>
    <i name="e_fr_energy">    -49.05953425 </i>
    <i name="e_wo_entrp">    -49.02362321 </i>
    <i name="e_0_energy">    -49.04756391 </i>
   </energy>
  </scstep>
  <scstep>
   <time name="dav">    0.72    0.73</time>
   <time name="total">    0.86    0.86</time>
   <energy>
    <i name="e_fr_energy">    -49.05459060 </i>
    <i name="e_wo_entrp">    -49.02265300 </i>
    <i name="e_0_energy">    -49.04394473 </i>
   </energy>
  </scstep>
  <scstep>
   <time name="dav">    0.72    0.72</time>
   <time name="total">    0.85    0.86</time>
   <energy>
    <i name="e_fr_energy">    -49.04963829 </i>
    <i name="e_wo_entrp">    -49.01914388 </i>
    <i name="e_0_energy">    -49.03947349 </i>
   </energy>
  </scstep>
  <scstep>
   <time name="dav">    0.85    0.86</time>
   <time name="total">    0.98    0.99</time>
   <energy>
    <i name="e_fr_energy">    -49.04874135 </i>
    <i name="e_wo_entrp">    -49.01591984 </i>
    <i name="e_0_energy">    -49.03780085 </i>
   </energy>
  </scstep>
  <scstep>
   <time name="dav">    0.73    0.74</time>
   <time name="total">    0.87    0.87</time>
   <energy>
    <i name="e_fr_energy">    -49.04774921 </i>
    <i name="e_wo_entrp">    -49.01580439 </i>
    <i name="e_0_energy">    -49.03710094 </i>
   </energy>
  </scstep>
  <scstep>
   <time name="dav">    0.74    0.74</time>
   <time name="total">    0.87    0.88</time>
   <energy>
    <i name="e_fr_energy">    -49.04713775 </i>
    <i name="e_wo_entrp">    -49.01434171 </i>
    <i name="e_0_energy">    -49.03620573 </i>
   </energy>
  </scstep>
  <scstep>
   <time name="dav">    0.63    0.64</time>
   <time name="total">    0.77    0.77</time>
   <energy>
    <i name="e_fr_energy">    -49.04694020 </i>
    <i name="e_wo_entrp">    -49.01501464 </i>
    <i name="e_0_energy">    -49.03629835 </i>
   </energy>
  </scstep>
  <scstep>
   <time name="dav">    0.47    0.47</time>
   <time name="total">    0.50    0.50</time>
   <energy>
    <i name="alphaZ">    420.16799357 </i>
    <i name="ewald">  79065.00930849 </i>
    <i name="hartreedc"> -97888.61577280 </i>
    <i name="XCdc">    623.77600554 </i>
    <i name="pawpsdc">  18286.91917659 </i>
    <i name="pawaedc"> -19795.10248469 </i>
    <i name="eentropy">     -0.03196168 </i>
    <i name="bandstr">   -234.57613565 </i>
    <i name="atom">  19473.40696280 </i>
    <i name="e_fr_energy">    -49.04690784 </i>
    <i name="e_wo_entrp">    -49.01494616 </i>
    <i name="e_0_energy">    -49.03625395 </i>
   </energy>
  </scstep>
  <dipole>
   <v name="dipole">      0.00000000       0.00000000      -0.00169322 </v>
   <i name="Tr[quadrupol]">   -505.51274049 </i>
   <i name="Echarged">      0.00000000 </i>
   <i name="Edipol_quadrupol">      0.00000000 </i>
   <i name="Eion">      0.00000000 </i>
  </dipole>
  <structure>
   <crystal>
    <varray name="basis" >
     <v>       3.63000011       0.00000000       0.00000000 </v>
     <v>       0.00000000       3.63000011       0.00000000 </v>
     <v>       0.00000000       0.00000000      25.89000000 </v>
    </varray>
    <i name="volume">    341.14996250 </i>
    <varray name="rec_basis" >
     <v>       0.27548208       0.00000000       0.00000000 </v>
     <v>       0.00000000       0.27548208       0.00000000 </v>
     <v>       0.00000000       0.00000000       0.03862495 </v>
    </varray>
   </crystal>
   <varray name="positions" >
    <v>       0.00000000       0.00000000       0.00000000 </v>
    <v>       0.50000000       0.50000000       0.00000000 </v>
    <v>       0.00000000       0.50000000       0.07010429 </v>
    <v>       0.50000000       0.00000000       0.07010429 </v>
    <v>      -0.00000000       0.00000000       0.14108741 </v>
    <v>       0.50000000       0.50000000       0.14108741 </v>
    <v>       0.00000000       0.50000000       0.21038456 </v>
    <v>       0.50000000       0.00000000       0.21038456 </v>
    <v>      -0.00000000       0.00000000       0.27950081 </v>
    <v>       0.50000000       0.50000000       0.27950081 </v>
    <v>      -0.00000000       0.50000000       0.34900867 </v>
    <v>       0.50000000      -0.00000000       0.34900867 </v>
    <v>       0.00000000       0.00000000       0.41649557 </v>
    <v>       0.50000000       0.50000000       0.41649557 </v>
   </varray>
  </structure>
  <varray name="forces" >
   <v>      -0.00000000       0.00000000       0.23797093 </v>
   <v>      -0.00000000      -0.00000000       0.23797093 </v>
   <v>       0.00000000      -0.00000000       0.08552634 </v>
   <v>       0.00000000      -0.00000000       0.08552634 </v>
   <v>      -0.00000000       0.00000000      -0.08354853 </v>
   <v>      -0.00000000       0.00000000      -0.08354853 </v>
   <v>      -0.00000000      -0.00000000      -0.01204580 </v>
   <v>      -0.00000000      -0.00000000      -0.01204580 </v>
   <v>      -0.00000000       0.00000000      -0.03382220 </v>
   <v>       0.00000000      -0.00000000      -0.03382220 </v>
   <v>       0.00000000      -0.00000000      -0.20724278 </v>
   <v>       0.00000000       0.00000000      -0.20724278 </v>
   <v>      -0.00000000       0.00000000       0.01316203 </v>
   <v>      -0.00000000      -0.00000000       0.01316203 </v>
  </varray>
  <varray name="stress" >
   <v>     -37.88414064       0.00000000       0.00000000 </v>
   <v>       0.00000000     -37.88414064       0.00000000 </v>
   <v>      -0.00000000       0.00000000     -26.76559296 </v>
  </varray>
  <energy>
   <i name="e_fr_energy">    -54.61990111 </i>
   <i name="e_wo_entrp">    -54.58793942 </i>
   <i name="e_0_energy">    -54.60924721 </i>
  </energy>
  <time name="totalsc">    8.57    8.67</time>
 </calculation>
 <calculation>
  <scstep>
   <time name="dav">    0.67    0.67</time>
   <time name="total">    0.80    0.81</time>
   <energy>
    <i name="alphaZ">    420.16799357 </i>
    <i name="ewald">  80181.62675933 </i>
    <i name="hartreedc"> -99004.33979498 </i>
    <i name="XCdc">    624.03181248 </i>
    <i name="pawpsdc">  18286.73648820 </i>
    <i name="pawaedc"> -19794.88850657 </i>
    <i name="eentropy">     -0.03019538 </i>
    <i name="bandstr">   -235.57835190 </i>
    <i name="atom">  19473.40696280 </i>
    <i name="e_fr_energy">    -48.86683245 </i>
    <i name="e_wo_entrp">    -48.83663707 </i>
    <i name="e_0_energy">    -48.85676733 </i>
   </energy>
  </scstep>
  <scstep>
   <time name="dav">    0.89    0.90</time>
   <time name="total">    1.04    1.04</time>
   <energy>
    <i name="e_fr_energy">    -49.08703081 </i>
    <i name="e_wo_entrp">    -49.04770436 </i>
    <i name="e_0_energy">    -49.07392199 </i>
   </energy>
  </scstep>
  <scstep>
   <time name="dav">    0.77    0.78</time>
   <time name="total">    0.92    0.92</time>
   <energy>
    <i name="e_fr_energy">    -49.06736325 </i>
    <i name="e_wo_entrp">    -49.04202327 </i>
    <i name="e_0_energy">    -49.05891659 </i>
   </energy>
  </scstep>
  <scstep>
   <time name="dav">    0.77    0.78</time>
   <time name="total">    0.92    0.92</time>
   <energy>
    <i name="e_fr_energy">    -49.03420571 </i>
    <i name="e_wo_entrp">    -49.00465482 </i>
    <i name="e_0_energy">    -49.02435542 </i>
   </energy>
  </scstep>
  <scstep>
   <time name="dav">    0.81    0.81</time>
   <time name="total">    0.95    0.95</time>
   <energy>
    <i name="e_fr_energy">    -49.03065770 </i>
    <i name="e_wo_entrp">    -48.99525217 </i>
    <i name="e_0_energy">    -49.01885586 </i>
   </energy>
  </scstep>
  <scstep>
   <time name="dav">    0.65    0.66</time>
   <time name="total">    0.79    0.80</time>
   <energy>
    <i name="e_fr_energy">    -49.02894653 </i>
    <i name="e_wo_entrp">    -48.99549998 </i>
    <i name="e_0_energy">    -49.01779768 </i>
   </energy>
  </scstep>
  <scstep>
   <time name="dav">    0.76    0.76</time>
   <time name="total">    0.89    0.90</time>
   <energy>
    <i name="e_fr_energy">    -49.02556472 </i>
    <i name="e_wo_entrp">    -48.99032087 </i>
    <i name="e_0_energy">    -49.01381677 </i>
   </energy>
  </scstep>
  <scstep>
   <time name="dav">    0.83    0.84</time>
   <time name="total">    0.97    0.97</time>
   <energy>
    <i name="e_fr_energy">    -49.02506401 </i>
    <i name="e_wo_entrp">    -48.99140379 </i>
    <i name="e_0_energy">    -49.01384394 </i>
   </energy>
  </scstep>
  <scstep>
   <time name="dav">    0.61    0.61</time>
   <time name="total">    0.74    0.75</time>
   <energy>
    <i name="e_fr_energy">    -49.02473388 </i>
    <i name="e_wo_entrp">    -48.99135498 </i>
    <i name="e_0_energy">    -49.01360758 </i>
   </energy>
  </scstep>
  <scstep>
   <time name="dav">    0.48    0.48</time>
   <time name="total">    0.51    0.51</time>
   <energy>
    <i name="alphaZ">    420.16799357 </i>
    <i name="ewald">  80181.62675933 </i>
    <i name="hartreedc"> -99002.19184160 </i>
    <i name="XCdc">    623.93585834 </i>
    <i name="pawpsdc">  18314.00335792 </i>
    <i name="pawaedc"> -19822.62597580 </i>
    <i name="eentropy">     -0.03363035 </i>
    <i name="bandstr">   -237.31418869 </i>
    <i name="atom">  19473.40696280 </i>
    <i name="e_fr_energy">    -49.02470449 </i>
    <i name="e_wo_entrp">    -48.99107413 </i>
    <i name="e_0_energy">    -49.01349437 </i>
   </energy>
  </scstep>
  <dipole>
   <v name="dipole">      0.00000000       0.00000000      -0.00048673 </v>
   <i name="Tr[quadrupol]">   -505.49967247 </i>
   <i name="Echarged">      0.00000000 </i>
   <i name="Edipol_quadrupol">      0.00000000 </i>
   <i name="Eion">      0.00000000 </i>
  </dipole>
  <structure>
   <crystal>
    <varray name="basis" >
     <v>       3.63000011       0.00000000       0.00000000 </v>
     <v>       0.00000000       3.63000011       0.00000000 </v>
     <v>       0.00000000       0.00000000      25.89000000 </v>
    </varray>
    <i name="volume">    341.14996250 </i>
    <varray name="rec_basis" >
     <v>       0.27548208       0.00000000       0.00000000 </v>
     <v>       0.00000000       0.27548208       0.00000000 </v>
     <v>       0.00000000       0.00000000       0.03862495 </v>
    </varray>
   </crystal>
   <varray name="positions" >
    <v>       0.00000000       0.00000000       0.00000000 </v>
    <v>       0.50000000       0.50000000       0.00000000 </v>
    <v>       0.00000000       0.50000000       0.07010429 </v>
    <v>       0.50000000       0.00000000       0.07010429 </v>
    <v>      -0.00000000       0.00000000       0.14130729 </v>
    <v>       0.50000000       0.50000000       0.14130729 </v>
    <v>       0.00000000       0.50000000       0.21045969 </v>
    <v>       0.50000000       0.00000000       0.21045969 </v>
    <v>      -0.00000000       0.00000000       0.27919849 </v>
    <v>       0.50000000       0.50000000       0.27919849 </v>
    <v>      -0.00000000       0.50000000       0.34677094 </v>
    <v>       0.50000000      -0.00000000       0.34677094 </v>
    <v>       0.00000000       0.00000000       0.41394628 </v>
    <v>       0.50000000       0.50000000       0.41394628 </v>
   </varray>
  </structure>
  <varray name="forces" >
   <v>       0.00000000       0.00000000       0.23115536 </v>
   <v>       0.00000000       0.00000000       0.23115536 </v>
   <v>       0.00000000      -0.00000000       0.11431753 </v>
   <v>       0.00000000       0.00000000       0.11431753 </v>
   <v>      -0.00000000      -0.00000000      -0.11888677 </v>
   <v>       0.00000000       0.00000000      -0.11888677 </v>
   <v>      -0.00000000      -0.00000000      -0.04489516 </v>
   <v>      -0.00000000       0.00000000      -0.04489516 </v>
   <v>       0.00000000       0.00000000      -0.19838067 </v>
   <v>      -0.00000000      -0.00000000      -0.19838067 </v>
   <v>       0.00000000       0.00000000      -0.02532530 </v>
   <v>       0.00000000       0.00000000      -0.02532530 </v>
   <v>       0.00000000       0.00000000       0.04201501 </v>
   <v>       0.00000000       0.00000000       0.04201501 </v>
  </varray>
  <varray name="stress" >
   <v>     -33.30192358       0.00000000       0.00000000 </v>
   <v>       0.00000000     -33.30192358       0.00000000 </v>
   <v>       0.00000000      -0.00000000     -21.08968239 </v>
  </varray>
  <energy>
   <i name="e_fr_energy">    -54.63199856 </i>
   <i name="e_wo_entrp">    -54.59836820 </i>
   <i name="e_0_energy">    -54.62078844 </i>
  </energy>
  <time name="totalsc">    9.59    9.71</time>
 </calculation>
 <calculation>
  <scstep>
   <time name="dav">    0.65    0.65</time>
   <time name="total">    0.78    0.79</time>
   <energy>
    <i name="alphaZ">    420.16799357 </i>
    <i name="ewald">  80549.22812585 </i>
    <i name="hartreedc"> -99369.59729295 </i>
    <i name="XCdc">    623.99864842 </i>
    <i name="pawpsdc">  18313.95427350 </i>
    <i name="pawaedc"> -19822.57213054 </i>
    <i name="eentropy">     -0.03203954 </i>
    <i name="bandstr">   -237.55211116 </i>
    <i name="atom">  19473.40696280 </i>
    <i name="e_fr_energy">    -48.99757006 </i>
    <i name="e_wo_entrp">    -48.96553052 </i>
    <i name="e_0_energy">    -48.98689021 </i>
   </energy>
  </scstep>
  <scstep>
   <time name="dav">    0.91    0.92</time>
   <time name="total">    1.04    1.05</time>
   <energy>
    <i name="e_fr_energy">    -49.03255514 </i>
    <i name="e_wo_entrp">    -48.99973114 </i>
    <i name="e_0_energy">    -49.02161381 </i>
   </energy>
  </scstep>
  <scstep>
   <time name="dav">    0.86    0.86</time>
   <time name="total">    0.99    1.00</time>
   <energy>
    <i name="e_fr_energy">    -49.02674547 </i>
    <i name="e_wo_entrp">    -48.99143627 </i>
    <i name="e_0_energy">    -49.01497573 </i>
   </energy>
  </scstep>
  <scstep>
   <time name="dav">    0.68    0.68</time>
   <time name="total">    0.81    0.82</time>
   <energy>
    <i name="e_fr_energy">    -49.02422740 </i>
    <i name="e_wo_entrp">    -48.99284506 </i>
    <i name="e_0_energy">    -49.01376662 </i>
   </energy>
  </scstep>
  <scstep>
   <time name="dav">    0.66    0.67</time>
   <time name="total">    0.80    0.80</time>
   <energy>
    <i name="e_fr_energy">    -49.02390561 </i>
    <i name="e_wo_entrp">    -48.99000912 </i>
    <i name="e_0_energy">    -49.01260678 </i>
   </energy>
  </scstep>
  <scstep>
   <time name="dav">    0.76    0.77</time>
   <time name="total">    0.90    0.91</time>
   <energy>
    <i name="e_fr_energy">    -49.02311698 </i>
    <i name="e_wo_entrp">    -48.98891498 </i>
    <i name="e_0_energy">    -49.01171631 </i>
   </energy>
  </scstep>
  <scstep>
   <time name="dav">    0.64    0.64</time>
   <time name="total">    0.67    0.67</time>
   <energy>
    <i name="alphaZ">    420.16799357 </i>
    <i name="ewald">  80549.22812585 </i>
    <i name="hartreedc"> -99369.27213054 </i>
    <i name="XCdc">    623.98364123 </i>
    <i name="pawpsdc">  18320.31780373 </i>
    <i name="pawaedc"> -19829.13089249 </i>
    <i name="eentropy">     -0.03412449 </i>
    <i name="bandstr">   -237.69035062 </i>
    <i name="atom">  19473.40696280 </i>
    <i name="e_fr_energy">    -49.02297096 </i>
    <i name="e_wo_entrp">    -48.98884647 </i>
    <i name="e_0_energy">    -49.01159613 </i>
   </energy>
  </scstep>
  <dipole>
   <v name="dipole">      0.00000000       0.00000000       0.00171958 </v>
   <i name="Tr[quadrupol]">   -505.49698715 </i>
   <i name="Echarged">      0.00000000 </i>
   <i name="Edipol_quadrupol">      0.00000000 </i>
   <i name="Eion">      0.00000000 </i>
  </dipole>
  <structure>
   <crystal>
    <varray name="basis" >
     <v>       3.63000011       0.00000000       0.00000000 </v>
     <v>       0.00000000       3.63000011       0.00000000 </v>
     <v>       0.00000000       0.00000000      25.89000000 </v>
    </varray>
    <i name="volume">    341.14996250 </i>
    <varray name="rec_basis" >
     <v>       0.27548208       0.00000000       0.00000000 </v>
     <v>       0.00000000       0.27548208       0.00000000 </v>
     <v>       0.00000000       0.00000000       0.03862495 </v>
    </varray>
   </crystal>
   <varray name="positions" >
[...]
       <r>     8.2309     3.5704    92.2525 </r>
       <r>     8.3063     3.0572    92.4828 </r>
       <r>     8.3816     2.0769    92.6392 </r>
       <r>     8.4569     1.3277    92.7392 </r>
       <r>     8.5323     1.0575    92.8189 </r>
       <r>     8.6076     1.3739    92.9224 </r>
       <r>     8.6829     2.3627    93.1004 </r>
       <r>     8.7583     3.4627    93.3612 </r>
       <r>     8.8336     3.7510    93.6438 </r>
       <r>     8.9089     3.2083    93.8855 </r>
       <r>     8.9843     2.9093    94.1047 </r>
       <r>     9.0596     3.5770    94.3741 </r>
       <r>     9.1349     4.5557    94.7173 </r>
       <r>     9.2103     4.7958    95.0786 </r>
       <r>     9.2856     4.4396    95.4130 </r>
       <r>     9.3609     4.5297    95.7543 </r>
       <r>     9.4363     5.3766    96.1593 </r>
       <r>     9.5116     6.3038    96.6342 </r>
       <r>     9.5869     6.6698    97.1366 </r>
       <r>     9.6623     6.0951    97.5958 </r>
       <r>     9.7376     4.3927    97.9267 </r>
       <r>     9.8129     2.1814    98.0910 </r>
       <r>     9.8883     0.8013    98.1514 </r>
       <r>     9.9636     1.0451    98.2301 </r>
       <r>    10.0389     2.3658    98.4083 </r>
       <r>    10.1142     3.4030    98.6647 </r>
       <r>    10.1896     3.2004    98.9058 </r>
       <r>    10.2649     2.0639    99.0613 </r>
       <r>    10.3402     1.1578    99.1485 </r>
       <r>    10.4156     1.1829    99.2376 </r>
       <r>    10.4909     1.7689    99.3708 </r>
       <r>    10.5662     2.2373    99.5394 </r>
       <r>    10.6416     2.3402    99.7157 </r>
       <r>    10.7169     2.0441    99.8697 </r>
       <r>    10.7922     1.3517    99.9715 </r>
       <r>    10.8676     0.5512   100.0130 </r>
       <r>    10.9429     0.0400   100.0160 </r>
       <r>    11.0182    -0.1042   100.0082 </r>
       <r>    11.0936    -0.0732   100.0027 </r>
       <r>    11.1689    -0.0272   100.0006 </r>
       <r>    11.2442    -0.0067   100.0001 </r>
       <r>    11.3196    -0.0011   100.0000 </r>
       <r>    11.3949    -0.0001   100.0000 </r>
       <r>    11.4702    -0.0000   100.0000 </r>
       <r>    11.5456    -0.0000   100.0000 </r>
       <r>    11.6209    -0.0000   100.0000 </r>
       <r>    11.6962    -0.0000   100.0000 </r>
       <r>    11.7715    -0.0000   100.0000 </r>
       <r>    11.8469    -0.0000   100.0000 </r>
       <r>    11.9222    -0.0000   100.0000 </r>
       <r>    11.9975     0.0000   100.0000 </r>
       <r>    12.0729     0.0000   100.0000 </r>
       <r>    12.1482     0.0000   100.0000 </r>
       <r>    12.2235     0.0000   100.0000 </r>
       <r>    12.2989     0.0000   100.0000 </r>
       <r>    12.3742     0.0000   100.0000 </r>
       <r>    12.4495     0.0000   100.0000 </r>
       <r>    12.5249     0.0000   100.0000 </r>
       <r>    12.6002     0.0000   100.0000 </r>
       <r>    12.6755     0.0000   100.0000 </r>
      </set>
      <set comment="spin 2">
       <r>    -9.9240     0.0000     0.0000 </r>
       <r>    -9.8487     0.0000     0.0000 </r>
       <r>    -9.7734     0.0000     0.0000 </r>
       <r>    -9.6980     0.0000     0.0000 </r>
       <r>    -9.6227     0.0000     0.0000 </r>
       <r>    -9.5474    -0.0000    -0.0000 </r>
       <r>    -9.4720    -0.0000    -0.0000 </r>
       <r>    -9.3967    -0.0000    -0.0000 </r>
       <r>    -9.3214    -0.0000    -0.0000 </r>
       <r>    -9.2460    -0.0000    -0.0000 </r>
       <r>    -9.1707    -0.0000    -0.0000 </r>
       <r>    -9.0954    -0.0000    -0.0000 </r>
       <r>    -9.0200    -0.0000    -0.0000 </r>
       <r>    -8.9447    -0.0000    -0.0000 </r>
       <r>    -8.8694    -0.0000    -0.0000 </r>
       <r>    -8.7940    -0.0000    -0.0000 </r>
       <r>    -8.7187    -0.0000    -0.0000 </r>
       <r>    -8.6434    -0.0000    -0.0000 </r>
       <r>    -8.5681    -0.0000    -0.0000 </r>
       <r>    -8.4927    -0.0003    -0.0000 </r>
       <r>    -8.4174    -0.0017    -0.0001 </r>
       <r>    -8.3421    -0.0067    -0.0007 </r>
       <r>    -8.2667    -0.0178    -0.0020 </r>
       <r>    -8.1914    -0.0234    -0.0038 </r>
       <r>    -8.1161     0.0196    -0.0023 </r>
       <r>    -8.0407     0.1593     0.0097 </r>
       <r>    -7.9654     0.3562     0.0366 </r>
       <r>    -7.8901     0.4607     0.0713 </r>
       <r>    -7.8147     0.3731     0.0994 </r>
       <r>    -7.7394     0.1767     0.1127 </r>
       <r>    -7.6641     0.0231     0.1144 </r>
       <r>    -7.5887    -0.0381     0.1116 </r>
       <r>    -7.5134    -0.0432     0.1083 </r>
       <r>    -7.4381     0.0002     0.1083 </r>
       <r>    -7.3627     0.1302     0.1181 </r>
       <r>    -7.2874     0.3279     0.1428 </r>
       <r>    -7.2121     0.4559     0.1772 </r>
       <r>    -7.1367     0.3916     0.2067 </r>
       <r>    -7.0614     0.1835     0.2205 </r>
       <r>    -6.9861    -0.0217     0.2189 </r>
       <r>    -6.9108    -0.1156     0.2101 </r>
       <r>    -6.8354     0.0261     0.2121 </r>
       <r>    -6.7601     0.5573     0.2541 </r>
       <r>    -6.6848     1.3504     0.3558 </r>
       <r>    -6.6094     1.8294     0.4936 </r>
       <r>    -6.5341     1.5393     0.6096 </r>
       <r>    -6.4588     0.7516     0.6662 </r>
       <r>    -6.3834     0.1157     0.6749 </r>
       <r>    -6.3081    -0.0541     0.6709 </r>
       <r>    -6.2328     0.1628     0.6831 </r>
       <r>    -6.1574     0.6490     0.7320 </r>
       <r>    -6.0821     1.3193     0.8314 </r>
       <r>    -6.0068     1.8724     0.9724 </r>
       <r>    -5.9314     1.8435     1.1113 </r>
       <r>    -5.8561     1.1594     1.1987 </r>
       <r>    -5.7808     0.3372     1.2241 </r>
       <r>    -5.7054    -0.0364     1.2213 </r>
       <r>    -5.6301     0.2675     1.2415 </r>
       <r>    -5.5548     1.0565     1.3211 </r>
       <r>    -5.4794     1.7226     1.4508 </r>
       <r>    -5.4041     1.6414     1.5745 </r>
       <r>    -5.3288     0.8643     1.6396 </r>
       <r>    -5.2535     0.1442     1.6504 </r>
       <r>    -5.1781     0.2788     1.6714 </r>
       <r>    -5.1028     1.5127     1.7854 </r>
       <r>    -5.0275     3.1665     2.0239 </r>
       <r>    -4.9521     3.9299     2.3200 </r>
       <r>    -4.8768     3.1410     2.5566 </r>
       <r>    -4.8015     1.5381     2.6725 </r>
       <r>    -4.7261     0.2879     2.6942 </r>
       <r>    -4.6508    -0.2172     2.6778 </r>
       <r>    -4.5755    -0.2505     2.6589 </r>
       <r>    -4.5001    -0.0062     2.6585 </r>
       <r>    -4.4248     0.5756     2.7018 </r>
       <r>    -4.3495     1.3359     2.8025 </r>
       <r>    -4.2741     1.6866     2.9295 </r>
       <r>    -4.1988     1.3126     3.0284 </r>
       <r>    -4.1235     0.8851     3.0951 </r>
       <r>    -4.0481     1.4208     3.2021 </r>
       <r>    -3.9728     2.8492     3.4167 </r>
       <r>    -3.8975     3.8707     3.7083 </r>
       <r>    -3.8221     3.6057     3.9799 </r>
       <r>    -3.7468     2.6892     4.1825 </r>
       <r>    -3.6715     2.3316     4.3582 </r>
       <r>    -3.5962     3.1777     4.5976 </r>
       <r>    -3.5208     5.2214     4.9909 </r>
       <r>    -3.4455     7.8148     5.5796 </r>
       <r>    -3.3702     9.7624     6.3150 </r>
       <r>    -3.2948    10.1768     7.0817 </r>
       <r>    -3.2195     9.2731     7.7802 </r>
       <r>    -3.1442     8.1234     8.3922 </r>
       <r>    -3.0688     7.9374     8.9901 </r>
       <r>    -2.9935     9.6040     9.7136 </r>
       <r>    -2.9182    13.1366    10.7032 </r>
       <r>    -2.8428    17.2064    11.9994 </r>
       <r>    -2.7675    19.7414    13.4866 </r>
       <r>    -2.6922    19.2809    14.9390 </r>
       <r>    -2.6168    16.0244    16.1462 </r>
       <r>    -2.5415    12.0160    17.0514 </r>
       <r>    -2.4662     9.8399    17.7926 </r>
       <r>    -2.3908    10.3705    18.5738 </r>
       <r>    -2.3155    12.2940    19.5000 </r>
       <r>    -2.2402    14.1964    20.5694 </r>
       <r>    -2.1648    15.7763    21.7579 </r>
       <r>    -2.0895    16.7692    23.0211 </r>
       <r>    -2.0142    16.8592    24.2912 </r>
       <r>    -1.9388    16.9506    25.5681 </r>
       <r>    -1.8635    18.3780    26.9525 </r>
       <r>    -1.7882    21.0799    28.5405 </r>
       <r>    -1.7129    24.2304    30.3658 </r>
       <r>    -1.6375    27.4221    32.4316 </r>
       <r>    -1.5622    29.7314    34.6713 </r>
       <r>    -1.4869    29.3852    36.8850 </r>
       <r>    -1.4115    26.0860    38.8501 </r>
       <r>    -1.3362    22.3597    40.5345 </r>
       <r>    -1.2609    20.8161    42.1026 </r>
       <r>    -1.1855    21.1956    43.6993 </r>
       <r>    -1.1102    21.7503    45.3378 </r>
       <r>    -1.0349    22.0072    46.9956 </r>
       <r>    -0.9595    22.5851    48.6970 </r>
       <r>    -0.8842    23.6533    50.4788 </r>
       <r>    -0.8089    25.0960    52.3694 </r>
       <r>    -0.7335    27.4840    54.4398 </r>
       <r>    -0.6582    31.0041    56.7754 </r>
       <r>    -0.5829    33.6125    59.3075 </r>
       <r>    -0.5075    33.0958    61.8007 </r>
       <r>    -0.4322    30.9768    64.1342 </r>
       <r>    -0.3569    30.5104    66.4326 </r>
       <r>    -0.2815    30.9830    68.7666 </r>
       <r>    -0.2062    28.4245    70.9079 </r>
       <r>    -0.1309    21.6711    72.5404 </r>
       <r>    -0.0556    13.7688    73.5776 </r>
       <r>     0.0198     7.7422    74.1609 </r>
       <r>     0.0951     3.9779    74.4605 </r>
       <r>     0.1704     1.5939    74.5806 </r>
       <r>     0.2458     0.1798    74.5941 </r>
       <r>     0.3211    -0.2193    74.5776 </r>
       <r>     0.3964     0.3022    74.6004 </r>
       <r>     0.4718     1.2926    74.6978 </r>
       <r>     0.5471     2.0144    74.8495 </r>
       <r>     0.6224     1.9824    74.9989 </r>
       <r>     0.6978     1.5637    75.1166 </r>
       <r>     0.7731     1.4764    75.2279 </r>
       <r>     0.8484     1.6759    75.3541 </r>
       <r>     0.9238     1.4655    75.4645 </r>
       <r>     0.9991     0.6698    75.5150 </r>
       <r>     1.0744     0.0574    75.5193 </r>
       <r>     1.1498     0.6549    75.5686 </r>
       <r>     1.2251     2.7349    75.7747 </r>
       <r>     1.3004     5.1744    76.1644 </r>
       <r>     1.3758     6.3347    76.6417 </r>
       <r>     1.4511     5.9615    77.0907 </r>
       <r>     1.5264     5.1694    77.4802 </r>
       <r>     1.6017     4.4693    77.8168 </r>
       <r>     1.6771     3.3645    78.0703 </r>
       <r>     1.7524     1.8865    78.2124 </r>
       <r>     1.8277     0.9558    78.2844 </r>
       <r>     1.9031     1.0737    78.3653 </r>
       <r>     1.9784     1.7645    78.4982 </r>
       <r>     2.0537     2.4809    78.6851 </r>
       <r>     2.1291     3.2034    78.9264 </r>
       <r>     2.2044     3.8248    79.2146 </r>
       <r>     2.2797     3.8693    79.5060 </r>
       <r>     2.3551     3.3044    79.7550 </r>
       <r>     2.4304     2.7234    79.9601 </r>
       <r>     2.5057     2.4797    80.1469 </r>
       <r>     2.5811     2.3065    80.3207 </r>
       <r>     2.6564     1.7804    80.4548 </r>
       <r>     2.7317     0.9357    80.5253 </r>
       <r>     2.8071     0.4142    80.5565 </r>
       <r>     2.8824     0.8502    80.6205 </r>
       <r>     2.9577     2.0471    80.7747 </r>
       <r>     3.0331     2.9538    80.9973 </r>
       <r>     3.1084     2.7097    81.2014 </r>
       <r>     3.1837     1.5713    81.3198 </r>
       <r>     3.2590     0.4672    81.3549 </r>
       <r>     3.3344    -0.0787    81.3490 </r>
       <r>     3.4097    -0.2009    81.3339 </r>
       <r>     3.4850    -0.1702    81.3211 </r>
       <r>     3.5604     0.0162    81.3223 </r>
       <r>     3.6357     0.5358    81.3626 </r>
       <r>     3.7110     1.2863    81.4595 </r>
       <r>     3.7864     1.7284    81.5898 </r>
       <r>     3.8617     1.5408    81.7058 </r>
       <r>     3.9370     1.1915    81.7956 </r>
       <r>     4.0124     1.3029    81.8937 </r>
       <r>     4.0877     1.8093    82.0300 </r>
       <r>     4.1630     2.3193    82.2047 </r>
       <r>     4.2384     2.7130    82.4091 </r>
       <r>     4.3137     2.8173    82.6213 </r>
       <r>     4.3890     2.2740    82.7927 </r>
       <r>     4.4644     1.1930    82.8825 </r>
       <r>     4.5397     0.2234    82.8994 </r>
       <r>     4.6150    -0.1432    82.8886 </r>
       <r>     4.6904     0.1527    82.9001 </r>
       <r>     4.7657     0.8714    82.9657 </r>
       <r>     4.8410     1.5073    83.0793 </r>
       <r>     4.9163     1.7124    83.2083 </r>
       <r>     4.9917     1.8978    83.3512 </r>
       <r>     5.0670     2.6510    83.5509 </r>
       <r>     5.1423     3.5831    83.8208 </r>
       <r>     5.2177     3.8437    84.1104 </r>
       <r>     5.2930     3.5690    84.3793 </r>
       <r>     5.3683     3.6051    84.6508 </r>
       <r>     5.4437     4.0189    84.9536 </r>
       <r>     5.5190     3.9643    85.2522 </r>
       <r>     5.5943     3.1197    85.4872 </r>
       <r>     5.6697     2.3473    85.6641 </r>
       <r>     5.7450     2.3893    85.8441 </r>
       <r>     5.8203     2.7221    86.0491 </r>
       <r>     5.8957     2.4277    86.2320 </r>
       <r>     5.9710     1.4918    86.3444 </r>
       <r>     6.0463     0.6059    86.3900 </r>
       <r>     6.1217     0.3508    86.4164 </r>
       <r>     6.1970     1.0106    86.4926 </r>
       <r>     6.2723     2.3847    86.6722 </r>
       <r>     6.3477     3.4533    86.9324 </r>
       <r>     6.4230     3.1482    87.1695 </r>
       <r>     6.4983     1.6955    87.2973 </r>
       <r>     6.5736     0.4542    87.3315 </r>
       <r>     6.6490     0.4927    87.3686 </r>
       <r>     6.7243     1.8071    87.5047 </r>
       <r>     6.7996     3.6264    87.7779 </r>
       <r>     6.8750     5.0841    88.1609 </r>
       <r>     6.9503     5.5659    88.5802 </r>
       <r>     7.0256     4.7350    88.9369 </r>
       <r>     7.1010     2.8707    89.1532 </r>
       <r>     7.1763     1.0767    89.2343 </r>
       <r>     7.2516     0.4454    89.2678 </r>
       <r>     7.3270     1.0394    89.3461 </r>
       <r>     7.4023     2.0367    89.4995 </r>
       <r>     7.4776     2.7982    89.7103 </r>
       <r>     7.5530     3.3839    89.9653 </r>
       <r>     7.6283     3.8181    90.2529 </r>
       <r>     7.7036     3.6972    90.5314 </r>
       <r>     7.7790     3.1489    90.7686 </r>
       <r>     7.8543     2.9778    90.9929 </r>
       <r>     7.9296     3.2663    91.2390 </r>
       <r>     8.0050     3.3270    91.4896 </r>
       <r>     8.0803     3.1864    91.7297 </r>
       <r>     8.1556     3.3814    91.9844 </r>
       <r>     8.2309     3.5709    92.2534 </r>
       <r>     8.3063     3.0533    92.4834 </r>
       <r>     8.3816     2.0723    92.6395 </r>
       <r>     8.4569     1.3250    92.7393 </r>
       <r>     8.5323     1.0569    92.8189 </r>
       <r>     8.6076     1.3748    92.9225 </r>
       <r>     8.6829     2.3640    93.1006 </r>
       <r>     8.7583     3.4631    93.3615 </r>
       <r>     8.8336     3.7501    93.6440 </r>
       <r>     8.9089     3.2070    93.8856 </r>
       <r>     8.9843     2.9084    94.1046 </r>
       <r>     9.0596     3.5767    94.3741 </r>
       <r>     9.1349     4.5559    94.7173 </r>
       <r>     9.2103     4.7971    95.0787 </r>
       <r>     9.2856     4.4422    95.4133 </r>
       <r>     9.3609     4.5324    95.7547 </r>
       <r>     9.4363     5.3776    96.1598 </r>
       <r>     9.5116     6.3034    96.6347 </r>
       <r>     9.5869     6.6697    97.1371 </r>
       <r>     9.6623     6.0950    97.5963 </r>
       <r>     9.7376     4.3911    97.9271 </r>
       <r>     9.8129     2.1787    98.0912 </r>
       <r>     9.8883     0.7993    98.1514 </r>
       <r>     9.9636     1.0444    98.2301 </r>
       <r>    10.0389     2.3658    98.4083 </r>
       <r>    10.1142     3.4031    98.6647 </r>
       <r>    10.1896     3.2005    98.9058 </r>
       <r>    10.2649     2.0642    99.0613 </r>
       <r>    10.3402     1.1587    99.1486 </r>
       <r>    10.4156     1.1843    99.2378 </r>
       <r>    10.4909     1.7702    99.3711 </r>
       <r>    10.5662     2.2384    99.5397 </r>
       <r>    10.6416     2.3407    99.7161 </r>
       <r>    10.7169     2.0432    99.8700 </r>
       <r>    10.7922     1.3497    99.9717 </r>
       <r>    10.8676     0.5493   100.0130 </r>
       <r>    10.9429     0.0391   100.0160 </r>
       <r>    11.0182    -0.1043   100.0081 </r>
       <r>    11.0936    -0.0730   100.0026 </r>
       <r>    11.1689    -0.0272   100.0006 </r>
       <r>    11.2442    -0.0066   100.0001 </r>
       <r>    11.3196    -0.0011   100.0000 </r>
       <r>    11.3949    -0.0001   100.0000 </r>
       <r>    11.4702    -0.0000   100.0000 </r>
       <r>    11.5456    -0.0000   100.0000 </r>
       <r>    11.6209    -0.0000   100.0000 </r>
       <r>    11.6962    -0.0000   100.0000 </r>
       <r>    11.7715    -0.0000   100.0000 </r>
       <r>    11.8469    -0.0000   100.0000 </r>
       <r>    11.9222    -0.0000   100.0000 </r>
       <r>    11.9975     0.0000   100.0000 </r>
       <r>    12.0729     0.0000   100.0000 </r>
       <r>    12.1482     0.0000   100.0000 </r>
       <r>    12.2235     0.0000   100.0000 </r>
       <r>    12.2989     0.0000   100.0000 </r>
       <r>    12.3742     0.0000   100.0000 </r>
       <r>    12.4495     0.0000   100.0000 </r>
       <r>    12.5249     0.0000   100.0000 </r>
       <r>    12.6002     0.0000   100.0000 </r>
       <r>    12.6755     0.0000   100.0000 </r>
      </set>
     </set>
    </array>
   </total>
  </dos>
 </calculation>
 <structure name="finalpos" >
  <crystal>
   <varray name="basis" >
    <v>       3.63000011       0.00000000       0.00000000 </v>
    <v>       0.00000000       3.63000011       0.00000000 </v>
    <v>       0.00000000       0.00000000      25.89000000 </v>
   </varray>
   <i name="volume">    341.14996250 </i>
   <varray name="rec_basis" >
    <v>       0.27548208       0.00000000       0.00000000 </v>
    <v>       0.00000000       0.27548208       0.00000000 </v>
    <v>       0.00000000       0.00000000       0.03862495 </v>
   </varray>
  </crystal>
  <varray name="positions" >
   <v>       0.00000000       0.00000000       0.00000000 </v>
   <v>       0.50000000       0.50000000       0.00000000 </v>
   <v>       0.00000000       0.50000000       0.07010429 </v>
   <v>       0.50000000       0.00000000       0.07010429 </v>
   <v>      -0.00000000       0.00000000       0.13734009 </v>
   <v>       0.50000000       0.50000000       0.13734009 </v>
   <v>       0.00000000       0.50000000       0.20393989 </v>
   <v>       0.50000000       0.00000000       0.20393989 </v>
   <v>       0.00000000       0.00000000       0.27065413 </v>
   <v>       0.50000000       0.50000000       0.27065413 </v>
   <v>      -0.00000000       0.50000000       0.33834204 </v>
   <v>       0.50000000       0.00000000       0.33834204 </v>
   <v>       0.00000000       0.00000000       0.40612871 </v>
   <v>       0.50000000       0.50000000       0.40612871 </v>
  </varray>
  <varray name="selective"  type="logical" >
   <v type="logical" >  F  F  F </v>
   <v type="logical" >  F  F  F </v>
   <v type="logical" >  F  F  F </v>
   <v type="logical" >  F  F  F </v>
   <v type="logical" >  T  T  T </v>
   <v type="logical" >  T  T  T </v>
   <v type="logical" >  T  T  T </v>
   <v type="logical" >  T  T  T </v>
   <v type="logical" >  T  T  T </v>
   <v type="logical" >  T  T  T </v>
   <v type="logical" >  T  T  T </v>
   <v type="logical" >  T  T  T </v>
   <v type="logical" >  T  T  T </v>
   <v type="logical" >  T  T  T </v>
  </varray>
  <nose>
   <v>      -3.00000000       0.00000000       0.00010000       0.00010000 </v>
  </nose>
 </structure>
</modeling>
