       N       E                     dE             d eps       ncg     rms          rms(c)
DAV:   1     0.155162180889E+05    0.15516E+05   -0.56106E+05 12296   0.190E+03
DAV:   2     0.225429208221E+04   -0.13262E+05   -0.12691E+05 12288   0.452E+02
DAV:   3    -0.388083793679E+03   -0.26424E+04   -0.23908E+04 12312   0.232E+02
DAV:   4    -0.608107688337E+03   -0.22002E+03   -0.20901E+03 13368   0.944E+01
DAV:   5    -0.614014292982E+03   -0.59066E+01   -0.58747E+01 13560   0.157E+01    0.112E+02
