  45  45   0   0
  0.3751886E+02  0.1089000E-08  0.7700393E-09  0.2013360E-08  0.5000000E-15
  1.000000000000000E-004
  CAR 
 unknown system                          
      9.15098263    -11.13353564  301     -0.61101346      1.00000000
    -11.134  0.0000E+00  0.0000E+00  0.0000E+00  0.0000E+00
    -11.066  0.0000E+00  0.0000E+00  0.0000E+00  0.0000E+00
    -10.998  0.0000E+00  0.0000E+00  0.0000E+00  0.0000E+00
    -10.931  0.0000E+00  0.0000E+00  0.0000E+00  0.0000E+00
    -10.863  0.0000E+00  0.0000E+00  0.0000E+00  0.0000E+00
    -10.795 -0.4950E-32 -0.4950E-32 -0.3347E-33 -0.3347E-33
    -10.728 -0.1162E-29 -0.1162E-29 -0.7890E-31 -0.7891E-31
    -10.660 -0.2173E-27 -0.2173E-27 -0.1477E-28 -0.1477E-28
    -10.593 -0.3227E-25 -0.3227E-25 -0.2197E-26 -0.2197E-26
    -10.525 -0.3802E-23 -0.3802E-23 -0.2593E-24 -0.2593E-24
    -10.457 -0.3555E-21 -0.3555E-21 -0.2430E-22 -0.2430E-22
    -10.390 -0.2636E-19 -0.2636E-19 -0.1807E-20 -0.1807E-20
    -10.322 -0.1550E-17 -0.1550E-17 -0.1066E-18 -0.1066E-18
    -10.255 -0.6991E-16 -0.6991E-16 -0.4834E-17 -0.4834E-17
    -10.187 -0.2568E-14 -0.2568E-14 -0.1785E-15 -0.1785E-15
    -10.119 -0.7458E-13 -0.7458E-13 -0.5221E-14 -0.5221E-14
    -10.052 -0.1710E-11 -0.1710E-11 -0.1208E-12 -0.1208E-12
     -9.984 -0.3091E-10 -0.3091E-10 -0.2211E-11 -0.2211E-11
     -9.916 -0.4395E-09 -0.4396E-09 -0.3193E-10 -0.3193E-10
     -9.849 -0.4906E-08 -0.4906E-08 -0.3636E-09 -0.3636E-09
     -9.781 -0.4282E-07 -0.4282E-07 -0.3259E-08 -0.3259E-08
     -9.714 -0.2908E-06 -0.2908E-06 -0.2292E-07 -0.2292E-07
     -9.646 -0.1525E-05 -0.1525E-05 -0.1261E-06 -0.1261E-06
     -9.578 -0.6109E-05 -0.6109E-05 -0.5391E-06 -0.5391E-06
     -9.511 -0.1828E-04 -0.1828E-04 -0.1775E-05 -0.1775E-05
     -9.443 -0.3893E-04 -0.3893E-04 -0.4407E-05 -0.4407E-05
     -9.376 -0.5055E-04 -0.5055E-04 -0.7825E-05 -0.7825E-05
     -9.308 -0.3627E-05 -0.3627E-05 -0.8070E-05 -0.8070E-05
     -9.240  0.1661E-03  0.1661E-03  0.3162E-05  0.3162E-05
     -9.173  0.4851E-03  0.4851E-03  0.3596E-04  0.3596E-04
     -9.105  0.9025E-03  0.9025E-03  0.9699E-04  0.9699E-04
     -9.037  0.1314E-02  0.1314E-02  0.1858E-03  0.1858E-03
     -8.970  0.1643E-02  0.1643E-02  0.2969E-03  0.2969E-03
     -8.902  0.1930E-02  0.1930E-02  0.4274E-03  0.4274E-03
     -8.835  0.2301E-02  0.2301E-02  0.5830E-03  0.5830E-03
     -8.767  0.2783E-02  0.2783E-02  0.7712E-03  0.7712E-03
     -8.699  0.3146E-02  0.3146E-02  0.9839E-03  0.9839E-03
     -8.632  0.3053E-02  0.3053E-02  0.1190E-02  0.1190E-02
     -8.564  0.2428E-02  0.2428E-02  0.1355E-02  0.1355E-02
     -8.497  0.1631E-02  0.1631E-02  0.1465E-02  0.1465E-02
     -8.429  0.1224E-02  0.1224E-02  0.1548E-02  0.1548E-02
     -8.361  0.1456E-02  0.1456E-02  0.1646E-02  0.1646E-02
     -8.294  0.1938E-02  0.1938E-02  0.1777E-02  0.1777E-02
     -8.226  0.2028E-02  0.2028E-02  0.1914E-02  0.1914E-02
     -8.158  0.1620E-02  0.1620E-02  0.2024E-02  0.2024E-02
     -8.091  0.1338E-02  0.1338E-02  0.2114E-02  0.2114E-02
     -8.023  0.1811E-02  0.1811E-02  0.2237E-02  0.2237E-02
     -7.956  0.2900E-02  0.2900E-02  0.2433E-02  0.2433E-02
     -7.888  0.3763E-02  0.3763E-02  0.2687E-02  0.2687E-02
     -7.820  0.3719E-02  0.3719E-02  0.2939E-02  0.2939E-02
     -7.753  0.3025E-02  0.3025E-02  0.3143E-02  0.3143E-02
     -7.685  0.2601E-02  0.2601E-02  0.3319E-02  0.3319E-02
     -7.618  0.2934E-02  0.2934E-02  0.3517E-02  0.3517E-02
     -7.550  0.3542E-02  0.3542E-02  0.3757E-02  0.3757E-02
     -7.482  0.3586E-02  0.3586E-02  0.3999E-02  0.3999E-02
     -7.415  0.2748E-02  0.2748E-02  0.4185E-02  0.4185E-02
     -7.347  0.1440E-02  0.1440E-02  0.4283E-02  0.4283E-02
     -7.279  0.3645E-03  0.3645E-03  0.4307E-02  0.4307E-02
     -7.212 -0.1720E-05 -0.1720E-05  0.4307E-02  0.4307E-02
     -7.144  0.4229E-03  0.4229E-03  0.4336E-02  0.4336E-02
     -7.077  0.1460E-02  0.1460E-02  0.4434E-02  0.4434E-02
     -7.009  0.2879E-02  0.2879E-02  0.4629E-02  0.4629E-02
     -6.941  0.4582E-02  0.4582E-02  0.4939E-02  0.4939E-02
     -6.874  0.6577E-02  0.6577E-02  0.5384E-02  0.5384E-02
     -6.806  0.8607E-02  0.8607E-02  0.5966E-02  0.5966E-02
     -6.739  0.9825E-02  0.9825E-02  0.6630E-02  0.6630E-02
     -6.671  0.9279E-02  0.9279E-02  0.7257E-02  0.7257E-02
     -6.603  0.7035E-02  0.7035E-02  0.7733E-02  0.7733E-02
     -6.536  0.4525E-02  0.4525E-02  0.8039E-02  0.8039E-02
     -6.468  0.3300E-02  0.3300E-02  0.8262E-02  0.8262E-02
     -6.400  0.3516E-02  0.3516E-02  0.8500E-02  0.8500E-02
     -6.333  0.4163E-02  0.4163E-02  0.8781E-02  0.8781E-02
     -6.265  0.4667E-02  0.4667E-02  0.9097E-02  0.9097E-02
     -6.198  0.5456E-02  0.5456E-02  0.9466E-02  0.9466E-02
     -6.130  0.6864E-02  0.6864E-02  0.9930E-02  0.9930E-02
     -6.062  0.8376E-02  0.8376E-02  0.1050E-01  0.1050E-01
     -5.995  0.9245E-02  0.9245E-02  0.1112E-01  0.1112E-01
     -5.927  0.9193E-02  0.9193E-02  0.1174E-01  0.1174E-01
     -5.860  0.8320E-02  0.8320E-02  0.1231E-01  0.1231E-01
     -5.792  0.6844E-02  0.6844E-02  0.1277E-01  0.1277E-01
     -5.724  0.5237E-02  0.5237E-02  0.1312E-01  0.1312E-01
     -5.657  0.4498E-02  0.4498E-02  0.1343E-01  0.1343E-01
     -5.589  0.5825E-02  0.5825E-02  0.1382E-01  0.1382E-01
     -5.521  0.9462E-02  0.9462E-02  0.1446E-01  0.1446E-01
     -5.454  0.1401E-01  0.1401E-01  0.1541E-01  0.1541E-01
     -5.386  0.1738E-01  0.1738E-01  0.1658E-01  0.1658E-01
     -5.319  0.1858E-01  0.1858E-01  0.1784E-01  0.1784E-01
     -5.251  0.1849E-01  0.1849E-01  0.1909E-01  0.1909E-01
     -5.183  0.1909E-01  0.1909E-01  0.2038E-01  0.2038E-01
     -5.116  0.2177E-01  0.2177E-01  0.2185E-01  0.2185E-01
     -5.048  0.2640E-01  0.2640E-01  0.2364E-01  0.2364E-01
     -4.981  0.3176E-01  0.3176E-01  0.2578E-01  0.2578E-01
     -4.913  0.3654E-01  0.3654E-01  0.2825E-01  0.2825E-01
     -4.845  0.3968E-01  0.3968E-01  0.3094E-01  0.3094E-01
     -4.778  0.4063E-01  0.4063E-01  0.3368E-01  0.3368E-01
     -4.710  0.4041E-01  0.4041E-01  0.3642E-01  0.3642E-01
     -4.642  0.4180E-01  0.4180E-01  0.3924E-01  0.3924E-01
     -4.575  0.4708E-01  0.4708E-01  0.4243E-01  0.4243E-01
     -4.507  0.5510E-01  0.5510E-01  0.4615E-01  0.4615E-01
     -4.440  0.6163E-01  0.6163E-01  0.5032E-01  0.5032E-01
     -4.372  0.6281E-01  0.6281E-01  0.5457E-01  0.5457E-01
     -4.304  0.5828E-01  0.5828E-01  0.5851E-01  0.5851E-01
     -4.237  0.5117E-01  0.5117E-01  0.6197E-01  0.6197E-01
     -4.169  0.4609E-01  0.4609E-01  0.6508E-01  0.6508E-01
     -4.102  0.4673E-01  0.4673E-01  0.6824E-01  0.6824E-01
     -4.034  0.5396E-01  0.5396E-01  0.7189E-01  0.7189E-01
     -3.966  0.6527E-01  0.6527E-01  0.7630E-01  0.7630E-01
     -3.899  0.7599E-01  0.7599E-01  0.8144E-01  0.8144E-01
     -3.831  0.8225E-01  0.8225E-01  0.8700E-01  0.8700E-01
     -3.763  0.8348E-01  0.8348E-01  0.9265E-01  0.9265E-01
     -3.696  0.8197E-01  0.8197E-01  0.9819E-01  0.9819E-01
     -3.628  0.8071E-01  0.8071E-01  0.1036E+00  0.1036E+00
     -3.561  0.8257E-01  0.8257E-01  0.1092E+00  0.1092E+00
     -3.493  0.9006E-01  0.9006E-01  0.1153E+00  0.1153E+00
     -3.425  0.1027E+00  0.1027E+00  0.1223E+00  0.1223E+00
     -3.358  0.1153E+00  0.1153E+00  0.1301E+00  0.1301E+00
     -3.290  0.1214E+00  0.1214E+00  0.1383E+00  0.1383E+00
     -3.223  0.1180E+00  0.1180E+00  0.1463E+00  0.1463E+00
     -3.155  0.1066E+00  0.1066E+00  0.1535E+00  0.1535E+00
     -3.087  0.9073E-01  0.9073E-01  0.1596E+00  0.1596E+00
     -3.020  0.7597E-01  0.7597E-01  0.1647E+00  0.1647E+00
     -2.952  0.6915E-01  0.6915E-01  0.1694E+00  0.1694E+00
     -2.884  0.7442E-01  0.7442E-01  0.1744E+00  0.1744E+00
     -2.817  0.8937E-01  0.8937E-01  0.1805E+00  0.1805E+00
     -2.749  0.1067E+00  0.1067E+00  0.1877E+00  0.1877E+00
     -2.682  0.1198E+00  0.1198E+00  0.1958E+00  0.1958E+00
     -2.614  0.1260E+00  0.1260E+00  0.2043E+00  0.2043E+00
     -2.546  0.1254E+00  0.1254E+00  0.2128E+00  0.2128E+00
     -2.479  0.1203E+00  0.1203E+00  0.2209E+00  0.2209E+00
     -2.411  0.1161E+00  0.1161E+00  0.2288E+00  0.2288E+00
     -2.344  0.1194E+00  0.1194E+00  0.2369E+00  0.2369E+00
     -2.276  0.1329E+00  0.1329E+00  0.2458E+00  0.2458E+00
     -2.208  0.1510E+00  0.1510E+00  0.2561E+00  0.2561E+00
     -2.141  0.1619E+00  0.1619E+00  0.2670E+00  0.2670E+00
     -2.073  0.1550E+00  0.1550E+00  0.2775E+00  0.2775E+00
     -2.006  0.1276E+00  0.1276E+00  0.2861E+00  0.2861E+00
     -1.938  0.8695E-01  0.8695E-01  0.2920E+00  0.2920E+00
     -1.870  0.4698E-01  0.4698E-01  0.2952E+00  0.2952E+00
     -1.803  0.1980E-01  0.1980E-01  0.2965E+00  0.2965E+00
     -1.735  0.8737E-02  0.8737E-02  0.2971E+00  0.2971E+00
     -1.667  0.8214E-02  0.8214E-02  0.2976E+00  0.2976E+00
     -1.600  0.1024E-01  0.1024E-01  0.2983E+00  0.2983E+00
     -1.532  0.1085E-01  0.1085E-01  0.2991E+00  0.2991E+00
     -1.465  0.1106E-01  0.1106E-01  0.2998E+00  0.2998E+00
     -1.397  0.1281E-01  0.1281E-01  0.3007E+00  0.3007E+00
     -1.329  0.1533E-01  0.1533E-01  0.3017E+00  0.3017E+00
     -1.262  0.1609E-01  0.1609E-01  0.3028E+00  0.3028E+00
     -1.194  0.1409E-01  0.1409E-01  0.3038E+00  0.3038E+00
     -1.127  0.1075E-01  0.1075E-01  0.3045E+00  0.3045E+00
     -1.059  0.8145E-02  0.8145E-02  0.3050E+00  0.3050E+00
     -0.991  0.7417E-02  0.7417E-02  0.3055E+00  0.3055E+00
     -0.924  0.8562E-02  0.8562E-02  0.3061E+00  0.3061E+00
     -0.856  0.1058E-01  0.1058E-01  0.3068E+00  0.3068E+00
     -0.788  0.1194E-01  0.1194E-01  0.3076E+00  0.3076E+00
     -0.721  0.1154E-01  0.1154E-01  0.3084E+00  0.3084E+00
     -0.653  0.9496E-02  0.9496E-02  0.3091E+00  0.3091E+00
     -0.586  0.6814E-02  0.6814E-02  0.3095E+00  0.3095E+00
     -0.518  0.4672E-02  0.4672E-02  0.3098E+00  0.3098E+00
     -0.450  0.3773E-02  0.3773E-02  0.3101E+00  0.3101E+00
     -0.383  0.4214E-02  0.4214E-02  0.3104E+00  0.3104E+00
     -0.315  0.5829E-02  0.5829E-02  0.3108E+00  0.3108E+00
     -0.248  0.8287E-02  0.8287E-02  0.3113E+00  0.3113E+00
     -0.180  0.1075E-01  0.1075E-01  0.3121E+00  0.3121E+00
     -0.112  0.1207E-01  0.1207E-01  0.3129E+00  0.3129E+00
     -0.045  0.1178E-01  0.1178E-01  0.3137E+00  0.3137E+00
      0.023  0.1039E-01  0.1039E-01  0.3144E+00  0.3144E+00
      0.091  0.8592E-02  0.8592E-02  0.3150E+00  0.3150E+00
      0.158  0.6762E-02  0.6762E-02  0.3154E+00  0.3154E+00
      0.226  0.5635E-02  0.5635E-02  0.3158E+00  0.3158E+00
      0.293  0.6657E-02  0.6657E-02  0.3162E+00  0.3162E+00
      0.361  0.1049E-01  0.1049E-01  0.3170E+00  0.3170E+00
      0.429  0.1534E-01  0.1534E-01  0.3180E+00  0.3180E+00
      0.496  0.1781E-01  0.1781E-01  0.3192E+00  0.3192E+00
      0.564  0.1596E-01  0.1596E-01  0.3203E+00  0.3203E+00
      0.631  0.1121E-01  0.1121E-01  0.3210E+00  0.3210E+00
      0.699  0.6753E-02  0.6753E-02  0.3215E+00  0.3215E+00
      0.767  0.4582E-02  0.4582E-02  0.3218E+00  0.3218E+00
      0.834  0.4406E-02  0.4406E-02  0.3221E+00  0.3221E+00
      0.902  0.5103E-02  0.5103E-02  0.3224E+00  0.3224E+00
      0.970  0.6195E-02  0.6195E-02  0.3229E+00  0.3229E+00
      1.037  0.7945E-02  0.7945E-02  0.3234E+00  0.3234E+00
      1.105  0.1072E-01  0.1072E-01  0.3241E+00  0.3241E+00
      1.172  0.1430E-01  0.1430E-01  0.3251E+00  0.3251E+00
      1.240  0.1737E-01  0.1737E-01  0.3263E+00  0.3263E+00
      1.308  0.1772E-01  0.1772E-01  0.3275E+00  0.3275E+00
      1.375  0.1427E-01  0.1427E-01  0.3284E+00  0.3284E+00
      1.443  0.8768E-02  0.8768E-02  0.3290E+00  0.3290E+00
      1.510  0.4801E-02  0.4801E-02  0.3293E+00  0.3293E+00
      1.578  0.4574E-02  0.4574E-02  0.3297E+00  0.3297E+00
      1.646  0.6991E-02  0.6991E-02  0.3301E+00  0.3301E+00
      1.713  0.8977E-02  0.8977E-02  0.3307E+00  0.3307E+00
      1.781  0.8653E-02  0.8653E-02  0.3313E+00  0.3313E+00
      1.849  0.7060E-02  0.7060E-02  0.3318E+00  0.3318E+00
      1.916  0.6548E-02  0.6548E-02  0.3322E+00  0.3322E+00
      1.984  0.7983E-02  0.7983E-02  0.3328E+00  0.3328E+00
      2.051  0.1019E-01  0.1019E-01  0.3335E+00  0.3335E+00
      2.119  0.1173E-01  0.1173E-01  0.3343E+00  0.3343E+00
      2.187  0.1229E-01  0.1229E-01  0.3351E+00  0.3351E+00
      2.254  0.1244E-01  0.1244E-01  0.3359E+00  0.3359E+00
      2.322  0.1241E-01  0.1241E-01  0.3368E+00  0.3368E+00
      2.389  0.1169E-01  0.1169E-01  0.3376E+00  0.3376E+00
      2.457  0.9884E-02  0.9884E-02  0.3382E+00  0.3382E+00
      2.525  0.7604E-02  0.7604E-02  0.3387E+00  0.3387E+00
      2.592  0.6041E-02  0.6041E-02  0.3392E+00  0.3392E+00
      2.660  0.6046E-02  0.6046E-02  0.3396E+00  0.3396E+00
      2.728  0.7846E-02  0.7846E-02  0.3401E+00  0.3401E+00
      2.795  0.1088E-01  0.1088E-01  0.3408E+00  0.3408E+00
      2.863  0.1356E-01  0.1356E-01  0.3417E+00  0.3417E+00
      2.930  0.1416E-01  0.1416E-01  0.3427E+00  0.3427E+00
      2.998  0.1243E-01  0.1243E-01  0.3435E+00  0.3435E+00
      3.066  0.9633E-02  0.9632E-02  0.3442E+00  0.3442E+00
      3.133  0.7005E-02  0.7005E-02  0.3447E+00  0.3447E+00
      3.201  0.4899E-02  0.4899E-02  0.3450E+00  0.3450E+00
      3.268  0.3337E-02  0.3337E-02  0.3452E+00  0.3452E+00
      3.336  0.2477E-02  0.2477E-02  0.3454E+00  0.3454E+00
      3.404  0.2540E-02  0.2540E-02  0.3456E+00  0.3456E+00
      3.471  0.3627E-02  0.3628E-02  0.3458E+00  0.3458E+00
      3.539  0.5449E-02  0.5449E-02  0.3462E+00  0.3462E+00
      3.607  0.7341E-02  0.7342E-02  0.3467E+00  0.3467E+00
      3.674  0.8940E-02  0.8940E-02  0.3473E+00  0.3473E+00
      3.742  0.1042E-01  0.1042E-01  0.3480E+00  0.3480E+00
      3.809  0.1167E-01  0.1168E-01  0.3488E+00  0.3488E+00
      3.877  0.1204E-01  0.1204E-01  0.3496E+00  0.3496E+00
      3.945  0.1116E-01  0.1116E-01  0.3503E+00  0.3503E+00
      4.012  0.9550E-02  0.9551E-02  0.3510E+00  0.3510E+00
      4.080  0.8288E-02  0.8289E-02  0.3516E+00  0.3516E+00
      4.147  0.8434E-02  0.8436E-02  0.3521E+00  0.3521E+00
      4.215  0.1037E-01  0.1037E-01  0.3528E+00  0.3528E+00
      4.283  0.1330E-01  0.1330E-01  0.3537E+00  0.3537E+00
      4.350  0.1576E-01  0.1575E-01  0.3548E+00  0.3548E+00
      4.418  0.1689E-01  0.1688E-01  0.3559E+00  0.3559E+00
      4.486  0.1696E-01  0.1696E-01  0.3571E+00  0.3571E+00
      4.553  0.1659E-01  0.1659E-01  0.3582E+00  0.3582E+00
      4.621  0.1581E-01  0.1581E-01  0.3593E+00  0.3593E+00
      4.688  0.1436E-01  0.1436E-01  0.3602E+00  0.3602E+00
      4.756  0.1261E-01  0.1261E-01  0.3611E+00  0.3611E+00
      4.824  0.1184E-01  0.1184E-01  0.3619E+00  0.3619E+00
      4.891  0.1309E-01  0.1309E-01  0.3628E+00  0.3628E+00
      4.959  0.1616E-01  0.1616E-01  0.3639E+00  0.3639E+00
      5.026  0.1979E-01  0.1980E-01  0.3652E+00  0.3652E+00
      5.094  0.2265E-01  0.2266E-01  0.3667E+00  0.3667E+00
      5.162  0.2390E-01  0.2390E-01  0.3684E+00  0.3684E+00
      5.229  0.2329E-01  0.2329E-01  0.3699E+00  0.3699E+00
      5.297  0.2106E-01  0.2106E-01  0.3714E+00  0.3714E+00
      5.365  0.1782E-01  0.1782E-01  0.3726E+00  0.3726E+00
      5.432  0.1436E-01  0.1435E-01  0.3735E+00  0.3735E+00
      5.500  0.1135E-01  0.1135E-01  0.3743E+00  0.3743E+00
      5.567  0.9330E-02  0.9330E-02  0.3749E+00  0.3749E+00
      5.635  0.8751E-02  0.8751E-02  0.3755E+00  0.3755E+00
      5.703  0.9847E-02  0.9846E-02  0.3762E+00  0.3762E+00
      5.770  0.1221E-01  0.1221E-01  0.3770E+00  0.3770E+00
      5.838  0.1472E-01  0.1472E-01  0.3780E+00  0.3780E+00
      5.905  0.1620E-01  0.1620E-01  0.3791E+00  0.3791E+00
      5.973  0.1619E-01  0.1619E-01  0.3802E+00  0.3802E+00
      6.041  0.1498E-01  0.1498E-01  0.3812E+00  0.3812E+00
      6.108  0.1304E-01  0.1304E-01  0.3821E+00  0.3821E+00
      6.176  0.1126E-01  0.1126E-01  0.3829E+00  0.3829E+00
      6.244  0.1148E-01  0.1149E-01  0.3836E+00  0.3836E+00
      6.311  0.1560E-01  0.1560E-01  0.3847E+00  0.3847E+00
      6.379  0.2303E-01  0.2303E-01  0.3862E+00  0.3862E+00
      6.446  0.2982E-01  0.2982E-01  0.3883E+00  0.3883E+00
      6.514  0.3166E-01  0.3166E-01  0.3904E+00  0.3904E+00
      6.582  0.2786E-01  0.2786E-01  0.3923E+00  0.3923E+00
      6.649  0.2150E-01  0.2148E-01  0.3937E+00  0.3937E+00
      6.717  0.1588E-01  0.1586E-01  0.3948E+00  0.3948E+00
      6.784  0.1219E-01  0.1220E-01  0.3956E+00  0.3956E+00
      6.852  0.1014E-01  0.1023E-01  0.3963E+00  0.3963E+00
      6.920  0.9476E-02  0.9640E-02  0.3970E+00  0.3970E+00
      6.987  0.1002E-01  0.1019E-01  0.3976E+00  0.3977E+00
      7.055  0.1090E-01  0.1096E-01  0.3984E+00  0.3984E+00
      7.123  0.1060E-01  0.1050E-01  0.3991E+00  0.3991E+00
      7.190  0.8267E-02  0.8090E-02  0.3996E+00  0.3997E+00
      7.258  0.4702E-02  0.4555E-02  0.4000E+00  0.4000E+00
      7.325  0.1589E-02  0.1519E-02  0.4001E+00  0.4001E+00
      7.393 -0.6953E-04 -0.8313E-04  0.4001E+00  0.4001E+00
      7.461 -0.4747E-03 -0.4675E-03  0.4000E+00  0.4000E+00
      7.528 -0.3364E-03 -0.3286E-03  0.4000E+00  0.4000E+00
      7.596 -0.1467E-03 -0.1427E-03  0.4000E+00  0.4000E+00
      7.663 -0.4578E-04 -0.4443E-04  0.4000E+00  0.4000E+00
      7.731 -0.1075E-04 -0.1040E-04  0.4000E+00  0.4000E+00
      7.799 -0.1938E-05 -0.1869E-05  0.4000E+00  0.4000E+00
      7.866 -0.2716E-06 -0.2609E-06  0.4000E+00  0.4000E+00
      7.934 -0.2979E-07 -0.2849E-07  0.4000E+00  0.4000E+00
      8.002 -0.2567E-08 -0.2444E-08  0.4000E+00  0.4000E+00
      8.069 -0.1743E-09 -0.1651E-09  0.4000E+00  0.4000E+00
      8.137 -0.9349E-11 -0.8807E-11  0.4000E+00  0.4000E+00
      8.204 -0.3965E-12 -0.3714E-12  0.4000E+00  0.4000E+00
      8.272 -0.1332E-13 -0.1240E-13  0.4000E+00  0.4000E+00
      8.340 -0.3539E-15 -0.3266E-15  0.4000E+00  0.4000E+00
      8.407 -0.7754E-17 -0.7754E-17  0.4000E+00  0.4000E+00
      8.475  0.0000E+00  0.0000E+00  0.4000E+00  0.4000E+00
      8.542  0.0000E+00  0.0000E+00  0.4000E+00  0.4000E+00
      8.610  0.0000E+00  0.0000E+00  0.4000E+00  0.4000E+00
      8.678  0.0000E+00  0.0000E+00  0.4000E+00  0.4000E+00
      8.745  0.0000E+00  0.0000E+00  0.4000E+00  0.4000E+00
      8.813  0.0000E+00  0.0000E+00  0.4000E+00  0.4000E+00
      8.881  0.0000E+00  0.0000E+00  0.4000E+00  0.4000E+00
      8.948  0.0000E+00  0.0000E+00  0.4000E+00  0.4000E+00
      9.016  0.0000E+00  0.0000E+00  0.4000E+00  0.4000E+00
      9.083  0.0000E+00  0.0000E+00  0.4000E+00  0.4000E+00
      9.151  0.0000E+00  0.0000E+00  0.4000E+00  0.4000E+00
