       N       E                     dE             d eps       ncg     rms          rms(c)
DAV:   1     0.429020679439E+04    0.42902E+04   -0.17544E+05  5120   0.153E+03
DAV:   2     0.372771764508E+03   -0.39174E+04   -0.37521E+04  5120   0.373E+02
DAV:   3    -0.146850594964E+03   -0.51962E+03   -0.46854E+03  5128   0.188E+02
DAV:   4    -0.177229436856E+03   -0.30379E+02   -0.29558E+02  5808   0.628E+01
DAV:   5    -0.177967633241E+03   -0.73820E+00   -0.73528E+00  5864   0.846E+00    0.603E+01
DAV:   6    -0.139978053865E+03    0.37990E+02   -0.46453E+02  5472   0.122E+02    0.308E+01
DAV:   7    -0.117802180969E+03    0.22176E+02   -0.12533E+02  5560   0.841E+01    0.148E+01
DAV:   8    -0.113266295066E+03    0.45359E+01   -0.30586E+01  5872   0.630E+01    0.126E+01
DAV:   9    -0.108915112828E+03    0.43512E+01   -0.10809E+01  6984   0.329E+01    0.923E+00
DAV:  10    -0.110258093853E+03   -0.13430E+01   -0.14133E+01  6168   0.149E+01    0.762E+00
DAV:  11    -0.114553782248E+03   -0.42957E+01   -0.46630E+00  5912   0.171E+01    0.428E+00
DAV:  12    -0.121916032516E+03   -0.73623E+01   -0.44616E+00  6096   0.162E+01    0.346E+00
DAV:  13    -0.136685080621E+03   -0.14769E+02   -0.11271E+01  6384   0.986E+00    0.301E+00
DAV:  14    -0.146074924379E+03   -0.93898E+01   -0.11231E+01  5832   0.859E+00    0.158E+00
DAV:  15    -0.147976620757E+03   -0.19017E+01   -0.13621E+00  6576   0.476E+00    0.148E+00
DAV:  16    -0.148903895400E+03   -0.92727E+00   -0.44021E-01  6480   0.541E+00    0.105E+00
DAV:  17    -0.149799959186E+03   -0.89606E+00   -0.35866E-01  6648   0.356E+00    0.697E-01
DAV:  18    -0.150312186975E+03   -0.51223E+00   -0.17408E-01  6080   0.191E+00    0.580E-01
DAV:  19    -0.150748259452E+03   -0.43607E+00   -0.62137E-02  6128   0.208E+00    0.362E-01
DAV:  20    -0.151011309094E+03   -0.26305E+00   -0.21310E-02  5944   0.167E+00    0.298E-01
DAV:  21    -0.151393817537E+03   -0.38251E+00   -0.15259E-02  6680   0.614E-01    0.158E-01
DAV:  22    -0.151585559257E+03   -0.19174E+00   -0.87660E-03  6712   0.447E-01    0.115E-01
DAV:  23    -0.151618234373E+03   -0.32675E-01   -0.32695E-03  6656   0.507E-01    0.825E-02
DAV:  24    -0.151634059714E+03   -0.15825E-01   -0.18919E-03  5992   0.255E-01    0.488E-02
DAV:  25    -0.151644813364E+03   -0.10754E-01   -0.11414E-03  4672   0.131E-01    0.278E-02
DAV:  26    -0.151647790556E+03   -0.29772E-02   -0.23382E-04  3632   0.602E-02    0.142E-02
DAV:  27    -0.151648006576E+03   -0.21602E-03   -0.73531E-05  3432   0.292E-02    0.801E-03
DAV:  28    -0.151648124630E+03   -0.11805E-03   -0.44653E-05  3376   0.338E-02
   1 F= -.16522605E+03 E0= -.16523255E+03  d E =-.165226E+03  mag=    -0.0022
       N       E                     dE             d eps       ncg     rms          rms(c)
DAV:   1    -0.151694130290E+03   -0.46124E-01   -0.45204E+01  5616   0.121E+01    0.682E-01
DAV:   2    -0.151780864726E+03   -0.86734E-01   -0.94548E-01  7792   0.565E+00    0.857E-01
DAV:   3    -0.151772328739E+03    0.85360E-02   -0.60344E-02  5640   0.389E+00    0.366E-01
DAV:   4    -0.151772393424E+03   -0.64685E-04   -0.15090E-02  5640   0.906E-01    0.333E-01
DAV:   5    -0.151771790316E+03    0.60311E-03   -0.54092E-03  5424   0.806E-01    0.265E-01
DAV:   6    -0.151770913401E+03    0.87692E-03   -0.44252E-03  6792   0.679E-01    0.846E-02
DAV:   7    -0.151771100131E+03   -0.18673E-03   -0.19982E-03  6168   0.313E-01
   2 F= -.16536731E+03 E0= -.16537431E+03  d E =-.141261E+00  mag=    -0.0009
       N       E                     dE             d eps       ncg     rms          rms(c)
DAV:   1    -0.151159782341E+03    0.61113E+00   -0.37341E+02  5680   0.372E+01    0.208E+00
DAV:   2    -0.151976313216E+03   -0.81653E+00   -0.88012E+00  8032   0.185E+01    0.261E+00
DAV:   3    -0.151882603501E+03    0.93710E-01   -0.51227E-01  5608   0.122E+01    0.992E-01
DAV:   4    -0.151887853413E+03   -0.52499E-02   -0.15606E-01  5352   0.243E+00    0.931E-01
DAV:   5    -0.151884705783E+03    0.31476E-02   -0.50226E-02  5616   0.250E+00    0.769E-01
DAV:   6    -0.151877833415E+03    0.68724E-02   -0.44512E-02  7848   0.166E+00    0.342E-01
DAV:   7    -0.151877664812E+03    0.16860E-03   -0.96436E-03  6432   0.984E-01    0.300E-01
DAV:   8    -0.151876477912E+03    0.11869E-02   -0.34227E-03  5448   0.994E-01    0.143E-01
DAV:   9    -0.151876402626E+03    0.75286E-04   -0.15315E-03  5448   0.306E-01
   3 F= -.16552542E+03 E0= -.16553323E+03  d E =-.299373E+00  mag=    -0.0003
       N       E                     dE             d eps       ncg     rms          rms(c)
DAV:   1    -0.151877367670E+03   -0.88976E-03   -0.43602E+00  5608   0.373E+00    0.128E-01
DAV:   2    -0.151884706812E+03   -0.73391E-02   -0.75486E-02  7424   0.113E+00    0.212E-01
DAV:   3    -0.151884401896E+03    0.30492E-03   -0.30818E-03  5216   0.593E-01    0.138E-01
DAV:   4    -0.151884339001E+03    0.62895E-04   -0.25367E-04  3184   0.123E-01
   4 F= -.16552744E+03 E0= -.16553511E+03  d E =-.301384E+00  mag=    -0.0002
       N       E                     dE             d eps       ncg     rms          rms(c)
DAV:   1    -0.151881760260E+03    0.26416E-02   -0.35176E-01  5544   0.110E+00    0.650E-02
DAV:   2    -0.151882451187E+03   -0.69093E-03   -0.69329E-03  7728   0.498E-01    0.598E-02
DAV:   3    -0.151882442987E+03    0.82005E-05   -0.72808E-04  4688   0.391E-01
   5 F= -.16552724E+03 E0= -.16553495E+03  d E =-.301188E+00  mag=    -0.0001
       N       E                     dE             d eps       ncg     rms          rms(c)
DAV:   1    -0.151883116570E+03   -0.66538E-03   -0.61701E-02  5712   0.452E-01    0.214E-02
DAV:   2    -0.151883203804E+03   -0.87234E-04   -0.88353E-04  5200   0.160E-01
   6 F= -.16552729E+03 E0= -.16553498E+03  d E =-.301235E+00  mag=    -0.0001
       N       E                     dE             d eps       ncg     rms          rms(c)
DAV:   1    -0.151871679672E+03    0.11437E-01   -0.11183E+01  5552   0.609E+00    0.208E-01
DAV:   2    -0.151890848399E+03   -0.19169E-01   -0.19736E-01  7440   0.183E+00    0.283E-01
DAV:   3    -0.151890623604E+03    0.22479E-03   -0.96723E-03  5400   0.107E+00    0.186E-01
DAV:   4    -0.151890487033E+03    0.13657E-03   -0.17586E-03  5208   0.436E-01
   7 F= -.16555018E+03 E0= -.16555788E+03  d E =-.228894E-01  mag=    -0.0001
       N       E                     dE             d eps       ncg     rms          rms(c)
DAV:   1    -0.151705550278E+03    0.18507E+00   -0.10129E+02  5552   0.186E+01    0.735E-01
DAV:   2    -0.151896334298E+03   -0.19078E+00   -0.19774E+00  7504   0.659E+00    0.101E+00
DAV:   3    -0.151887839447E+03    0.84949E-02   -0.82713E-02  5456   0.402E+00    0.601E-01
DAV:   4    -0.151886857798E+03    0.98165E-03   -0.23309E-02  5456   0.139E+00    0.565E-01
DAV:   5    -0.151881626040E+03    0.52318E-02   -0.15259E-02  6160   0.118E+00    0.307E-01
DAV:   6    -0.151880797868E+03    0.82817E-03   -0.14047E-02  6856   0.148E+00    0.123E-01
DAV:   7    -0.151880859013E+03   -0.61145E-04   -0.32958E-03  6992   0.663E-01    0.825E-02
DAV:   8    -0.151880785674E+03    0.73339E-04   -0.73165E-04  4800   0.271E-01
   8 F= -.16558716E+03 E0= -.16559482E+03  d E =-.598743E-01  mag=    -0.0000
       N       E                     dE             d eps       ncg     rms          rms(c)
DAV:   1    -0.151011698178E+03    0.86916E+00   -0.41392E+02  5664   0.394E+01    0.163E+00
DAV:   2    -0.151840944637E+03   -0.82925E+00   -0.85671E+00  7760   0.170E+01    0.243E+00
DAV:   3    -0.151773331961E+03    0.67613E-01   -0.40479E-01  5744   0.100E+01    0.117E+00
DAV:   4    -0.151775685105E+03   -0.23531E-02   -0.14492E-01  5456   0.246E+00    0.113E+00
DAV:   5    -0.151764769450E+03    0.10916E-01   -0.54758E-02  5600   0.270E+00    0.854E-01
DAV:   6    -0.151753575547E+03    0.11194E-01   -0.74947E-02  8600   0.253E+00    0.347E-01
DAV:   7    -0.151752823085E+03    0.75246E-03   -0.87781E-03  6616   0.892E-01    0.316E-01
DAV:   8    -0.151751473480E+03    0.13496E-02   -0.53966E-03  5648   0.951E-01    0.868E-02
DAV:   9    -0.151751496884E+03   -0.23405E-04   -0.87350E-04  4712   0.266E-01
   9 F= -.16555100E+03 E0= -.16555806E+03  d E =-.237167E-01  mag=    -0.0000
       N       E                     dE             d eps       ncg     rms          rms(c)
DAV:   1    -0.151441990252E+03    0.30948E+00   -0.23092E+02  5536   0.289E+01    0.984E-01
DAV:   2    -0.151895230090E+03   -0.45324E+00   -0.46404E+00  7376   0.778E+00    0.137E+00
DAV:   3    -0.151881702860E+03    0.13527E-01   -0.15822E-01  5288   0.415E+00    0.889E-01
DAV:   4    -0.151878190713E+03    0.35121E-02   -0.29662E-02  5720   0.140E+00    0.816E-01
DAV:   5    -0.151865468787E+03    0.12722E-01   -0.18172E-02  7440   0.847E-01    0.387E-01
DAV:   6    -0.151863034456E+03    0.24343E-02   -0.13291E-02  9216   0.131E+00    0.152E-01
DAV:   7    -0.151862870085E+03    0.16437E-03   -0.28107E-03  6040   0.875E-01    0.795E-02
DAV:   8    -0.151862892915E+03   -0.22829E-04   -0.97775E-04  5096   0.216E-01
  10 F= -.16559233E+03 E0= -.16559995E+03  d E =-.650411E-01  mag=    -0.0000
       N       E                     dE             d eps       ncg     rms          rms(c)
DAV:   1    -0.151791351205E+03    0.71519E-01   -0.32496E+01  5600   0.104E+01    0.422E-01
DAV:   2    -0.151851371883E+03   -0.60021E-01   -0.62488E-01  7520   0.411E+00    0.597E-01
DAV:   3    -0.151848950299E+03    0.24216E-02   -0.38356E-02  5368   0.270E+00    0.329E-01
DAV:   4    -0.151849027453E+03   -0.77154E-04   -0.10800E-02  5376   0.789E-01    0.307E-01
DAV:   5    -0.151847743714E+03    0.12837E-02   -0.47561E-03  5736   0.781E-01    0.199E-01
DAV:   6    -0.151847467111E+03    0.27660E-03   -0.59823E-03  6752   0.879E-01    0.837E-02
DAV:   7    -0.151847398951E+03    0.68160E-04   -0.69294E-04  4168   0.308E-01
  11 F= -.16560907E+03 E0= -.16561642E+03  d E =-.167382E-01  mag=    -0.0000
