 vasp.6.3.2 27Jun22 (build Aug 17 2022 15:43:34) complex                        
  
 executed on           tv2STDVTST date 2025.01.24  20:49:11
 running   20 mpi-ranks, with    1 threads/rank
 distrk:  each k-point on   20 cores,    1 groups
 distr:  one band on NCORE=   5 cores,    4 groups


--------------------------------------------------------------------------------------------------------


 -----------------------------------------------------------------------------
|                                                                             |
|           W    W    AA    RRRRR   N    N  II  N    N   GGGG   !!!           |
|           W    W   A  A   R    R  NN   N  II  NN   N  G    G  !!!           |
|           W    W  A    A  R    R  N N  N  II  N N  N  G       !!!           |
|           W WW W  AAAAAA  RRRRR   N  N N  II  N  N N  G  GGG   !            |
|           WW  WW  A    A  R   R   N   NN  II  N   NN  G    G                |
|           W    W  A    A  R    R  N    N  II  N    N   GGGG   !!!           |
|                                                                             |
|     Found issues when parsing the INCAR file                                |
|     In line 64: Tagname --- R W I G S contains invalid characters.          |
|     Please check if the interpretation in the OUTCAR file is correct.       |
|                                                                             |
 -----------------------------------------------------------------------------

 INCAR:
    = \=\=\=\=\=\=\=\=\=\=\=\=\=\=\=\=\=\=\=\=\=\=\=\=\=\=\=\=\=\=\=\=\=\=\=\=\=\=\=\=\=\=\=\=\=\=\=\=\=\=\=\=\=\=\=\=\=\=\=\=\=\=\=\=\=\=\=\=\=\=\=\=
    = \=\=\=\=\=\=\=\=\=\=\=\=\=\=\=\=\=\=\=\=\=\=\=\=\=\=\=\=\=\=\=\=\=\=\=\=\=\=\=\=\=\=\=\=\=\=\=\=\=\=\=\=\=\=\=\=\=\=\=\=\=\=\=\=\=\=\=\=\=\=\=\=
   ISTART = 0
   ICHARG = 2
   IPIPOL = 3
   IVDW = 11
   IDIPOL = 3
   IVDW = 11
    = \=\=\=\=\=\=\=\=\=\=\=\=\=\=\=\=\=\=\=\=\=\=\=\=\=\=\=\=\=\=\=\=\=\=\=\=\=\=\=\=\=\=\=\=\=\=\=\=\=\=\=\=\=\=\=\=\=\=\=\=\=\=\=\=\=\=\=\=\=\=\=\=
    = \=\=\=\=\=\=\=\=\=\=\=\=\=\=\=\=\=\=\=\=\=\=\=\=\=\=\=\=\=\=\=\=\=\=\=\=\=\=\=\=\=\=\=\=\=\=\=\=\=\=\=\=\=\=\=\=\=\=\=\=\=\=\=\=\=\=\=\=\=\=\=\=
   ISPIN = 2
    = \=\=\=\=\=\=\=\=\=\=\=\=\=\=\=\=\=\=\=\=\=\=\=\=\=\=\=\=\=\=\=\=\=\=\=\=\=\=\=\=\=\=\=\=\=\=\=\=\=\=\=\=\=\=\=\=\=\=\=\=\=\=\=\=\=\=\=\=\=\=\=\=
    = \=\=\=\=\=\=\=\=\=\=\=\=\=\=\=\=\=\=\=\=\=\=\=\=\=\=\=\=\=\=\=\=\=\=\=\=\=\=\=\=\=\=\=\=\=\=\=\=\=\=\=\=\=\=\=\=\=\=\=\=\=\=\=\=\=\=\=\=\=\=\=\=
   ENCUT = 400
   PREC = Normal
   EDIFF = 2E-04
   GGA = PE
   ISMEAR = 1
   SIGMA = 0.2
   LREAL = .FALSE.
    = \=\=\=\=\=\=\=\=\=\=\=\=\=\=\=\=\=\=\=\=\=\=\=\=\=\=\=\=\=\=\=\=\=\=\=\=\=\=\=\=\=\=\=\=\=\=\=\=\=\=\=\=\=\=\=\=\=\=\=\=\=\=\=\=\=\=\=\=\=\=\=\=
    = \=\=\=\=\=\=\=\=\=\=\=\=\=\=\=\=\=\=\=\=\=\=\=\=\=\=\=\=\=\=\=\=\=\=\=\=\=\=\=\=\=\=\=\=\=\=\=\=\=\=\=\=\=\=\=\=\=\=\=\=\=\=\=\=\=\=\=\=\=\=\=\=
   ISYM = 1
   NSW = 800
   IBRION = 2
   POTIM = 0.5
   ISIF = 2
   EDIFFG = -.03
    = \=\=\=\=\=\=\=\=\=\=\=\=\=\=\=\=\=\=\=\=\=\=\=\=\=\=\=\=\=\=\=\=\=\=\=\=\=\=\=\=\=\=\=\=\=\=\=\=\=\=\=\=\=\=\=\=\=\=\=\=\=\=\=\=\=\=\=\=\=\=\=\=
    = \=\=\=\=\=\=\=\=\=\=\=\=\=\=\=\=\=\=\=\=\=\=\=\=\=\=\=\=\=\=\=\=\=\=\=\=\=\=\=\=\=\=\=\=\=\=\=\=\=\=\=\=\=\=\=\=\=\=\=\=\=\=\=\=\=\=\=\=\=\=\=\=
   NPAR = 4
   LWAVE = .FALSE.
   LCHARG = .FALSE.

 POTCAR:    PAW_PBE Cu 22Jun2005                  
 -----------------------------------------------------------------------------
|                                                                             |
|           W    W    AA    RRRRR   N    N  II  N    N   GGGG   !!!           |
|           W    W   A  A   R    R  NN   N  II  NN   N  G    G  !!!           |
|           W    W  A    A  R    R  N N  N  II  N N  N  G       !!!           |
|           W WW W  AAAAAA  RRRRR   N  N N  II  N  N N  G  GGG   !            |
|           WW  WW  A    A  R   R   N   NN  II  N   NN  G    G                |
|           W    W  A    A  R    R  N    N  II  N    N   GGGG   !!!           |
|                                                                             |
|     You use a magnetic or noncollinear calculation, but did not specify     |
|     the initial magnetic moment with the MAGMOM tag. Note that a            |
|     default of 1 will be used for all atoms. This ferromagnetic setup       |
|     may break the symmetry of the crystal, in particular it may rule        |
|     out finding an antiferromagnetic solution. Thence, we recommend         |
|     setting the initial magnetic moment manually or verifying carefully     |
|     that this magnetic setup is desired.                                    |
|                                                                             |
 -----------------------------------------------------------------------------

 POTCAR:    PAW_PBE Cu 22Jun2005                  
   SHA256 =  0e71e558f37a4e8407882b4609ceaae59938afaad9ced71dfe8490308a0ab630 Cu/POTCAR             
   COPYR  = (c) Copyright 22Jun2005 Georg Kresse                                                    
   COPYR  = This file is part of the software VASP. Any use, copying, and all other rights are regul
   COPYR  = If you do not have a valid VASP license, you may not use, copy or distribute this file. 
   VRHFIN =Cu: d10 p1                                                                               
   LEXCH  = PE                                                                                      
   EATOM  =  1390.9808 eV,  102.2342 Ry                                                             
                                                                                                    
   TITEL  = PAW_PBE Cu 22Jun2005                                                                    
   LULTRA =        F    use ultrasoft PP ?                                                          
   IUNSCR =        1    unscreen: 0-lin 1-nonlin 2-no                                               
   RPACOR =    2.000    partial core radius                                                         
   POMASS =   63.546; ZVAL   =   11.000    mass and valenz                                          
   RCORE  =    2.300    outmost cutoff radius                                                       
   RWIGS  =    2.200; RWIGS  =    1.164    wigner-seitz radius (au A)                               
   ENMAX  =  295.446; ENMIN  =  221.585 eV                                                          
   ICORE  =        3    local potential                                                             
   LCOR   =        T    correct aug charges                                                         
   LPAW   =        T    paw PP                                                                      
   EAUG   =  586.980                                                                                
   DEXC   =    0.000                                                                                
   RMAX   =    2.344    core radius for proj-oper                                                   
   RAUG   =    1.300    factor for augmentation sphere                                              
   RDEP   =    2.302    radius for radial grids                                                     
   RDEPT  =    1.771    core radius for aug-charge                                                  
                                                                                                    
   Atomic configuration                                                                             
    9 entries                                                                                       
     n  l   j            E        occ.                                                              
     1  0  0.50     -8850.2468   2.0000                                                             
     2  0  0.50     -1062.3498   2.0000                                                             
     2  1  1.50      -916.8226   6.0000                                                             
     3  0  0.50      -114.6929   2.0000                                                             
     3  1  1.50       -72.1325   6.0000                                                             
     3  2  2.50        -5.0394  10.0000                                                             
     4  0  0.50        -4.6097   1.0000                                                             
     4  1  0.50        -4.0817   0.0000                                                             
     4  3  2.50        -1.3606   0.0000                                                             
   Description                                                                                      
     l       E           TYP  RCUT    TYP  RCUT                                                     
     2     -5.0393973     23  2.200                                                                 
     2     10.8846608     23  2.200                                                                 
     0     -4.6097109     23  2.200                                                                 
     0      8.2520465     23  2.200                                                                 
     1     -2.7211652     23  2.200                                                                 
     1     21.7055443     23  2.200                                                                 
     3      2.7211652     23  2.300                                                                 
  local pseudopotential read in
  partial core-charges read in
  partial kinetic energy density read in
  atomic valenz-charges read in
  non local Contribution for L=           2  read in
    real space projection operators read in
  non local Contribution for L=           2  read in
    real space projection operators read in
  non local Contribution for L=           0  read in
    real space projection operators read in
  non local Contribution for L=           0  read in
    real space projection operators read in
  non local Contribution for L=           1  read in
    real space projection operators read in
  non local Contribution for L=           1  read in
    real space projection operators read in
    PAW grid and wavefunctions read in
 
   number of l-projection  operators is LMAX  =           6
   number of lm-projection operators is LMMAX =          18
 
 -----------------------------------------------------------------------------
|                                                                             |
|               ----> ADVICE to this user running VASP <----                  |
|                                                                             |
|     You have a (more or less) 'large supercell' and for larger cells it     |
|     might be more efficient to use real-space projection operators.         |
|     Therefore, try LREAL= Auto in the INCAR file.                           |
|     Mind: For very accurate calculation, you might also keep the            |
|     reciprocal projection scheme (i.e. LREAL=.FALSE.).                      |
|                                                                             |
 -----------------------------------------------------------------------------

  PAW_PBE Cu 22Jun2005                  :
 energy of atom  1       EATOM=-1390.9808
 kinetic energy error for atom=    0.0232 (will be added to EATOM!!)
 
 
 POSCAR: FCC Cu
  positions in cartesian coordinates
  No initial velocities read in
 exchange correlation table for  LEXCH =        8
   RHO(1)=    0.500       N(1)  =     2000
   RHO(2)=  100.500       N(2)  =     4000

 VTST: version 4.2, (08/11/21)

 CHAIN: initializing optimizer
 
 OPT: Using VASP Conjugate-Gradient optimizer
 CHAIN: Read ICHAIN            0
 
 POSCAR: FCC Cu
  positions in cartesian coordinates
  No initial velocities read in
 


--------------------------------------------------------------------------------------------------------


 ion  position               nearest neighbor table
   1  0.000  0.000  0.000-  19 2.57  12 2.57  18 2.57  10 2.57  16 2.57   3 2.57   2 2.57
   2  0.000  0.333  0.000-  20 2.57  10 2.57  16 2.57  11 2.57  17 2.57   1 2.57   3 2.57
   3  0.000  0.667  0.000-  21 2.57  12 2.57  11 2.57  18 2.57  17 2.57   1 2.57   2 2.57
   4  0.333  0.000  0.000-  22 2.57  12 2.57  15 2.57  10 2.57  13 2.57   6 2.57   5 2.57
   5  0.333  0.333  0.000-  23 2.57  10 2.57  13 2.57  11 2.57  14 2.57   4 2.57   6 2.57
   6  0.333  0.667  0.000-  24 2.57  12 2.57  11 2.57  15 2.57  14 2.57   4 2.57   5 2.57
   7  0.667  0.000  0.000-  25 2.57  18 2.57  16 2.57  15 2.57  13 2.57   9 2.57   8 2.57
   8  0.667  0.333  0.000-  26 2.57  16 2.57  17 2.57  13 2.57  14 2.57   7 2.57   9 2.57
   9  0.667  0.667  0.000-  27 2.57  18 2.57  17 2.57  15 2.57  14 2.57   7 2.57   8 2.57
  10  0.167  0.167  0.064-  28 2.57  23 2.57  20 2.57  19 2.57  22 2.57   5 2.57   2 2.57   1 2.57
                             4 2.57  12 2.57  11 2.57
  11  0.167  0.500  0.064-  29 2.57  21 2.57  23 2.57  24 2.57  20 2.57   3 2.57   5 2.57   6 2.57
                             2 2.57  10 2.57  12 2.57
  12  0.167  0.833  0.064-  30 2.57  22 2.57  19 2.57  24 2.57  21 2.57   4 2.57   1 2.57   6 2.57
                             3 2.57  10 2.57  11 2.57
  13  0.500  0.167  0.064-  31 2.57  23 2.57  22 2.57  26 2.57   5 2.57  25 2.57   4 2.57   8 2.57
                             7 2.57  15 2.57  14 2.57
  14  0.500  0.500  0.064-  32 2.57  24 2.57  23 2.57  27 2.57  26 2.57   6 2.57   5 2.57   9 2.57
                             8 2.57  13 2.57  15 2.57
  15  0.500  0.833  0.064-  33 2.57  22 2.57  24 2.57  25 2.57   4 2.57  27 2.57   6 2.57   7 2.57
                             9 2.57  13 2.57  14 2.57
  16  0.833  0.167  0.064-  34 2.57  26 2.57  20 2.57  25 2.57  19 2.57   8 2.57   2 2.57   7 2.57
                             1 2.57  18 2.57  17 2.57
  17  0.833  0.500  0.064-  35 2.57  27 2.57  26 2.57  21 2.57  20 2.57   9 2.57   8 2.57   3 2.57
                             2 2.57  16 2.57  18 2.57
  18  0.833  0.833  0.064-  36 2.57  25 2.57  19 2.57  27 2.57  21 2.57   7 2.57   1 2.57   9 2.57
                             3 2.57  16 2.57  17 2.57
  19  0.000  0.000  0.127-   1 2.57  37 2.57  12 2.57  18 2.57  10 2.57  16 2.57  30 2.57  36 2.57
                            28 2.57  34 2.57  21 2.57  20 2.57
  20  0.000  0.333  0.127-   2 2.57  38 2.57  10 2.57  16 2.57  11 2.57  17 2.57  28 2.57  34 2.57
                            29 2.57  35 2.57  19 2.57  21 2.57
  21  0.000  0.667  0.127-   3 2.57  39 2.57  12 2.57  11 2.57  18 2.57  17 2.57  30 2.57  29 2.57
                            36 2.57  35 2.57  19 2.57  20 2.57
  22  0.333  0.000  0.127-   4 2.57  40 2.57  12 2.57  15 2.57  10 2.57  13 2.57  30 2.57  33 2.57
                            28 2.57  31 2.57  24 2.57  23 2.57
  23  0.333  0.333  0.127-   5 2.57  41 2.57  10 2.57  13 2.57  11 2.57  14 2.57  28 2.57  31 2.57
                            29 2.57  32 2.57  22 2.57  24 2.57
  24  0.333  0.667  0.127-   6 2.57  42 2.57  12 2.57  11 2.57  15 2.57  14 2.57  30 2.57  29 2.57
                            33 2.57  32 2.57  22 2.57  23 2.57
  25  0.667  0.000  0.127-   7 2.57  43 2.57  18 2.57  16 2.57  15 2.57  36 2.57  13 2.57  34 2.57
                            33 2.57  31 2.57  27 2.57  26 2.57
  26  0.667  0.333  0.127-   8 2.57  44 2.57  16 2.57  17 2.57  13 2.57  34 2.57  14 2.57  35 2.57
                            31 2.57  32 2.57  25 2.57  27 2.57
  27  0.667  0.667  0.127-   9 2.57  45 2.57  18 2.57  17 2.57  15 2.57  14 2.57  36 2.57  35 2.57
                            33 2.57  32 2.57  25 2.57  26 2.57
  28  0.167  0.167  0.191-  10 2.57  38 2.57  41 2.57  40 2.57  37 2.57  20 2.57  23 2.57  22 2.57
                            19 2.57  30 2.57  29 2.57
  29  0.167  0.500  0.191-  11 2.57  38 2.57  39 2.57  41 2.57  42 2.57  20 2.57  21 2.57  23 2.57
                            24 2.57  28 2.57  30 2.57
  30  0.167  0.833  0.191-  12 2.57  37 2.57  40 2.57  19 2.57  22 2.57  39 2.57  42 2.57  21 2.57
                            24 2.57  28 2.57  29 2.57
  31  0.500  0.167  0.191-  13 2.57  41 2.57  40 2.57  23 2.57  44 2.57  22 2.57  43 2.57  26 2.57
                            25 2.57  33 2.57  32 2.57
  32  0.500  0.500  0.191-  14 2.57  41 2.57  42 2.57  23 2.57  24 2.57  44 2.57  45 2.57  26 2.57
                            27 2.57  31 2.57  33 2.57
  33  0.500  0.833  0.191-  15 2.57  40 2.57  22 2.57  42 2.57  43 2.57  24 2.57  25 2.57  45 2.57
                            27 2.57  31 2.57  32 2.57
  34  0.833  0.167  0.191-  16 2.57  44 2.57  38 2.57  43 2.57  26 2.57  37 2.57  20 2.57  25 2.57
                            19 2.57  36 2.57  35 2.57
  35  0.833  0.500  0.191-  17 2.57  44 2.57  45 2.57  38 2.57  39 2.57  26 2.57  27 2.57  20 2.57
                            21 2.57  34 2.57  36 2.57
  36  0.833  0.833  0.191-  18 2.57  43 2.57  37 2.57  25 2.57  45 2.57  19 2.57  39 2.57  27 2.57
                            21 2.57  34 2.57  35 2.57
  37  0.000  0.000  0.255-  19 2.57  30 2.57  36 2.57  28 2.57  34 2.57  39 2.57  38 2.57
  38  0.000  0.333  0.255-  20 2.57  28 2.57  34 2.57  29 2.57  35 2.57  37 2.57  39 2.57
  39  0.000  0.667  0.255-  21 2.57  29 2.57  30 2.57  35 2.57  36 2.57  37 2.57  38 2.57
  40  0.333  0.000  0.255-  22 2.57  30 2.57  33 2.57  28 2.57  31 2.57  42 2.57  41 2.57
  41  0.333  0.333  0.255-  23 2.57  28 2.57  31 2.57  29 2.57  32 2.57  40 2.57  42 2.57
  42  0.333  0.667  0.255-  24 2.57  29 2.57  30 2.57  32 2.57  33 2.57  40 2.57  41 2.57
  43  0.667  0.000  0.255-  25 2.57  36 2.57  34 2.57  33 2.57  31 2.57  45 2.57  44 2.57
  44  0.667  0.333  0.255-  26 2.57  34 2.57  35 2.57  31 2.57  32 2.57  43 2.57  45 2.57
  45  0.667  0.667  0.255-  27 2.57  35 2.57  36 2.57  32 2.57  33 2.57  43 2.57  44 2.57
 
  LATTYP: Found a simple orthorhombic cell.
 ALAT       =     7.7003931999
 B/A-ratio  =     1.4142135422
 C/A-ratio  =     2.6146190821
  
  Lattice vectors:
  
 A1 = (   0.0000000000,  -7.7003931999,   0.0000000000)
 A2 = (  10.8900003433,   0.0000000000,   0.0000000000)
 A3 = (   0.0000000000,   0.0000000000,  20.1335950000)


Analysis of symmetry for initial positions (statically):
=====================================================================
 Subroutine PRICEL returns following result:
 
  LATTYP: Found a simple orthorhombic cell.
 ALAT       =     2.5667977330
 B/A-ratio  =     1.4142135422
 C/A-ratio  =     7.8438572472
  
  Lattice vectors:
  
 A1 = (   0.0000000000,  -2.5667977330,   0.0000000000)
 A2 = (   3.6300001140,   0.0000000000,   0.0000000000)
 A3 = (   0.0000000000,   0.0000000000,  20.1335950000)
 
   9 primitive cells build up your supercell.
 

 Routine SETGRP: Setting up the symmetry group for a 
 simple orthorhombic supercell.


 Subroutine GETGRP returns: Found  8 space group operations
 (whereof  4 operations were pure point group operations)
 out of a pool of  8 trial point group operations.


The static configuration has the point symmetry C_2v.
 The point group associated with its full space group is D_2h.


Analysis of symmetry for dynamics (positions and initial velocities):
=====================================================================
 Subroutine PRICEL returns following result:
 
  LATTYP: Found a simple orthorhombic cell.
 ALAT       =     2.5667977330
 B/A-ratio  =     1.4142135422
 C/A-ratio  =     7.8438572472
  
  Lattice vectors:
  
 A1 = (   0.0000000000,  -2.5667977330,   0.0000000000)
 A2 = (   3.6300001140,   0.0000000000,   0.0000000000)
 A3 = (   0.0000000000,   0.0000000000,  20.1335950000)
 
   9 primitive cells build up your supercell.
 

 Routine SETGRP: Setting up the symmetry group for a 
 simple orthorhombic supercell.


 Subroutine GETGRP returns: Found  8 space group operations
 (whereof  4 operations were pure point group operations)
 out of a pool of  8 trial point group operations.


The dynamic configuration has the point symmetry C_2v.
 The point group associated with its full space group is D_2h.


Analysis of constrained symmetry for selective dynamics:
=====================================================================
 Subroutine PRICEL returns following result:
 
  LATTYP: Found a simple orthorhombic cell.
 ALAT       =     2.5667977330
 B/A-ratio  =     1.4142135422
 C/A-ratio  =     7.8438572472
  
  Lattice vectors:
  
 A1 = (   0.0000000000,  -2.5667977330,   0.0000000000)
 A2 = (   3.6300001140,   0.0000000000,   0.0000000000)
 A3 = (   0.0000000000,   0.0000000000,  20.1335950000)
 
   9 primitive cells build up your supercell.
 

 Routine SETGRP: Setting up the symmetry group for a 
 simple orthorhombic supercell.


 Subroutine GETGRP returns: Found  4 space group operations
 (whereof  4 operations were pure point group operations)
 out of a pool of  8 trial point group operations.


The constrained configuration has the point symmetry C_2v.


Analysis of structural, dynamic, and magnetic symmetry:
=====================================================================
 Subroutine PRICEL returns following result:
 
  LATTYP: Found a simple orthorhombic cell.
 ALAT       =     2.5667977330
 B/A-ratio  =     1.4142135422
 C/A-ratio  =     7.8438572472
  
  Lattice vectors:
  
 A1 = (   0.0000000000,  -2.5667977330,   0.0000000000)
 A2 = (   3.6300001140,   0.0000000000,   0.0000000000)
 A3 = (   0.0000000000,   0.0000000000,  20.1335950000)
 
   9 primitive cells build up your supercell.
 

 Routine SETGRP: Setting up the symmetry group for a 
 simple orthorhombic supercell.


 Subroutine GETGRP returns: Found  4 space group operations
 (whereof  4 operations were pure point group operations)
 out of a pool of  8 trial point group operations.


The overall configuration has the point symmetry C_2v.


 Subroutine INISYM returns: Found  4 space group operations
 (whereof  4 operations are pure point group operations),
 and found     9 'primitive' translations


----------------------------------------------------------------------------------------

                                     Primitive cell                                     

  volume of cell :     187.5943

  direct lattice vectors                    reciprocal lattice vectors
     0.000000000 -2.566797733  0.000000000     0.000000000 -0.389590495  0.000000000
     3.630000114  0.000000000  0.000000000     0.275482085  0.000000000  0.000000000
     0.000000000  0.000000000 20.133595000     0.000000000  0.000000000  0.049668229

  length of vectors
     2.566797733  3.630000114 20.133595000     0.389590495  0.275482085  0.049668229

  position of ions in fractional coordinates (direct lattice)
     0.000000000  0.000000000  0.000000000
     0.499999999  0.500000000  0.063744146
     0.000000000  0.000000000  0.127488293
     0.499999999  0.500000000  0.191232439
     0.000000000  0.000000000  0.254976586

  ion indices of the primitive-cell ions
   primitive index   ion index
                 1           1
                 2          12
                 3          19
                 4          30
                 5          37

----------------------------------------------------------------------------------------

 
 
 KPOINTS: Auto-mesh                               

Automatic generation of k-mesh.
 Grid dimensions read from file:
 generate k-points for:    3    3    1

 Generating k-lattice:

  Cartesian coordinates                     Fractional coordinates (reciprocal lattice)
     0.030609121  0.000000000  0.000000000     0.333333333  0.000000000  0.000000000
     0.000000000  0.043287833  0.000000000     0.000000000  0.333333333  0.000000000
     0.000000000  0.000000000  0.049668229     0.000000000  0.000000000  1.000000000

  Length of vectors
     0.030609121  0.043287833  0.049668229

  Shift w.r.t. Gamma in fractional coordinates (k-lattice)
     0.000000000  0.000000000  0.000000000

 
 Subroutine IBZKPT returns following result:
 ===========================================
 
 Found      4 irreducible k-points:
 
 Following reciprocal coordinates:
            Coordinates               Weight
  0.000000  0.000000  0.000000      1.000000
  0.333333  0.000000  0.000000      2.000000
  0.000000  0.333333  0.000000      2.000000
  0.333333  0.333333  0.000000      4.000000
 
 Following cartesian coordinates:
            Coordinates               Weight
  0.000000  0.000000  0.000000      1.000000
  0.030609  0.000000  0.000000      2.000000
  0.000000  0.043288  0.000000      2.000000
  0.030609  0.043288  0.000000      4.000000
 


--------------------------------------------------------------------------------------------------------




 Dimension of arrays:
   k-points           NKPTS =      4   k-points in BZ     NKDIM =      4   number of bands    NBANDS=    320
   number of dos      NEDOS =    301   number of ions     NIONS =     45
   non local maximal  LDIM  =      6   non local SUM 2l+1 LMDIM =     18
   total plane-waves  NPLWV = 211680
   max r-space proj   IRMAX =      1   max aug-charges    IRDMAX=   3831
   dimension x,y,z NGX =    54 NGY =   40 NGZ =   98
   dimension x,y,z NGXF=   108 NGYF=   80 NGZF=  196
   support grid    NGXF=   108 NGYF=   80 NGZF=  196
   ions per type =              45
   NGX,Y,Z   is equivalent  to a cutoff of   8.24,  8.64,  8.09 a.u.
   NGXF,Y,Z  is equivalent  to a cutoff of  16.49, 17.27, 16.18 a.u.

 SYSTEM =  unknown system                          
 POSCAR =  FCC Cu                                  

 Startparameter for this run:
   NWRITE =      2    write-flag & timer
   PREC   = normal    normal or accurate (medium, high low for compatibility)
   ISTART =      0    job   : 0-new  1-cont  2-samecut
   ICHARG =      2    charge: 1-file 2-atom 10-const
   ISPIN  =      2    spin polarized calculation?
   LNONCOLLINEAR =      F non collinear calculations
   LSORBIT =      F    spin-orbit coupling
   INIWAV =      1    electr: 0-lowe 1-rand  2-diag
   LASPH  =      F    aspherical Exc in radial PAW
 Electronic Relaxation 1
   ENCUT  =  400.0 eV  29.40 Ry    5.42 a.u.  17.76 12.56 32.83*2*pi/ulx,y,z
   ENINI  =  400.0     initial cutoff
   ENAUG  =  587.0 eV  augmentation charge cutoff
   NELM   =     60;   NELMIN=  2; NELMDL= -5     # of ELM steps 
   EDIFF  = 0.2E-03   stopping-criterion for ELM
   LREAL  =      F    real-space projection
   NLSPLINE    = F    spline interpolate recip. space projectors
   LCOMPAT=      F    compatible to vasp.4.4
   GGA_COMPAT  = T    GGA compatible to vasp.4.4-vasp.4.6
   LMAXPAW     = -100 max onsite density
   LMAXMIX     =    2 max onsite mixed and CHGCAR
   VOSKOWN=      0    Vosko Wilk Nusair interpolation
   ROPT   =    0.00000
 Ionic relaxation
   EDIFFG = -.3E-01   stopping-criterion for IOM
   NSW    =    800    number of steps for IOM
   NBLOCK =      1;   KBLOCK =    800    inner block; outer block 
   IBRION =      2    ionic relax: 0-MD 1-quasi-New 2-CG
   NFREE  =      1    steps in history (QN), initial steepest desc. (CG)
   ISIF   =      2    stress and relaxation
   IWAVPR =     11    prediction:  0-non 1-charg 2-wave 3-comb
   ISYM   =      1    0-nonsym 1-usesym 2-fastsym
   LCORR  =      T    Harris-Foulkes like correction to forces

   POTIM  = 0.5000    time-step for ionic-motion
   TEIN   =    0.0    initial temperature
   TEBEG  =    0.0;   TEEND  =   0.0 temperature during run
   SMASS  =  -3.00    Nose mass-parameter (am)
   estimated Nose-frequenzy (Omega)   =  0.10E-29 period in steps = 0.13E+47 mass=  -0.271E-26a.u.
   SCALEE = 1.0000    scale energy and forces
   NPACO  =    256;   APACO  = 10.0  distance and # of slots for P.C.
   PSTRESS=    0.0 pullay stress

  Mass of Ions in am
   POMASS =  63.55
  Ionic Valenz
   ZVAL   =  11.00
  Atomic Wigner-Seitz radii
   RWIGS  =  -1.00
  virtual crystal weights 
   VCA    =   1.00
   NELECT =     495.0000    total number of electrons
   NUPDOWN=      -1.0000    fix difference up-down

 DOS related values:
   EMIN   =  10.00;   EMAX   =-10.00  energy-range for DOS
   EFERMI =   0.00
   ISMEAR =     1;   SIGMA  =   0.20  broadening in eV -4-tet -1-fermi 0-gaus

 Electronic relaxation 2 (details)
   IALGO  =     38    algorithm
   LDIAG  =      T    sub-space diagonalisation (order eigenvalues)
   LSUBROT=      F    optimize rotation matrix (better conditioning)
   TURBO    =      0    0=normal 1=particle mesh
   IRESTART =      0    0=no restart 2=restart with 2 vectors
   NREBOOT  =      0    no. of reboots
   NMIN     =      0    reboot dimension
   EREF     =   0.00    reference energy to select bands
   IMIX   =      4    mixing-type and parameters
     AMIX     =   0.40;   BMIX     =  1.00
     AMIX_MAG =   1.60;   BMIX_MAG =  1.00
     AMIN     =   0.10
     WC   =   100.;   INIMIX=   1;  MIXPRE=   1;  MAXMIX= -45

 Intra band minimization:
   WEIMIN = 0.0010     energy-eigenvalue tresh-hold
   EBREAK =  0.16E-06  absolut break condition
   DEPER  =   0.30     relativ break condition  

   TIME   =   0.40     timestep for ELM

  volume/ion in A,a.u.               =      37.52       253.19
  Fermi-wavevector in a.u.,A,eV,Ry     =   1.087567  2.055203 16.092986  1.182801
  Thomas-Fermi vector in A             =   2.223729
 
 Write flags
   LWAVE        =      F    write WAVECAR
   LDOWNSAMPLE  =      F    k-point downsampling of WAVECAR
   LCHARG       =      F    write CHGCAR
   LVTOT        =      F    write LOCPOT, total local potential
   LVHAR        =      F    write LOCPOT, Hartree potential only
   LELF         =      F    write electronic localiz. function (ELF)
   LORBIT       =      0    0 simple, 1 ext, 2 COOP (PROOUT), +10 PAW based schemes


 Dipole corrections
   LMONO  =      F    monopole corrections only (constant potential shift)
   LDIPOL =      F    correct potential (dipole corrections)
   IDIPOL =      3    1-x, 2-y, 3-z, 4-all directions 
   EPSILON=  1.0000000 bulk dielectric constant

 Exchange correlation treatment:
   GGA     =    PE    GGA type
   LEXCH   =     8    internal setting for exchange type
   LIBXC   =     F    Libxc                    
   VOSKOWN =     0    Vosko Wilk Nusair interpolation
   LHFCALC =     F    Hartree Fock is set to
   LHFONE  =     F    Hartree Fock one center treatment
   AEXX    =    0.0000 exact exchange contribution

 Linear response parameters
   LEPSILON=     F    determine dielectric tensor
   LRPA    =     F    only Hartree local field effects (RPA)
   LNABLA  =     F    use nabla operator in PAW spheres
   LVEL    =     F    velocity operator in full k-point grid
   CSHIFT  =0.1000    complex shift for real part using Kramers Kronig
   OMEGAMAX=  -1.0    maximum frequency
   DEG_THRESHOLD= 0.2000000E-02 threshold for treating states as degnerate
   RTIME   =   -0.100 relaxation time in fs
  (WPLASMAI=    0.000 imaginary part of plasma frequency in eV, 0.658/RTIME)
   DFIELD  = 0.0000000 0.0000000 0.0000000 field for delta impulse in time
 
  Optional k-point grid parameters
   LKPOINTS_OPT  =     F    use optional k-point grid
   KPOINTS_OPT_MODE=     1    mode for optional k-point grid
 
 Orbital magnetization related:
   ORBITALMAG=     F  switch on orbital magnetization
   LCHIMAG   =     F  perturbation theory with respect to B field
   DQ        =  0.001000  dq finite difference perturbation B field
   LLRAUG    =     F  two centre corrections for induced B field



--------------------------------------------------------------------------------------------------------


 conjugate gradient relaxation of ions
   using selective dynamics as specified on POSCAR
   WARNING: If single coordinates had been selected the selection of coordinates
            is made according to the corresponding   d i r e c t   coordinates!
            Don't support selection of single cartesian coordinates -- sorry ...
  !
 charge density and potential will be updated during run
 spin polarized calculation
 Variant of blocked Davidson
 Davidson routine will perform the subspace rotation
 perform sub-space diagonalisation
    after iterative eigenvector-optimisation
 modified Broyden-mixing scheme, WC =      100.0
 initial mixing is a Kerker type mixing with AMIX =  0.4000 and BMIX =      1.0000
 Hartree-type preconditioning will be used
 using additional bands           72
 reciprocal scheme for non local part
 use partial core corrections
 calculate Harris-corrections to forces 
   (improved forces if not selfconsistent)
 use gradient corrections 
 use of overlap-Matrix (Vanderbilt PP)
 Methfessel and Paxton  Order N= 1 SIGMA  =   0.20


--------------------------------------------------------------------------------------------------------


  energy-cutoff  :      400.00
  volume of cell :     1688.35
      direct lattice vectors                 reciprocal lattice vectors
    10.890000343  0.000000000  0.000000000     0.091827362  0.000000000  0.000000000
     0.000000000  7.700393200  0.000000000     0.000000000  0.129863498  0.000000000
     0.000000000  0.000000000 20.133595000     0.000000000  0.000000000  0.049668229

  length of vectors
    10.890000343  7.700393200 20.133595000     0.091827362  0.129863498  0.049668229


 
 k-points in units of 2pi/SCALE and weight: Auto-mesh                               
   0.00000000  0.00000000  0.00000000       0.111
   0.03060912  0.00000000  0.00000000       0.222
   0.00000000  0.04328783  0.00000000       0.222
   0.03060912  0.04328783  0.00000000       0.444
 
 k-points in reciprocal lattice and weights: Auto-mesh                               
   0.00000000  0.00000000  0.00000000       0.111
   0.33333333  0.00000000  0.00000000       0.222
   0.00000000  0.33333333  0.00000000       0.222
   0.33333333  0.33333333  0.00000000       0.444
 
 position of ions in fractional coordinates (direct lattice) 
   0.00000000  0.00000000  0.00000000
   0.00000000  0.33333333  0.00000000
   0.00000000  0.66666667  0.00000000
   0.33333333  0.00000000  0.00000000
   0.33333333  0.33333333  0.00000000
   0.33333333  0.66666667  0.00000000
   0.66666667  0.00000000  0.00000000
   0.66666667  0.33333333  0.00000000
   0.66666667  0.66666667  0.00000000
   0.16666667  0.16666667  0.06374415
   0.16666667  0.50000000  0.06374415
   0.16666667  0.83333333  0.06374415
   0.50000000  0.16666667  0.06374415
   0.50000000  0.50000000  0.06374415
   0.50000000  0.83333333  0.06374415
   0.83333333  0.16666667  0.06374415
   0.83333333  0.50000000  0.06374415
   0.83333333  0.83333333  0.06374415
   0.00000000  0.00000000  0.12748829
   0.00000000  0.33333333  0.12748829
   0.00000000  0.66666667  0.12748829
   0.33333333  0.00000000  0.12748829
   0.33333333  0.33333333  0.12748829
   0.33333333  0.66666667  0.12748829
   0.66666667  0.00000000  0.12748829
   0.66666667  0.33333333  0.12748829
   0.66666667  0.66666667  0.12748829
   0.16666667  0.16666667  0.19123244
   0.16666667  0.50000000  0.19123244
   0.16666667  0.83333333  0.19123244
   0.50000000  0.16666667  0.19123244
   0.50000000  0.50000000  0.19123244
   0.50000000  0.83333333  0.19123244
   0.83333333  0.16666667  0.19123244
   0.83333333  0.50000000  0.19123244
   0.83333333  0.83333333  0.19123244
   0.00000000  0.00000000  0.25497659
   0.00000000  0.33333333  0.25497659
   0.00000000  0.66666667  0.25497659
   0.33333333  0.00000000  0.25497659
   0.33333333  0.33333333  0.25497659
   0.33333333  0.66666667  0.25497659
   0.66666667  0.00000000  0.25497659
   0.66666667  0.33333333  0.25497659
   0.66666667  0.66666667  0.25497659
 
 position of ions in cartesian coordinates  (Angst):
   0.00000000  0.00000000  0.00000000
   0.00000000  2.56679773  0.00000000
   0.00000000  5.13359547  0.00000000
   3.63000011  0.00000000  0.00000000
   3.63000011  2.56679773  0.00000000
   3.63000011  5.13359547  0.00000000
   7.26000023  0.00000000  0.00000000
   7.26000023  2.56679773  0.00000000
   7.26000023  5.13359547  0.00000000
   1.81500006  1.28339887  1.28339883
   1.81500006  3.85019660  1.28339883
   1.81500006  6.41699433  1.28339883
   5.44500017  1.28339887  1.28339883
   5.44500017  3.85019660  1.28339883
   5.44500017  6.41699433  1.28339883
   9.07500029  1.28339887  1.28339883
   9.07500029  3.85019660  1.28339883
   9.07500029  6.41699433  1.28339883
   0.00000000  0.00000000  2.56679766
   0.00000000  2.56679773  2.56679766
   0.00000000  5.13359547  2.56679766
   3.63000011  0.00000000  2.56679766
   3.63000011  2.56679773  2.56679766
   3.63000011  5.13359547  2.56679766
   7.26000023  0.00000000  2.56679766
   7.26000023  2.56679773  2.56679766
   7.26000023  5.13359547  2.56679766
   1.81500006  1.28339887  3.85019648
   1.81500006  3.85019660  3.85019648
   1.81500006  6.41699433  3.85019648
   5.44500017  1.28339887  3.85019648
   5.44500017  3.85019660  3.85019648
   5.44500017  6.41699433  3.85019648
   9.07500029  1.28339887  3.85019648
   9.07500029  3.85019660  3.85019648
   9.07500029  6.41699433  3.85019648
   0.00000000  0.00000000  5.13359531
   0.00000000  2.56679773  5.13359531
   0.00000000  5.13359547  5.13359531
   3.63000011  0.00000000  5.13359531
   3.63000011  2.56679773  5.13359531
   3.63000011  5.13359547  5.13359531
   7.26000023  0.00000000  5.13359531
   7.26000023  2.56679773  5.13359531
   7.26000023  5.13359547  5.13359531
 


--------------------------------------------------------------------------------------------------------


 k-point   1 :   0.0000 0.0000 0.0000  plane waves:   30715
 k-point   2 :   0.3333 0.0000 0.0000  plane waves:   30702
 k-point   3 :   0.0000 0.3333 0.0000  plane waves:   30645
 k-point   4 :   0.3333 0.3333 0.0000  plane waves:   30658

 maximum and minimum number of plane-waves per node :      6181     6118

 maximum number of plane-waves:     30715
 maximum index in each direction: 
   IXMAX=   17   IYMAX=   12   IZMAX=   32
   IXMIN=  -18   IYMIN=  -12   IZMIN=  -32


 parallel 3D FFT for wavefunctions:
    minimum data exchange during FFTs selected (reduces bandwidth)
 parallel 3D FFT for charge:
    minimum data exchange during FFTs selected (reduces bandwidth)


 total amount of memory used by VASP MPI-rank0   117506. kBytes
=======================================================================

   base      :      30000. kBytes
   nonl-proj :       7957. kBytes
   fftplans  :       4427. kBytes
   grid      :      10291. kBytes
   one-center:        279. kBytes
   wavefun   :      64552. kBytes
 
     INWAV:  cpu time      0.0000: real time      0.0007
 Broyden mixing: mesh for mixing (old mesh)
   NGX = 35   NGY = 25   NGZ = 65
  (NGX  =108   NGY  = 80   NGZ  =196)
  gives a total of  56875 points

 initial charge density was supplied:
 charge density of overlapping atoms calculated
 number of electron     495.0000000 magnetization      45.0000000
 keeping initial charge density in first step


--------------------------------------------------------------------------------------------------------


 Maximum index for augmentation-charges          362 (set IRDMAX)


--------------------------------------------------------------------------------------------------------


 First call to EWALD:  gamma=   0.149
 Maximum number of real-space cells 3x 4x 2
 Maximum number of reciprocal cells 3x 2x 4

    FEWALD:  cpu time      0.0030: real time      0.0030


--------------------------------------- Iteration      1(   1)  ---------------------------------------


    POTLOK:  cpu time      0.1205: real time      0.1235
    SETDIJ:  cpu time      0.0174: real time      0.0175
     EDDAV:  cpu time     28.1524: real time     28.3696
       DOS:  cpu time      0.0035: real time      0.0035
    --------------------------------------------
      LOOP:  cpu time     28.2938: real time     28.5141

 eigenvalue-minimisations  :  5120
 total energy-change (2. order) : 0.4290207E+04  (-0.1754383E+05)
 number of electron     495.0000000 magnetization      45.0000000
 augmentation part      495.0000000 magnetization      45.0000000

 Free energy of the ion-electron system (eV)
  ---------------------------------------------------
  alpha Z        PSCENC =       877.15254414
  Ewald energy   TEWEN  =    161284.92689030
  -Hartree energ DENC   =   -220966.82496721
  -exchange      EXHF   =         0.00000000
  -V(xc)+E(xc)   XCENC  =      2047.26736831
  PAW double counting   =     55264.38732220   -60026.44191862
  entropy T*S    EENTRO =         0.00253395
  eigenvalues    EBANDS =      3216.64321233
  atomic energy  EATOM  =     62593.09380899
  Solvation  Ediel_sol  =         0.00000000
  ---------------------------------------------------
  free energy    TOTEN  =      4290.20679439 eV

  energy without entropy =     4290.20426043  energy(sigma->0) =     4290.20594974


--------------------------------------------------------------------------------------------------------




--------------------------------------- Iteration      1(   2)  ---------------------------------------


     EDDAV:  cpu time     27.7879: real time     28.0081
       DOS:  cpu time      0.0039: real time      0.0039
    --------------------------------------------
      LOOP:  cpu time     27.7917: real time     28.0119

 eigenvalue-minimisations  :  5120
 total energy-change (2. order) :-0.3917435E+04  (-0.3752090E+04)
 number of electron     495.0000000 magnetization      45.0000000
 augmentation part      495.0000000 magnetization      45.0000000

 Free energy of the ion-electron system (eV)
  ---------------------------------------------------
  alpha Z        PSCENC =       877.15254414
  Ewald energy   TEWEN  =    161284.92689030
  -Hartree energ DENC   =   -220966.82496721
  -exchange      EXHF   =         0.00000000
  -V(xc)+E(xc)   XCENC  =      2047.26736831
  PAW double counting   =     55264.38732220   -60026.44191862
  entropy T*S    EENTRO =         0.00214988
  eigenvalues    EBANDS =      -700.79143347
  atomic energy  EATOM  =     62593.09380899
  Solvation  Ediel_sol  =         0.00000000
  ---------------------------------------------------
  free energy    TOTEN  =       372.77176451 eV

  energy without entropy =      372.76961463  energy(sigma->0) =      372.77104788


--------------------------------------------------------------------------------------------------------




--------------------------------------- Iteration      1(   3)  ---------------------------------------


     EDDAV:  cpu time     27.8188: real time     28.0370
       DOS:  cpu time      0.0041: real time      0.0041
    --------------------------------------------
      LOOP:  cpu time     27.8229: real time     28.0411

 eigenvalue-minimisations  :  5128
 total energy-change (2. order) :-0.5196224E+03  (-0.4685369E+03)
 number of electron     495.0000000 magnetization      45.0000000
 augmentation part      495.0000000 magnetization      45.0000000

 Free energy of the ion-electron system (eV)
  ---------------------------------------------------
  alpha Z        PSCENC =       877.15254414
  Ewald energy   TEWEN  =    161284.92689030
  -Hartree energ DENC   =   -220966.82496721
  -exchange      EXHF   =         0.00000000
  -V(xc)+E(xc)   XCENC  =      2047.26736831
  PAW double counting   =     55264.38732220   -60026.44191862
  entropy T*S    EENTRO =         0.07851580
  eigenvalues    EBANDS =     -1220.49015887
  atomic energy  EATOM  =     62593.09380899
  Solvation  Ediel_sol  =         0.00000000
  ---------------------------------------------------
  free energy    TOTEN  =      -146.85059496 eV

  energy without entropy =     -146.92911077  energy(sigma->0) =     -146.87676690


--------------------------------------------------------------------------------------------------------




--------------------------------------- Iteration      1(   4)  ---------------------------------------


     EDDAV:  cpu time     30.5831: real time     30.8206
       DOS:  cpu time      0.0042: real time      0.0042
    --------------------------------------------
      LOOP:  cpu time     30.5872: real time     30.8248

 eigenvalue-minimisations  :  5808
 total energy-change (2. order) :-0.3037884E+02  (-0.2955772E+02)
 number of electron     495.0000000 magnetization      45.0000000
 augmentation part      495.0000000 magnetization      45.0000000

 Free energy of the ion-electron system (eV)
  ---------------------------------------------------
  alpha Z        PSCENC =       877.15254414
  Ewald energy   TEWEN  =    161284.92689030
  -Hartree energ DENC   =   -220966.82496721
  -exchange      EXHF   =         0.00000000
  -V(xc)+E(xc)   XCENC  =      2047.26736831
  PAW double counting   =     55264.38732220   -60026.44191862
  entropy T*S    EENTRO =         0.13594407
  eigenvalues    EBANDS =     -1250.92642903
  atomic energy  EATOM  =     62593.09380899
  Solvation  Ediel_sol  =         0.00000000
  ---------------------------------------------------
  free energy    TOTEN  =      -177.22943686 eV

  energy without entropy =     -177.36538093  energy(sigma->0) =     -177.27475155


--------------------------------------------------------------------------------------------------------




--------------------------------------- Iteration      1(   5)  ---------------------------------------


     EDDAV:  cpu time     30.8599: real time     31.1029
       DOS:  cpu time      0.0043: real time      0.0043
    CHARGE:  cpu time      1.2905: real time      1.2974
    MIXING:  cpu time      0.0104: real time      0.0104
    --------------------------------------------
      LOOP:  cpu time     32.1651: real time     32.4151

 eigenvalue-minimisations  :  5864
 total energy-change (2. order) :-0.7381964E+00  (-0.7352784E+00)
 number of electron     495.0003520 magnetization      39.5998806
 augmentation part      294.6130120 magnetization      39.2727771

 Broyden mixing:
  rms(total) = 0.60290E+01    rms(broyden)= 0.60286E+01
  rms(prec ) = 0.63026E+01
  weight for this iteration     100.00

 Free energy of the ion-electron system (eV)
  ---------------------------------------------------
  alpha Z        PSCENC =       877.15254414
  Ewald energy   TEWEN  =    161284.92689030
  -Hartree energ DENC   =   -220966.82496721
  -exchange      EXHF   =         0.00000000
  -V(xc)+E(xc)   XCENC  =      2047.26736831
  PAW double counting   =     55264.38732220   -60026.44191862
  entropy T*S    EENTRO =         0.13809224
  eigenvalues    EBANDS =     -1251.66677359
  atomic energy  EATOM  =     62593.09380899
  Solvation  Ediel_sol  =         0.00000000
  ---------------------------------------------------
  free energy    TOTEN  =      -177.96763324 eV

  energy without entropy =     -178.10572549  energy(sigma->0) =     -178.01366399


--------------------------------------------------------------------------------------------------------




--------------------------------------- Iteration      1(   6)  ---------------------------------------


    POTLOK:  cpu time      0.1258: real time      0.1287
    SETDIJ:  cpu time      0.0178: real time      0.0179
     EDDAV:  cpu time     29.2286: real time     29.4531
       DOS:  cpu time      0.0039: real time      0.0039
    CHARGE:  cpu time      1.2313: real time      1.2379
    MIXING:  cpu time      0.0098: real time      0.0098
    --------------------------------------------
      LOOP:  cpu time     30.6173: real time     30.8514

 eigenvalue-minimisations  :  5472
 total energy-change (2. order) : 0.3798958E+02  (-0.4645310E+02)
 number of electron     495.0003763 magnetization      36.5037860
 augmentation part      330.6385411 magnetization      25.1698218

 Broyden mixing:
  rms(total) = 0.30819E+01    rms(broyden)= 0.30811E+01
  rms(prec ) = 0.32819E+01
  weight for this iteration     100.00

 eigenvalues of (default mixing * dielectric matrix)
  average eigenvalue GAMMA=   0.7908
  0.7908

 Free energy of the ion-electron system (eV)
  ---------------------------------------------------
  alpha Z        PSCENC =       877.15254414
  Ewald energy   TEWEN  =    161284.92689030
  -Hartree energ DENC   =   -219815.65775417
  -exchange      EXHF   =         0.00000000
  -V(xc)+E(xc)   XCENC  =      2002.19721703
  PAW double counting   =     55700.12450407   -60227.68103100
  entropy T*S    EENTRO =        -0.00744070
  eigenvalues    EBANDS =     -2554.12679252
  atomic energy  EATOM  =     62593.09380899
  Solvation  Ediel_sol  =         0.00000000
  ---------------------------------------------------
  free energy    TOTEN  =      -139.97805387 eV

  energy without entropy =     -139.97061317  energy(sigma->0) =     -139.97557363


--------------------------------------------------------------------------------------------------------




--------------------------------------- Iteration      1(   7)  ---------------------------------------


    POTLOK:  cpu time      0.1229: real time      0.1259
    SETDIJ:  cpu time      0.0167: real time      0.0168
     EDDAV:  cpu time     30.6648: real time     30.9222
       DOS:  cpu time      0.0042: real time      0.0042
    CHARGE:  cpu time      1.2249: real time      1.2316
    MIXING:  cpu time      0.0734: real time      0.0739
    --------------------------------------------
      LOOP:  cpu time     32.1069: real time     32.3746

 eigenvalue-minimisations  :  5560
 total energy-change (2. order) : 0.2217587E+02  (-0.1253331E+02)
 number of electron     495.0003766 magnetization      33.3166452
 augmentation part      318.4841811 magnetization      21.9062751

 Broyden mixing:
  rms(total) = 0.14760E+01    rms(broyden)= 0.14758E+01
  rms(prec ) = 0.15272E+01
  weight for this iteration     100.00

 eigenvalues of (default mixing * dielectric matrix)
  average eigenvalue GAMMA=   0.7953
  0.9681  0.6226

 Free energy of the ion-electron system (eV)
  ---------------------------------------------------
  alpha Z        PSCENC =       877.15254414
  Ewald energy   TEWEN  =    161284.92689030
  -Hartree energ DENC   =   -220425.96757481
  -exchange      EXHF   =         0.00000000
  -V(xc)+E(xc)   XCENC  =      2028.65124025
  PAW double counting   =     56845.42363621   -61594.26079968
  entropy T*S    EENTRO =         0.02373103
  eigenvalues    EBANDS =     -1726.84565741
  atomic energy  EATOM  =     62593.09380899
  Solvation  Ediel_sol  =         0.00000000
  ---------------------------------------------------
  free energy    TOTEN  =      -117.80218097 eV

  energy without entropy =     -117.82591200  energy(sigma->0) =     -117.81009131


--------------------------------------------------------------------------------------------------------




--------------------------------------- Iteration      1(   8)  ---------------------------------------


    POTLOK:  cpu time      0.1268: real time      0.1292
    SETDIJ:  cpu time      0.0168: real time      0.0169
     EDDAV:  cpu time     31.7851: real time     32.0718
       DOS:  cpu time      0.0050: real time      0.0050
    CHARGE:  cpu time      1.2308: real time      1.2374
    MIXING:  cpu time      0.0107: real time      0.0107
    --------------------------------------------
      LOOP:  cpu time     33.1752: real time     33.4711

 eigenvalue-minimisations  :  5872
 total energy-change (2. order) : 0.4535886E+01  (-0.3058601E+01)
 number of electron     495.0003615 magnetization      29.2003811
 augmentation part      316.3674856 magnetization      16.7792915

 Broyden mixing:
  rms(total) = 0.12642E+01    rms(broyden)= 0.12641E+01
  rms(prec ) = 0.13327E+01
  weight for this iteration     100.00

 eigenvalues of (default mixing * dielectric matrix)
  average eigenvalue GAMMA=   0.7435
  1.1371  0.6663  0.4270

 Free energy of the ion-electron system (eV)
  ---------------------------------------------------
  alpha Z        PSCENC =       877.15254414
  Ewald energy   TEWEN  =    161284.92689030
  -Hartree energ DENC   =   -220531.94231490
  -exchange      EXHF   =         0.00000000
  -V(xc)+E(xc)   XCENC  =      2033.17318841
  PAW double counting   =     57455.55362250   -62257.45861341
  entropy T*S    EENTRO =         0.00712933
  eigenvalues    EBANDS =     -1567.77255042
  atomic energy  EATOM  =     62593.09380899
  Solvation  Ediel_sol  =         0.00000000
  ---------------------------------------------------
  free energy    TOTEN  =      -113.26629507 eV

  energy without entropy =     -113.27342440  energy(sigma->0) =     -113.26867151


--------------------------------------------------------------------------------------------------------




--------------------------------------- Iteration      1(   9)  ---------------------------------------


    POTLOK:  cpu time      0.1274: real time      0.1308
    SETDIJ:  cpu time      0.0166: real time      0.0167
     EDDAV:  cpu time     37.8316: real time     38.3179
       DOS:  cpu time      0.0060: real time      0.0061
    CHARGE:  cpu time      1.1910: real time      1.1965
    MIXING:  cpu time      0.0115: real time      0.0116
    --------------------------------------------
      LOOP:  cpu time     39.1842: real time     39.6796

 eigenvalue-minimisations  :  6984
 total energy-change (2. order) : 0.4351182E+01  (-0.1080892E+01)
 number of electron     495.0003661 magnetization      19.2819090
 augmentation part      315.3948381 magnetization       6.6497315

 Broyden mixing:
  rms(total) = 0.92332E+00    rms(broyden)= 0.92327E+00
  rms(prec ) = 0.93656E+00
  weight for this iteration     100.00

 eigenvalues of (default mixing * dielectric matrix)
  average eigenvalue GAMMA=   1.2343
  2.6045  1.1845  0.7528  0.3953

 Free energy of the ion-electron system (eV)
  ---------------------------------------------------
  alpha Z        PSCENC =       877.15254414
  Ewald energy   TEWEN  =    161284.92689030
  -Hartree energ DENC   =   -220636.83562402
  -exchange      EXHF   =         0.00000000
  -V(xc)+E(xc)   XCENC  =      2034.04022141
  PAW double counting   =     58069.16920677   -62910.00054652
  entropy T*S    EENTRO =        -0.02105244
  eigenvalues    EBANDS =     -1420.44056146
  atomic energy  EATOM  =     62593.09380899
  Solvation  Ediel_sol  =         0.00000000
  ---------------------------------------------------
  free energy    TOTEN  =      -108.91511283 eV

  energy without entropy =     -108.89406039  energy(sigma->0) =     -108.90809535


--------------------------------------------------------------------------------------------------------




--------------------------------------- Iteration      1(  10)  ---------------------------------------


    POTLOK:  cpu time      0.1146: real time      0.1171
    SETDIJ:  cpu time      0.0167: real time      0.0168
     EDDAV:  cpu time     32.1009: real time     32.4332
       DOS:  cpu time      0.0042: real time      0.0042
    CHARGE:  cpu time      1.2341: real time      1.2397
    MIXING:  cpu time      0.0202: real time      0.0203
    --------------------------------------------
      LOOP:  cpu time     33.4908: real time     33.8313

 eigenvalue-minimisations  :  6168
 total energy-change (2. order) :-0.1342981E+01  (-0.1413312E+01)
 number of electron     495.0003710 magnetization      13.7395537
 augmentation part      319.3122151 magnetization       3.2059858

 Broyden mixing:
  rms(total) = 0.76248E+00    rms(broyden)= 0.76244E+00
  rms(prec ) = 0.79474E+00
  weight for this iteration     100.00

 eigenvalues of (default mixing * dielectric matrix)
  average eigenvalue GAMMA=   1.3218
  3.7058  1.1210  0.6936  0.6936  0.3950

 Free energy of the ion-electron system (eV)
  ---------------------------------------------------
  alpha Z        PSCENC =       877.15254414
  Ewald energy   TEWEN  =    161284.92689030
  -Hartree energ DENC   =   -220605.91230149
  -exchange      EXHF   =         0.00000000
  -V(xc)+E(xc)   XCENC  =      2024.15942416
  PAW double counting   =     58683.26954601   -63518.72548446
  entropy T*S    EENTRO =        -0.04011951
  eigenvalues    EBANDS =     -1448.18240198
  atomic energy  EATOM  =     62593.09380899
  Solvation  Ediel_sol  =         0.00000000
  ---------------------------------------------------
  free energy    TOTEN  =      -110.25809385 eV

  energy without entropy =     -110.21797434  energy(sigma->0) =     -110.24472068


--------------------------------------------------------------------------------------------------------




--------------------------------------- Iteration      1(  11)  ---------------------------------------


    POTLOK:  cpu time      0.1134: real time      0.1171
    SETDIJ:  cpu time      0.0167: real time      0.0168
     EDDAV:  cpu time     30.9811: real time     31.2254
       DOS:  cpu time      0.0046: real time      0.0046
    CHARGE:  cpu time      1.2287: real time      1.2351
    MIXING:  cpu time      0.0115: real time      0.0116
    --------------------------------------------
      LOOP:  cpu time     32.3559: real time     32.6107

 eigenvalue-minimisations  :  5912
 total energy-change (2. order) :-0.4295688E+01  (-0.4663014E+00)
 number of electron     495.0003669 magnetization      10.4868133
 augmentation part      317.2181887 magnetization       1.2535246

 Broyden mixing:
  rms(total) = 0.42755E+00    rms(broyden)= 0.42749E+00
  rms(prec ) = 0.45259E+00
  weight for this iteration     100.00

 eigenvalues of (default mixing * dielectric matrix)
  average eigenvalue GAMMA=   1.3638
  4.4003  1.1855  0.8027  0.8027  0.3968  0.5948

 Free energy of the ion-electron system (eV)
  ---------------------------------------------------
  alpha Z        PSCENC =       877.15254414
  Ewald energy   TEWEN  =    161284.92689030
  -Hartree energ DENC   =   -220764.06317884
  -exchange      EXHF   =         0.00000000
  -V(xc)+E(xc)   XCENC  =      2024.44506385
  PAW double counting   =     58919.15578746   -63789.02036172
  entropy T*S    EENTRO =        -0.02676598
  eigenvalues    EBANDS =     -1260.21757046
  atomic energy  EATOM  =     62593.09380899
  Solvation  Ediel_sol  =         0.00000000
  ---------------------------------------------------
  free energy    TOTEN  =      -114.55378225 eV

  energy without entropy =     -114.52701627  energy(sigma->0) =     -114.54486025


--------------------------------------------------------------------------------------------------------




--------------------------------------- Iteration      1(  12)  ---------------------------------------


    POTLOK:  cpu time      0.1145: real time      0.1169
    SETDIJ:  cpu time      0.0170: real time      0.0171
     EDDAV:  cpu time     31.8345: real time     32.0382
       DOS:  cpu time      0.0045: real time      0.0045
    CHARGE:  cpu time      1.2154: real time      1.2209
    MIXING:  cpu time      0.0122: real time      0.0123
    --------------------------------------------
      LOOP:  cpu time     33.1981: real time     33.4099

 eigenvalue-minimisations  :  6096
 total energy-change (2. order) :-0.7362250E+01  (-0.4461647E+00)
 number of electron     495.0003668 magnetization       6.3022209
 augmentation part      316.0021499 magnetization      -1.2202979

 Broyden mixing:
  rms(total) = 0.34571E+00    rms(broyden)= 0.34568E+00
  rms(prec ) = 0.36665E+00
  weight for this iteration     100.00

 eigenvalues of (default mixing * dielectric matrix)
  average eigenvalue GAMMA=   1.5043
  5.3869  1.8899  1.0018  0.7233  0.7233  0.3908  0.4141

 Free energy of the ion-electron system (eV)
  ---------------------------------------------------
  alpha Z        PSCENC =       877.15254414
  Ewald energy   TEWEN  =    161284.92689030
  -Hartree energ DENC   =   -220810.23629225
  -exchange      EXHF   =         0.00000000
  -V(xc)+E(xc)   XCENC  =      2021.28441915
  PAW double counting   =     58836.99785154   -63711.55429443
  entropy T*S    EENTRO =        -0.00040131
  eigenvalues    EBANDS =     -1213.58055865
  atomic energy  EATOM  =     62593.09380899
  Solvation  Ediel_sol  =         0.00000000
  ---------------------------------------------------
  free energy    TOTEN  =      -121.91603252 eV

  energy without entropy =     -121.91563121  energy(sigma->0) =     -121.91589875


--------------------------------------------------------------------------------------------------------




--------------------------------------- Iteration      1(  13)  ---------------------------------------


    POTLOK:  cpu time      0.1132: real time      0.1166
    SETDIJ:  cpu time      0.0167: real time      0.0169
     EDDAV:  cpu time     32.9364: real time     33.1879
       DOS:  cpu time      0.0040: real time      0.0040
    CHARGE:  cpu time      1.2313: real time      1.2378
    MIXING:  cpu time      0.0121: real time      0.0121
    --------------------------------------------
      LOOP:  cpu time     34.3138: real time     34.5754

 eigenvalue-minimisations  :  6384
 total energy-change (2. order) :-0.1476905E+02  (-0.1127078E+01)
 number of electron     495.0003677 magnetization       3.6085954
 augmentation part      315.3788179 magnetization      -0.7757922

 Broyden mixing:
  rms(total) = 0.30108E+00    rms(broyden)= 0.30101E+00
  rms(prec ) = 0.32469E+00
  weight for this iteration     100.00

 eigenvalues of (default mixing * dielectric matrix)
  average eigenvalue GAMMA=   1.7965
  7.3596  2.8555  1.0875  0.8293  0.8293  0.6404  0.3957  0.3750

 Free energy of the ion-electron system (eV)
  ---------------------------------------------------
  alpha Z        PSCENC =       877.15254414
  Ewald energy   TEWEN  =    161284.92689030
  -Hartree energ DENC   =   -220799.24337066
  -exchange      EXHF   =         0.00000000
  -V(xc)+E(xc)   XCENC  =      2012.03569078
  PAW double counting   =     58443.07476856   -63297.33726727
  entropy T*S    EENTRO =        -0.01410755
  eigenvalues    EBANDS =     -1250.37403791
  atomic energy  EATOM  =     62593.09380899
  Solvation  Ediel_sol  =         0.00000000
  ---------------------------------------------------
  free energy    TOTEN  =      -136.68508062 eV

  energy without entropy =     -136.67097307  energy(sigma->0) =     -136.68037811


--------------------------------------------------------------------------------------------------------




--------------------------------------- Iteration      1(  14)  ---------------------------------------


    POTLOK:  cpu time      0.1139: real time      0.1169
    SETDIJ:  cpu time      0.0199: real time      0.0200
     EDDAV:  cpu time     30.7244: real time     30.9594
       DOS:  cpu time      0.0042: real time      0.0042
    CHARGE:  cpu time      1.2383: real time      1.2447
    MIXING:  cpu time      0.0126: real time      0.0126
    --------------------------------------------
      LOOP:  cpu time     32.1132: real time     32.3578

 eigenvalue-minimisations  :  5832
 total energy-change (2. order) :-0.9389844E+01  (-0.1123135E+01)
 number of electron     495.0003704 magnetization       2.7854364
 augmentation part      316.6469601 magnetization       1.3202593

 Broyden mixing:
  rms(total) = 0.15834E+00    rms(broyden)= 0.15814E+00
  rms(prec ) = 0.16831E+00
  weight for this iteration     100.00

 eigenvalues of (default mixing * dielectric matrix)
  average eigenvalue GAMMA=   1.7654
  7.8917  3.1544  1.0004  1.0004  0.7351  0.7351  0.6046  0.3930  0.3739

 Free energy of the ion-electron system (eV)
  ---------------------------------------------------
  alpha Z        PSCENC =       877.15254414
  Ewald energy   TEWEN  =    161284.92689030
  -Hartree energ DENC   =   -220701.61450734
  -exchange      EXHF   =         0.00000000
  -V(xc)+E(xc)   XCENC  =      2004.39103008
  PAW double counting   =     58119.71434436   -62942.83587283
  entropy T*S    EENTRO =        -0.00767787
  eigenvalues    EBANDS =     -1380.89548420
  atomic energy  EATOM  =     62593.09380899
  Solvation  Ediel_sol  =         0.00000000
  ---------------------------------------------------
  free energy    TOTEN  =      -146.07492438 eV

  energy without entropy =     -146.06724651  energy(sigma->0) =     -146.07236509


--------------------------------------------------------------------------------------------------------




--------------------------------------- Iteration      1(  15)  ---------------------------------------


    POTLOK:  cpu time      0.1146: real time      0.1177
    SETDIJ:  cpu time      0.0168: real time      0.0169
     EDDAV:  cpu time     33.7011: real time     34.0107
       DOS:  cpu time      0.0041: real time      0.0041
    CHARGE:  cpu time      1.2072: real time      1.2150
    MIXING:  cpu time      0.0197: real time      0.0195
    --------------------------------------------
      LOOP:  cpu time     35.0634: real time     35.3840

 eigenvalue-minimisations  :  6576
 total energy-change (2. order) :-0.1901696E+01  (-0.1362062E+00)
 number of electron     495.0003706 magnetization       2.2268422
 augmentation part      316.8841287 magnetization       1.4997192

 Broyden mixing:
  rms(total) = 0.14765E+00    rms(broyden)= 0.14760E+00
  rms(prec ) = 0.16144E+00
  weight for this iteration     100.00

 eigenvalues of (default mixing * dielectric matrix)
  average eigenvalue GAMMA=   1.7981
  8.6984  3.3278  1.1476  1.1476  0.7996  0.7996  0.6685  0.6250  0.3951  0.3715

 Free energy of the ion-electron system (eV)
  ---------------------------------------------------
  alpha Z        PSCENC =       877.15254414
  Ewald energy   TEWEN  =    161284.92689030
  -Hartree energ DENC   =   -220664.31386570
  -exchange      EXHF   =         0.00000000
  -V(xc)+E(xc)   XCENC  =      2003.00888330
  PAW double counting   =     58080.55257626   -62900.40666678
  entropy T*S    EENTRO =         0.00770930
  eigenvalues    EBANDS =     -1421.99850055
  atomic energy  EATOM  =     62593.09380899
  Solvation  Ediel_sol  =         0.00000000
  ---------------------------------------------------
  free energy    TOTEN  =      -147.97662076 eV

  energy without entropy =     -147.98433005  energy(sigma->0) =     -147.97919052


--------------------------------------------------------------------------------------------------------




--------------------------------------- Iteration      1(  16)  ---------------------------------------


    POTLOK:  cpu time      0.1232: real time      0.1259
    SETDIJ:  cpu time      0.0226: real time      0.0227
     EDDAV:  cpu time     33.4782: real time     33.7323
       DOS:  cpu time      0.0040: real time      0.0041
    CHARGE:  cpu time      1.2553: real time      1.2619
    MIXING:  cpu time      0.0138: real time      0.0138
    --------------------------------------------
      LOOP:  cpu time     34.8971: real time     35.1607

 eigenvalue-minimisations  :  6480
 total energy-change (2. order) :-0.9272746E+00  (-0.4402066E-01)
 number of electron     495.0003704 magnetization       1.6968868
 augmentation part      316.7417496 magnetization       1.2625090

 Broyden mixing:
  rms(total) = 0.10532E+00    rms(broyden)= 0.10531E+00
  rms(prec ) = 0.12214E+00
  weight for this iteration     100.00

 eigenvalues of (default mixing * dielectric matrix)
  average eigenvalue GAMMA=   1.7603
  9.1958  3.1954  1.6575  0.9573  0.9573  0.8177  0.8177  0.6312  0.3958  0.3741
  0.3639

 Free energy of the ion-electron system (eV)
  ---------------------------------------------------
  alpha Z        PSCENC =       877.15254414
  Ewald energy   TEWEN  =    161284.92689030
  -Hartree energ DENC   =   -220645.15819969
  -exchange      EXHF   =         0.00000000
  -V(xc)+E(xc)   XCENC  =      2002.58460782
  PAW double counting   =     58097.12610494   -62920.88228369
  entropy T*S    EENTRO =         0.01524807
  eigenvalues    EBANDS =     -1437.76261627
  atomic energy  EATOM  =     62593.09380899
  Solvation  Ediel_sol  =         0.00000000
  ---------------------------------------------------
  free energy    TOTEN  =      -148.90389540 eV

  energy without entropy =     -148.91914346  energy(sigma->0) =     -148.90897809


--------------------------------------------------------------------------------------------------------




--------------------------------------- Iteration      1(  17)  ---------------------------------------


    POTLOK:  cpu time      0.1147: real time      0.1180
    SETDIJ:  cpu time      0.0168: real time      0.0169
     EDDAV:  cpu time     35.5878: real time     35.9769
       DOS:  cpu time      0.0043: real time      0.0043
    CHARGE:  cpu time      1.8657: real time      1.9313
    MIXING:  cpu time      0.0140: real time      0.0140
    --------------------------------------------
      LOOP:  cpu time     37.6032: real time     38.0615

 eigenvalue-minimisations  :  6648
 total energy-change (2. order) :-0.8960638E+00  (-0.3586608E-01)
 number of electron     495.0003698 magnetization       1.2224163
 augmentation part      316.3727655 magnetization       0.9556476

 Broyden mixing:
  rms(total) = 0.69746E-01    rms(broyden)= 0.69735E-01
  rms(prec ) = 0.86386E-01
  weight for this iteration     100.00

 eigenvalues of (default mixing * dielectric matrix)
  average eigenvalue GAMMA=   1.7776
  9.3652  3.1111  2.6136  1.1715  0.8913  0.8913  0.8092  0.7461  0.6277  0.3946
  0.3747  0.3346

 Free energy of the ion-electron system (eV)
  ---------------------------------------------------
  alpha Z        PSCENC =       877.15254414
  Ewald energy   TEWEN  =    161284.92689030
  -Hartree energ DENC   =   -220624.38779103
  -exchange      EXHF   =         0.00000000
  -V(xc)+E(xc)   XCENC  =      2002.30326083
  PAW double counting   =     58151.22562499   -62983.59994618
  entropy T*S    EENTRO =         0.01877430
  eigenvalues    EBANDS =     -1450.53312551
  atomic energy  EATOM  =     62593.09380899
  Solvation  Ediel_sol  =         0.00000000
  ---------------------------------------------------
  free energy    TOTEN  =      -149.79995919 eV

  energy without entropy =     -149.81873348  energy(sigma->0) =     -149.80621728


--------------------------------------------------------------------------------------------------------




--------------------------------------- Iteration      1(  18)  ---------------------------------------


    POTLOK:  cpu time      0.1275: real time      0.1300
    SETDIJ:  cpu time      0.0238: real time      0.0238
     EDDAV:  cpu time     31.7139: real time     31.9162
       DOS:  cpu time      0.0047: real time      0.0047
    CHARGE:  cpu time      1.2291: real time      1.2348
    MIXING:  cpu time      0.0145: real time      0.0146
    --------------------------------------------
      LOOP:  cpu time     33.1135: real time     33.3242

 eigenvalue-minimisations  :  6080
 total energy-change (2. order) :-0.5122278E+00  (-0.1740814E-01)
 number of electron     495.0003697 magnetization       0.7829287
 augmentation part      316.3599066 magnetization       0.6301181

 Broyden mixing:
  rms(total) = 0.57980E-01    rms(broyden)= 0.57974E-01
  rms(prec ) = 0.66434E-01
  weight for this iteration     100.00

 eigenvalues of (default mixing * dielectric matrix)
  average eigenvalue GAMMA=   1.7688
  9.5929  3.3746  2.9015  1.1640  1.1640  0.8562  0.8562  0.6858  0.6858  0.6223
  0.3945  0.3742  0.3228

 Free energy of the ion-electron system (eV)
  ---------------------------------------------------
  alpha Z        PSCENC =       877.15254414
  Ewald energy   TEWEN  =    161284.92689030
  -Hartree energ DENC   =   -220571.47373246
  -exchange      EXHF   =         0.00000000
  -V(xc)+E(xc)   XCENC  =      2001.51742898
  PAW double counting   =     58183.61357427   -63020.05825338
  entropy T*S    EENTRO =         0.01976105
  eigenvalues    EBANDS =     -1499.10420885
  atomic energy  EATOM  =     62593.09380899
  Solvation  Ediel_sol  =         0.00000000
  ---------------------------------------------------
  free energy    TOTEN  =      -150.31218698 eV

  energy without entropy =     -150.33194803  energy(sigma->0) =     -150.31877399


--------------------------------------------------------------------------------------------------------




--------------------------------------- Iteration      1(  19)  ---------------------------------------


    POTLOK:  cpu time      0.1152: real time      0.1182
    SETDIJ:  cpu time      0.0170: real time      0.0170
     EDDAV:  cpu time     34.6130: real time     35.2618
       DOS:  cpu time      0.0044: real time      0.0044
    CHARGE:  cpu time      1.2165: real time      1.2227
    MIXING:  cpu time      0.0146: real time      0.0146
    --------------------------------------------
      LOOP:  cpu time     35.9807: real time     36.6388

 eigenvalue-minimisations  :  6128
 total energy-change (2. order) :-0.4360725E+00  (-0.6213702E-02)
 number of electron     495.0003699 magnetization       0.6254868
 augmentation part      316.5491539 magnetization       0.5358568

 Broyden mixing:
  rms(total) = 0.36225E-01    rms(broyden)= 0.36220E-01
  rms(prec ) = 0.41662E-01
  weight for this iteration     100.00

 eigenvalues of (default mixing * dielectric matrix)
  average eigenvalue GAMMA=   1.7263
  9.6302  3.2636  3.2636  1.4260  1.1926  0.8337  0.8337  0.7597  0.7597  0.6276
  0.4836  0.3944  0.3744  0.3259

 Free energy of the ion-electron system (eV)
  ---------------------------------------------------
  alpha Z        PSCENC =       877.15254414
  Ewald energy   TEWEN  =    161284.92689030
  -Hartree energ DENC   =   -220535.96297291
  -exchange      EXHF   =         0.00000000
  -V(xc)+E(xc)   XCENC  =      2000.61519469
  PAW double counting   =     58190.36439580   -63025.79972282
  entropy T*S    EENTRO =         0.01941152
  eigenvalues    EBANDS =     -1535.15780915
  atomic energy  EATOM  =     62593.09380899
  Solvation  Ediel_sol  =         0.00000000
  ---------------------------------------------------
  free energy    TOTEN  =      -150.74825945 eV

  energy without entropy =     -150.76767097  energy(sigma->0) =     -150.75472996


--------------------------------------------------------------------------------------------------------




--------------------------------------- Iteration      1(  20)  ---------------------------------------


    POTLOK:  cpu time      0.1285: real time      0.1316
    SETDIJ:  cpu time      0.0168: real time      0.0170
     EDDAV:  cpu time     31.1883: real time     31.4063
       DOS:  cpu time      0.0043: real time      0.0043
    CHARGE:  cpu time      1.2322: real time      1.2383
    MIXING:  cpu time      0.0178: real time      0.0178
    --------------------------------------------
      LOOP:  cpu time     32.5880: real time     32.8153

 eigenvalue-minimisations  :  5944
 total energy-change (2. order) :-0.2630496E+00  (-0.2131008E-02)
 number of electron     495.0003700 magnetization       0.3779356
 augmentation part      316.6250715 magnetization       0.2961636

 Broyden mixing:
  rms(total) = 0.29767E-01    rms(broyden)= 0.29765E-01
  rms(prec ) = 0.33735E-01
  weight for this iteration     100.00

 eigenvalues of (default mixing * dielectric matrix)
  average eigenvalue GAMMA=   1.7352
  9.5768  3.6046  3.6046  1.8037  1.0003  1.0003  0.8790  0.8790  0.8730  0.7034
  0.6203  0.3268  0.3736  0.3942  0.3887

 Free energy of the ion-electron system (eV)
  ---------------------------------------------------
  alpha Z        PSCENC =       877.15254414
  Ewald energy   TEWEN  =    161284.92689030
  -Hartree energ DENC   =   -220524.00829134
  -exchange      EXHF   =         0.00000000
  -V(xc)+E(xc)   XCENC  =      2000.21377428
  PAW double counting   =     58192.06598687   -63026.51721239
  entropy T*S    EENTRO =         0.01923243
  eigenvalues    EBANDS =     -1547.95804237
  atomic energy  EATOM  =     62593.09380899
  Solvation  Ediel_sol  =         0.00000000
  ---------------------------------------------------
  free energy    TOTEN  =      -151.01130909 eV

  energy without entropy =     -151.03054153  energy(sigma->0) =     -151.01771991


--------------------------------------------------------------------------------------------------------




--------------------------------------- Iteration      1(  21)  ---------------------------------------


    POTLOK:  cpu time      0.1142: real time      0.1176
    SETDIJ:  cpu time      0.0168: real time      0.0168
     EDDAV:  cpu time     34.1606: real time     34.4145
       DOS:  cpu time      0.0043: real time      0.0043
    CHARGE:  cpu time      1.2377: real time      1.2441
    MIXING:  cpu time      0.0238: real time      0.0239
    --------------------------------------------
      LOOP:  cpu time     35.5572: real time     35.8213

 eigenvalue-minimisations  :  6680
 total energy-change (2. order) :-0.3825084E+00  (-0.1525889E-02)
 number of electron     495.0003700 magnetization       0.0729773
 augmentation part      316.6150197 magnetization       0.0247982

 Broyden mixing:
  rms(total) = 0.15785E-01    rms(broyden)= 0.15784E-01
  rms(prec ) = 0.18237E-01
  weight for this iteration     100.00

 eigenvalues of (default mixing * dielectric matrix)
  average eigenvalue GAMMA=   1.8253
  9.6913  4.9483  3.4385  2.5049  1.2760  1.2760  0.8611  0.8611  0.7996  0.7996
  0.6588  0.6117  0.3260  0.3944  0.3737  0.3836

 Free energy of the ion-electron system (eV)
  ---------------------------------------------------
  alpha Z        PSCENC =       877.15254414
  Ewald energy   TEWEN  =    161284.92689030
  -Hartree energ DENC   =   -220504.58860457
  -exchange      EXHF   =         0.00000000
  -V(xc)+E(xc)   XCENC  =      1999.89655352
  PAW double counting   =     58190.76398627   -63024.75553992
  entropy T*S    EENTRO =         0.01934478
  eigenvalues    EBANDS =     -1567.90280103
  atomic energy  EATOM  =     62593.09380899
  Solvation  Ediel_sol  =         0.00000000
  ---------------------------------------------------
  free energy    TOTEN  =      -151.39381754 eV

  energy without entropy =     -151.41316231  energy(sigma->0) =     -151.40026580


--------------------------------------------------------------------------------------------------------




--------------------------------------- Iteration      1(  22)  ---------------------------------------


    POTLOK:  cpu time      0.1183: real time      0.1211
    SETDIJ:  cpu time      0.0167: real time      0.0167
     EDDAV:  cpu time     34.3643: real time     34.6205
       DOS:  cpu time      0.0044: real time      0.0044
    CHARGE:  cpu time      1.2139: real time      1.2205
    MIXING:  cpu time      0.0264: real time      0.0265
    --------------------------------------------
      LOOP:  cpu time     35.7439: real time     36.0096

 eigenvalue-minimisations  :  6712
 total energy-change (2. order) :-0.1917417E+00  (-0.8765968E-03)
 number of electron     495.0003699 magnetization       0.1496471
 augmentation part      316.5579077 magnetization       0.1590742

 Broyden mixing:
  rms(total) = 0.11526E-01    rms(broyden)= 0.11524E-01
  rms(prec ) = 0.13207E-01
  weight for this iteration     100.00

 eigenvalues of (default mixing * dielectric matrix)
  average eigenvalue GAMMA=   1.8072
  9.5643  4.9840  3.9993  2.4916  1.5542  1.1337  0.9201  0.9201  0.8147  0.8147
  0.7560  0.6595  0.6301  0.3257  0.3945  0.3740  0.3862

 Free energy of the ion-electron system (eV)
  ---------------------------------------------------
  alpha Z        PSCENC =       877.15254414
  Ewald energy   TEWEN  =    161284.92689030
  -Hartree energ DENC   =   -220489.09857795
  -exchange      EXHF   =         0.00000000
  -V(xc)+E(xc)   XCENC  =      1999.82805300
  PAW double counting   =     58185.93785022   -63019.78386117
  entropy T*S    EENTRO =         0.01946368
  eigenvalues    EBANDS =     -1583.66173046
  atomic energy  EATOM  =     62593.09380899
  Solvation  Ediel_sol  =         0.00000000
  ---------------------------------------------------
[...]
 -0.000   0.000   0.005  -0.000  -0.018   0.000   0.000  -0.018  -0.000  -0.022   1.594  -0.116   0.000   0.195   0.000   0.000
  0.000   0.000   0.009  -0.000   0.006  -0.000   0.000  -0.001  -0.000   0.001  -0.116   0.014   0.000  -0.026   0.000   0.000
 -0.000   0.019  -0.000  -0.000   0.000   0.000   0.020   0.000  -0.000   0.000   0.000   0.000   0.175  -0.000  -0.000  -0.010
  0.000   0.000   0.053   0.000   0.026   0.000   0.000   0.020   0.000   0.003   0.195  -0.026  -0.000   0.104   0.000   0.000
  0.000  -0.000  -0.000   0.066  -0.000   0.000  -0.000   0.000   0.026   0.000   0.000   0.000   0.000   0.000   0.134   0.000
  0.000  -0.021   0.000  -0.000   0.000  -0.000  -0.001  -0.000  -0.000   0.000   0.000  -0.000  -0.010   0.000   0.000   0.001
  0.000   0.000  -0.026   0.000  -0.001   0.000   0.000  -0.001   0.000  -0.000  -0.026   0.003  -0.000  -0.009  -0.000   0.000
  0.000   0.000   0.000  -0.024   0.000   0.000   0.000  -0.000  -0.001  -0.000   0.000   0.000   0.000  -0.000  -0.008   0.000
 total augmentation occupancy for first ion, spin component:           2
 -0.000   0.000  -0.000   0.000   0.000  -0.000  -0.000   0.000   0.000  -0.000   0.000  -0.000  -0.000   0.000   0.000  -0.000
  0.000  -0.000  -0.000  -0.000   0.000   0.000  -0.000  -0.000   0.000  -0.000  -0.000   0.000  -0.000   0.000   0.000  -0.000
 -0.000  -0.000  -0.000  -0.000  -0.000   0.000  -0.000  -0.000   0.000   0.000   0.000  -0.000   0.000  -0.000   0.000   0.000
  0.000  -0.000  -0.000  -0.000   0.000   0.000   0.000   0.000  -0.000   0.000  -0.000   0.000  -0.000  -0.000   0.000  -0.000
  0.000   0.000  -0.000   0.000  -0.000   0.000   0.000  -0.000  -0.000  -0.000  -0.000   0.000   0.000   0.000  -0.000  -0.000
 -0.000   0.000   0.000   0.000   0.000  -0.000   0.000   0.000  -0.000   0.000   0.000   0.000   0.000  -0.000  -0.000   0.000
 -0.000  -0.000  -0.000   0.000   0.000   0.000  -0.000   0.000  -0.000   0.000  -0.000  -0.000  -0.000   0.000   0.000   0.000
  0.000  -0.000  -0.000   0.000  -0.000   0.000   0.000  -0.000   0.000  -0.000   0.000  -0.000   0.000   0.000  -0.000  -0.000
  0.000   0.000   0.000  -0.000  -0.000  -0.000  -0.000   0.000  -0.000   0.000   0.000   0.000  -0.000   0.000   0.000  -0.000
 -0.000   0.000   0.000   0.000  -0.000   0.000   0.000  -0.000   0.000  -0.000   0.000   0.000  -0.000   0.000   0.000  -0.000
  0.000  -0.000   0.000  -0.000  -0.000   0.000  -0.000   0.000   0.000   0.000   0.000  -0.000   0.000   0.000   0.000   0.000
 -0.000   0.000  -0.000   0.000   0.000   0.000  -0.000  -0.000   0.000   0.000  -0.000   0.000   0.000  -0.000   0.000   0.000
 -0.000  -0.000   0.000  -0.000   0.000   0.000  -0.000   0.000  -0.000  -0.000   0.000   0.000   0.000   0.000   0.000  -0.000
  0.000   0.000  -0.000  -0.000   0.000  -0.000   0.000   0.000   0.000   0.000   0.000  -0.000   0.000   0.000  -0.000   0.000
  0.000   0.000   0.000   0.000  -0.000  -0.000   0.000  -0.000   0.000   0.000   0.000   0.000   0.000  -0.000   0.000   0.000
 -0.000  -0.000   0.000  -0.000  -0.000   0.000   0.000  -0.000  -0.000  -0.000   0.000   0.000  -0.000   0.000   0.000   0.000
  0.000  -0.000   0.000  -0.000   0.000   0.000  -0.000  -0.000  -0.000  -0.000  -0.000   0.000  -0.000  -0.000   0.000   0.000
  0.000   0.000   0.000   0.000   0.000  -0.000   0.000   0.000  -0.000   0.000   0.000   0.000   0.000   0.000  -0.000   0.000


------------------------ aborting loop because EDIFF is reached ----------------------------------------



 DIPCOR: dipole corrections for dipol
 direction  3 min pos   118,
 dipolmoment           0.000000      0.000000      0.051661 electrons x Angstroem
 Tr[quadrupol]     -7496.295043

 energy correction for charged system         0.000000 eV
 dipol+quadrupol energy correction            0.000143 eV
 added-field ion interaction          0.000000 eV  (added to PSCEN)

 
  *************** adding dipol energy to TOTEN NOW **************** 
    CHARGE:  cpu time      1.2272: real time      1.2335
    FORLOC:  cpu time      0.0333: real time      0.0335
    FORNL :  cpu time     26.5057: real time     26.6204
    STRESS:  cpu time     28.9851: real time     29.1577
    FORCOR:  cpu time      0.1312: real time      0.1320
    FORHAR:  cpu time      0.0299: real time      0.0300
    MIXING:  cpu time      0.0047: real time      0.0047
    OFIELD:  cpu time      0.0000: real time      0.0000

 ---------------------------------------------------------------------------------------------

         DFTD3 V3.0 Rev 1        
 Edisp (eV)  -13.76181

 E6    (eV) :    -5.2478
 E8    (eV) :    -8.5140
 % E8        : 61.87
    FORVDW:  cpu time      0.1631: real time      0.1641

  FORCE on cell =-STRESS in cart. coord.  units (eV):
  Direction    XX          YY          ZZ          XY          YZ          ZX
  --------------------------------------------------------------------------------------
  Alpha Z   877.15254   877.15254   877.15254
  Ewald  196707.34521198301.54308************    -0.00000     0.00000    -0.00000
  Hartree213189.92842214272.63271************     0.00000     0.00000    -0.00000
  E(xc)   -2889.28796 -2887.60391 -2894.02499    -0.00000    -0.00000     0.00000
  Local  ************************426880.79072    -0.00000    -0.00000     0.00000
  n-local -1005.47508  -993.48837 -1010.73895     0.29929    -0.00000    -0.00000
  augment  4249.84603  4243.86533  4265.29961    -0.00000     0.00000     0.00000
  Kinetic  4031.94171  4022.44074  4056.38384     3.09738     0.00000     0.00000
  Fock        0.00000     0.00000     0.00000     0.00000     0.00000     0.00000
  vdW       -16.83972   -17.66506    -7.87046     0.00000     0.00000    -0.00000
  -------------------------------------------------------------------------------------
  Total     -34.52105   -32.86692    -9.87173     0.00000     0.00000     0.00000
  in kB     -32.75914   -31.18943    -9.36789     0.00000     0.00000     0.00000
  external pressure =      -24.44 kB  Pullay stress =        0.00 kB


 VOLUME and BASIS-vectors are now :
 -----------------------------------------------------------------------------
  energy-cutoff  :      400.00
  volume of cell :     1688.35
      direct lattice vectors                 reciprocal lattice vectors
    10.890000343  0.000000000  0.000000000     0.091827362  0.000000000  0.000000000
     0.000000000  7.700393200  0.000000000     0.000000000  0.129863498  0.000000000
     0.000000000  0.000000000 20.133595000     0.000000000  0.000000000  0.049668229

  length of vectors
    10.890000343  7.700393200 20.133595000     0.091827362  0.129863498  0.049668229


 FORCES acting on ions
    electron-ion (+dipol)            ewald-force                    non-local-force                 convergence-correction
 -----------------------------------------------------------------------------------------------
   -.308E-14 0.784E-13 0.302E+04   -.185E-06 0.875E-09 -.301E+04   0.926E-22 0.000E+00 -.538E+01   0.490E-10 0.778E-10 0.313E-01
   0.350E-16 -.382E-04 0.302E+04   -.185E-06 0.436E-06 -.301E+04   -.529E-22 -.150E-20 -.538E+01   0.499E-10 -.239E-08 0.313E-01
   -.646E-14 0.378E-04 0.302E+04   -.185E-06 -.360E-06 -.301E+04   -.265E-22 0.000E+00 -.538E+01   0.503E-10 0.234E-08 0.313E-01
   0.176E-05 0.196E-13 0.302E+04   0.278E-06 0.875E-09 -.301E+04   0.000E+00 0.000E+00 -.538E+01   -.414E-11 0.770E-10 0.313E-01
   0.176E-05 -.382E-04 0.302E+04   0.278E-06 0.436E-06 -.301E+04   0.662E-23 0.246E-20 -.538E+01   -.498E-11 -.239E-08 0.313E-01
   0.176E-05 0.378E-04 0.302E+04   0.278E-06 -.360E-06 -.301E+04   0.662E-23 0.000E+00 -.538E+01   -.464E-11 0.234E-08 0.313E-01
   -.542E-06 0.109E-12 0.302E+04   -.295E-06 0.875E-09 -.301E+04   0.529E-22 0.000E+00 -.538E+01   -.849E-10 0.775E-10 0.313E-01
   -.542E-06 -.382E-04 0.302E+04   -.295E-06 0.436E-06 -.301E+04   -.794E-22 0.285E-20 -.538E+01   -.850E-10 -.239E-08 0.313E-01
   -.542E-06 0.378E-04 0.302E+04   -.295E-06 -.360E-06 -.301E+04   -.794E-22 0.000E+00 -.538E+01   -.857E-10 0.234E-08 0.313E-01
   0.805E-06 0.479E-04 0.164E+04   0.205E-07 0.101E-06 -.164E+04   0.397E-22 0.000E+00 0.127E+00   -.463E-10 0.101E-07 0.948E-01
   0.805E-06 -.188E-06 0.164E+04   0.205E-07 0.299E-06 -.164E+04   0.463E-22 0.000E+00 0.127E+00   -.458E-10 -.179E-09 0.948E-01
   0.805E-06 -.520E-04 0.164E+04   0.205E-07 -.562E-06 -.164E+04   0.596E-22 0.219E-19 0.127E+00   -.458E-10 -.947E-08 0.948E-01
   0.241E-05 0.479E-04 0.164E+04   0.569E-06 0.101E-06 -.164E+04   -.265E-22 0.000E+00 0.127E+00   -.576E-09 0.101E-07 0.948E-01
   0.241E-05 -.188E-06 0.164E+04   0.569E-06 0.299E-06 -.164E+04   -.529E-22 0.000E+00 0.127E+00   -.576E-09 -.179E-09 0.948E-01
   0.241E-05 -.520E-04 0.164E+04   0.569E-06 -.562E-06 -.164E+04   0.000E+00 -.245E-19 0.127E+00   -.576E-09 -.947E-08 0.948E-01
   0.309E-06 0.479E-04 0.164E+04   -.175E-06 0.101E-06 -.164E+04   0.662E-22 0.000E+00 0.127E+00   0.856E-10 0.101E-07 0.948E-01
   0.309E-06 -.188E-06 0.164E+04   -.175E-06 0.299E-06 -.164E+04   0.662E-22 0.000E+00 0.127E+00   0.856E-10 -.179E-09 0.948E-01
   0.309E-06 -.520E-04 0.164E+04   -.175E-06 -.562E-06 -.164E+04   0.529E-22 0.834E-20 0.127E+00   0.853E-10 -.947E-08 0.948E-01
   -.320E-13 0.927E-13 0.349E+02   -.275E-06 -.120E-09 -.351E+02   0.529E-22 0.000E+00 0.172E+00   0.195E-09 0.550E-10 0.108E+00
   -.319E-13 -.482E-04 0.349E+02   -.275E-06 0.572E-06 -.351E+02   -.265E-22 -.136E-19 0.172E+00   0.195E-09 -.132E-08 0.108E+00
   -.285E-13 0.479E-04 0.349E+02   -.275E-06 -.417E-06 -.351E+02   -.159E-21 0.000E+00 0.172E+00   0.195E-09 0.115E-08 0.108E+00
   0.165E-05 0.908E-13 0.349E+02   0.350E-06 -.120E-09 -.351E+02   -.529E-22 0.000E+00 0.172E+00   -.345E-11 0.546E-10 0.108E+00
   0.165E-05 -.482E-04 0.349E+02   0.350E-06 0.572E-06 -.351E+02   0.794E-22 -.206E-19 0.172E+00   -.384E-11 -.132E-08 0.108E+00
   0.165E-05 0.479E-04 0.349E+02   0.350E-06 -.417E-06 -.351E+02   0.794E-22 0.000E+00 0.172E+00   -.365E-11 0.115E-08 0.108E+00
   -.507E-06 0.901E-13 0.349E+02   -.474E-06 -.120E-09 -.351E+02   -.232E-22 0.000E+00 0.172E+00   0.253E-09 0.547E-10 0.108E+00
   -.507E-06 -.482E-04 0.349E+02   -.474E-06 0.572E-06 -.351E+02   0.397E-22 -.853E-20 0.172E+00   0.253E-09 -.132E-08 0.108E+00
   -.507E-06 0.479E-04 0.349E+02   -.474E-06 -.417E-06 -.351E+02   0.529E-22 0.000E+00 0.172E+00   0.253E-09 0.115E-08 0.108E+00
   0.800E-06 0.463E-04 -.169E+04   0.198E-07 0.977E-07 0.169E+04   0.000E+00 0.000E+00 -.120E+01   0.126E-09 0.391E-08 0.234E+00
   0.800E-06 -.187E-06 -.169E+04   0.198E-07 0.300E-06 0.169E+04   0.847E-21 0.000E+00 -.120E+01   0.125E-09 -.174E-10 0.234E+00
   0.800E-06 -.505E-04 -.169E+04   0.198E-07 -.565E-06 0.169E+04   0.635E-21 -.152E-19 -.120E+01   0.126E-09 -.443E-08 0.234E+00
   0.240E-05 0.463E-04 -.169E+04   0.579E-06 0.977E-07 0.169E+04   0.582E-21 0.000E+00 -.120E+01   0.340E-09 0.391E-08 0.234E+00
   0.240E-05 -.187E-06 -.169E+04   0.579E-06 0.300E-06 0.169E+04   -.159E-21 0.000E+00 -.120E+01   0.340E-09 -.175E-10 0.234E+00
   0.240E-05 -.505E-04 -.169E+04   0.579E-06 -.565E-06 0.169E+04   -.212E-21 -.138E-19 -.120E+01   0.339E-09 -.443E-08 0.234E+00
   0.307E-06 0.463E-04 -.169E+04   -.171E-06 0.977E-07 0.169E+04   -.212E-21 0.000E+00 -.120E+01   0.128E-09 0.391E-08 0.234E+00
   0.307E-06 -.188E-06 -.169E+04   -.171E-06 0.300E-06 0.169E+04   -.106E-21 0.000E+00 -.120E+01   0.129E-09 -.174E-10 0.234E+00
   0.307E-06 -.505E-04 -.169E+04   -.171E-06 -.565E-06 0.169E+04   -.159E-21 -.181E-19 -.120E+01   0.128E-09 -.443E-08 0.234E+00
   -.207E-13 0.660E-13 -.300E+04   -.197E-06 0.620E-08 0.300E+04   0.212E-21 0.000E+00 0.520E+01   -.933E-10 -.636E-10 0.153E+00
   -.147E-13 -.490E-04 -.300E+04   -.197E-06 0.453E-06 0.300E+04   -.159E-21 -.785E-20 0.520E+01   -.941E-10 -.430E-08 0.153E+00
   -.187E-13 0.486E-04 -.300E+04   -.197E-06 -.363E-06 0.300E+04   0.212E-21 0.000E+00 0.520E+01   -.944E-10 0.445E-08 0.153E+00
   0.174E-05 0.517E-13 -.300E+04   0.282E-06 0.620E-08 0.300E+04   0.132E-21 0.000E+00 0.520E+01   -.213E-09 -.633E-10 0.153E+00
   0.174E-05 -.490E-04 -.300E+04   0.282E-06 0.453E-06 0.300E+04   -.424E-21 0.939E-20 0.520E+01   -.213E-09 -.430E-08 0.153E+00
   0.174E-05 0.486E-04 -.300E+04   0.282E-06 -.363E-06 0.300E+04   -.529E-21 0.000E+00 0.520E+01   -.213E-09 0.445E-08 0.153E+00
   -.534E-06 0.233E-13 -.300E+04   -.326E-06 0.620E-08 0.300E+04   -.424E-21 0.000E+00 0.520E+01   -.800E-10 -.633E-10 0.153E+00
   -.534E-06 -.490E-04 -.300E+04   -.326E-06 0.453E-06 0.300E+04   -.476E-21 -.542E-20 0.520E+01   -.792E-10 -.430E-08 0.153E+00
   -.534E-06 0.486E-04 -.300E+04   -.326E-06 -.363E-06 0.300E+04   0.106E-21 0.000E+00 0.520E+01   -.787E-10 0.445E-08 0.153E+00
 -----------------------------------------------------------------------------------------------
   0.318E-04 -.293E-04 0.410E+01   0.391E-12 -.631E-13 -.309E-10   0.835E-22 -.841E-19 -.969E+01   0.226E-09 -.365E-09 0.559E+01
 
 
 POSITION                                       TOTAL-FORCE (eV/Angst)
 -----------------------------------------------------------------------------------
      0.00000      0.00000      0.00000        -0.000000     -0.000000      0.429778
      0.00000      2.56680      0.00000         0.000000     -0.000000      0.429778
      0.00000      5.13360      0.00000        -0.000000     -0.000000      0.429778
      3.63000      0.00000      0.00000         0.000000     -0.000000      0.429778
      3.63000      2.56680      0.00000         0.000000     -0.000000      0.429778
      3.63000      5.13360      0.00000         0.000000     -0.000000      0.429778
      7.26000      0.00000      0.00000         0.000000     -0.000000      0.429778
      7.26000      2.56680      0.00000         0.000000     -0.000000      0.429778
      7.26000      5.13360      0.00000        -0.000000     -0.000000      0.429778
      1.81500      1.28340      1.28340        -0.000000     -0.000000     -0.407099
      1.81500      3.85020      1.28340        -0.000000     -0.000000     -0.407099
      1.81500      6.41699      1.28340        -0.000000     -0.000000     -0.407099
      5.44500      1.28340      1.28340        -0.000000     -0.000000     -0.407099
      5.44500      3.85020      1.28340         0.000000      0.000000     -0.407099
      5.44500      6.41699      1.28340         0.000000      0.000000     -0.407099
      9.07500      1.28340      1.28340        -0.000000     -0.000000     -0.407099
      9.07500      3.85020      1.28340        -0.000000     -0.000000     -0.407099
      9.07500      6.41699      1.28340        -0.000000      0.000000     -0.407099
      0.00000      0.00000      2.51492        -0.000000     -0.000000      0.009016
     -0.00000      2.56680      2.51492         0.000000     -0.000000      0.009016
     -0.00000      5.13360      2.51492         0.000000     -0.000000      0.009016
      3.63000      0.00000      2.51492        -0.000000     -0.000000      0.009016
      3.63000      2.56680      2.51492         0.000000      0.000000      0.009016
      3.63000      5.13360      2.51492         0.000000     -0.000000      0.009016
      7.26000      0.00000      2.51492        -0.000000     -0.000000      0.009016
      7.26000      2.56680      2.51492         0.000000     -0.000000      0.009016
      7.26000      5.13360      2.51492        -0.000000     -0.000000      0.009016
      1.81500      1.28340      3.84175         0.000000     -0.000000     -0.023918
      1.81500      3.85020      3.84175        -0.000000     -0.000000     -0.023918
      1.81500      6.41699      3.84175         0.000000      0.000000     -0.023918
      5.44500      1.28340      3.84175         0.000000     -0.000000     -0.023918
      5.44500      3.85020      3.84175         0.000000     -0.000000     -0.023918
      5.44500      6.41699      3.84175         0.000000      0.000000     -0.023918
      9.07500      1.28340      3.84175        -0.000000     -0.000000     -0.023918
      9.07500      3.85020      3.84175        -0.000000      0.000000     -0.023918
      9.07500      6.41699      3.84175         0.000000      0.000000     -0.023918
     -0.00000      0.00000      4.97866        -0.000000     -0.000000     -0.007777
      0.00000      2.56680      4.97866         0.000000     -0.000000     -0.007777
      0.00000      5.13360      4.97866        -0.000000     -0.000000     -0.007777
      3.63000      0.00000      4.97866         0.000000     -0.000000     -0.007777
      3.63000      2.56680      4.97866         0.000000      0.000000     -0.007777
      3.63000      5.13360      4.97866         0.000000     -0.000000     -0.007777
      7.26000      0.00000      4.97866         0.000000     -0.000000     -0.007777
      7.26000      2.56680      4.97866        -0.000000      0.000000     -0.007777
      7.26000      5.13360      4.97866         0.000000     -0.000000     -0.007777
 -----------------------------------------------------------------------------------
    total drift:                                0.000032     -0.000029     -0.003154


--------------------------------------------------------------------------------------------------------



  FREE ENERGIE OF THE ION-ELECTRON SYSTEM (eV)
  ---------------------------------------------------
  free  energy   TOTEN  =      -165.60906683 eV

  energy  without entropy=     -165.63112308  energy(sigma->0) =     -165.61641891
 
 d Force = 0.1654923E-01[ 0.565E-02, 0.274E-01]  d Energy = 0.1673823E-01-0.189E-03
 d Force =-0.7014584E+03[-0.702E+03,-0.701E+03]  d Ewald  =-0.7014615E+03 0.310E-02


--------------------------------------------------------------------------------------------------------


    POTLOK:  cpu time      0.1332: real time      0.1340


--------------------------------------------------------------------------------------------------------


 stress matrix after NEB project (eV)
    -34.52105      0.00000      0.00000
      0.00000    -32.86692      0.00000
      0.00000      0.00000     -9.87173
  FORCES: max atom, RMS     0.023918    0.011948
  FORCE total and by dimension    0.080153    0.023918
  Stress total and by dimension   48.676364   34.521049
 Conjugate gradient step on ions:
 trial-energy change:   -0.016738  1 .order   -0.016549   -0.027446   -0.005652
  (g-gl).g = 0.804E-02      g.g   = 0.910E-02  gl.gl    = 0.164E-01
 g(Force)  = 0.910E-02   g(Stress)= 0.000E+00 ortho     = 0.955E-03
 gamma     =   0.49066
 trial     =   2.86964
 opt step  =   3.61392  (harmonic =   3.61392) maximal distance =0.00419079
 next E    =  -165.609611   (d E  =  -0.01728)


--------------------------------------------------------------------------------------------------------


  
 reached required accuracy - stopping structural energy minimisation
     LOOP+:  cpu time    283.3409: real time    285.7289
    4ORBIT:  cpu time      0.0000: real time      0.0000

 total amount of memory used by VASP MPI-rank0   117506. kBytes
=======================================================================

   base      :      30000. kBytes
   nonl-proj :       7957. kBytes
   fftplans  :       4427. kBytes
   grid      :      10291. kBytes
   one-center:        279. kBytes
   wavefun   :      64552. kBytes
 
  
  
 General timing and accounting informations for this job:
 ========================================================
  
                  Total CPU time used (sec):     3601.559
                            User time (sec):     3533.858
                          System time (sec):       67.701
                         Elapsed time (sec):     3631.257
  
                   Maximum memory used (kb):      364812.
                   Average memory used (kb):          N/A
  
                          Minor page faults:      2679051
                          Major page faults:         6749
                 Voluntary context switches:        37936
