<?xml version="1.0" encoding="ISO-8859-1"?>
<modeling>
 <generator>
  <i name="program" type="string">vasp </i>
  <i name="version" type="string">6.3.2  </i>
  <i name="subversion" type="string">27Jun22 (build Aug 17 2022 15:43:34) complex                          parallel </i>
  <i name="platform" type="string">tv2STDVTST </i>
  <i name="date" type="string">2025 01 24 </i>
  <i name="time" type="string">20:49:11 </i>
 </generator>
 <incar>
  <i type="int" name="ISTART">     0</i>
  <i type="string" name="PREC">Normal</i>
  <i type="int" name="ISPIN">     2</i>
  <i type="int" name="ICHARG">     2</i>
  <i type="int" name="IBRION">     2</i>
  <i name="EDIFF">      0.00020000</i>
  <i name="EDIFFG">     -0.03000000</i>
  <i type="int" name="NSW">   800</i>
  <i type="int" name="ISIF">     2</i>
  <i type="int" name="ISYM">     1</i>
  <i name="ENCUT">    400.00000000</i>
  <i name="POTIM">      0.50000000</i>
  <i type="logical" name="LREAL"> F  </i>
  <i type="int" name="ISMEAR">     1</i>
  <i name="SIGMA">      0.20000000</i>
  <i type="logical" name="LWAVE"> F  </i>
  <i type="logical" name="LCHARG"> F  </i>
  <i type="string" name="GGA">PE</i>
  <i type="int" name="IDIPOL">     3</i>
  <i type="int" name="IVDW">    11</i>
 </incar>
 <primitive_cell>
  <structure name="primitive_cell" >
   <crystal>
    <varray name="basis" >
     <v>       0.00000000      -2.56679773       0.00000000 </v>
     <v>       3.63000011       0.00000000       0.00000000 </v>
     <v>       0.00000000       0.00000000      20.13359500 </v>
    </varray>
    <i name="volume">    187.59428948 </i>
    <varray name="rec_basis" >
     <v>       0.00000000      -0.38959050       0.00000000 </v>
     <v>       0.27548209       0.00000000       0.00000000 </v>
     <v>       0.00000000       0.00000000       0.04966823 </v>
    </varray>
   </crystal>
   <varray name="positions" >
    <v>       0.00000000       0.00000000       0.00000000 </v>
    <v>       0.50000000       0.50000000       0.06374415 </v>
    <v>       0.00000000       0.00000000       0.12748829 </v>
    <v>       0.50000000       0.50000000       0.19123244 </v>
    <v>       0.00000000       0.00000000       0.25497659 </v>
   </varray>
  </structure>
  <varray name="primitive_index" >
   <v type="int" >        1 </v>
   <v type="int" >       12 </v>
   <v type="int" >       19 </v>
   <v type="int" >       30 </v>
   <v type="int" >       37 </v>
  </varray>
 </primitive_cell>
 <kpoints>
  <generation param="Monkhorst-Pack">
   <v type="int" name="divisions">       3        3        1 </v>
   <v name="usershift">      0.00000000       0.00000000       0.00000000 </v>
   <v name="genvec1">      0.33333333       0.00000000       0.00000000 </v>
   <v name="genvec2">      0.00000000       0.33333333       0.00000000 </v>
   <v name="genvec3">      0.00000000       0.00000000       1.00000000 </v>
   <v name="shift">      0.00000000       0.00000000       0.00000000 </v>
  </generation>
  <varray name="kpointlist" >
   <v>       0.00000000       0.00000000       0.00000000 </v>
   <v>       0.33333333       0.00000000       0.00000000 </v>
   <v>       0.00000000       0.33333333       0.00000000 </v>
   <v>       0.33333333       0.33333333       0.00000000 </v>
  </varray>
  <varray name="weights" >
   <v>       0.11111111 </v>
   <v>       0.22222222 </v>
   <v>       0.22222222 </v>
   <v>       0.44444444 </v>
  </varray>
 </kpoints>
 <parameters>
  <separator name="general" >
   <i type="string" name="SYSTEM">unknown system</i>
   <i type="logical" name="LCOMPAT"> F  </i>
  </separator>
  <separator name="electronic" >
   <i type="string" name="PREC">normal</i>
   <i name="ENMAX">    400.00000000</i>
   <i name="ENAUG">    586.98000000</i>
   <i name="EDIFF">      0.00020000</i>
   <i type="int" name="IALGO">    38</i>
   <i type="int" name="IWAVPR">    11</i>
   <i type="int" name="NBANDS">   320</i>
   <i type="int" name="NBANDSLOW">    -1</i>
   <i type="int" name="NBANDSHIGH">    -1</i>
   <i name="NELECT">    495.00000000</i>
   <i type="int" name="TURBO">     0</i>
   <i type="int" name="IRESTART">     0</i>
   <i type="int" name="NREBOOT">     0</i>
   <i type="int" name="NMIN">     0</i>
   <i name="EREF">      0.00000000</i>
   <separator name="electronic smearing" >
    <i type="int" name="ISMEAR">     1</i>
    <i name="SIGMA">      0.20000000</i>
    <i name="KSPACING">      0.50000000</i>
    <i type="logical" name="KGAMMA"> T  </i>
    <i type="logical" name="KBLOWUP"> T  </i>
   </separator>
   <separator name="electronic projectors" >
    <i type="logical" name="LREAL"> F  </i>
    <v name="ROPT">      0.00000000</v>
    <i type="int" name="LMAXPAW">  -100</i>
    <i type="int" name="LMAXMIX">     2</i>
    <i type="logical" name="NLSPLINE"> F  </i>
   </separator>
   <separator name="electronic startup" >
    <i type="int" name="ISTART">     0</i>
    <i type="int" name="ICHARG">     2</i>
    <i type="int" name="INIWAV">     1</i>
   </separator>
   <separator name="electronic spin" >
    <i type="int" name="ISPIN">     2</i>
    <i type="logical" name="LNONCOLLINEAR"> F  </i>
    <v name="MAGMOM">      1.00000000      1.00000000      1.00000000      1.00000000      1.00000000      1.00000000      1.00000000      1.00000000      1.00000000      1.00000000      1.00000000      1.00000000      1.00000000      1.00000000      1.00000000      1.00000000      1.00000000      1.00000000      1.00000000      1.00000000
      1.00000000      1.00000000      1.00000000      1.00000000      1.00000000      1.00000000      1.00000000      1.00000000      1.00000000      1.00000000      1.00000000      1.00000000      1.00000000      1.00000000      1.00000000      1.00000000      1.00000000      1.00000000      1.00000000      1.00000000
      1.00000000      1.00000000      1.00000000      1.00000000      1.00000000</v>
    <i name="NUPDOWN">     -1.00000000</i>
    <i type="logical" name="LSORBIT"> F  </i>
    <v name="SAXIS">      0.00000000      0.00000000      1.00000000</v>
    <i type="logical" name="LSPIRAL"> F  </i>
    <v name="QSPIRAL">      0.00000000      0.00000000      0.00000000</v>
    <i type="logical" name="LZEROZ"> F  </i>
   </separator>
   <separator name="electronic exchange-correlation" >
    <i type="logical" name="LASPH"> F  </i>
    <i type="logical" name="LMETAGGA"> F  </i>
   </separator>
   <separator name="electronic convergence" >
    <i type="int" name="NELM">    60</i>
    <i type="int" name="NELMDL">    -5</i>
    <i type="int" name="NELMIN">     2</i>
    <i name="ENINI">    400.00000000</i>
    <separator name="electronic convergence detail" >
     <i type="logical" name="LDIAG"> T  </i>
     <i type="logical" name="LSUBROT"> F  </i>
     <i name="WEIMIN">      0.00100000</i>
     <i name="EBREAK">      0.00000016</i>
     <i name="DEPER">      0.30000000</i>
     <i type="int" name="NRMM">     4</i>
     <i name="TIME">      0.40000000</i>
    </separator>
   </separator>
   <separator name="electronic mixer" >
    <i name="AMIX">      0.40000000</i>
    <i name="BMIX">      1.00000000</i>
    <i name="AMIN">      0.10000000</i>
    <i name="AMIX_MAG">      1.60000000</i>
    <i name="BMIX_MAG">      1.00000000</i>
    <separator name="electronic mixer details" >
     <i type="int" name="IMIX">     4</i>
     <i type="logical" name="MIXFIRST"> F  </i>
     <i type="int" name="MAXMIX">   -45</i>
     <i name="WC">    100.00000000</i>
     <i type="int" name="INIMIX">     1</i>
     <i type="int" name="MIXPRE">     1</i>
     <i type="int" name="MREMOVE">     5</i>
    </separator>
   </separator>
   <separator name="electronic dipolcorrection" >
    <i type="logical" name="LDIPOL"> F  </i>
    <i type="logical" name="LMONO"> F  </i>
    <i type="int" name="IDIPOL">     3</i>
    <i name="EPSILON">      1.00000000</i>
    <v name="DIPOL">   -100.00000000   -100.00000000   -100.00000000</v>
    <i name="EFIELD">      0.00000000</i>
   </separator>
  </separator>
  <separator name="grids" >
   <i type="int" name="NGX">    54</i>
   <i type="int" name="NGY">    40</i>
   <i type="int" name="NGZ">    98</i>
   <i type="int" name="NGXF">   108</i>
   <i type="int" name="NGYF">    80</i>
   <i type="int" name="NGZF">   196</i>
   <i type="logical" name="ADDGRID"> F  </i>
  </separator>
  <separator name="ionic" >
   <i type="int" name="NSW">   800</i>
   <i type="int" name="IBRION">     2</i>
   <i type="int" name="MDALGO">     0</i>
   <i type="int" name="ISIF">     2</i>
   <i name="PSTRESS">      0.00000000</i>
   <i name="EDIFFG">     -0.03000000</i>
   <i type="int" name="NFREE">     1</i>
   <i name="POTIM">      0.50000000</i>
   <i name="SMASS">     -3.00000000</i>
   <i name="SCALEE">      1.00000000</i>
  </separator>
  <separator name="ionic md" >
   <i name="TEBEG">      0.00010000</i>
   <i name="TEEND">      0.00010000</i>
   <i type="int" name="NBLOCK">     1</i>
   <i type="int" name="KBLOCK">   800</i>
   <i type="int" name="NPACO">   256</i>
   <i name="APACO">     10.00000000</i>
  </separator>
  <separator name="symmetry" >
   <i type="int" name="ISYM">     1</i>
   <i name="SYMPREC">      0.00001000</i>
  </separator>
  <separator name="dos" >
   <i type="int" name="LORBIT">     0</i>
   <v name="RWIGS">     -1.00000000</v>
   <i type="int" name="NEDOS">   301</i>
   <i name="EMIN">     10.00000000</i>
   <i name="EMAX">    -10.00000000</i>
   <i name="EFERMI">      0.00000000</i>
  </separator>
  <separator name="writing" >
   <i type="int" name="NWRITE">     2</i>
   <i type="logical" name="LWAVE"> F  </i>
   <i type="logical" name="LDOWNSAMPLE"> F  </i>
   <i type="logical" name="LCHARG"> F  </i>
   <i type="logical" name="LPARD"> F  </i>
   <i type="logical" name="LVTOT"> F  </i>
   <i type="logical" name="LVHAR"> F  </i>
   <i type="logical" name="LELF"> F  </i>
   <i type="logical" name="LOPTICS"> F  </i>
   <v name="STM">      0.00000000      0.00000000      0.00000000      0.00000000      0.00000000      0.00000000      0.00000000</v>
  </separator>
  <separator name="performance" >
   <i type="int" name="NPAR">     4</i>
   <i type="int" name="NSIM">     4</i>
   <i type="int" name="NBLK">    -1</i>
   <i type="logical" name="LPLANE"> T  </i>
   <i type="logical" name="LSCALAPACK"> T  </i>
   <i type="logical" name="LSCAAWARE"> F  </i>
   <i type="logical" name="LSCALU"> F  </i>
   <i type="logical" name="LASYNC"> F  </i>
   <i type="logical" name="LORBITALREAL"> F  </i>
  </separator>
  <separator name="miscellaneous" >
   <i type="int" name="IDIOT">     3</i>
   <i type="int" name="PHON_NSTRUCT">    -1</i>
   <i type="logical" name="LMUSIC"> F  </i>
   <v name="POMASS">     63.54600000</v>
   <v name="DARWINR">      0.00000000</v>
   <v name="DARWINV">      1.00000000</v>
   <i type="logical" name="LCORR"> T  </i>
  </separator>
  <i type="logical" name="GGA_COMPAT"> T  </i>
  <i type="logical" name="LBERRY"> F  </i>
  <i type="int" name="ICORELEVEL">     0</i>
  <i type="logical" name="LDAU"> F  </i>
  <i type="int" name="I_CONSTRAINED_M">     0</i>
  <separator name="electronic exchange-correlation" >
   <i type="string" name="GGA">PE</i>
   <i type="int" name="VOSKOWN">     0</i>
   <i type="logical" name="LHFCALC"> F  </i>
   <i type="string" name="PRECFOCK"></i>
   <i type="logical" name="LSYMGRAD"> F  </i>
   <i type="logical" name="LHFONE"> F  </i>
   <i type="logical" name="LRHFCALC"> F  </i>
   <i type="logical" name="LTHOMAS"> F  </i>
   <i type="logical" name="LMODELHF"> F  </i>
   <i type="logical" name="LFOCKACE"> F  </i>
   <i name="ENCUT4O">     -1.00000000</i>
   <i type="int" name="EXXOEP">     0</i>
   <i type="int" name="FOURORBIT">     0</i>
   <i name="AEXX">      0.00000000</i>
   <i name="HFALPHA">      0.00000000</i>
   <i name="MCALPHA">      0.00000000</i>
   <i name="ALDAX">      1.00000000</i>
   <i name="AGGAX">      1.00000000</i>
   <i name="ALDAC">      1.00000000</i>
   <i name="AGGAC">      1.00000000</i>
   <i type="int" name="NKREDX">     1</i>
   <i type="int" name="NKREDY">     1</i>
   <i type="int" name="NKREDZ">     1</i>
   <i type="logical" name="SHIFTRED"> F  </i>
   <i type="logical" name="ODDONLY"> F  </i>
   <i type="logical" name="EVENONLY"> F  </i>
   <i type="int" name="LMAXFOCK">     0</i>
   <i type="int" name="NMAXFOCKAE">     0</i>
   <i type="logical" name="LFOCKAEDFT"> F  </i>
   <i name="HFSCREEN">      0.00000000</i>
   <i name="HFSCREENC">      0.00000000</i>
   <i type="int" name="NBANDSGWLOW">     0</i>
  </separator>
  <separator name="vdW DFT" >
   <i type="logical" name="LUSE_VDW"> F  </i>
   <i name="Zab_VDW">     -0.84910000</i>
   <i name="PARAM1">      0.12340000</i>
   <i name="PARAM2">      1.00000000</i>
   <i name="PARAM3">      0.00000000</i>
  </separator>
  <separator name="model GW" >
   <i type="int" name="MODEL_GW">     0</i>
   <i name="MODEL_EPS0">     22.51131474</i>
   <i name="MODEL_ALPHA">      1.00000000</i>
  </separator>
  <separator name="linear response parameters" >
   <i type="logical" name="LEPSILON"> F  </i>
   <i type="logical" name="LRPA"> F  </i>
   <i type="logical" name="LNABLA"> F  </i>
   <i type="logical" name="LVEL"> F  </i>
   <i name="CSHIFT">      0.10000000</i>
   <i name="OMEGAMAX">     -1.00000000</i>
   <i name="DEG_THRESHOLD">      0.00200000</i>
   <i name="RTIME">     -0.10000000</i>
   <i name="WPLASMAI">      0.00000000</i>
   <v name="DFIELD">      0.00000000      0.00000000      0.00000000</v>
   <v name="WPLASMA">      0.00000000      0.00000000      0.00000000      0.00000000      0.00000000      0.00000000      0.00000000      0.00000000      0.00000000</v>
  </separator>
  <separator name="orbital magnetization" >
   <i type="logical" name="NUCIND"> F  </i>
   <v name="MAGPOS">      0.00000000      0.00000000      0.00000000</v>
   <i type="logical" name="LNICSALL"> T  </i>
   <i type="logical" name="ORBITALMAG"> F  </i>
   <i type="logical" name="LMAGBLOCH"> F  </i>
   <i type="logical" name="LCHIMAG"> F  </i>
   <i type="logical" name="LGAUGE"> T  </i>
   <i type="int" name="MAGATOM">     0</i>
   <v name="MAGDIPOL">      0.00000000      0.00000000      0.00000000</v>
   <v name="AVECCONST">      0.00000000      0.00000000      0.00000000</v>
  </separator>
  <separator name="response functions" >
   <i type="logical" name="LFINITE_TEMPERATURE"> F  </i>
   <i type="logical" name="LADDER"> F  </i>
   <i type="logical" name="LRPAFORCE"> F  </i>
   <i type="logical" name="LFXC"> F  </i>
   <i type="logical" name="LHARTREE"> T  </i>
   <i type="int" name="IBSE">     0</i>
   <v type="int" name="KPOINT">    -1     0     0     0</v>
   <i type="logical" name="LTCTC"> F  </i>
   <i type="logical" name="LTCTE"> F  </i>
   <i type="logical" name="LTETE"> F  </i>
   <i type="logical" name="LTRIPLET"> F  </i>
   <i type="logical" name="LFXCEPS"> F  </i>
   <i type="logical" name="LFXHEG"> F  </i>
   <i type="int" name="NATURALO">     2</i>
   <i type="logical" name="LHOLEGF"> F  </i>
   <i type="logical" name="L2ORDER"> F  </i>
   <i type="logical" name="LDMP1"> F  </i>
   <i type="logical" name="LMP2LT"> F  </i>
   <i type="logical" name="LSMP2LT"> F  </i>
   <i type="logical" name="LGWLF"> F  </i>
   <i name="ENCUTGW">     -2.00000000</i>
   <i name="ENCUTGWSOFT">     -2.00000000</i>
   <i name="ENCUTLF">     -1.00000000</i>
   <i type="logical" name="LESF_SPLINES"> F  </i>
   <i type="int" name="LMAXMP2">    -1</i>
   <i name="SCISSOR">      0.00000000</i>
   <i type="int" name="NOMEGA">     0</i>
   <i type="int" name="NOMEGAR">     0</i>
   <i type="int" name="NBANDSGW">    -1</i>
   <i type="int" name="NBANDSO">    -1</i>
   <i type="int" name="NBANDSV">    -1</i>
   <i type="int" name="NELMGW">     1</i>
   <i type="int" name="NELMHF">     1</i>
   <i type="int" name="DIM">     3</i>
   <i type="int" name="IESPILON">     4</i>
   <i type="int" name="ANTIRES">     0</i>
   <i name="OMEGAMAX">    -30.00000000</i>
   <i name="OMEGAMIN">    -30.00000000</i>
   <i name="OMEGATL">   -200.00000000</i>
   <i type="int" name="OMEGAGRID">     0</i>
   <i name="CSHIFT">     -0.10000000</i>
   <i type="logical" name="LSELFENERGY"> F  </i>
   <i type="logical" name="LSPECTRAL"> F  </i>
   <i type="logical" name="LSPECTRALGW"> F  </i>
   <i type="logical" name="LSINGLES"> F  </i>
   <i type="logical" name="LFERMIGW"> F  </i>
   <i type="logical" name="ODDONLYGW"> F  </i>
   <i type="logical" name="EVENONLYGW"> F  </i>
   <i type="int" name="NKREDLFX">     1</i>
   <i type="int" name="NKREDLFY">     1</i>
   <i type="int" name="NKREDLFZ">     1</i>
   <i type="int" name="MAXMEM">  2800</i>
   <i type="int" name="TELESCOPE">     0</i>
   <i type="int" name="NTAUPAR">    -1</i>
   <i type="int" name="NOMEGAPAR">    -1</i>
   <i name="DAMP_NEWTON">      0.80000001</i>
   <i name="LAMBDA">      1.00000000</i>
  </separator>
  <separator name="External order field" >
   <i name="OFIELD_KAPPA">      0.00000000</i>
   <v name="OFIELD_K">      0.00000000      0.00000000      0.00000000</v>
   <i name="OFIELD_Q6_NEAR">      0.00000000</i>
   <i name="OFIELD_Q6_FAR">      0.00000000</i>
   <i name="OFIELD_A">      0.00000000</i>
  </separator>
  <separator name="optional k-points parameters" >
   <i type="int" name="KPOINTS_OPT_MODE">     1</i>
   <i type="logical" name="LKPOINTS_OPT"> F  </i>
  </separator>
 </parameters>
 <atominfo>
  <atoms>      45 </atoms>
  <types>       1 </types>
  <array name="atoms" >
   <dimension dim="1">ion</dimension>
   <field type="string">element</field>
   <field type="int">atomtype</field>
   <set>
    <rc><c>Cu</c><c>   1</c></rc>
    <rc><c>Cu</c><c>   1</c></rc>
    <rc><c>Cu</c><c>   1</c></rc>
    <rc><c>Cu</c><c>   1</c></rc>
    <rc><c>Cu</c><c>   1</c></rc>
    <rc><c>Cu</c><c>   1</c></rc>
    <rc><c>Cu</c><c>   1</c></rc>
    <rc><c>Cu</c><c>   1</c></rc>
    <rc><c>Cu</c><c>   1</c></rc>
    <rc><c>Cu</c><c>   1</c></rc>
    <rc><c>Cu</c><c>   1</c></rc>
    <rc><c>Cu</c><c>   1</c></rc>
    <rc><c>Cu</c><c>   1</c></rc>
    <rc><c>Cu</c><c>   1</c></rc>
    <rc><c>Cu</c><c>   1</c></rc>
    <rc><c>Cu</c><c>   1</c></rc>
    <rc><c>Cu</c><c>   1</c></rc>
    <rc><c>Cu</c><c>   1</c></rc>
    <rc><c>Cu</c><c>   1</c></rc>
    <rc><c>Cu</c><c>   1</c></rc>
    <rc><c>Cu</c><c>   1</c></rc>
    <rc><c>Cu</c><c>   1</c></rc>
    <rc><c>Cu</c><c>   1</c></rc>
    <rc><c>Cu</c><c>   1</c></rc>
    <rc><c>Cu</c><c>   1</c></rc>
    <rc><c>Cu</c><c>   1</c></rc>
    <rc><c>Cu</c><c>   1</c></rc>
    <rc><c>Cu</c><c>   1</c></rc>
    <rc><c>Cu</c><c>   1</c></rc>
    <rc><c>Cu</c><c>   1</c></rc>
    <rc><c>Cu</c><c>   1</c></rc>
    <rc><c>Cu</c><c>   1</c></rc>
    <rc><c>Cu</c><c>   1</c></rc>
    <rc><c>Cu</c><c>   1</c></rc>
    <rc><c>Cu</c><c>   1</c></rc>
    <rc><c>Cu</c><c>   1</c></rc>
    <rc><c>Cu</c><c>   1</c></rc>
    <rc><c>Cu</c><c>   1</c></rc>
    <rc><c>Cu</c><c>   1</c></rc>
    <rc><c>Cu</c><c>   1</c></rc>
    <rc><c>Cu</c><c>   1</c></rc>
    <rc><c>Cu</c><c>   1</c></rc>
    <rc><c>Cu</c><c>   1</c></rc>
    <rc><c>Cu</c><c>   1</c></rc>
    <rc><c>Cu</c><c>   1</c></rc>
   </set>
  </array>
  <array name="atomtypes" >
   <dimension dim="1">type</dimension>
   <field type="int">atomspertype</field>
   <field type="string">element</field>
   <field>mass</field>
   <field>valence</field>
   <field type="string">pseudopotential</field>
   <set>
    <rc><c>  45</c><c>Cu</c><c>     63.54600000</c><c>     11.00000000</c><c>  PAW_PBE Cu 22Jun2005                  </c></rc>
   </set>
  </array>
 </atominfo>
 <structure name="initialpos" >
  <crystal>
   <varray name="basis" >
    <v>      10.89000034       0.00000000       0.00000000 </v>
    <v>       0.00000000       7.70039320       0.00000000 </v>
    <v>       0.00000000       0.00000000      20.13359500 </v>
   </varray>
   <i name="volume">   1688.34860574 </i>
   <varray name="rec_basis" >
    <v>       0.09182736       0.00000000       0.00000000 </v>
    <v>       0.00000000       0.12986350       0.00000000 </v>
    <v>       0.00000000       0.00000000       0.04966823 </v>
   </varray>
  </crystal>
  <varray name="positions" >
   <v>       0.00000000       0.00000000       0.00000000 </v>
   <v>       0.00000000       0.33333333       0.00000000 </v>
   <v>       0.00000000       0.66666667       0.00000000 </v>
   <v>       0.33333333       0.00000000       0.00000000 </v>
   <v>       0.33333333       0.33333333       0.00000000 </v>
   <v>       0.33333333       0.66666667       0.00000000 </v>
   <v>       0.66666667       0.00000000       0.00000000 </v>
   <v>       0.66666667       0.33333333       0.00000000 </v>
   <v>       0.66666667       0.66666667       0.00000000 </v>
   <v>       0.16666667       0.16666667       0.06374415 </v>
   <v>       0.16666667       0.50000000       0.06374415 </v>
   <v>       0.16666667       0.83333333       0.06374415 </v>
   <v>       0.50000000       0.16666667       0.06374415 </v>
   <v>       0.50000000       0.50000000       0.06374415 </v>
   <v>       0.50000000       0.83333333       0.06374415 </v>
   <v>       0.83333333       0.16666667       0.06374415 </v>
   <v>       0.83333333       0.50000000       0.06374415 </v>
   <v>       0.83333333       0.83333333       0.06374415 </v>
   <v>       0.00000000       0.00000000       0.12748829 </v>
   <v>       0.00000000       0.33333333       0.12748829 </v>
   <v>       0.00000000       0.66666667       0.12748829 </v>
   <v>       0.33333333       0.00000000       0.12748829 </v>
   <v>       0.33333333       0.33333333       0.12748829 </v>
   <v>       0.33333333       0.66666667       0.12748829 </v>
   <v>       0.66666667       0.00000000       0.12748829 </v>
   <v>       0.66666667       0.33333333       0.12748829 </v>
   <v>       0.66666667       0.66666667       0.12748829 </v>
   <v>       0.16666667       0.16666667       0.19123244 </v>
   <v>       0.16666667       0.50000000       0.19123244 </v>
   <v>       0.16666667       0.83333333       0.19123244 </v>
   <v>       0.50000000       0.16666667       0.19123244 </v>
   <v>       0.50000000       0.50000000       0.19123244 </v>
   <v>       0.50000000       0.83333333       0.19123244 </v>
   <v>       0.83333333       0.16666667       0.19123244 </v>
   <v>       0.83333333       0.50000000       0.19123244 </v>
   <v>       0.83333333       0.83333333       0.19123244 </v>
   <v>       0.00000000       0.00000000       0.25497659 </v>
   <v>       0.00000000       0.33333333       0.25497659 </v>
   <v>       0.00000000       0.66666667       0.25497659 </v>
   <v>       0.33333333       0.00000000       0.25497659 </v>
   <v>       0.33333333       0.33333333       0.25497659 </v>
   <v>       0.33333333       0.66666667       0.25497659 </v>
   <v>       0.66666667       0.00000000       0.25497659 </v>
   <v>       0.66666667       0.33333333       0.25497659 </v>
   <v>       0.66666667       0.66666667       0.25497659 </v>
  </varray>
  <varray name="selective"  type="logical" >
   <v type="logical" >  F  F  F </v>
   <v type="logical" >  F  F  F </v>
   <v type="logical" >  F  F  F </v>
   <v type="logical" >  F  F  F </v>
   <v type="logical" >  F  F  F </v>
   <v type="logical" >  F  F  F </v>
   <v type="logical" >  F  F  F </v>
   <v type="logical" >  F  F  F </v>
   <v type="logical" >  F  F  F </v>
   <v type="logical" >  F  F  F </v>
   <v type="logical" >  F  F  F </v>
   <v type="logical" >  F  F  F </v>
   <v type="logical" >  F  F  F </v>
   <v type="logical" >  F  F  F </v>
   <v type="logical" >  F  F  F </v>
   <v type="logical" >  F  F  F </v>
   <v type="logical" >  F  F  F </v>
   <v type="logical" >  F  F  F </v>
   <v type="logical" >  T  T  T </v>
   <v type="logical" >  T  T  T </v>
   <v type="logical" >  T  T  T </v>
   <v type="logical" >  T  T  T </v>
   <v type="logical" >  T  T  T </v>
   <v type="logical" >  T  T  T </v>
   <v type="logical" >  T  T  T </v>
   <v type="logical" >  T  T  T </v>
   <v type="logical" >  T  T  T </v>
   <v type="logical" >  T  T  T </v>
   <v type="logical" >  T  T  T </v>
   <v type="logical" >  T  T  T </v>
   <v type="logical" >  T  T  T </v>
   <v type="logical" >  T  T  T </v>
   <v type="logical" >  T  T  T </v>
   <v type="logical" >  T  T  T </v>
   <v type="logical" >  T  T  T </v>
   <v type="logical" >  T  T  T </v>
   <v type="logical" >  T  T  T </v>
   <v type="logical" >  T  T  T </v>
   <v type="logical" >  T  T  T </v>
   <v type="logical" >  T  T  T </v>
   <v type="logical" >  T  T  T </v>
   <v type="logical" >  T  T  T </v>
   <v type="logical" >  T  T  T </v>
   <v type="logical" >  T  T  T </v>
   <v type="logical" >  T  T  T </v>
  </varray>
  <nose>
   <v>      -3.00000000       0.00000000       0.00010000       0.00010000 </v>
  </nose>
 </structure>
 <calculation>
  <scstep>
   <time name="dav">   28.15   28.37</time>
   <time name="total">   28.29   28.51</time>
   <energy>
    <i name="alphaZ">    877.15254414 </i>
    <i name="ewald"> 161284.92689030 </i>
    <i name="hartreedc">-220966.82496721 </i>
    <i name="XCdc">   2047.26736831 </i>
    <i name="pawpsdc">  55264.38732220 </i>
    <i name="pawaedc"> -60026.44191862 </i>
    <i name="eentropy">      0.00253395 </i>
    <i name="bandstr">   3216.64321233 </i>
    <i name="atom">  62593.09380899 </i>
    <i name="e_fr_energy">   4290.20679439 </i>
    <i name="e_wo_entrp">   4290.20426043 </i>
    <i name="e_0_energy">   4290.20594974 </i>
   </energy>
  </scstep>
  <scstep>
   <time name="dav">   27.79   28.01</time>
   <time name="total">   27.79   28.01</time>
   <energy>
    <i name="e_fr_energy">    372.77176451 </i>
    <i name="e_wo_entrp">    372.76961463 </i>
    <i name="e_0_energy">    372.77104788 </i>
   </energy>
  </scstep>
  <scstep>
   <time name="dav">   27.82   28.04</time>
   <time name="total">   27.82   28.04</time>
   <energy>
    <i name="e_fr_energy">   -146.85059496 </i>
    <i name="e_wo_entrp">   -146.92911077 </i>
    <i name="e_0_energy">   -146.87676690 </i>
   </energy>
  </scstep>
  <scstep>
   <time name="dav">   30.58   30.82</time>
   <time name="total">   30.59   30.82</time>
   <energy>
    <i name="e_fr_energy">   -177.22943686 </i>
    <i name="e_wo_entrp">   -177.36538093 </i>
    <i name="e_0_energy">   -177.27475155 </i>
   </energy>
  </scstep>
  <scstep>
   <time name="dav">   30.86   31.10</time>
   <time name="total">   32.17   32.42</time>
   <energy>
    <i name="e_fr_energy">   -177.96763324 </i>
    <i name="e_wo_entrp">   -178.10572549 </i>
    <i name="e_0_energy">   -178.01366399 </i>
   </energy>
  </scstep>
  <scstep>
   <time name="dav">   29.23   29.45</time>
   <time name="total">   30.62   30.85</time>
   <energy>
    <i name="e_fr_energy">   -139.97805387 </i>
    <i name="e_wo_entrp">   -139.97061317 </i>
    <i name="e_0_energy">   -139.97557363 </i>
   </energy>
  </scstep>
  <scstep>
   <time name="dav">   30.66   30.92</time>
   <time name="total">   32.11   32.37</time>
   <energy>
    <i name="e_fr_energy">   -117.80218097 </i>
    <i name="e_wo_entrp">   -117.82591200 </i>
    <i name="e_0_energy">   -117.81009131 </i>
   </energy>
  </scstep>
  <scstep>
   <time name="dav">   31.79   32.07</time>
   <time name="total">   33.18   33.47</time>
   <energy>
    <i name="e_fr_energy">   -113.26629507 </i>
    <i name="e_wo_entrp">   -113.27342440 </i>
    <i name="e_0_energy">   -113.26867151 </i>
   </energy>
  </scstep>
  <scstep>
   <time name="dav">   37.83   38.32</time>
   <time name="total">   39.18   39.68</time>
   <energy>
    <i name="e_fr_energy">   -108.91511283 </i>
    <i name="e_wo_entrp">   -108.89406039 </i>
    <i name="e_0_energy">   -108.90809535 </i>
   </energy>
  </scstep>
  <scstep>
   <time name="dav">   32.10   32.43</time>
   <time name="total">   33.49   33.83</time>
   <energy>
    <i name="e_fr_energy">   -110.25809385 </i>
    <i name="e_wo_entrp">   -110.21797434 </i>
    <i name="e_0_energy">   -110.24472068 </i>
   </energy>
  </scstep>
  <scstep>
   <time name="dav">   30.98   31.23</time>
   <time name="total">   32.36   32.61</time>
   <energy>
    <i name="e_fr_energy">   -114.55378225 </i>
    <i name="e_wo_entrp">   -114.52701627 </i>
    <i name="e_0_energy">   -114.54486025 </i>
   </energy>
  </scstep>
  <scstep>
   <time name="dav">   31.83   32.04</time>
   <time name="total">   33.20   33.41</time>
   <energy>
    <i name="e_fr_energy">   -121.91603252 </i>
    <i name="e_wo_entrp">   -121.91563121 </i>
    <i name="e_0_energy">   -121.91589875 </i>
   </energy>
  </scstep>
  <scstep>
   <time name="dav">   32.94   33.19</time>
   <time name="total">   34.31   34.58</time>
   <energy>
    <i name="e_fr_energy">   -136.68508062 </i>
    <i name="e_wo_entrp">   -136.67097307 </i>
    <i name="e_0_energy">   -136.68037811 </i>
   </energy>
  </scstep>
  <scstep>
   <time name="dav">   30.72   30.96</time>
   <time name="total">   32.11   32.36</time>
   <energy>
    <i name="e_fr_energy">   -146.07492438 </i>
    <i name="e_wo_entrp">   -146.06724651 </i>
    <i name="e_0_energy">   -146.07236509 </i>
   </energy>
  </scstep>
  <scstep>
   <time name="dav">   33.70   34.01</time>
   <time name="total">   35.06   35.38</time>
   <energy>
    <i name="e_fr_energy">   -147.97662076 </i>
    <i name="e_wo_entrp">   -147.98433005 </i>
    <i name="e_0_energy">   -147.97919052 </i>
   </energy>
  </scstep>
  <scstep>
   <time name="dav">   33.48   33.73</time>
   <time name="total">   34.90   35.16</time>
   <energy>
    <i name="e_fr_energy">   -148.90389540 </i>
    <i name="e_wo_entrp">   -148.91914346 </i>
    <i name="e_0_energy">   -148.90897809 </i>
   </energy>
  </scstep>
  <scstep>
   <time name="dav">   35.59   35.98</time>
   <time name="total">   37.60   38.06</time>
   <energy>
    <i name="e_fr_energy">   -149.79995919 </i>
    <i name="e_wo_entrp">   -149.81873348 </i>
    <i name="e_0_energy">   -149.80621728 </i>
   </energy>
  </scstep>
  <scstep>
   <time name="dav">   31.71   31.92</time>
   <time name="total">   33.11   33.32</time>
   <energy>
    <i name="e_fr_energy">   -150.31218698 </i>
    <i name="e_wo_entrp">   -150.33194803 </i>
    <i name="e_0_energy">   -150.31877399 </i>
   </energy>
  </scstep>
  <scstep>
   <time name="dav">   34.61   35.26</time>
   <time name="total">   35.98   36.64</time>
   <energy>
    <i name="e_fr_energy">   -150.74825945 </i>
    <i name="e_wo_entrp">   -150.76767097 </i>
    <i name="e_0_energy">   -150.75472996 </i>
   </energy>
  </scstep>
  <scstep>
   <time name="dav">   31.19   31.41</time>
   <time name="total">   32.59   32.82</time>
   <energy>
    <i name="e_fr_energy">   -151.01130909 </i>
    <i name="e_wo_entrp">   -151.03054153 </i>
    <i name="e_0_energy">   -151.01771991 </i>
   </energy>
  </scstep>
  <scstep>
   <time name="dav">   34.16   34.41</time>
   <time name="total">   35.56   35.82</time>
   <energy>
    <i name="e_fr_energy">   -151.39381754 </i>
    <i name="e_wo_entrp">   -151.41316231 </i>
    <i name="e_0_energy">   -151.40026580 </i>
   </energy>
  </scstep>
  <scstep>
   <time name="dav">   34.36   34.62</time>
   <time name="total">   35.74   36.01</time>
   <energy>
    <i name="e_fr_energy">   -151.58555926 </i>
    <i name="e_wo_entrp">   -151.60502293 </i>
    <i name="e_0_energy">   -151.59204715 </i>
   </energy>
  </scstep>
  <scstep>
   <time name="dav">   34.11   34.36</time>
   <time name="total">   35.51   35.78</time>
   <energy>
    <i name="e_fr_energy">   -151.61823437 </i>
    <i name="e_wo_entrp">   -151.63786388 </i>
    <i name="e_0_energy">   -151.62477754 </i>
   </energy>
  </scstep>
  <scstep>
   <time name="dav">   31.46   31.68</time>
   <time name="total">   32.83   33.06</time>
   <energy>
    <i name="e_fr_energy">   -151.63405971 </i>
    <i name="e_wo_entrp">   -151.65355423 </i>
    <i name="e_0_energy">   -151.64055789 </i>
   </energy>
  </scstep>
  <scstep>
   <time name="dav">   25.88   26.06</time>
   <time name="total">   27.29   27.48</time>
   <energy>
    <i name="e_fr_energy">   -151.64481336 </i>
    <i name="e_wo_entrp">   -151.66430669 </i>
    <i name="e_0_energy">   -151.65131114 </i>
   </energy>
  </scstep>
  <scstep>
   <time name="dav">   21.55   21.70</time>
   <time name="total">   22.90   23.06</time>
   <energy>
    <i name="e_fr_energy">   -151.64779056 </i>
    <i name="e_wo_entrp">   -151.66729565 </i>
    <i name="e_0_energy">   -151.65429225 </i>
   </energy>
  </scstep>
  <scstep>
   <time name="dav">   20.80   20.94</time>
   <time name="total">   22.18   22.33</time>
   <energy>
    <i name="e_fr_energy">   -151.64800658 </i>
    <i name="e_wo_entrp">   -151.66751184 </i>
    <i name="e_0_energy">   -151.65450833 </i>
   </energy>
  </scstep>
  <scstep>
   <time name="dav">   20.53   20.66</time>
   <time name="total">   20.66   20.80</time>
   <energy>
    <i name="alphaZ">    877.15254414 </i>
    <i name="ewald"> 161284.92689030 </i>
    <i name="hartreedc">-220478.83672870 </i>
    <i name="XCdc">   1999.69057266 </i>
    <i name="pawpsdc">  58191.20988412 </i>
    <i name="pawaedc"> -63025.18175239 </i>
    <i name="eentropy">      0.01949345 </i>
    <i name="bandstr">  -1593.72283720 </i>
    <i name="atom">  62593.09380899 </i>
    <i name="e_fr_energy">   -151.64812463 </i>
    <i name="e_wo_entrp">   -151.66761808 </i>
    <i name="e_0_energy">   -151.65462245 </i>
   </energy>
  </scstep>
  <dipole>
   <v name="dipole">      0.00000000       0.00000000      -0.02035758 </v>
   <i name="Tr[quadrupol]">  -7496.76769287 </i>
   <i name="Echarged">      0.00000000 </i>
   <i name="Edipol_quadrupol">      0.00000000 </i>
   <i name="Eion">      0.00000000 </i>
  </dipole>
  <structure>
   <crystal>
    <varray name="basis" >
     <v>      10.89000034       0.00000000       0.00000000 </v>
     <v>       0.00000000       7.70039320       0.00000000 </v>
     <v>       0.00000000       0.00000000      20.13359500 </v>
    </varray>
    <i name="volume">   1688.34860574 </i>
    <varray name="rec_basis" >
     <v>       0.09182736       0.00000000       0.00000000 </v>
     <v>       0.00000000       0.12986350       0.00000000 </v>
     <v>       0.00000000       0.00000000       0.04966823 </v>
    </varray>
   </crystal>
   <varray name="positions" >
    <v>       0.00000000       0.00000000       0.00000000 </v>
    <v>       0.00000000       0.33333333       0.00000000 </v>
    <v>       0.00000000       0.66666667       0.00000000 </v>
    <v>       0.33333333       0.00000000       0.00000000 </v>
    <v>       0.33333333       0.33333333       0.00000000 </v>
    <v>       0.33333333       0.66666667       0.00000000 </v>
    <v>       0.66666667       0.00000000       0.00000000 </v>
    <v>       0.66666667       0.33333333       0.00000000 </v>
    <v>       0.66666667       0.66666667       0.00000000 </v>
    <v>       0.16666667       0.16666667       0.06374415 </v>
    <v>       0.16666667       0.50000000       0.06374415 </v>
    <v>       0.16666667       0.83333333       0.06374415 </v>
    <v>       0.50000000       0.16666667       0.06374415 </v>
    <v>       0.50000000       0.50000000       0.06374415 </v>
    <v>       0.50000000       0.83333333       0.06374415 </v>
    <v>       0.83333333       0.16666667       0.06374415 </v>
    <v>       0.83333333       0.50000000       0.06374415 </v>
    <v>       0.83333333       0.83333333       0.06374415 </v>
    <v>       0.00000000       0.00000000       0.12748829 </v>
    <v>       0.00000000       0.33333333       0.12748829 </v>
    <v>       0.00000000       0.66666667       0.12748829 </v>
    <v>       0.33333333       0.00000000       0.12748829 </v>
    <v>       0.33333333       0.33333333       0.12748829 </v>
    <v>       0.33333333       0.66666667       0.12748829 </v>
    <v>       0.66666667       0.00000000       0.12748829 </v>
    <v>       0.66666667       0.33333333       0.12748829 </v>
    <v>       0.66666667       0.66666667       0.12748829 </v>
    <v>       0.16666667       0.16666667       0.19123244 </v>
    <v>       0.16666667       0.50000000       0.19123244 </v>
    <v>       0.16666667       0.83333333       0.19123244 </v>
    <v>       0.50000000       0.16666667       0.19123244 </v>
    <v>       0.50000000       0.50000000       0.19123244 </v>
    <v>       0.50000000       0.83333333       0.19123244 </v>
    <v>       0.83333333       0.16666667       0.19123244 </v>
    <v>       0.83333333       0.50000000       0.19123244 </v>
    <v>       0.83333333       0.83333333       0.19123244 </v>
    <v>       0.00000000       0.00000000       0.25497659 </v>
    <v>       0.00000000       0.33333333       0.25497659 </v>
    <v>       0.00000000       0.66666667       0.25497659 </v>
    <v>       0.33333333       0.00000000       0.25497659 </v>
    <v>       0.33333333       0.33333333       0.25497659 </v>
    <v>       0.33333333       0.66666667       0.25497659 </v>
    <v>       0.66666667       0.00000000       0.25497659 </v>
    <v>       0.66666667       0.33333333       0.25497659 </v>
    <v>       0.66666667       0.66666667       0.25497659 </v>
   </varray>
  </structure>
  <varray name="forces" >
   <v>      -0.00000000      -0.00000000       0.54424992 </v>
   <v>       0.00000000      -0.00000000       0.54424992 </v>
   <v>      -0.00000000      -0.00000000       0.54424992 </v>
   <v>       0.00000000      -0.00000000       0.54424992 </v>
   <v>      -0.00000000      -0.00000000       0.54424992 </v>
   <v>      -0.00000000      -0.00000000       0.54424992 </v>
   <v>      -0.00000000      -0.00000000       0.54424992 </v>
   <v>       0.00000000       0.00000000       0.54424992 </v>
   <v>      -0.00000000      -0.00000000       0.54424992 </v>
   <v>      -0.00000000      -0.00000000      -0.28530109 </v>
   <v>       0.00000000      -0.00000000      -0.28530109 </v>
   <v>      -0.00000000      -0.00000000      -0.28530109 </v>
   <v>      -0.00000000      -0.00000000      -0.28530109 </v>
   <v>       0.00000000       0.00000000      -0.28530109 </v>
   <v>      -0.00000000       0.00000000      -0.28530109 </v>
   <v>      -0.00000000      -0.00000000      -0.28530109 </v>
   <v>      -0.00000000       0.00000000      -0.28530109 </v>
   <v>       0.00000000       0.00000000      -0.28530109 </v>
   <v>       0.00000000      -0.00000000       0.00083357 </v>
   <v>      -0.00000000       0.00000000       0.00083357 </v>
   <v>      -0.00000000      -0.00000000       0.00083357 </v>
   <v>      -0.00000000      -0.00000000       0.00083357 </v>
   <v>       0.00000000      -0.00000000       0.00083357 </v>
   <v>      -0.00000000      -0.00000000       0.00083357 </v>
   <v>      -0.00000000      -0.00000000       0.00083357 </v>
   <v>      -0.00000000      -0.00000000       0.00083357 </v>
   <v>       0.00000000      -0.00000000       0.00083357 </v>
   <v>      -0.00000000      -0.00000000       0.28318994 </v>
   <v>      -0.00000000      -0.00000000       0.28318994 </v>
   <v>       0.00000000       0.00000000       0.28318994 </v>
   <v>      -0.00000000      -0.00000000       0.28318994 </v>
   <v>       0.00000000      -0.00000000       0.28318994 </v>
   <v>       0.00000000      -0.00000000       0.28318994 </v>
   <v>       0.00000000      -0.00000000       0.28318994 </v>
   <v>       0.00000000      -0.00000000       0.28318994 </v>
   <v>       0.00000000      -0.00000000       0.28318994 </v>
   <v>       0.00000000      -0.00000000      -0.54297233 </v>
   <v>      -0.00000000       0.00000000      -0.54297233 </v>
   <v>       0.00000000      -0.00000000      -0.54297233 </v>
   <v>      -0.00000000      -0.00000000      -0.54297233 </v>
   <v>       0.00000000      -0.00000000      -0.54297233 </v>
   <v>      -0.00000000      -0.00000000      -0.54297233 </v>
   <v>       0.00000000      -0.00000000      -0.54297233 </v>
   <v>       0.00000000       0.00000000      -0.54297233 </v>
   <v>       0.00000000      -0.00000000      -0.54297233 </v>
  </varray>
  <varray name="stress" >
   <v>     -39.16374285       0.00000000       0.00000000 </v>
   <v>       0.00000000     -34.44184204       0.00000000 </v>
   <v>       0.00000000       0.00000000     -20.51778514 </v>
  </varray>
  <energy>
   <i name="e_fr_energy">   -165.22605201 </i>
   <i name="e_wo_entrp">   -165.24554546 </i>
   <i name="e_0_energy">   -165.23254983 </i>
  </energy>
  <time name="totalsc">  950.94  959.02</time>
 </calculation>
 <calculation>
  <scstep>
   <time name="dav">   31.94   32.32</time>
   <time name="total">   33.91   34.35</time>
   <energy>
    <i name="alphaZ">    877.15254414 </i>
    <i name="ewald"> 161787.27792131 </i>
    <i name="hartreedc">-220979.12476764 </i>
    <i name="XCdc">   2000.05930196 </i>
    <i name="pawpsdc">  58190.89053707 </i>
    <i name="pawaedc"> -63024.81234294 </i>
    <i name="eentropy">      0.02099683 </i>
    <i name="bandstr">  -1596.25213001 </i>
    <i name="atom">  62593.09380899 </i>
    <i name="e_fr_energy">   -151.69413029 </i>
    <i name="e_wo_entrp">   -151.71512712 </i>
    <i name="e_0_energy">   -151.70112924 </i>
   </energy>
  </scstep>
  <scstep>
   <time name="dav">   38.78   39.06</time>
   <time name="total">   40.14   40.43</time>
   <energy>
    <i name="e_fr_energy">   -151.78086473 </i>
    <i name="e_wo_entrp">   -151.80210509 </i>
    <i name="e_0_energy">   -151.78794485 </i>
   </energy>
  </scstep>
  <scstep>
   <time name="dav">   29.83   30.02</time>
   <time name="total">   31.21   31.41</time>
   <energy>
    <i name="e_fr_energy">   -151.77232874 </i>
    <i name="e_wo_entrp">   -151.79298073 </i>
    <i name="e_0_energy">   -151.77921274 </i>
   </energy>
  </scstep>
  <scstep>
   <time name="dav">   29.81   30.02</time>
   <time name="total">   31.17   31.39</time>
   <energy>
    <i name="e_fr_energy">   -151.77239343 </i>
    <i name="e_wo_entrp">   -151.79325465 </i>
    <i name="e_0_energy">   -151.77934717 </i>
   </energy>
  </scstep>
  <scstep>
   <time name="dav">   28.98   29.18</time>
   <time name="total">   30.38   30.59</time>
   <energy>
    <i name="e_fr_energy">   -151.77179032 </i>
    <i name="e_wo_entrp">   -151.79276539 </i>
    <i name="e_0_energy">   -151.77878201 </i>
   </energy>
  </scstep>
  <scstep>
   <time name="dav">   34.62   34.89</time>
   <time name="total">   35.99   36.26</time>
   <energy>
    <i name="e_fr_energy">   -151.77091340 </i>
    <i name="e_wo_entrp">   -151.79178016 </i>
    <i name="e_0_energy">   -151.77786899 </i>
   </energy>
  </scstep>
  <scstep>
   <time name="dav">   32.09   32.34</time>
   <time name="total">   32.24   32.48</time>
   <energy>
    <i name="alphaZ">    877.15254414 </i>
    <i name="ewald"> 161787.27792131 </i>
    <i name="hartreedc">-220973.53780372 </i>
    <i name="XCdc">   1999.91558962 </i>
    <i name="pawpsdc">  58230.97898519 </i>
    <i name="pawaedc"> -63065.95240454 </i>
    <i name="eentropy">      0.02097693 </i>
    <i name="bandstr">  -1600.72071805 </i>
    <i name="atom">  62593.09380899 </i>
    <i name="e_fr_energy">   -151.77110013 </i>
    <i name="e_wo_entrp">   -151.79207706 </i>
    <i name="e_0_energy">   -151.77809244 </i>
   </energy>
  </scstep>
  <dipole>
   <v name="dipole">      0.00000000       0.00000000       0.00317717 </v>
   <i name="Tr[quadrupol]">  -7496.67520387 </i>
   <i name="Echarged">      0.00000000 </i>
   <i name="Edipol_quadrupol">      0.00000000 </i>
   <i name="Eion">      0.00000000 </i>
  </dipole>
  <structure>
   <crystal>
    <varray name="basis" >
     <v>      10.89000034       0.00000000       0.00000000 </v>
     <v>       0.00000000       7.70039320       0.00000000 </v>
     <v>       0.00000000       0.00000000      20.13359500 </v>
    </varray>
    <i name="volume">   1688.34860574 </i>
    <varray name="rec_basis" >
     <v>       0.09182736       0.00000000       0.00000000 </v>
     <v>       0.00000000       0.12986350       0.00000000 </v>
     <v>       0.00000000       0.00000000       0.04966823 </v>
    </varray>
   </crystal>
   <varray name="positions" >
    <v>       0.00000000       0.00000000       0.00000000 </v>
    <v>       0.00000000       0.33333333       0.00000000 </v>
    <v>       0.00000000       0.66666667       0.00000000 </v>
    <v>       0.33333333       0.00000000       0.00000000 </v>
    <v>       0.33333333       0.33333333       0.00000000 </v>
    <v>       0.33333333       0.66666667       0.00000000 </v>
    <v>       0.66666667       0.00000000       0.00000000 </v>
    <v>       0.66666667       0.33333333       0.00000000 </v>
    <v>       0.66666667       0.66666667       0.00000000 </v>
    <v>       0.16666667       0.16666667       0.06374415 </v>
    <v>       0.16666667       0.50000000       0.06374415 </v>
    <v>       0.16666667       0.83333333       0.06374415 </v>
    <v>       0.50000000       0.16666667       0.06374415 </v>
    <v>       0.50000000       0.50000000       0.06374415 </v>
    <v>       0.50000000       0.83333333       0.06374415 </v>
    <v>       0.83333333       0.16666667       0.06374415 </v>
    <v>       0.83333333       0.50000000       0.06374415 </v>
    <v>       0.83333333       0.83333333       0.06374415 </v>
    <v>       0.00000000      -0.00000000       0.12749029 </v>
    <v>      -0.00000000       0.33333333       0.12749029 </v>
    <v>      -0.00000000       0.66666667       0.12749029 </v>
    <v>       0.33333333      -0.00000000       0.12749029 </v>
    <v>       0.33333333       0.33333333       0.12749029 </v>
    <v>       0.33333333       0.66666667       0.12749029 </v>
    <v>       0.66666667      -0.00000000       0.12749029 </v>
    <v>       0.66666667       0.33333333       0.12749029 </v>
    <v>       0.66666667       0.66666667       0.12749029 </v>
    <v>       0.16666667       0.16666667       0.19191100 </v>
    <v>       0.16666667       0.50000000       0.19191100 </v>
    <v>       0.16666667       0.83333333       0.19191100 </v>
    <v>       0.50000000       0.16666667       0.19191100 </v>
    <v>       0.50000000       0.50000000       0.19191100 </v>
    <v>       0.50000000       0.83333333       0.19191100 </v>
    <v>       0.83333333       0.16666667       0.19191100 </v>
    <v>       0.83333333       0.50000000       0.19191100 </v>
    <v>       0.83333333       0.83333333       0.19191100 </v>
    <v>       0.00000000      -0.00000000       0.25367556 </v>
    <v>      -0.00000000       0.33333333       0.25367556 </v>
    <v>       0.00000000       0.66666667       0.25367556 </v>
    <v>       0.33333333      -0.00000000       0.25367556 </v>
    <v>       0.33333333       0.33333333       0.25367556 </v>
    <v>       0.33333333       0.66666667       0.25367556 </v>
    <v>       0.66666667      -0.00000000       0.25367556 </v>
    <v>       0.66666667       0.33333333       0.25367556 </v>
    <v>       0.66666667       0.66666667       0.25367556 </v>
   </varray>
  </structure>
  <varray name="forces" >
   <v>      -0.00000000       0.00000000       0.54218598 </v>
   <v>       0.00000000      -0.00000000       0.54218598 </v>
   <v>      -0.00000000       0.00000000       0.54218598 </v>
   <v>      -0.00000000       0.00000000       0.54218598 </v>
   <v>      -0.00000000       0.00000000       0.54218598 </v>
   <v>       0.00000000       0.00000000       0.54218598 </v>
   <v>       0.00000000       0.00000000       0.54218598 </v>
   <v>       0.00000000       0.00000000       0.54218598 </v>
   <v>      -0.00000000       0.00000000       0.54218598 </v>
   <v>       0.00000000       0.00000000      -0.26861660 </v>
   <v>      -0.00000000      -0.00000000      -0.26861660 </v>
   <v>       0.00000000      -0.00000000      -0.26861660 </v>
   <v>       0.00000000       0.00000000      -0.26861660 </v>
   <v>      -0.00000000       0.00000000      -0.26861660 </v>
   <v>       0.00000000       0.00000000      -0.26861660 </v>
   <v>      -0.00000000       0.00000000      -0.26861660 </v>
   <v>      -0.00000000      -0.00000000      -0.26861660 </v>
   <v>      -0.00000000       0.00000000      -0.26861660 </v>
   <v>      -0.00000000       0.00000000      -0.03017709 </v>
   <v>      -0.00000000       0.00000000      -0.03017709 </v>
   <v>      -0.00000000       0.00000000      -0.03017709 </v>
   <v>      -0.00000000       0.00000000      -0.03017709 </v>
   <v>      -0.00000000      -0.00000000      -0.03017709 </v>
   <v>      -0.00000000       0.00000000      -0.03017709 </v>
   <v>       0.00000000       0.00000000      -0.03017709 </v>
   <v>       0.00000000      -0.00000000      -0.03017709 </v>
   <v>       0.00000000       0.00000000      -0.03017709 </v>
   <v>       0.00000000       0.00000000       0.17515390 </v>
   <v>       0.00000000       0.00000000       0.17515390 </v>
   <v>       0.00000000       0.00000000       0.17515390 </v>
   <v>      -0.00000000       0.00000000       0.17515390 </v>
   <v>      -0.00000000       0.00000000       0.17515390 </v>
   <v>      -0.00000000      -0.00000000       0.17515390 </v>
   <v>      -0.00000000       0.00000000       0.17515390 </v>
   <v>       0.00000000      -0.00000000       0.17515390 </v>
   <v>       0.00000000      -0.00000000       0.17515390 </v>
   <v>      -0.00000000       0.00000000      -0.41854620 </v>
   <v>      -0.00000000       0.00000000      -0.41854620 </v>
   <v>      -0.00000000       0.00000000      -0.41854620 </v>
   <v>       0.00000000       0.00000000      -0.41854620 </v>
   <v>      -0.00000000      -0.00000000      -0.41854620 </v>
   <v>      -0.00000000       0.00000000      -0.41854620 </v>
   <v>       0.00000000       0.00000000      -0.41854620 </v>
   <v>       0.00000000       0.00000000      -0.41854620 </v>
   <v>       0.00000000       0.00000000      -0.41854620 </v>
  </varray>
  <varray name="stress" >
   <v>     -40.35892510       0.00000000       0.00000000 </v>
   <v>       0.00000000     -35.89309471       0.00000000 </v>
   <v>       0.00000000       0.00000000     -21.33069286 </v>
  </varray>
  <energy>
   <i name="e_fr_energy">   -165.36731347 </i>
   <i name="e_wo_entrp">   -165.38829040 </i>
   <i name="e_0_energy">   -165.37430578 </i>
  </energy>
  <time name="totalsc">  296.53  298.95</time>
 </calculation>
 <calculation>
  <scstep>
   <time name="dav">   31.44   31.78</time>
   <time name="total">   32.83   33.17</time>
   <energy>
    <i name="alphaZ">    877.15254414 </i>
    <i name="ewald"> 163195.35723857 </i>
    <i name="hartreedc">-222376.89193985 </i>
    <i name="XCdc">   2001.09422261 </i>
    <i name="pawpsdc">  58230.32519398 </i>
    <i name="pawaedc"> -63065.15984270 </i>
    <i name="eentropy">      0.02403392 </i>
    <i name="bandstr">  -1606.15504201 </i>
    <i name="atom">  62593.09380899 </i>
    <i name="e_fr_energy">   -151.15978236 </i>
    <i name="e_wo_entrp">   -151.18381628 </i>
    <i name="e_0_energy">   -151.16779366 </i>
   </energy>
  </scstep>
  <scstep>
   <time name="dav">   41.14   41.56</time>
   <time name="total">   42.51   42.94</time>
   <energy>
    <i name="e_fr_energy">   -151.97631322 </i>
    <i name="e_wo_entrp">   -152.00117315 </i>
    <i name="e_0_energy">   -151.98459986 </i>
   </energy>
  </scstep>
  <scstep>
   <time name="dav">   29.71   29.92</time>
   <time name="total">   31.08   31.30</time>
   <energy>
    <i name="e_fr_energy">   -151.88260351 </i>
    <i name="e_wo_entrp">   -151.90563932 </i>
    <i name="e_0_energy">   -151.89028211 </i>
   </energy>
  </scstep>
  <scstep>
   <time name="dav">   28.70   28.91</time>
   <time name="total">   30.06   30.28</time>
   <energy>
    <i name="e_fr_energy">   -151.88785342 </i>
    <i name="e_wo_entrp">   -151.91126068 </i>
    <i name="e_0_energy">   -151.89565584 </i>
   </energy>
  </scstep>
  <scstep>
   <time name="dav">   29.77   29.98</time>
   <time name="total">   31.15   31.38</time>
   <energy>
    <i name="e_fr_energy">   -151.88470579 </i>
    <i name="e_wo_entrp">   -151.90802873 </i>
    <i name="e_0_energy">   -151.89248010 </i>
   </energy>
  </scstep>
  <scstep>
   <time name="dav">   39.21   39.49</time>
   <time name="total">   40.58   40.87</time>
   <energy>
    <i name="e_fr_energy">   -151.87783342 </i>
    <i name="e_wo_entrp">   -151.90046133 </i>
    <i name="e_0_energy">   -151.88537606 </i>
   </energy>
  </scstep>
  <scstep>
   <time name="dav">   33.13   33.37</time>
   <time name="total">   34.51   34.76</time>
   <energy>
    <i name="e_fr_energy">   -151.87766482 </i>
    <i name="e_wo_entrp">   -151.90103650 </i>
    <i name="e_0_energy">   -151.88545538 </i>
   </energy>
  </scstep>
  <scstep>
   <time name="dav">   29.90   30.14</time>
   <time name="total">   31.54   31.80</time>
   <energy>
    <i name="e_fr_energy">   -151.87647791 </i>
    <i name="e_wo_entrp">   -151.89978615 </i>
    <i name="e_0_energy">   -151.88424733 </i>
   </energy>
  </scstep>
  <scstep>
   <time name="dav">   29.07   29.28</time>
   <time name="total">   29.67   29.89</time>
   <energy>
    <i name="alphaZ">    877.15254414 </i>
    <i name="ewald"> 163195.35723857 </i>
    <i name="hartreedc">-222360.51885603 </i>
    <i name="XCdc">   2000.58535912 </i>
    <i name="pawpsdc">  58362.89422693 </i>
    <i name="pawaedc"> -63200.17255043 </i>
    <i name="eentropy">      0.02340372 </i>
    <i name="bandstr">  -1620.29157765 </i>
    <i name="atom">  62593.09380899 </i>
    <i name="e_fr_energy">   -151.87640263 </i>
    <i name="e_wo_entrp">   -151.89980635 </i>
    <i name="e_0_energy">   -151.88420387 </i>
   </energy>
  </scstep>
  <dipole>
   <v name="dipole">      0.00000000       0.00000000       0.03270872 </v>
   <i name="Tr[quadrupol]">  -7496.52656985 </i>
   <i name="Echarged">      0.00000000 </i>
   <i name="Edipol_quadrupol">      0.00000000 </i>
   <i name="Eion">      0.00000000 </i>
  </dipole>
  <structure>
   <crystal>
    <varray name="basis" >
     <v>      10.89000034       0.00000000       0.00000000 </v>
     <v>       0.00000000       7.70039320       0.00000000 </v>
     <v>       0.00000000       0.00000000      20.13359500 </v>
    </varray>
    <i name="volume">   1688.34860574 </i>
    <varray name="rec_basis" >
     <v>       0.09182736       0.00000000       0.00000000 </v>
     <v>       0.00000000       0.12986350       0.00000000 </v>
     <v>       0.00000000       0.00000000       0.04966823 </v>
    </varray>
   </crystal>
   <varray name="positions" >
    <v>       0.00000000       0.00000000       0.00000000 </v>
    <v>       0.00000000       0.33333333       0.00000000 </v>
    <v>       0.00000000       0.66666667       0.00000000 </v>
    <v>       0.33333333       0.00000000       0.00000000 </v>
    <v>       0.33333333       0.33333333       0.00000000 </v>
    <v>       0.33333333       0.66666667       0.00000000 </v>
    <v>       0.66666667       0.00000000       0.00000000 </v>
    <v>       0.66666667       0.33333333       0.00000000 </v>
    <v>       0.66666667       0.66666667       0.00000000 </v>
    <v>       0.16666667       0.16666667       0.06374415 </v>
    <v>       0.16666667       0.50000000       0.06374415 </v>
    <v>       0.16666667       0.83333333       0.06374415 </v>
    <v>       0.50000000       0.16666667       0.06374415 </v>
    <v>       0.50000000       0.50000000       0.06374415 </v>
    <v>       0.50000000       0.83333333       0.06374415 </v>
    <v>       0.83333333       0.16666667       0.06374415 </v>
    <v>       0.83333333       0.50000000       0.06374415 </v>
    <v>       0.83333333       0.83333333       0.06374415 </v>
    <v>       0.00000000      -0.00000000       0.12749592 </v>
    <v>      -0.00000000       0.33333333       0.12749592 </v>
    <v>      -0.00000000       0.66666667       0.12749592 </v>
    <v>       0.33333333      -0.00000000       0.12749592 </v>
    <v>       0.33333333       0.33333333       0.12749592 </v>
    <v>       0.33333333       0.66666667       0.12749592 </v>
    <v>       0.66666667      -0.00000000       0.12749592 </v>
    <v>       0.66666667       0.33333333       0.12749592 </v>
    <v>       0.66666667       0.66666667       0.12749592 </v>
    <v>       0.16666667       0.16666667       0.19382430 </v>
    <v>       0.16666667       0.50000000       0.19382430 </v>
    <v>       0.16666667       0.83333333       0.19382430 </v>
    <v>       0.50000000       0.16666667       0.19382430 </v>
    <v>       0.50000000       0.50000000       0.19382430 </v>
    <v>       0.50000000       0.83333333       0.19382430 </v>
    <v>       0.83333333       0.16666667       0.19382430 </v>
    <v>       0.83333333       0.50000000       0.19382430 </v>
    <v>       0.83333333       0.83333333       0.19382430 </v>
    <v>       0.00000000      -0.00000000       0.25000709 </v>
    <v>      -0.00000000       0.33333333       0.25000709 </v>
    <v>       0.00000000       0.66666667       0.25000709 </v>
    <v>       0.33333333      -0.00000000       0.25000709 </v>
    <v>       0.33333333       0.33333333       0.25000709 </v>
    <v>       0.33333333       0.66666667       0.25000709 </v>
    <v>       0.66666667      -0.00000000       0.25000709 </v>
    <v>       0.66666667       0.33333333       0.25000709 </v>
    <v>       0.66666667       0.66666667       0.25000709 </v>
   </varray>
  </structure>
  <varray name="forces" >
   <v>       0.00000000       0.00000000       0.54669490 </v>
   <v>       0.00000000       0.00000000       0.54669490 </v>
   <v>       0.00000000       0.00000000       0.54669490 </v>
   <v>      -0.00000000       0.00000000       0.54669490 </v>
   <v>      -0.00000000      -0.00000000       0.54669490 </v>
   <v>      -0.00000000       0.00000000       0.54669490 </v>
   <v>      -0.00000000       0.00000000       0.54669490 </v>
   <v>       0.00000000       0.00000000       0.54669490 </v>
   <v>      -0.00000000       0.00000000       0.54669490 </v>
   <v>      -0.00000000       0.00000000      -0.22155033 </v>
   <v>      -0.00000000       0.00000000      -0.22155033 </v>
   <v>      -0.00000000      -0.00000000      -0.22155033 </v>
   <v>       0.00000000       0.00000000      -0.22155033 </v>
   <v>      -0.00000000       0.00000000      -0.22155033 </v>
   <v>       0.00000000      -0.00000000      -0.22155033 </v>
   <v>      -0.00000000       0.00000000      -0.22155033 </v>
   <v>       0.00000000       0.00000000      -0.22155033 </v>
   <v>      -0.00000000      -0.00000000      -0.22155033 </v>
   <v>      -0.00000000       0.00000000      -0.15168936 </v>
   <v>       0.00000000      -0.00000000      -0.15168936 </v>
   <v>       0.00000000       0.00000000      -0.15168936 </v>
   <v>       0.00000000       0.00000000      -0.15168936 </v>
   <v>      -0.00000000       0.00000000      -0.15168936 </v>
   <v>       0.00000000       0.00000000      -0.15168936 </v>
   <v>       0.00000000       0.00000000      -0.15168936 </v>
   <v>      -0.00000000       0.00000000      -0.15168936 </v>
   <v>      -0.00000000       0.00000000      -0.15168936 </v>
   <v>      -0.00000000      -0.00000000      -0.15540104 </v>
   <v>       0.00000000       0.00000000      -0.15540104 </v>
   <v>       0.00000000       0.00000000      -0.15540104 </v>
   <v>      -0.00000000       0.00000000      -0.15540104 </v>
   <v>      -0.00000000       0.00000000      -0.15540104 </v>
   <v>      -0.00000000       0.00000000      -0.15540104 </v>
   <v>       0.00000000       0.00000000      -0.15540104 </v>
   <v>      -0.00000000       0.00000000      -0.15540104 </v>
   <v>       0.00000000       0.00000000      -0.15540104 </v>
   <v>      -0.00000000       0.00000000      -0.01805417 </v>
   <v>       0.00000000      -0.00000000      -0.01805417 </v>
   <v>      -0.00000000       0.00000000      -0.01805417 </v>
   <v>       0.00000000       0.00000000      -0.01805417 </v>
   <v>       0.00000000      -0.00000000      -0.01805417 </v>
   <v>       0.00000000       0.00000000      -0.01805417 </v>
   <v>       0.00000000       0.00000000      -0.01805417 </v>
   <v>       0.00000000      -0.00000000      -0.01805417 </v>
   <v>       0.00000000       0.00000000      -0.01805417 </v>
  </varray>
  <varray name="stress" >
   <v>     -36.19016207       0.00000000       0.00000000 </v>
   <v>       0.00000000     -32.88032860       0.00000000 </v>
   <v>       0.00000000       0.00000000     -16.38715214 </v>
  </varray>
  <energy>
   <i name="e_fr_energy">   -165.52542494 </i>
   <i name="e_wo_entrp">   -165.54882866 </i>
   <i name="e_0_energy">   -165.53322618 </i>
  </energy>
  <time name="totalsc">  367.05  369.95</time>
 </calculation>
 <calculation>
  <scstep>
   <time name="dav">   29.68   29.89</time>
   <time name="total">   31.06   31.28</time>
   <energy>
    <i name="alphaZ">    877.15254414 </i>
    <i name="ewald"> 163040.73120033 </i>
    <i name="hartreedc">-222206.12554725 </i>
    <i name="XCdc">   2000.44099400 </i>
    <i name="pawpsdc">  58361.74619087 </i>
    <i name="pawaedc"> -63198.98328312 </i>
    <i name="eentropy">      0.02299732 </i>
    <i name="bandstr">  -1619.95627296 </i>
    <i name="atom">  62593.09380899 </i>
    <i name="e_fr_energy">   -151.87736767 </i>
    <i name="e_wo_entrp">   -151.90036499 </i>
    <i name="e_0_energy">   -151.88503344 </i>
   </energy>
  </scstep>
  <scstep>
   <time name="dav">   37.23   37.49</time>
   <time name="total">   38.60   38.87</time>
   <energy>
    <i name="e_fr_energy">   -151.88470681 </i>
    <i name="e_wo_entrp">   -151.90767818 </i>
    <i name="e_0_energy">   -151.89236393 </i>
   </energy>
  </scstep>
  <scstep>
   <time name="dav">   27.99   28.23</time>
   <time name="total">   29.36   29.61</time>
   <energy>
    <i name="e_fr_energy">   -151.88440189 </i>
    <i name="e_wo_entrp">   -151.90738036 </i>
    <i name="e_0_energy">   -151.89206138 </i>
   </energy>
  </scstep>
  <scstep>
   <time name="dav">   19.73   19.90</time>
   <time name="total">   19.87   20.04</time>
   <energy>
    <i name="alphaZ">    877.15254414 </i>
    <i name="ewald"> 163040.73120033 </i>
    <i name="hartreedc">-222206.49880875 </i>
    <i name="XCdc">   2000.45034389 </i>
    <i name="pawpsdc">  58353.67519637 </i>
    <i name="pawaedc"> -63190.62711899 </i>
    <i name="eentropy">      0.02300946 </i>
    <i name="bandstr">  -1619.88451445 </i>
    <i name="atom">  62593.09380899 </i>
    <i name="e_fr_energy">   -151.88433900 </i>
    <i name="e_wo_entrp">   -151.90734846 </i>
    <i name="e_0_energy">   -151.89200882 </i>
   </energy>
  </scstep>
  <dipole>
   <v name="dipole">      0.00000000       0.00000000       0.03160149 </v>
   <i name="Tr[quadrupol]">  -7496.50303813 </i>
   <i name="Echarged">      0.00000000 </i>
   <i name="Edipol_quadrupol">      0.00000000 </i>
   <i name="Eion">      0.00000000 </i>
  </dipole>
  <structure>
   <crystal>
    <varray name="basis" >
     <v>      10.89000034       0.00000000       0.00000000 </v>
     <v>       0.00000000       7.70039320       0.00000000 </v>
     <v>       0.00000000       0.00000000      20.13359500 </v>
    </varray>
    <i name="volume">   1688.34860574 </i>
    <varray name="rec_basis" >
     <v>       0.09182736       0.00000000       0.00000000 </v>
     <v>       0.00000000       0.12986350       0.00000000 </v>
     <v>       0.00000000       0.00000000       0.04966823 </v>
    </varray>
   </crystal>
   <varray name="positions" >
    <v>       0.00000000       0.00000000       0.00000000 </v>
    <v>       0.00000000       0.33333333       0.00000000 </v>
    <v>       0.00000000       0.66666667       0.00000000 </v>
    <v>       0.33333333       0.00000000       0.00000000 </v>
    <v>       0.33333333       0.33333333       0.00000000 </v>
    <v>       0.33333333       0.66666667       0.00000000 </v>
    <v>       0.66666667       0.00000000       0.00000000 </v>
    <v>       0.66666667       0.33333333       0.00000000 </v>
    <v>       0.66666667       0.66666667       0.00000000 </v>
    <v>       0.16666667       0.16666667       0.06374415 </v>
    <v>       0.16666667       0.50000000       0.06374415 </v>
    <v>       0.16666667       0.83333333       0.06374415 </v>
    <v>       0.50000000       0.16666667       0.06374415 </v>
    <v>       0.50000000       0.50000000       0.06374415 </v>
    <v>       0.50000000       0.83333333       0.06374415 </v>
    <v>       0.83333333       0.16666667       0.06374415 </v>
    <v>       0.83333333       0.50000000       0.06374415 </v>
    <v>       0.83333333       0.83333333       0.06374415 </v>
    <v>       0.00000000      -0.00000000       0.12749530 </v>
    <v>      -0.00000000       0.33333333       0.12749530 </v>
    <v>      -0.00000000       0.66666667       0.12749530 </v>
    <v>       0.33333333      -0.00000000       0.12749530 </v>
    <v>       0.33333333       0.33333333       0.12749530 </v>
    <v>       0.33333333       0.66666667       0.12749530 </v>
    <v>       0.66666667      -0.00000000       0.12749530 </v>
    <v>       0.66666667       0.33333333       0.12749530 </v>
    <v>       0.66666667       0.66666667       0.12749530 </v>
    <v>       0.16666667       0.16666667       0.19361321 </v>
    <v>       0.16666667       0.50000000       0.19361321 </v>
    <v>       0.16666667       0.83333333       0.19361321 </v>
    <v>       0.50000000       0.16666667       0.19361321 </v>
    <v>       0.50000000       0.50000000       0.19361321 </v>
    <v>       0.50000000       0.83333333       0.19361321 </v>
    <v>       0.83333333       0.16666667       0.19361321 </v>
    <v>       0.83333333       0.50000000       0.19361321 </v>
    <v>       0.83333333       0.83333333       0.19361321 </v>
    <v>       0.00000000      -0.00000000       0.25041184 </v>
    <v>      -0.00000000       0.33333333       0.25041184 </v>
    <v>       0.00000000       0.66666667       0.25041184 </v>
    <v>       0.33333333      -0.00000000       0.25041184 </v>
    <v>       0.33333333       0.33333333       0.25041184 </v>
    <v>       0.33333333       0.66666667       0.25041184 </v>
    <v>       0.66666667      -0.00000000       0.25041184 </v>
    <v>       0.66666667       0.33333333       0.25041184 </v>
    <v>       0.66666667       0.66666667       0.25041184 </v>
   </varray>
  </structure>
  <varray name="forces" >
   <v>       0.00000000      -0.00000000       0.54986140 </v>
   <v>      -0.00000000       0.00000000       0.54986140 </v>
   <v>      -0.00000000      -0.00000000       0.54986140 </v>
   <v>      -0.00000000      -0.00000000       0.54986140 </v>
   <v>       0.00000000       0.00000000       0.54986140 </v>
   <v>      -0.00000000      -0.00000000       0.54986140 </v>
   <v>      -0.00000000      -0.00000000       0.54986140 </v>
   <v>      -0.00000000      -0.00000000       0.54986140 </v>
   <v>       0.00000000      -0.00000000       0.54986140 </v>
   <v>      -0.00000000      -0.00000000      -0.22478827 </v>
   <v>      -0.00000000      -0.00000000      -0.22478827 </v>
   <v>      -0.00000000       0.00000000      -0.22478827 </v>
   <v>       0.00000000      -0.00000000      -0.22478827 </v>
   <v>       0.00000000      -0.00000000      -0.22478827 </v>
   <v>       0.00000000       0.00000000      -0.22478827 </v>
   <v>      -0.00000000      -0.00000000      -0.22478827 </v>
   <v>       0.00000000      -0.00000000      -0.22478827 </v>
   <v>      -0.00000000       0.00000000      -0.22478827 </v>
   <v>      -0.00000000      -0.00000000      -0.13380638 </v>
   <v>       0.00000000       0.00000000      -0.13380638 </v>
   <v>      -0.00000000      -0.00000000      -0.13380638 </v>
   <v>       0.00000000      -0.00000000      -0.13380638 </v>
   <v>       0.00000000      -0.00000000      -0.13380638 </v>
   <v>       0.00000000      -0.00000000      -0.13380638 </v>
   <v>      -0.00000000      -0.00000000      -0.13380638 </v>
   <v>       0.00000000      -0.00000000      -0.13380638 </v>
   <v>      -0.00000000      -0.00000000      -0.13380638 </v>
   <v>       0.00000000       0.00000000      -0.10885239 </v>
   <v>      -0.00000000      -0.00000000      -0.10885239 </v>
   <v>       0.00000000      -0.00000000      -0.10885239 </v>
   <v>       0.00000000      -0.00000000      -0.10885239 </v>
   <v>       0.00000000      -0.00000000      -0.10885239 </v>
   <v>       0.00000000      -0.00000000      -0.10885239 </v>
   <v>       0.00000000      -0.00000000      -0.10885239 </v>
   <v>      -0.00000000      -0.00000000      -0.10885239 </v>
   <v>       0.00000000       0.00000000      -0.10885239 </v>
   <v>      -0.00000000      -0.00000000      -0.08241437 </v>
   <v>      -0.00000000      -0.00000000      -0.08241437 </v>
   <v>      -0.00000000      -0.00000000      -0.08241437 </v>
   <v>      -0.00000000      -0.00000000      -0.08241437 </v>
   <v>       0.00000000      -0.00000000      -0.08241437 </v>
   <v>       0.00000000      -0.00000000      -0.08241437 </v>
   <v>      -0.00000000      -0.00000000      -0.08241437 </v>
   <v>      -0.00000000       0.00000000      -0.08241437 </v>
   <v>      -0.00000000      -0.00000000      -0.08241437 </v>
  </varray>
  <varray name="stress" >
   <v>     -33.57334784       0.00000000       0.00000000 </v>
   <v>       0.00000000     -30.05472822       0.00000000 </v>
   <v>       0.00000000       0.00000000     -13.72096405 </v>
  </varray>
  <energy>
   <i name="e_fr_energy">   -165.52743595 </i>
   <i name="e_wo_entrp">   -165.55044542 </i>
   <i name="e_0_energy">   -165.53510578 </i>
  </energy>
  <time name="totalsc">  179.94  181.27</time>
 </calculation>
 <calculation>
  <scstep>
   <time name="dav">   30.22   30.46</time>
   <time name="total">   32.16   32.43</time>
   <energy>
    <i name="alphaZ">    877.15254414 </i>
    <i name="ewald"> 163085.11141078 </i>
    <i name="hartreedc">-222250.93046015 </i>
    <i name="XCdc">   2000.49095162 </i>
    <i name="pawpsdc">  58348.67614737 </i>
    <i name="pawaedc"> -63185.52720987 </i>
    <i name="eentropy">      0.02310913 </i>
    <i name="bandstr">  -1619.97206226 </i>
    <i name="atom">  62593.09380899 </i>
    <i name="e_fr_energy">   -151.88176026 </i>
    <i name="e_wo_entrp">   -151.90486939 </i>
    <i name="e_0_energy">   -151.88946330 </i>
   </energy>
  </scstep>
  <scstep>
   <time name="dav">   38.58   38.87</time>
   <time name="total">   39.96   40.26</time>
   <energy>
    <i name="e_fr_energy">   -151.88245119 </i>
    <i name="e_wo_entrp">   -151.90557174 </i>
    <i name="e_0_energy">   -151.89015804 </i>
   </energy>
  </scstep>
  <scstep>
   <time name="dav">   29.04   29.31</time>
   <time name="total">   29.18   29.45</time>
   <energy>
    <i name="alphaZ">    877.15254414 </i>
    <i name="ewald"> 163085.11141078 </i>
    <i name="hartreedc">-222250.97400938 </i>
    <i name="XCdc">   2000.49857146 </i>
    <i name="pawpsdc">  58349.24377754 </i>
    <i name="pawaedc"> -63186.18150386 </i>
    <i name="eentropy">      0.02312674 </i>
    <i name="bandstr">  -1619.85016939 </i>
    <i name="atom">  62593.09380899 </i>
    <i name="e_fr_energy">   -151.88244299 </i>
    <i name="e_wo_entrp">   -151.90556973 </i>
    <i name="e_0_energy">   -151.89015190 </i>
   </energy>
  </scstep>
  <dipole>
   <v name="dipole">      0.00000000       0.00000000       0.03123127 </v>
   <i name="Tr[quadrupol]">  -7496.49503397 </i>
   <i name="Echarged">      0.00000000 </i>
   <i name="Edipol_quadrupol">      0.00000000 </i>
   <i name="Eion">      0.00000000 </i>
  </dipole>
  <structure>
   <crystal>
    <varray name="basis" >
     <v>      10.89000034       0.00000000       0.00000000 </v>
     <v>       0.00000000       7.70039320       0.00000000 </v>
     <v>       0.00000000       0.00000000      20.13359500 </v>
    </varray>
    <i name="volume">   1688.34860574 </i>
    <varray name="rec_basis" >
     <v>       0.09182736       0.00000000       0.00000000 </v>
     <v>       0.00000000       0.12986350       0.00000000 </v>
     <v>       0.00000000       0.00000000       0.04966823 </v>
    </varray>
   </crystal>
   <varray name="positions" >
    <v>       0.00000000       0.00000000       0.00000000 </v>
    <v>       0.00000000       0.33333333       0.00000000 </v>
    <v>       0.00000000       0.66666667       0.00000000 </v>
    <v>       0.33333333       0.00000000       0.00000000 </v>
    <v>       0.33333333       0.33333333       0.00000000 </v>
    <v>       0.33333333       0.66666667       0.00000000 </v>
    <v>       0.66666667       0.00000000       0.00000000 </v>
    <v>       0.66666667       0.33333333       0.00000000 </v>
    <v>       0.66666667       0.66666667       0.00000000 </v>
    <v>       0.16666667       0.16666667       0.06374415 </v>
    <v>       0.16666667       0.50000000       0.06374415 </v>
    <v>       0.16666667       0.83333333       0.06374415 </v>
    <v>       0.50000000       0.16666667       0.06374415 </v>
    <v>       0.50000000       0.50000000       0.06374415 </v>
    <v>       0.50000000       0.83333333       0.06374415 </v>
    <v>       0.83333333       0.16666667       0.06374415 </v>
    <v>       0.83333333       0.50000000       0.06374415 </v>
    <v>       0.83333333       0.83333333       0.06374415 </v>
    <v>       0.00000000      -0.00000000       0.12749548 </v>
    <v>      -0.00000000       0.33333333       0.12749548 </v>
    <v>      -0.00000000       0.66666667       0.12749548 </v>
    <v>       0.33333333      -0.00000000       0.12749548 </v>
    <v>       0.33333333       0.33333333       0.12749548 </v>
    <v>       0.33333333       0.66666667       0.12749548 </v>
    <v>       0.66666667      -0.00000000       0.12749548 </v>
    <v>       0.66666667       0.33333333       0.12749548 </v>
    <v>       0.66666667       0.66666667       0.12749548 </v>
    <v>       0.16666667       0.16666667       0.19367377 </v>
    <v>       0.16666667       0.50000000       0.19367377 </v>
    <v>       0.16666667       0.83333333       0.19367377 </v>
    <v>       0.50000000       0.16666667       0.19367377 </v>
    <v>       0.50000000       0.50000000       0.19367377 </v>
    <v>       0.50000000       0.83333333       0.19367377 </v>
    <v>       0.83333333       0.16666667       0.19367377 </v>
    <v>       0.83333333       0.50000000       0.19367377 </v>
    <v>       0.83333333       0.83333333       0.19367377 </v>
    <v>       0.00000000      -0.00000000       0.25029572 </v>
    <v>      -0.00000000       0.33333333       0.25029572 </v>
    <v>       0.00000000       0.66666667       0.25029572 </v>
    <v>       0.33333333      -0.00000000       0.25029572 </v>
    <v>       0.33333333       0.33333333       0.25029572 </v>
    <v>       0.33333333       0.66666667       0.25029572 </v>
    <v>       0.66666667      -0.00000000       0.25029572 </v>
    <v>       0.66666667       0.33333333       0.25029572 </v>
    <v>       0.66666667       0.66666667       0.25029572 </v>
   </varray>
  </structure>
  <varray name="forces" >
   <v>      -0.00000000      -0.00000000       0.54638763 </v>
   <v>      -0.00000000      -0.00000000       0.54638763 </v>
   <v>      -0.00000000      -0.00000000       0.54638763 </v>
   <v>       0.00000000      -0.00000000       0.54638763 </v>
   <v>      -0.00000000       0.00000000       0.54638763 </v>
   <v>      -0.00000000      -0.00000000       0.54638763 </v>
   <v>      -0.00000000      -0.00000000       0.54638763 </v>
   <v>      -0.00000000      -0.00000000       0.54638763 </v>
   <v>      -0.00000000      -0.00000000       0.54638763 </v>
   <v>       0.00000000      -0.00000000      -0.22269612 </v>
   <v>       0.00000000      -0.00000000      -0.22269612 </v>
   <v>       0.00000000       0.00000000      -0.22269612 </v>
   <v>      -0.00000000      -0.00000000      -0.22269612 </v>
   <v>      -0.00000000      -0.00000000      -0.22269612 </v>
   <v>       0.00000000      -0.00000000      -0.22269612 </v>
   <v>       0.00000000      -0.00000000      -0.22269612 </v>
   <v>      -0.00000000       0.00000000      -0.22269612 </v>
   <v>      -0.00000000       0.00000000      -0.22269612 </v>
   <v>      -0.00000000      -0.00000000      -0.13930866 </v>
   <v>      -0.00000000       0.00000000      -0.13930866 </v>
   <v>       0.00000000      -0.00000000      -0.13930866 </v>
   <v>      -0.00000000      -0.00000000      -0.13930866 </v>
   <v>      -0.00000000      -0.00000000      -0.13930866 </v>
   <v>       0.00000000      -0.00000000      -0.13930866 </v>
   <v>      -0.00000000      -0.00000000      -0.13930866 </v>
   <v>       0.00000000       0.00000000      -0.13930866 </v>
   <v>       0.00000000      -0.00000000      -0.13930866 </v>
   <v>      -0.00000000      -0.00000000      -0.13300568 </v>
   <v>       0.00000000      -0.00000000      -0.13300568 </v>
   <v>      -0.00000000       0.00000000      -0.13300568 </v>
   <v>       0.00000000       0.00000000      -0.13300568 </v>
   <v>       0.00000000      -0.00000000      -0.13300568 </v>
   <v>       0.00000000      -0.00000000      -0.13300568 </v>
   <v>      -0.00000000      -0.00000000      -0.13300568 </v>
   <v>       0.00000000      -0.00000000      -0.13300568 </v>
   <v>       0.00000000      -0.00000000      -0.13300568 </v>
   <v>       0.00000000      -0.00000000      -0.05137717 </v>
   <v>      -0.00000000       0.00000000      -0.05137717 </v>
   <v>      -0.00000000      -0.00000000      -0.05137717 </v>
   <v>      -0.00000000      -0.00000000      -0.05137717 </v>
   <v>      -0.00000000      -0.00000000      -0.05137717 </v>
   <v>      -0.00000000      -0.00000000      -0.05137717 </v>
   <v>      -0.00000000      -0.00000000      -0.05137717 </v>
   <v>      -0.00000000       0.00000000      -0.05137717 </v>
   <v>      -0.00000000      -0.00000000      -0.05137717 </v>
  </varray>
  <varray name="stress" >
   <v>     -35.08781944       0.00000000       0.00000000 </v>
   <v>       0.00000000     -31.72542801       0.00000000 </v>
   <v>       0.00000000       0.00000000     -15.46681389 </v>
  </varray>
  <energy>
   <i name="e_fr_energy">   -165.52723974 </i>
   <i name="e_wo_entrp">   -165.55036649 </i>
   <i name="e_0_energy">   -165.53494866 </i>
  </energy>
  <time name="totalsc">  162.47  163.72</time>
 </calculation>
 <calculation>
  <scstep>
   <time name="dav">   30.16   30.39</time>
   <time name="total">   31.55   31.78</time>
   <energy>
    <i name="alphaZ">    877.15254414 </i>
    <i name="ewald"> 163066.59937592 </i>
    <i name="hartreedc">-222232.43207143 </i>
    <i name="XCdc">   2000.48181647 </i>
    <i name="pawpsdc">  58349.29178027 </i>
    <i name="pawaedc"> -63186.22457536 </i>
    <i name="eentropy">      0.02307772 </i>
    <i name="bandstr">  -1619.86887329 </i>
    <i name="atom">  62593.09380899 </i>
    <i name="e_fr_energy">   -151.88311657 </i>
    <i name="e_wo_entrp">   -151.90619429 </i>
    <i name="e_0_energy">   -151.89080914 </i>
   </energy>
  </scstep>
  <scstep>
   <time name="dav">   28.05   28.26</time>
   <time name="total">   28.18   28.39</time>
   <energy>
    <i name="alphaZ">    877.15254414 </i>
    <i name="ewald"> 163066.59937592 </i>
    <i name="hartreedc">-222232.34546353 </i>
    <i name="XCdc">   2000.48443887 </i>
    <i name="pawpsdc">  58348.75074878 </i>
    <i name="pawaedc"> -63185.68229898 </i>
    <i name="eentropy">      0.02306915 </i>
    <i name="bandstr">  -1619.95942714 </i>
    <i name="atom">  62593.09380899 </i>
    <i name="e_fr_energy">   -151.88320381 </i>
    <i name="e_wo_entrp">   -151.90627296 </i>
    <i name="e_0_energy">   -151.89089352 </i>
   </energy>
  </scstep>
  <dipole>
[...]
       <r>   -10.9307     0.0000     0.0000 </r>
       <r>   -10.8631     0.0000     0.0000 </r>
       <r>   -10.7955    -0.0000    -0.0000 </r>
       <r>   -10.7278    -0.0000    -0.0000 </r>
       <r>   -10.6602    -0.0000    -0.0000 </r>
       <r>   -10.5926    -0.0000    -0.0000 </r>
       <r>   -10.5250    -0.0000    -0.0000 </r>
       <r>   -10.4574    -0.0000    -0.0000 </r>
       <r>   -10.3898    -0.0000    -0.0000 </r>
       <r>   -10.3222    -0.0000    -0.0000 </r>
       <r>   -10.2545    -0.0000    -0.0000 </r>
       <r>   -10.1869    -0.0000    -0.0000 </r>
       <r>   -10.1193    -0.0000    -0.0000 </r>
       <r>   -10.0517    -0.0000    -0.0000 </r>
       <r>    -9.9841    -0.0000    -0.0000 </r>
       <r>    -9.9165    -0.0000    -0.0000 </r>
       <r>    -9.8488    -0.0000    -0.0000 </r>
       <r>    -9.7812    -0.0000    -0.0000 </r>
       <r>    -9.7136    -0.0002    -0.0000 </r>
       <r>    -9.6460    -0.0012    -0.0001 </r>
       <r>    -9.5784    -0.0049    -0.0004 </r>
       <r>    -9.5108    -0.0146    -0.0014 </r>
       <r>    -9.4432    -0.0311    -0.0035 </r>
       <r>    -9.3755    -0.0404    -0.0063 </r>
       <r>    -9.3079    -0.0029    -0.0065 </r>
       <r>    -9.2403     0.1329     0.0025 </r>
       <r>    -9.1727     0.3881     0.0288 </r>
       <r>    -9.1051     0.7220     0.0776 </r>
       <r>    -9.0375     1.0511     0.1487 </r>
       <r>    -8.9699     1.3148     0.2376 </r>
       <r>    -8.9022     1.5441     0.3420 </r>
       <r>    -8.8346     1.8409     0.4664 </r>
       <r>    -8.7670     2.2265     0.6170 </r>
       <r>    -8.6994     2.5167     0.7871 </r>
       <r>    -8.6318     2.4426     0.9523 </r>
       <r>    -8.5642     1.9422     1.0836 </r>
       <r>    -8.4965     1.3045     1.1718 </r>
       <r>    -8.4289     0.9793     1.2380 </r>
       <r>    -8.3613     1.1644     1.3168 </r>
       <r>    -8.2937     1.5504     1.4216 </r>
       <r>    -8.2261     1.6227     1.5313 </r>
       <r>    -8.1585     1.2960     1.6190 </r>
       <r>    -8.0909     1.0703     1.6913 </r>
       <r>    -8.0232     1.4487     1.7893 </r>
       <r>    -7.9556     2.3200     1.9461 </r>
       <r>    -7.8880     3.0105     2.1497 </r>
       <r>    -7.8204     2.9753     2.3509 </r>
       <r>    -7.7528     2.4202     2.5145 </r>
       <r>    -7.6852     2.0808     2.6552 </r>
       <r>    -7.6176     2.3473     2.8139 </r>
       <r>    -7.5499     2.8337     3.0055 </r>
       <r>    -7.4823     2.8689     3.1995 </r>
       <r>    -7.4147     2.1983     3.3481 </r>
       <r>    -7.3471     1.1518     3.4260 </r>
       <r>    -7.2795     0.2916     3.4457 </r>
       <r>    -7.2119    -0.0014     3.4456 </r>
       <r>    -7.1442     0.3383     3.4685 </r>
       <r>    -7.0766     1.1678     3.5475 </r>
       <r>    -7.0090     2.3035     3.7032 </r>
       <r>    -6.9414     3.6654     3.9511 </r>
       <r>    -6.8738     5.2617     4.3068 </r>
       <r>    -6.8062     6.8858     4.7724 </r>
       <r>    -6.7386     7.8598     5.3039 </r>
       <r>    -6.6709     7.4235     5.8058 </r>
       <r>    -6.6033     5.6282     6.1864 </r>
       <r>    -6.5357     3.6197     6.4311 </r>
       <r>    -6.4681     2.6397     6.6096 </r>
       <r>    -6.4005     2.8129     6.7998 </r>
       <r>    -6.3329     3.3307     7.0250 </r>
       <r>    -6.2653     3.7339     7.2775 </r>
       <r>    -6.1976     4.3650     7.5726 </r>
       <r>    -6.1300     5.4910     7.9439 </r>
       <r>    -6.0624     6.7006     8.3969 </r>
       <r>    -5.9948     7.3958     8.8970 </r>
       <r>    -5.9272     7.3540     9.3943 </r>
       <r>    -5.8596     6.6558     9.8443 </r>
       <r>    -5.7919     5.4752    10.2145 </r>
       <r>    -5.7243     4.1895    10.4978 </r>
       <r>    -5.6567     3.5986    10.7411 </r>
       <r>    -5.5891     4.6597    11.0562 </r>
       <r>    -5.5215     7.5700    11.5680 </r>
       <r>    -5.4539    11.2067    12.3257 </r>
       <r>    -5.3863    13.9033    13.2658 </r>
       <r>    -5.3186    14.8640    14.2708 </r>
       <r>    -5.2510    14.7951    15.2712 </r>
       <r>    -5.1834    15.2683    16.3036 </r>
       <r>    -5.1158    17.4129    17.4809 </r>
       <r>    -5.0482    21.1178    18.9088 </r>
       <r>    -4.9806    25.4080    20.6268 </r>
       <r>    -4.9130    29.2337    22.6034 </r>
       <r>    -4.8453    31.7429    24.7497 </r>
       <r>    -4.7777    32.5069    26.9477 </r>
       <r>    -4.7101    32.3302    29.1337 </r>
       <r>    -4.6425    33.4410    31.3948 </r>
       <r>    -4.5749    37.6602    33.9412 </r>
       <r>    -4.5073    44.0823    36.9218 </r>
       <r>    -4.4396    49.3015    40.2554 </r>
       <r>    -4.3720    50.2501    43.6530 </r>
       <r>    -4.3044    46.6234    46.8055 </r>
       <r>    -4.2368    40.9321    49.5731 </r>
       <r>    -4.1692    36.8741    52.0663 </r>
       <r>    -4.1016    37.3842    54.5941 </r>
       <r>    -4.0340    43.1664    57.5128 </r>
       <r>    -3.9663    52.2156    61.0433 </r>
       <r>    -3.8987    60.7960    65.1541 </r>
       <r>    -3.8311    65.8040    69.6034 </r>
       <r>    -3.7635    66.7859    74.1191 </r>
       <r>    -3.6959    65.5797    78.5533 </r>
       <r>    -3.6283    64.5643    82.9188 </r>
       <r>    -3.5606    66.0559    87.3852 </r>
       <r>    -3.4930    72.0517    92.2570 </r>
       <r>    -3.4254    82.1742    97.8132 </r>
       <r>    -3.3578    92.2654   104.0517 </r>
       <r>    -3.2902    97.1095   110.6178 </r>
       <r>    -3.2226    94.4119   117.0014 </r>
       <r>    -3.1550    85.2734   122.7672 </r>
       <r>    -3.0873    72.5864   127.6751 </r>
       <r>    -3.0197    60.7781   131.7847 </r>
       <r>    -2.9521    55.3202   135.5251 </r>
       <r>    -2.8845    59.5335   139.5505 </r>
       <r>    -2.8169    71.4995   144.3849 </r>
       <r>    -2.7493    85.3687   150.1572 </r>
       <r>    -2.6817    95.8489   156.6380 </r>
       <r>    -2.6140   100.7681   163.4514 </r>
       <r>    -2.5464   100.3006   170.2333 </r>
       <r>    -2.4788    96.2764   176.7430 </r>
       <r>    -2.4112    92.8876   183.0236 </r>
       <r>    -2.3436    95.5264   189.4826 </r>
       <r>    -2.2760   106.3492   196.6734 </r>
       <r>    -2.2083   120.8140   204.8423 </r>
       <r>    -2.1407   129.5187   213.5997 </r>
       <r>    -2.0731   124.0019   221.9841 </r>
       <r>    -2.0055   102.0555   228.8846 </r>
       <r>    -1.9379    69.5563   233.5876 </r>
       <r>    -1.8703    37.5828   236.1288 </r>
       <r>    -1.8027    15.8425   237.2000 </r>
       <r>    -1.7350     6.9896   237.6726 </r>
       <r>    -1.6674     6.5714   238.1169 </r>
       <r>    -1.5998     8.1897   238.6707 </r>
       <r>    -1.5322     8.6783   239.2574 </r>
       <r>    -1.4646     8.8519   239.8560 </r>
       <r>    -1.3970    10.2512   240.5491 </r>
       <r>    -1.3294    12.2650   241.3784 </r>
       <r>    -1.2617    12.8748   242.2489 </r>
       <r>    -1.1941    11.2721   243.0111 </r>
       <r>    -1.1265     8.6009   243.5926 </r>
       <r>    -1.0589     6.5157   244.0332 </r>
       <r>    -0.9913     5.9333   244.4344 </r>
       <r>    -0.9237     6.8494   244.8975 </r>
       <r>    -0.8560     8.4664   245.4700 </r>
       <r>    -0.7884     9.5496   246.1157 </r>
       <r>    -0.7208     9.2337   246.7400 </r>
       <r>    -0.6532     7.5968   247.2537 </r>
       <r>    -0.5856     5.4513   247.6222 </r>
       <r>    -0.5180     3.7377   247.8750 </r>
       <r>    -0.4504     3.0184   248.0791 </r>
       <r>    -0.3827     3.3709   248.3070 </r>
       <r>    -0.3151     4.6631   248.6223 </r>
       <r>    -0.2475     6.6295   249.0705 </r>
       <r>    -0.1799     8.5979   249.6519 </r>
       <r>    -0.1123     9.6581   250.3049 </r>
       <r>    -0.0447     9.4249   250.9422 </r>
       <r>     0.0229     8.3103   251.5041 </r>
       <r>     0.0906     6.8737   251.9688 </r>
       <r>     0.1582     5.4099   252.3346 </r>
       <r>     0.2258     4.5083   252.6395 </r>
       <r>     0.2934     5.3256   252.9996 </r>
       <r>     0.3610     8.3919   253.5670 </r>
       <r>     0.4286    12.2705   254.3966 </r>
       <r>     0.4963    14.2456   255.3599 </r>
       <r>     0.5639    12.7688   256.2232 </r>
       <r>     0.6315     8.9646   256.8294 </r>
       <r>     0.6991     5.4026   257.1947 </r>
       <r>     0.7667     3.6659   257.4425 </r>
       <r>     0.8343     3.5251   257.6809 </r>
       <r>     0.9019     4.0825   257.9569 </r>
       <r>     0.9696     4.9558   258.2920 </r>
       <r>     1.0372     6.3562   258.7218 </r>
       <r>     1.1048     8.5734   259.3015 </r>
       <r>     1.1724    11.4429   260.0752 </r>
       <r>     1.2400    13.8922   261.0145 </r>
       <r>     1.3076    14.1787   261.9732 </r>
       <r>     1.3753    11.4168   262.7452 </r>
       <r>     1.4429     7.0143   263.2194 </r>
       <r>     1.5105     3.8411   263.4791 </r>
       <r>     1.5781     3.6595   263.7266 </r>
       <r>     1.6457     5.5932   264.1048 </r>
       <r>     1.7133     7.1819   264.5904 </r>
       <r>     1.7809     6.9227   265.0584 </r>
       <r>     1.8486     5.6484   265.4404 </r>
       <r>     1.9162     5.2384   265.7946 </r>
       <r>     1.9838     6.3864   266.2264 </r>
       <r>     2.0514     8.1556   266.7778 </r>
       <r>     2.1190     9.3805   267.4121 </r>
       <r>     2.1866     9.8282   268.0766 </r>
       <r>     2.2542     9.9506   268.7494 </r>
       <r>     2.3219     9.9309   269.4209 </r>
       <r>     2.3895     9.3531   270.0533 </r>
       <r>     2.4571     7.9074   270.5880 </r>
       <r>     2.5247     6.0831   270.9993 </r>
       <r>     2.5923     4.8327   271.3260 </r>
       <r>     2.6599     4.8367   271.6531 </r>
       <r>     2.7276     6.2770   272.0775 </r>
       <r>     2.7952     8.7038   272.6660 </r>
       <r>     2.8628    10.8464   273.3994 </r>
       <r>     2.9304    11.3266   274.1652 </r>
       <r>     2.9980     9.9414   274.8374 </r>
       <r>     3.0656     7.7059   275.3585 </r>
       <r>     3.1332     5.6037   275.7374 </r>
       <r>     3.2009     3.9195   276.0024 </r>
       <r>     3.2685     2.6695   276.1829 </r>
       <r>     3.3361     1.9817   276.3169 </r>
       <r>     3.4037     2.0323   276.4543 </r>
       <r>     3.4713     2.9020   276.6505 </r>
       <r>     3.5389     4.3596   276.9453 </r>
       <r>     3.6065     5.8732   277.3424 </r>
       <r>     3.6742     7.1520   277.8260 </r>
       <r>     3.7418     8.3340   278.3895 </r>
       <r>     3.8094     9.3401   279.0210 </r>
       <r>     3.8770     9.6352   279.6725 </r>
       <r>     3.9446     8.9294   280.2762 </r>
       <r>     4.0122     7.6412   280.7929 </r>
       <r>     4.0799     6.6314   281.2413 </r>
       <r>     4.1475     6.7491   281.6976 </r>
       <r>     4.2151     8.2994   282.2588 </r>
       <r>     4.2827    10.6411   282.9783 </r>
       <r>     4.3503    12.6039   283.8305 </r>
       <r>     4.4179    13.5072   284.7438 </r>
       <r>     4.4855    13.5672   285.6611 </r>
       <r>     4.5532    13.2683   286.5583 </r>
       <r>     4.6208    12.6496   287.4136 </r>
       <r>     4.6884    11.4887   288.1904 </r>
       <r>     4.7560    10.0901   288.8726 </r>
       <r>     4.8236     9.4692   289.5129 </r>
       <r>     4.8912    10.4731   290.2210 </r>
       <r>     4.9588    12.9291   291.0952 </r>
       <r>     5.0265    15.8366   292.1660 </r>
       <r>     5.0941    18.1248   293.3915 </r>
       <r>     5.1617    19.1216   294.6844 </r>
       <r>     5.2293    18.6310   295.9442 </r>
       <r>     5.2969    16.8476   297.0833 </r>
       <r>     5.3645    14.2560   298.0473 </r>
       <r>     5.4322    11.4826   298.8236 </r>
       <r>     5.4998     9.0797   299.4376 </r>
       <r>     5.5674     7.4640   299.9422 </r>
       <r>     5.6350     7.0008   300.4156 </r>
       <r>     5.7026     7.8770   300.9482 </r>
       <r>     5.7702     9.7676   301.6086 </r>
       <r>     5.8378    11.7786   302.4051 </r>
       <r>     5.9055    12.9616   303.2815 </r>
       <r>     5.9731    12.9552   304.1574 </r>
       <r>     6.0407    11.9813   304.9675 </r>
       <r>     6.1083    10.4298   305.6727 </r>
       <r>     6.1759     9.0068   306.2817 </r>
       <r>     6.2435     9.1892   306.9031 </r>
       <r>     6.3112    12.4839   307.7472 </r>
       <r>     6.3788    18.4273   308.9931 </r>
       <r>     6.4464    23.8592   310.6064 </r>
       <r>     6.5140    25.3270   312.3189 </r>
       <r>     6.5816    22.2843   313.8256 </r>
       <r>     6.6492    17.1845   314.9875 </r>
       <r>     6.7168    12.6912   315.8457 </r>
       <r>     6.7845     9.7600   316.5056 </r>
       <r>     6.8521     8.1801   317.0587 </r>
       <r>     6.9197     7.7121   317.5801 </r>
       <r>     6.9873     8.1512   318.1313 </r>
       <r>     7.0549     8.7669   318.7240 </r>
       <r>     7.1225     8.4025   319.2922 </r>
       <r>     7.1901     6.4724   319.7298 </r>
       <r>     7.2578     3.6440   319.9762 </r>
       <r>     7.3254     1.2151   320.0584 </r>
       <r>     7.3930    -0.0665   320.0539 </r>
       <r>     7.4606    -0.3740   320.0286 </r>
       <r>     7.5282    -0.2629   320.0108 </r>
       <r>     7.5958    -0.1142   320.0031 </r>
       <r>     7.6635    -0.0355   320.0007 </r>
       <r>     7.7311    -0.0083   320.0001 </r>
       <r>     7.7987    -0.0015   320.0000 </r>
       <r>     7.8663    -0.0002   320.0000 </r>
       <r>     7.9339    -0.0000   320.0000 </r>
       <r>     8.0015    -0.0000   320.0000 </r>
       <r>     8.0691    -0.0000   320.0000 </r>
       <r>     8.1368    -0.0000   320.0000 </r>
       <r>     8.2044    -0.0000   320.0000 </r>
       <r>     8.2720    -0.0000   320.0000 </r>
       <r>     8.3396    -0.0000   320.0000 </r>
       <r>     8.4072    -0.0000   320.0000 </r>
       <r>     8.4748     0.0000   320.0000 </r>
       <r>     8.5424     0.0000   320.0000 </r>
       <r>     8.6101     0.0000   320.0000 </r>
       <r>     8.6777     0.0000   320.0000 </r>
       <r>     8.7453     0.0000   320.0000 </r>
       <r>     8.8129     0.0000   320.0000 </r>
       <r>     8.8805     0.0000   320.0000 </r>
       <r>     8.9481     0.0000   320.0000 </r>
       <r>     9.0158     0.0000   320.0000 </r>
       <r>     9.0834     0.0000   320.0000 </r>
       <r>     9.1510     0.0000   320.0000 </r>
      </set>
     </set>
    </array>
   </total>
  </dos>
 </calculation>
 <structure name="finalpos" >
  <crystal>
   <varray name="basis" >
    <v>      10.89000034       0.00000000       0.00000000 </v>
    <v>       0.00000000       7.70039320       0.00000000 </v>
    <v>       0.00000000       0.00000000      20.13359500 </v>
   </varray>
   <i name="volume">   1688.34860574 </i>
   <varray name="rec_basis" >
    <v>       0.09182736       0.00000000       0.00000000 </v>
    <v>       0.00000000       0.12986350       0.00000000 </v>
    <v>       0.00000000       0.00000000       0.04966823 </v>
   </varray>
  </crystal>
  <varray name="positions" >
   <v>       0.00000000       0.00000000       0.00000000 </v>
   <v>       0.00000000       0.33333333       0.00000000 </v>
   <v>       0.00000000       0.66666667       0.00000000 </v>
   <v>       0.33333333       0.00000000       0.00000000 </v>
   <v>       0.33333333       0.33333333       0.00000000 </v>
   <v>       0.33333333       0.66666667       0.00000000 </v>
   <v>       0.66666667       0.00000000       0.00000000 </v>
   <v>       0.66666667       0.33333333       0.00000000 </v>
   <v>       0.66666667       0.66666667       0.00000000 </v>
   <v>       0.16666667       0.16666667       0.06374415 </v>
   <v>       0.16666667       0.50000000       0.06374415 </v>
   <v>       0.16666667       0.83333333       0.06374415 </v>
   <v>       0.50000000       0.16666667       0.06374415 </v>
   <v>       0.50000000       0.50000000       0.06374415 </v>
   <v>       0.50000000       0.83333333       0.06374415 </v>
   <v>       0.83333333       0.16666667       0.06374415 </v>
   <v>       0.83333333       0.50000000       0.06374415 </v>
   <v>       0.83333333       0.83333333       0.06374415 </v>
   <v>       0.00000000       0.00000000       0.12491177 </v>
   <v>      -0.00000000       0.33333333       0.12491177 </v>
   <v>      -0.00000000       0.66666667       0.12491177 </v>
   <v>       0.33333333       0.00000000       0.12491177 </v>
   <v>       0.33333333       0.33333333       0.12491177 </v>
   <v>       0.33333333       0.66666667       0.12491177 </v>
   <v>       0.66666667       0.00000000       0.12491177 </v>
   <v>       0.66666667       0.33333333       0.12491177 </v>
   <v>       0.66666667       0.66666667       0.12491177 </v>
   <v>       0.16666667       0.16666667       0.19081286 </v>
   <v>       0.16666667       0.50000000       0.19081286 </v>
   <v>       0.16666667       0.83333333       0.19081286 </v>
   <v>       0.50000000       0.16666667       0.19081286 </v>
   <v>       0.50000000       0.50000000       0.19081286 </v>
   <v>       0.50000000       0.83333333       0.19081286 </v>
   <v>       0.83333333       0.16666667       0.19081286 </v>
   <v>       0.83333333       0.50000000       0.19081286 </v>
   <v>       0.83333333       0.83333333       0.19081286 </v>
   <v>      -0.00000000       0.00000000       0.24728100 </v>
   <v>       0.00000000       0.33333333       0.24728100 </v>
   <v>       0.00000000       0.66666667       0.24728100 </v>
   <v>       0.33333333       0.00000000       0.24728100 </v>
   <v>       0.33333333       0.33333333       0.24728100 </v>
   <v>       0.33333333       0.66666667       0.24728100 </v>
   <v>       0.66666667       0.00000000       0.24728100 </v>
   <v>       0.66666667       0.33333333       0.24728100 </v>
   <v>       0.66666667       0.66666667       0.24728100 </v>
  </varray>
  <varray name="selective"  type="logical" >
   <v type="logical" >  F  F  F </v>
   <v type="logical" >  F  F  F </v>
   <v type="logical" >  F  F  F </v>
   <v type="logical" >  F  F  F </v>
   <v type="logical" >  F  F  F </v>
   <v type="logical" >  F  F  F </v>
   <v type="logical" >  F  F  F </v>
   <v type="logical" >  F  F  F </v>
   <v type="logical" >  F  F  F </v>
   <v type="logical" >  F  F  F </v>
   <v type="logical" >  F  F  F </v>
   <v type="logical" >  F  F  F </v>
   <v type="logical" >  F  F  F </v>
   <v type="logical" >  F  F  F </v>
   <v type="logical" >  F  F  F </v>
   <v type="logical" >  F  F  F </v>
   <v type="logical" >  F  F  F </v>
   <v type="logical" >  F  F  F </v>
   <v type="logical" >  T  T  T </v>
   <v type="logical" >  T  T  T </v>
   <v type="logical" >  T  T  T </v>
   <v type="logical" >  T  T  T </v>
   <v type="logical" >  T  T  T </v>
   <v type="logical" >  T  T  T </v>
   <v type="logical" >  T  T  T </v>
   <v type="logical" >  T  T  T </v>
   <v type="logical" >  T  T  T </v>
   <v type="logical" >  T  T  T </v>
   <v type="logical" >  T  T  T </v>
   <v type="logical" >  T  T  T </v>
   <v type="logical" >  T  T  T </v>
   <v type="logical" >  T  T  T </v>
   <v type="logical" >  T  T  T </v>
   <v type="logical" >  T  T  T </v>
   <v type="logical" >  T  T  T </v>
   <v type="logical" >  T  T  T </v>
   <v type="logical" >  T  T  T </v>
   <v type="logical" >  T  T  T </v>
   <v type="logical" >  T  T  T </v>
   <v type="logical" >  T  T  T </v>
   <v type="logical" >  T  T  T </v>
   <v type="logical" >  T  T  T </v>
   <v type="logical" >  T  T  T </v>
   <v type="logical" >  T  T  T </v>
   <v type="logical" >  T  T  T </v>
  </varray>
  <nose>
   <v>      -3.00000000       0.00000000       0.00010000       0.00010000 </v>
  </nose>
 </structure>
</modeling>
