unknown system                          
           1
    10.890000    0.000000    0.000000
     0.000000    7.700393    0.000000
     0.000000    0.000000   20.133595
   Cu
    45
Direct configuration=     1
   0.00000000  0.00000000  0.00000000
   0.00000000  0.33333333  0.00000000
   0.00000000  0.66666667  0.00000000
   0.33333333  0.00000000  0.00000000
   0.33333333  0.33333333  0.00000000
   0.33333333  0.66666667  0.00000000
   0.66666667  0.00000000  0.00000000
   0.66666667  0.33333333  0.00000000
   0.66666667  0.66666667  0.00000000
   0.16666667  0.16666667  0.06374415
   0.16666667  0.50000000  0.06374415
   0.16666667  0.83333333  0.06374415
   0.50000000  0.16666667  0.06374415
   0.50000000  0.50000000  0.06374415
   0.50000000  0.83333333  0.06374415
   0.83333333  0.16666667  0.06374415
   0.83333333  0.50000000  0.06374415
   0.83333333  0.83333333  0.06374415
   0.00000000  0.00000000  0.12748829
   0.00000000  0.33333333  0.12748829
   0.00000000  0.66666667  0.12748829
   0.33333333  0.00000000  0.12748829
   0.33333333  0.33333333  0.12748829
   0.33333333  0.66666667  0.12748829
   0.66666667  0.00000000  0.12748829
   0.66666667  0.33333333  0.12748829
   0.66666667  0.66666667  0.12748829
   0.16666667  0.16666667  0.19123244
   0.16666667  0.50000000  0.19123244
   0.16666667  0.83333333  0.19123244
   0.50000000  0.16666667  0.19123244
   0.50000000  0.50000000  0.19123244
   0.50000000  0.83333333  0.19123244
   0.83333333  0.16666667  0.19123244
   0.83333333  0.50000000  0.19123244
   0.83333333  0.83333333  0.19123244
   0.00000000  0.00000000  0.25497659
   0.00000000  0.33333333  0.25497659
   0.00000000  0.66666667  0.25497659
   0.33333333  0.00000000  0.25497659
   0.33333333  0.33333333  0.25497659
   0.33333333  0.66666667  0.25497659
   0.66666667  0.00000000  0.25497659
   0.66666667  0.33333333  0.25497659
   0.66666667  0.66666667  0.25497659
Direct configuration=     2
   0.00000000  0.00000000  0.00000000
   0.00000000  0.33333333  0.00000000
   0.00000000  0.66666667  0.00000000
   0.33333333  0.00000000  0.00000000
   0.33333333  0.33333333  0.00000000
   0.33333333  0.66666667  0.00000000
   0.66666667  0.00000000  0.00000000
   0.66666667  0.33333333  0.00000000
   0.66666667  0.66666667  0.00000000
   0.16666667  0.16666667  0.06374415
   0.16666667  0.50000000  0.06374415
   0.16666667  0.83333333  0.06374415
   0.50000000  0.16666667  0.06374415
   0.50000000  0.50000000  0.06374415
   0.50000000  0.83333333  0.06374415
   0.83333333  0.16666667  0.06374415
   0.83333333  0.50000000  0.06374415
   0.83333333  0.83333333  0.06374415
   0.00000000 -0.00000000  0.12749029
  -0.00000000  0.33333333  0.12749029
  -0.00000000  0.66666667  0.12749029
   0.33333333 -0.00000000  0.12749029
   0.33333333  0.33333333  0.12749029
   0.33333333  0.66666667  0.12749029
   0.66666667 -0.00000000  0.12749029
   0.66666667  0.33333333  0.12749029
   0.66666667  0.66666667  0.12749029
   0.16666667  0.16666667  0.19191100
   0.16666667  0.50000000  0.19191100
   0.16666667  0.83333333  0.19191100
   0.50000000  0.16666667  0.19191100
   0.50000000  0.50000000  0.19191100
   0.50000000  0.83333333  0.19191100
   0.83333333  0.16666667  0.19191100
   0.83333333  0.50000000  0.19191100
   0.83333333  0.83333333  0.19191100
   0.00000000 -0.00000000  0.25367556
  -0.00000000  0.33333333  0.25367556
   0.00000000  0.66666667  0.25367556
   0.33333333 -0.00000000  0.25367556
   0.33333333  0.33333333  0.25367556
   0.33333333  0.66666667  0.25367556
   0.66666667 -0.00000000  0.25367556
   0.66666667  0.33333333  0.25367556
   0.66666667  0.66666667  0.25367556
Direct configuration=     3
   0.00000000  0.00000000  0.00000000
   0.00000000  0.33333333  0.00000000
   0.00000000  0.66666667  0.00000000
   0.33333333  0.00000000  0.00000000
   0.33333333  0.33333333  0.00000000
   0.33333333  0.66666667  0.00000000
   0.66666667  0.00000000  0.00000000
   0.66666667  0.33333333  0.00000000
   0.66666667  0.66666667  0.00000000
   0.16666667  0.16666667  0.06374415
   0.16666667  0.50000000  0.06374415
   0.16666667  0.83333333  0.06374415
   0.50000000  0.16666667  0.06374415
   0.50000000  0.50000000  0.06374415
   0.50000000  0.83333333  0.06374415
   0.83333333  0.16666667  0.06374415
   0.83333333  0.50000000  0.06374415
   0.83333333  0.83333333  0.06374415
   0.00000000 -0.00000000  0.12749592
  -0.00000000  0.33333333  0.12749592
  -0.00000000  0.66666667  0.12749592
   0.33333333 -0.00000000  0.12749592
   0.33333333  0.33333333  0.12749592
   0.33333333  0.66666667  0.12749592
   0.66666667 -0.00000000  0.12749592
   0.66666667  0.33333333  0.12749592
   0.66666667  0.66666667  0.12749592
   0.16666667  0.16666667  0.19382430
   0.16666667  0.50000000  0.19382430
   0.16666667  0.83333333  0.19382430
   0.50000000  0.16666667  0.19382430
   0.50000000  0.50000000  0.19382430
   0.50000000  0.83333333  0.19382430
   0.83333333  0.16666667  0.19382430
   0.83333333  0.50000000  0.19382430
   0.83333333  0.83333333  0.19382430
   0.00000000 -0.00000000  0.25000709
  -0.00000000  0.33333333  0.25000709
   0.00000000  0.66666667  0.25000709
   0.33333333 -0.00000000  0.25000709
   0.33333333  0.33333333  0.25000709
   0.33333333  0.66666667  0.25000709
   0.66666667 -0.00000000  0.25000709
   0.66666667  0.33333333  0.25000709
   0.66666667  0.66666667  0.25000709
Direct configuration=     4
   0.00000000  0.00000000  0.00000000
   0.00000000  0.33333333  0.00000000
   0.00000000  0.66666667  0.00000000
   0.33333333  0.00000000  0.00000000
   0.33333333  0.33333333  0.00000000
   0.33333333  0.66666667  0.00000000
   0.66666667  0.00000000  0.00000000
   0.66666667  0.33333333  0.00000000
   0.66666667  0.66666667  0.00000000
   0.16666667  0.16666667  0.06374415
   0.16666667  0.50000000  0.06374415
   0.16666667  0.83333333  0.06374415
   0.50000000  0.16666667  0.06374415
   0.50000000  0.50000000  0.06374415
   0.50000000  0.83333333  0.06374415
   0.83333333  0.16666667  0.06374415
   0.83333333  0.50000000  0.06374415
   0.83333333  0.83333333  0.06374415
   0.00000000 -0.00000000  0.12749530
  -0.00000000  0.33333333  0.12749530
  -0.00000000  0.66666667  0.12749530
   0.33333333 -0.00000000  0.12749530
   0.33333333  0.33333333  0.12749530
   0.33333333  0.66666667  0.12749530
   0.66666667 -0.00000000  0.12749530
   0.66666667  0.33333333  0.12749530
   0.66666667  0.66666667  0.12749530
   0.16666667  0.16666667  0.19361321
   0.16666667  0.50000000  0.19361321
   0.16666667  0.83333333  0.19361321
   0.50000000  0.16666667  0.19361321
   0.50000000  0.50000000  0.19361321
   0.50000000  0.83333333  0.19361321
   0.83333333  0.16666667  0.19361321
   0.83333333  0.50000000  0.19361321
   0.83333333  0.83333333  0.19361321
   0.00000000 -0.00000000  0.25041184
  -0.00000000  0.33333333  0.25041184
   0.00000000  0.66666667  0.25041184
   0.33333333 -0.00000000  0.25041184
   0.33333333  0.33333333  0.25041184
   0.33333333  0.66666667  0.25041184
   0.66666667 -0.00000000  0.25041184
   0.66666667  0.33333333  0.25041184
   0.66666667  0.66666667  0.25041184
Direct configuration=     5
   0.00000000  0.00000000  0.00000000
   0.00000000  0.33333333  0.00000000
   0.00000000  0.66666667  0.00000000
   0.33333333  0.00000000  0.00000000
   0.33333333  0.33333333  0.00000000
   0.33333333  0.66666667  0.00000000
   0.66666667  0.00000000  0.00000000
   0.66666667  0.33333333  0.00000000
   0.66666667  0.66666667  0.00000000
   0.16666667  0.16666667  0.06374415
   0.16666667  0.50000000  0.06374415
   0.16666667  0.83333333  0.06374415
   0.50000000  0.16666667  0.06374415
   0.50000000  0.50000000  0.06374415
   0.50000000  0.83333333  0.06374415
   0.83333333  0.16666667  0.06374415
   0.83333333  0.50000000  0.06374415
   0.83333333  0.83333333  0.06374415
   0.00000000 -0.00000000  0.12749548
  -0.00000000  0.33333333  0.12749548
  -0.00000000  0.66666667  0.12749548
   0.33333333 -0.00000000  0.12749548
   0.33333333  0.33333333  0.12749548
   0.33333333  0.66666667  0.12749548
   0.66666667 -0.00000000  0.12749548
   0.66666667  0.33333333  0.12749548
   0.66666667  0.66666667  0.12749548
   0.16666667  0.16666667  0.19367377
   0.16666667  0.50000000  0.19367377
   0.16666667  0.83333333  0.19367377
   0.50000000  0.16666667  0.19367377
   0.50000000  0.50000000  0.19367377
   0.50000000  0.83333333  0.19367377
   0.83333333  0.16666667  0.19367377
   0.83333333  0.50000000  0.19367377
   0.83333333  0.83333333  0.19367377
   0.00000000 -0.00000000  0.25029572
  -0.00000000  0.33333333  0.25029572
   0.00000000  0.66666667  0.25029572
   0.33333333 -0.00000000  0.25029572
   0.33333333  0.33333333  0.25029572
   0.33333333  0.66666667  0.25029572
   0.66666667 -0.00000000  0.25029572
   0.66666667  0.33333333  0.25029572
   0.66666667  0.66666667  0.25029572
Direct configuration=     6
   0.00000000  0.00000000  0.00000000
   0.00000000  0.33333333  0.00000000
   0.00000000  0.66666667  0.00000000
   0.33333333  0.00000000  0.00000000
   0.33333333  0.33333333  0.00000000
   0.33333333  0.66666667  0.00000000
   0.66666667  0.00000000  0.00000000
   0.66666667  0.33333333  0.00000000
   0.66666667  0.66666667  0.00000000
   0.16666667  0.16666667  0.06374415
   0.16666667  0.50000000  0.06374415
   0.16666667  0.83333333  0.06374415
   0.50000000  0.16666667  0.06374415
   0.50000000  0.50000000  0.06374415
   0.50000000  0.83333333  0.06374415
   0.83333333  0.16666667  0.06374415
   0.83333333  0.50000000  0.06374415
   0.83333333  0.83333333  0.06374415
   0.00000000 -0.00000000  0.12749540
  -0.00000000  0.33333333  0.12749540
  -0.00000000  0.66666667  0.12749540
   0.33333333 -0.00000000  0.12749540
   0.33333333  0.33333333  0.12749540
   0.33333333  0.66666667  0.12749540
   0.66666667 -0.00000000  0.12749540
   0.66666667  0.33333333  0.12749540
   0.66666667  0.66666667  0.12749540
   0.16666667  0.16666667  0.19364850
   0.16666667  0.50000000  0.19364850
   0.16666667  0.83333333  0.19364850
   0.50000000  0.16666667  0.19364850
   0.50000000  0.50000000  0.19364850
   0.50000000  0.83333333  0.19364850
   0.83333333  0.16666667  0.19364850
   0.83333333  0.50000000  0.19364850
   0.83333333  0.83333333  0.19364850
   0.00000000 -0.00000000  0.25034416
  -0.00000000  0.33333333  0.25034416
   0.00000000  0.66666667  0.25034416
   0.33333333 -0.00000000  0.25034416
   0.33333333  0.33333333  0.25034416
   0.33333333  0.66666667  0.25034416
   0.66666667 -0.00000000  0.25034416
   0.66666667  0.33333333  0.25034416
   0.66666667  0.66666667  0.25034416
Direct configuration=     7
   0.00000000  0.00000000  0.00000000
   0.00000000  0.33333333  0.00000000
   0.00000000  0.66666667  0.00000000
   0.33333333  0.00000000  0.00000000
   0.33333333  0.33333333  0.00000000
   0.33333333  0.66666667  0.00000000
   0.66666667  0.00000000  0.00000000
   0.66666667  0.33333333  0.00000000
   0.66666667  0.66666667  0.00000000
   0.16666667  0.16666667  0.06374415
   0.16666667  0.50000000  0.06374415
   0.16666667  0.83333333  0.06374415
   0.50000000  0.16666667  0.06374415
   0.50000000  0.50000000  0.06374415
   0.50000000  0.83333333  0.06374415
   0.83333333  0.16666667  0.06374415
   0.83333333  0.50000000  0.06374415
   0.83333333  0.83333333  0.06374415
   0.00000000  0.00000000  0.12699458
  -0.00000000  0.33333333  0.12699458
  -0.00000000  0.66666667  0.12699458
   0.33333333  0.00000000  0.12699458
   0.33333333  0.33333333  0.12699458
   0.33333333  0.66666667  0.12699458
   0.66666667  0.00000000  0.12699458
   0.66666667  0.33333333  0.12699458
   0.66666667  0.66666667  0.12699458
   0.16666667  0.16666667  0.19331531
   0.16666667  0.50000000  0.19331531
   0.16666667  0.83333333  0.19331531
   0.50000000  0.16666667  0.19331531
   0.50000000  0.50000000  0.19331531
   0.50000000  0.83333333  0.19331531
   0.83333333  0.16666667  0.19331531
   0.83333333  0.50000000  0.19331531
   0.83333333  0.83333333  0.19331531
  -0.00000000  0.00000000  0.24991783
  -0.00000000  0.33333333  0.24991783
   0.00000000  0.66666667  0.24991783
   0.33333333  0.00000000  0.24991783
   0.33333333  0.33333333  0.24991783
   0.33333333  0.66666667  0.24991783
   0.66666667  0.00000000  0.24991783
   0.66666667  0.33333333  0.24991783
   0.66666667  0.66666667  0.24991783
Direct configuration=     8
   0.00000000  0.00000000  0.00000000
   0.00000000  0.33333333  0.00000000
   0.00000000  0.66666667  0.00000000
   0.33333333  0.00000000  0.00000000
   0.33333333  0.33333333  0.00000000
   0.33333333  0.66666667  0.00000000
   0.66666667  0.00000000  0.00000000
   0.66666667  0.33333333  0.00000000
   0.66666667  0.66666667  0.00000000
   0.16666667  0.16666667  0.06374415
   0.16666667  0.50000000  0.06374415
   0.16666667  0.83333333  0.06374415
   0.50000000  0.16666667  0.06374415
   0.50000000  0.50000000  0.06374415
   0.50000000  0.83333333  0.06374415
   0.83333333  0.16666667  0.06374415
   0.83333333  0.50000000  0.06374415
   0.83333333  0.83333333  0.06374415
   0.00000000  0.00000000  0.12549212
  -0.00000000  0.33333333  0.12549212
  -0.00000000  0.66666667  0.12549212
   0.33333333  0.00000000  0.12549212
   0.33333333  0.33333333  0.12549212
   0.33333333  0.66666667  0.12549212
   0.66666667  0.00000000  0.12549212
   0.66666667  0.33333333  0.12549212
   0.66666667  0.66666667  0.12549212
   0.16666667  0.16666667  0.19231572
   0.16666667  0.50000000  0.19231572
   0.16666667  0.83333333  0.19231572
   0.50000000  0.16666667  0.19231572
   0.50000000  0.50000000  0.19231572
   0.50000000  0.83333333  0.19231572
   0.83333333  0.16666667  0.19231572
   0.83333333  0.50000000  0.19231572
   0.83333333  0.83333333  0.19231572
  -0.00000000  0.00000000  0.24863884
   0.00000000  0.33333333  0.24863884
   0.00000000  0.66666667  0.24863884
   0.33333333  0.00000000  0.24863884
   0.33333333  0.33333333  0.24863884
   0.33333333  0.66666667  0.24863884
   0.66666667  0.00000000  0.24863884
   0.66666667  0.33333333  0.24863884
   0.66666667  0.66666667  0.24863884
Direct configuration=     9
   0.00000000  0.00000000  0.00000000
   0.00000000  0.33333333  0.00000000
   0.00000000  0.66666667  0.00000000
   0.33333333  0.00000000  0.00000000
   0.33333333  0.33333333  0.00000000
   0.33333333  0.66666667  0.00000000
   0.66666667  0.00000000  0.00000000
   0.66666667  0.33333333  0.00000000
   0.66666667  0.66666667  0.00000000
   0.16666667  0.16666667  0.06374415
   0.16666667  0.50000000  0.06374415
   0.16666667  0.83333333  0.06374415
   0.50000000  0.16666667  0.06374415
   0.50000000  0.50000000  0.06374415
   0.50000000  0.83333333  0.06374415
   0.83333333  0.16666667  0.06374415
   0.83333333  0.50000000  0.06374415
   0.83333333  0.83333333  0.06374415
   0.00000000  0.00000000  0.12248718
  -0.00000000  0.33333333  0.12248718
  -0.00000000  0.66666667  0.12248718
   0.33333333  0.00000000  0.12248718
   0.33333333  0.33333333  0.12248718
   0.33333333  0.66666667  0.12248718
   0.66666667  0.00000000  0.12248718
   0.66666667  0.33333333  0.12248718
   0.66666667  0.66666667  0.12248718
   0.16666667  0.16666667  0.19031653
   0.16666667  0.50000000  0.19031653
   0.16666667  0.83333333  0.19031653
   0.50000000  0.16666667  0.19031653
   0.50000000  0.50000000  0.19031653
   0.50000000  0.83333333  0.19031653
   0.83333333  0.16666667  0.19031653
   0.83333333  0.50000000  0.19031653
   0.83333333  0.83333333  0.19031653
  -0.00000000  0.00000000  0.24608085
   0.00000000  0.33333333  0.24608085
   0.00000000  0.66666667  0.24608085
   0.33333333  0.00000000  0.24608085
   0.33333333  0.33333333  0.24608085
   0.33333333  0.66666667  0.24608085
   0.66666667  0.00000000  0.24608085
   0.66666667  0.33333333  0.24608085
   0.66666667  0.66666667  0.24608085
Direct configuration=    10
   0.00000000  0.00000000  0.00000000
   0.00000000  0.33333333  0.00000000
   0.00000000  0.66666667  0.00000000
   0.33333333  0.00000000  0.00000000
   0.33333333  0.33333333  0.00000000
   0.33333333  0.66666667  0.00000000
   0.66666667  0.00000000  0.00000000
   0.66666667  0.33333333  0.00000000
   0.66666667  0.66666667  0.00000000
   0.16666667  0.16666667  0.06374415
   0.16666667  0.50000000  0.06374415
   0.16666667  0.83333333  0.06374415
   0.50000000  0.16666667  0.06374415
   0.50000000  0.50000000  0.06374415
   0.50000000  0.83333333  0.06374415
   0.83333333  0.16666667  0.06374415
   0.83333333  0.50000000  0.06374415
   0.83333333  0.83333333  0.06374415
   0.00000000  0.00000000  0.12474649
  -0.00000000  0.33333333  0.12474649
  -0.00000000  0.66666667  0.12474649
   0.33333333  0.00000000  0.12474649
   0.33333333  0.33333333  0.12474649
   0.33333333  0.66666667  0.12474649
   0.66666667  0.00000000  0.12474649
   0.66666667  0.33333333  0.12474649
   0.66666667  0.66666667  0.12474649
   0.16666667  0.16666667  0.19181965
   0.16666667  0.50000000  0.19181965
   0.16666667  0.83333333  0.19181965
   0.50000000  0.16666667  0.19181965
   0.50000000  0.50000000  0.19181965
   0.50000000  0.83333333  0.19181965
   0.83333333  0.16666667  0.19181965
   0.83333333  0.50000000  0.19181965
   0.83333333  0.83333333  0.19181965
  -0.00000000  0.00000000  0.24800411
   0.00000000  0.33333333  0.24800411
   0.00000000  0.66666667  0.24800411
   0.33333333  0.00000000  0.24800411
   0.33333333  0.33333333  0.24800411
   0.33333333  0.66666667  0.24800411
   0.66666667  0.00000000  0.24800411
   0.66666667  0.33333333  0.24800411
   0.66666667  0.66666667  0.24800411
Direct configuration=    11
   0.00000000  0.00000000  0.00000000
   0.00000000  0.33333333  0.00000000
   0.00000000  0.66666667  0.00000000
   0.33333333  0.00000000  0.00000000
   0.33333333  0.33333333  0.00000000
   0.33333333  0.66666667  0.00000000
   0.66666667  0.00000000  0.00000000
   0.66666667  0.33333333  0.00000000
   0.66666667  0.66666667  0.00000000
   0.16666667  0.16666667  0.06374415
   0.16666667  0.50000000  0.06374415
   0.16666667  0.83333333  0.06374415
   0.50000000  0.16666667  0.06374415
   0.50000000  0.50000000  0.06374415
   0.50000000  0.83333333  0.06374415
   0.83333333  0.16666667  0.06374415
   0.83333333  0.50000000  0.06374415
   0.83333333  0.83333333  0.06374415
   0.00000000  0.00000000  0.12491177
  -0.00000000  0.33333333  0.12491177
  -0.00000000  0.66666667  0.12491177
   0.33333333  0.00000000  0.12491177
   0.33333333  0.33333333  0.12491177
   0.33333333  0.66666667  0.12491177
   0.66666667  0.00000000  0.12491177
   0.66666667  0.33333333  0.12491177
   0.66666667  0.66666667  0.12491177
   0.16666667  0.16666667  0.19081286
   0.16666667  0.50000000  0.19081286
   0.16666667  0.83333333  0.19081286
   0.50000000  0.16666667  0.19081286
   0.50000000  0.50000000  0.19081286
   0.50000000  0.83333333  0.19081286
   0.83333333  0.16666667  0.19081286
   0.83333333  0.50000000  0.19081286
   0.83333333  0.83333333  0.19081286
  -0.00000000  0.00000000  0.24728100
   0.00000000  0.33333333  0.24728100
   0.00000000  0.66666667  0.24728100
   0.33333333  0.00000000  0.24728100
   0.33333333  0.33333333  0.24728100
   0.33333333  0.66666667  0.24728100
   0.66666667  0.00000000  0.24728100
   0.66666667  0.33333333  0.24728100
   0.66666667  0.66666667  0.24728100
