       N       E                     dE             d eps       ncg     rms          rms(c)
DAV:   1     0.155326825382E+05    0.15533E+05   -0.56102E+05 20488   0.190E+03
DAV:   2     0.226016901047E+04   -0.13273E+05   -0.12702E+05 20480   0.452E+02
DAV:   3    -0.387562792218E+03   -0.26477E+04   -0.23959E+04 20520   0.233E+02
DAV:   4    -0.608530476731E+03   -0.22097E+03   -0.20987E+03 22272   0.946E+01
DAV:   5    -0.614469975628E+03   -0.59395E+01   -0.59065E+01 22584   0.157E+01    0.112E+02
DAV:   6    -0.500372558678E+03    0.11410E+03   -0.13825E+03 22328   0.122E+02    0.556E+01
DAV:   7    -0.441150626963E+03    0.59222E+02   -0.31607E+02 22384   0.780E+01    0.294E+01
DAV:   8    -0.442287605354E+03   -0.11370E+01   -0.96472E+01 23656   0.986E+01    0.328E+01
DAV:   9    -0.434386646956E+03    0.79010E+01   -0.31160E+01 26680   0.709E+01    0.273E+01
DAV:  10    -0.429776267608E+03    0.46104E+01   -0.23640E+01 30184   0.506E+01    0.231E+01
DAV:  11    -0.432794106555E+03   -0.30178E+01   -0.11071E+01 33768   0.398E+01    0.209E+01
DAV:  12    -0.442815201438E+03   -0.10021E+02   -0.41424E+01 22912   0.367E+01    0.195E+01
DAV:  13    -0.446001384768E+03   -0.31862E+01   -0.11484E+01 23944   0.213E+01    0.151E+01
DAV:  14    -0.456400291867E+03   -0.10399E+02   -0.17937E+01 23048   0.239E+01    0.833E+00
DAV:  15    -0.467827032257E+03   -0.11427E+02   -0.12426E+01 25104   0.275E+01    0.747E+00
DAV:  16    -0.489067497424E+03   -0.21240E+02   -0.19504E+01 26648   0.130E+01    0.500E+00
DAV:  17    -0.495352841298E+03   -0.62853E+01   -0.55208E+00 22760   0.617E+00    0.352E+00
DAV:  18    -0.498594506145E+03   -0.32417E+01   -0.16434E+00 23104   0.463E+00    0.286E+00
DAV:  19    -0.505383375970E+03   -0.67889E+01   -0.36758E+00 27048   0.422E+00    0.257E+00
DAV:  20    -0.510325283889E+03   -0.49419E+01   -0.25678E+00 21632   0.279E+00    0.214E+00
DAV:  21    -0.513204254738E+03   -0.28790E+01   -0.14221E+00 28856   0.320E+00    0.186E+00
DAV:  22    -0.515336328274E+03   -0.21321E+01   -0.96833E-01 24808   0.315E+00    0.146E+00
DAV:  23    -0.516858791481E+03   -0.15225E+01   -0.37391E-01 24192   0.324E+00    0.124E+00
DAV:  24    -0.518195793027E+03   -0.13370E+01   -0.38220E-01 26992   0.190E+00    0.949E-01
DAV:  25    -0.519274121067E+03   -0.10783E+01   -0.13300E-01 22848   0.209E+00    0.677E-01
DAV:  26    -0.519924666277E+03   -0.65055E+00   -0.43370E-02 24976   0.123E+00    0.533E-01
DAV:  27    -0.520628915382E+03   -0.70425E+00   -0.28528E-02 22072   0.994E-01    0.343E-01
DAV:  28    -0.521410387157E+03   -0.78147E+00   -0.18575E-02 23936   0.801E-01    0.320E-01
DAV:  29    -0.521527959361E+03   -0.11757E+00   -0.68835E-03 23376   0.551E-01    0.185E-01
DAV:  30    -0.521557523111E+03   -0.29564E-01   -0.44253E-03 24536   0.348E-01    0.942E-02
DAV:  31    -0.521573818602E+03   -0.16295E-01   -0.13834E-03 23136   0.190E-01    0.557E-02
DAV:  32    -0.521575544607E+03   -0.17260E-02   -0.33860E-04 14456   0.102E-01    0.394E-02
DAV:  33    -0.521576021999E+03   -0.47739E-03   -0.23854E-04 14104   0.808E-02    0.227E-02
DAV:  34    -0.521576053477E+03   -0.31477E-04   -0.10413E-04 13616   0.519E-02
   1 F= -.58188558E+03 E0= -.58192303E+03  d E =-.581886E+03  mag=    -0.0000
       N       E                     dE             d eps       ncg     rms          rms(c)
DAV:   1    -0.521566039552E+03    0.99824E-02   -0.24159E+01 22000   0.488E+00    0.800E-01
DAV:   2    -0.521618252882E+03   -0.52213E-01   -0.61538E-01 29368   0.185E+00    0.714E-01
DAV:   3    -0.521617781771E+03    0.47111E-03   -0.39122E-02 24176   0.205E+00    0.555E-01
DAV:   4    -0.521625960148E+03   -0.81784E-02   -0.20781E-02 24224   0.319E+00    0.598E-01
DAV:   5    -0.521613863123E+03    0.12097E-01   -0.17285E-02 33624   0.265E+00    0.201E-01
DAV:   6    -0.521613528297E+03    0.33483E-03   -0.74142E-03 36936   0.129E+00    0.184E-01
DAV:   7    -0.521612733313E+03    0.79498E-03   -0.41183E-03 28960   0.771E-01    0.570E-02
DAV:   8    -0.521612917146E+03   -0.18383E-03   -0.28610E-03 22216   0.250E-01    0.462E-02
DAV:   9    -0.521612988018E+03   -0.70872E-04   -0.90211E-04 19744   0.113E-01
   2 F= -.58193827E+03 E0= -.58197534E+03  d E =-.526895E-01  mag=     0.0002
       N       E                     dE             d eps       ncg     rms          rms(c)
DAV:   1    -0.521627936229E+03   -0.15019E-01   -0.27228E+00 21576   0.165E+00    0.225E-01
DAV:   2    -0.521634818654E+03   -0.68824E-02   -0.75705E-02 29352   0.522E-01    0.227E-01
DAV:   3    -0.521634665016E+03    0.15364E-03   -0.38923E-03 23736   0.357E-01    0.170E-01
DAV:   4    -0.521634610107E+03    0.54909E-04   -0.96545E-04 21400   0.444E-01
   3 F= -.58194856E+03 E0= -.58198598E+03  d E =-.629804E-01  mag=     0.0002
       N       E                     dE             d eps       ncg     rms          rms(c)
DAV:   1    -0.521653047839E+03   -0.18383E-01   -0.26033E+01 22424   0.524E+00    0.383E-01
DAV:   2    -0.521728825872E+03   -0.75778E-01   -0.45294E-01 38128   0.436E+00    0.875E-01
DAV:   3    -0.521699038990E+03    0.29787E-01   -0.12960E-01 30640   0.433E+00    0.412E-01
DAV:   4    -0.521701434056E+03   -0.23951E-02   -0.45476E-02 22568   0.829E-01    0.288E-01
DAV:   5    -0.521702047360E+03   -0.61330E-03   -0.12809E-02 22144   0.565E-01    0.300E-01
DAV:   6    -0.521701473907E+03    0.57345E-03   -0.65407E-03 22784   0.583E-01    0.199E-01
DAV:   7    -0.521701107658E+03    0.36625E-03   -0.43958E-03 33888   0.518E-01    0.145E-01
DAV:   8    -0.521700794384E+03    0.31327E-03   -0.49966E-04 15632   0.314E-01    0.131E-01
DAV:   9    -0.521700558701E+03    0.23568E-03   -0.13264E-03 21056   0.258E-01    0.271E-02
DAV:  10    -0.521700578959E+03   -0.20258E-04   -0.28130E-04 12352   0.699E-02
   4 F= -.58200762E+03 E0= -.58204433E+03  d E =-.590577E-01  mag=     0.0001
       N       E                     dE             d eps       ncg     rms          rms(c)
DAV:   1    -0.521671222674E+03    0.29336E-01   -0.33995E+01 22384   0.591E+00    0.422E-01
DAV:   2    -0.521738900980E+03   -0.67678E-01   -0.69818E-01 30824   0.196E+00    0.581E-01
DAV:   3    -0.521737689721E+03    0.12113E-02   -0.28614E-02 22840   0.142E+00    0.381E-01
DAV:   4    -0.521737707364E+03   -0.17643E-04   -0.62705E-03 23248   0.119E+00    0.356E-01
DAV:   5    -0.521736367387E+03    0.13400E-02   -0.30183E-03 29888   0.886E-01    0.305E-01
DAV:   6    -0.521735417434E+03    0.94995E-03   -0.45838E-03 36920   0.880E-01    0.200E-01
DAV:   7    -0.521734463727E+03    0.95371E-03   -0.28300E-03 27424   0.739E-01    0.826E-02
DAV:   8    -0.521734469058E+03   -0.53303E-05   -0.18061E-03 22320   0.261E-01
   5 F= -.58203446E+03 E0= -.58207061E+03  d E =-.858974E-01  mag=     0.0001
       N       E                     dE             d eps       ncg     rms          rms(c)
DAV:   1    -0.521744678019E+03   -0.10214E-01   -0.50807E+00 21832   0.227E+00    0.224E-01
DAV:   2    -0.521755869104E+03   -0.11191E-01   -0.11541E-01 30000   0.823E-01    0.273E-01
DAV:   3    -0.521755817012E+03    0.52093E-04   -0.66125E-03 23984   0.841E-01    0.211E-01
DAV:   4    -0.521755553069E+03    0.26394E-03   -0.16251E-03 23120   0.617E-01    0.176E-01
DAV:   5    -0.521755242836E+03    0.31023E-03   -0.10115E-03 20048   0.494E-01    0.130E-01
DAV:   6    -0.521754992447E+03    0.25039E-03   -0.15423E-03 24720   0.346E-01    0.459E-02
DAV:   7    -0.521755015786E+03   -0.23339E-04   -0.63895E-04 16704   0.168E-01
   6 F= -.58205037E+03 E0= -.58208673E+03  d E =-.159047E-01  mag=     0.0001
       N       E                     dE             d eps       ncg     rms          rms(c)
DAV:   1    -0.521755952855E+03   -0.96041E-03   -0.15467E-01 22080   0.404E-01    0.440E-02
DAV:   2    -0.521756332956E+03   -0.38010E-03   -0.35731E-03 29208   0.195E-01    0.510E-02
DAV:   3    -0.521756339376E+03   -0.64195E-05   -0.37346E-04 14184   0.264E-01
   7 F= -.58205102E+03 E0= -.58208735E+03  d E =-.165576E-01  mag=     0.0000
       N       E                     dE             d eps       ncg     rms          rms(c)
DAV:   1    -0.521764496585E+03   -0.81636E-02   -0.18451E+00 22072   0.138E+00    0.107E-01
DAV:   2    -0.521768142266E+03   -0.36457E-02   -0.37232E-02 29664   0.446E-01    0.139E-01
DAV:   3    -0.521768135053E+03    0.72130E-05   -0.19052E-03 22608   0.393E-01
   8 F= -.58206181E+03 E0= -.58209839E+03  d E =-.107907E-01  mag=     0.0000
       N       E                     dE             d eps       ncg     rms          rms(c)
DAV:   1    -0.521758550891E+03    0.95914E-02   -0.16160E+01 22024   0.406E+00    0.356E-01
DAV:   2    -0.521789148347E+03   -0.30597E-01   -0.32590E-01 29544   0.112E+00    0.403E-01
DAV:   3    -0.521788645633E+03    0.50271E-03   -0.10931E-02 22712   0.655E-01    0.327E-01
DAV:   4    -0.521788765909E+03   -0.12028E-03   -0.20788E-03 22720   0.844E-01    0.295E-01
DAV:   5    -0.521788834718E+03   -0.68810E-04   -0.15606E-03 20560   0.128E+00
   9 F= -.58207999E+03 E0= -.58211653E+03  d E =-.289698E-01  mag=     0.0000
       N       E                     dE             d eps       ncg     rms          rms(c)
DAV:   1    -0.521791828681E+03   -0.30628E-02   -0.13150E+00 29224   0.152E+00    0.149E-01
DAV:   2    -0.521795905159E+03   -0.40765E-02   -0.16935E-02 36464   0.133E+00    0.246E-01
DAV:   3    -0.521793382578E+03    0.25226E-02   -0.35606E-03 23816   0.130E+00    0.127E-01
DAV:   4    -0.521793160756E+03    0.22182E-03   -0.22321E-03 24656   0.462E-01    0.629E-02
DAV:   5    -0.521793265920E+03   -0.10516E-03   -0.16469E-03 20928   0.155E-01
  10 F= -.58208474E+03 E0= -.58212163E+03  d E =-.475485E-02  mag=     0.0000
       N       E                     dE             d eps       ncg     rms          rms(c)
DAV:   1    -0.521786354562E+03    0.68062E-02   -0.11704E+01 21216   0.347E+00    0.296E-01
DAV:   2    -0.521809988066E+03   -0.23634E-01   -0.24447E-01 29216   0.100E+00    0.348E-01
DAV:   3    -0.521810160477E+03   -0.17241E-03   -0.10441E-02 23248   0.104E+00    0.292E-01
DAV:   4    -0.521809581633E+03    0.57884E-03   -0.19678E-03 23304   0.844E-01    0.247E-01
DAV:   5    -0.521809064119E+03    0.51751E-03   -0.87779E-04 17904   0.646E-01    0.190E-01
DAV:   6    -0.521808590853E+03    0.47327E-03   -0.35119E-03 34840   0.662E-01    0.112E-01
DAV:   7    -0.521808403346E+03    0.18751E-03   -0.13551E-03 23504   0.352E-01
  11 F= -.58210097E+03 E0= -.58213777E+03  d E =-.209786E-01  mag=     0.0000
       N       E                     dE             d eps       ncg     rms          rms(c)
DAV:   1    -0.521723251190E+03    0.85340E-01   -0.46945E+01 21224   0.696E+00    0.591E-01
DAV:   2    -0.521820772071E+03   -0.97521E-01   -0.10103E+00 29064   0.195E+00    0.681E-01
DAV:   3    -0.521821070296E+03   -0.29822E-03   -0.33859E-02 23504   0.196E+00    0.566E-01
DAV:   4    -0.521819182212E+03    0.18881E-02   -0.64820E-03 24576   0.181E+00    0.491E-01
DAV:   5    -0.521816276995E+03    0.29052E-02   -0.51619E-03 36800   0.121E+00    0.359E-01
DAV:   6    -0.521814081014E+03    0.21960E-02   -0.11005E-02 35496   0.835E-01    0.155E-01
DAV:   7    -0.521814118912E+03   -0.37898E-04   -0.33185E-03 23888   0.399E-01    0.115E-01
DAV:   8    -0.521814067680E+03    0.51232E-04   -0.21691E-03 21816   0.366E-01    0.663E-02
DAV:   9    -0.521814028920E+03    0.38759E-04   -0.44028E-04 14016   0.153E-01
  12 F= -.58210933E+03 E0= -.58214624E+03  d E =-.293380E-01  mag=     0.0000
       N       E                     dE             d eps       ncg     rms          rms(c)
DAV:   1    -0.521808235769E+03    0.58319E-02   -0.42234E+00 21144   0.208E+00    0.178E-01
DAV:   2    -0.521816365622E+03   -0.81299E-02   -0.85618E-02 28920   0.566E-01    0.204E-01
DAV:   3    -0.521816315799E+03    0.49823E-04   -0.31706E-03 23240   0.478E-01    0.168E-01
DAV:   4    -0.521816307033E+03    0.87661E-05   -0.74129E-04 19248   0.527E-01
  13 F= -.58211070E+03 E0= -.58214777E+03  d E =-.307115E-01  mag=     0.0000
       N       E                     dE             d eps       ncg     rms          rms(c)
DAV:   1    -0.521814622300E+03    0.16935E-02   -0.54257E-01 25792   0.881E-01    0.106E-01
DAV:   2    -0.521817496683E+03   -0.28744E-02   -0.84786E-03 34104   0.114E+00    0.202E-01
DAV:   3    -0.521815675445E+03    0.18212E-02   -0.20114E-03 24064   0.116E+00    0.109E-01
DAV:   4    -0.521815369743E+03    0.30570E-03   -0.60885E-04 17840   0.454E-01    0.348E-02
DAV:   5    -0.521815415856E+03   -0.46113E-04   -0.86386E-04 18480   0.172E-01
  14 F= -.58211013E+03 E0= -.58214700E+03  d E =-.301380E-01  mag=     0.0000
       N       E                     dE             d eps       ncg     rms          rms(c)
DAV:   1    -0.521805401655E+03    0.99681E-02   -0.47533E+00 20640   0.216E+00    0.276E-01
DAV:   2    -0.521816644822E+03   -0.11243E-01   -0.12314E-01 28608   0.589E-01    0.274E-01
DAV:   3    -0.521816379728E+03    0.26509E-03   -0.43415E-03 23712   0.468E-01    0.222E-01
DAV:   4    -0.521817117514E+03   -0.73779E-03   -0.15186E-03 23408   0.911E-01    0.225E-01
DAV:   5    -0.521816294026E+03    0.82349E-03   -0.60489E-04 17008   0.100E+00    0.148E-01
DAV:   6    -0.521815662595E+03    0.63143E-03   -0.69556E-04 16480   0.545E-01    0.653E-02
DAV:   7    -0.521815615796E+03    0.46798E-04   -0.45577E-04 15984   0.235E-01
  15 F= -.58211944E+03 E0= -.58215636E+03  d E =-.930988E-02  mag=     0.0000
       N       E                     dE             d eps       ncg     rms          rms(c)
DAV:   1    -0.521813885803E+03    0.17768E-02   -0.22675E-01 20784   0.493E-01    0.624E-02
DAV:   2    -0.521814495909E+03   -0.61011E-03   -0.64127E-03 28560   0.130E-01    0.559E-02
DAV:   3    -0.521814494241E+03    0.16687E-05   -0.26146E-04 13328   0.118E-01
  16 F= -.58212036E+03 E0= -.58215739E+03  d E =-.102345E-01  mag=     0.0000
       N       E                     dE             d eps       ncg     rms          rms(c)
DAV:   1    -0.521809692531E+03    0.48034E-02   -0.18000E+00 20656   0.131E+00    0.190E-01
DAV:   2    -0.521813845311E+03   -0.41528E-02   -0.40647E-02 33440   0.605E-01    0.197E-01
DAV:   3    -0.521813844755E+03    0.55617E-06   -0.38475E-03 23152   0.856E-01    0.184E-01
DAV:   4    -0.521813439056E+03    0.40570E-03   -0.11121E-03 21496   0.491E-01    0.118E-01
DAV:   5    -0.521813646579E+03   -0.20752E-03   -0.10435E-03 21840   0.516E-01    0.117E-01
DAV:   6    -0.521813381741E+03    0.26484E-03   -0.95342E-04 20712   0.411E-01    0.450E-02
DAV:   7    -0.521813390270E+03   -0.85294E-05   -0.47085E-04 15200   0.135E-01
  17 F= -.58212912E+03 E0= -.58216626E+03  d E =-.875438E-02  mag=     0.0000
       N       E                     dE             d eps       ncg     rms          rms(c)
DAV:   1    -0.521794861869E+03    0.18520E-01   -0.39618E+00 20624   0.193E+00    0.253E-01
DAV:   2    -0.521804059044E+03   -0.91972E-02   -0.98556E-02 29248   0.571E-01    0.244E-01
DAV:   3    -0.521804064779E+03   -0.57358E-05   -0.39949E-03 22744   0.564E-01    0.200E-01
DAV:   4    -0.521804419319E+03   -0.35454E-03   -0.98435E-04 20776   0.831E-01    0.188E-01
DAV:   5    -0.521804015132E+03    0.40419E-03   -0.50995E-04 15664   0.836E-01    0.140E-01
DAV:   6    -0.521803631458E+03    0.38367E-03   -0.49186E-04 16416   0.549E-01    0.760E-02
DAV:   7    -0.521803519804E+03    0.11165E-03   -0.72115E-04 19040   0.271E-01
  18 F= -.58213446E+03 E0= -.58217178E+03  d E =-.141028E-01  mag=     0.0000
       N       E                     dE             d eps       ncg     rms          rms(c)
DAV:   1    -0.521797505060E+03    0.61264E-02   -0.11398E+00 20608   0.101E+00    0.135E-01
DAV:   2    -0.521800307563E+03   -0.28025E-02   -0.29744E-02 28536   0.275E-01    0.126E-01
DAV:   3    -0.521800330511E+03   -0.22948E-04   -0.11341E-03 22096   0.302E-01
  19 F= -.58214008E+03 E0= -.58217733E+03  d E =-.561459E-02  mag=     0.0000
       N       E                     dE             d eps       ncg     rms          rms(c)
DAV:   1    -0.521766219419E+03    0.34088E-01   -0.10265E+01 20624   0.303E+00    0.471E-01
DAV:   2    -0.521793408905E+03   -0.27189E-01   -0.22955E-01 34720   0.205E+00    0.536E-01
DAV:   3    -0.521788939288E+03    0.44696E-02   -0.24432E-02 28408   0.235E+00    0.430E-01
DAV:   4    -0.521787033348E+03    0.19059E-02   -0.89098E-03 23472   0.972E-01    0.280E-01
DAV:   5    -0.521788311285E+03   -0.12779E-02   -0.87687E-03 24400   0.109E+00    0.270E-01
DAV:   6    -0.521787324836E+03    0.98645E-03   -0.66106E-03 23824   0.105E+00    0.121E-01
DAV:   7    -0.521787204735E+03    0.12010E-03   -0.34757E-03 23912   0.461E-01    0.653E-02
DAV:   8    -0.521787308198E+03   -0.10346E-03   -0.15946E-03 20384   0.126E-01
  20 F= -.58215380E+03 E0= -.58219144E+03  d E =-.193314E-01  mag=     0.0000
       N       E                     dE             d eps       ncg     rms          rms(c)
DAV:   1    -0.521660823314E+03    0.12638E+00   -0.41333E+01 20592   0.603E+00    0.863E-01
DAV:   2    -0.521755938644E+03   -0.95115E-01   -0.10165E+00 29000   0.237E+00    0.861E-01
DAV:   3    -0.521756902986E+03   -0.96434E-03   -0.47160E-02 22912   0.270E+00    0.697E-01
DAV:   4    -0.521754597446E+03    0.23055E-02   -0.12211E-02 24224   0.274E+00    0.592E-01
DAV:   5    -0.521751726629E+03    0.28708E-02   -0.78112E-03 29704   0.226E+00    0.431E-01
DAV:   6    -0.521749670566E+03    0.20561E-02   -0.12590E-02 33040   0.184E+00    0.258E-01
DAV:   7    -0.521748390644E+03    0.12799E-02   -0.84945E-03 25928   0.962E-01    0.823E-02
DAV:   8    -0.521748738070E+03   -0.34743E-03   -0.49757E-03 21680   0.203E-01    0.555E-02
DAV:   9    -0.521748763905E+03   -0.25835E-04   -0.83728E-04 19152   0.121E-01
  21 F= -.58216991E+03 E0= -.58220805E+03  d E =-.354482E-01  mag=     0.0000
       N       E                     dE             d eps       ncg     rms          rms(c)
DAV:   1    -0.521739243987E+03    0.94941E-02   -0.51580E+00 20816   0.222E+00    0.306E-01
DAV:   2    -0.521750842598E+03   -0.11599E-01   -0.12781E-01 29024   0.722E-01    0.292E-01
DAV:   3    -0.521750938609E+03   -0.96011E-04   -0.69379E-03 23296   0.795E-01    0.246E-01
DAV:   4    -0.521751150669E+03   -0.21206E-03   -0.17794E-03 24496   0.995E-01    0.207E-01
DAV:   5    -0.521750836997E+03    0.31367E-03   -0.46885E-04 16976   0.101E+00    0.160E-01
DAV:   6    -0.521750156924E+03    0.68007E-03   -0.84397E-04 19640   0.691E-01    0.781E-02
DAV:   7    -0.521750051042E+03    0.10588E-03   -0.11623E-03 24040   0.296E-01
  22 F= -.58218377E+03 E0= -.58222207E+03  d E =-.138556E-01  mag=     0.0000
       N       E                     dE             d eps       ncg     rms          rms(c)
DAV:   1    -0.521750074850E+03    0.82074E-04   -0.80597E-04 19144   0.716E-02    0.288E-02
DAV:   2    -0.521750130110E+03   -0.55260E-04   -0.11938E-04 13120   0.211E-01
  23 F= -.58218388E+03 E0= -.58222227E+03  d E =-.139680E-01  mag=     0.0000
       N       E                     dE             d eps       ncg     rms          rms(c)
DAV:   1    -0.521736579225E+03    0.13496E-01   -0.60426E+00 21200   0.247E+00    0.262E-01
DAV:   2    -0.521748570921E+03   -0.11992E-01   -0.12681E-01 29480   0.739E-01    0.248E-01
DAV:   3    -0.521749449152E+03   -0.87823E-03   -0.80789E-03 23056   0.104E+00    0.263E-01
DAV:   4    -0.521748529536E+03    0.91962E-03   -0.16487E-03 22800   0.868E-01    0.161E-01
DAV:   5    -0.521748478596E+03    0.50940E-04   -0.35000E-04 14888   0.579E-01
  24 F= -.58219375E+03 E0= -.58223160E+03  d E =-.987176E-02  mag=     0.0000
       N       E                     dE             d eps       ncg     rms          rms(c)
DAV:   1    -0.521748854397E+03   -0.32486E-03   -0.20778E-02 37056   0.582E-01    0.907E-02
DAV:   2    -0.521749831675E+03   -0.97728E-03   -0.19124E-03 24328   0.915E-01    0.180E-01
DAV:   3    -0.521748951751E+03    0.87992E-03   -0.65023E-04 18400   0.811E-01    0.750E-02
DAV:   4    -0.521748705359E+03    0.24639E-03   -0.27130E-04 13376   0.343E-01    0.264E-02
DAV:   5    -0.521748721238E+03   -0.15879E-04   -0.30650E-04 13744   0.109E-01
  25 F= -.58219330E+03 E0= -.58223155E+03  d E =-.941878E-02  mag=     0.0000
       N       E                     dE             d eps       ncg     rms          rms(c)
DAV:   1    -0.521748350094E+03    0.35526E-03   -0.10358E-02 28608   0.128E-01    0.207E-02
DAV:   2    -0.521748365170E+03   -0.15075E-04   -0.15982E-04 13136   0.112E-01
  26 F= -.58219344E+03 E0= -.58223169E+03  d E =-.955737E-02  mag=     0.0000
       N       E                     dE             d eps       ncg     rms          rms(c)
DAV:   1    -0.521748246471E+03    0.10362E-03   -0.14387E-04 12880   0.102E-01    0.155E-02
DAV:   2    -0.521748338064E+03   -0.91593E-04   -0.11312E-04 13136   0.219E-01
  27 F= -.58219351E+03 E0= -.58223183E+03  d E =-.962567E-02  mag=     0.0000
       N       E                     dE             d eps       ncg     rms          rms(c)
DAV:   1    -0.521748343596E+03   -0.97125E-04   -0.46026E-05 13000   0.193E-01    0.957E-03
DAV:   2    -0.521748390276E+03   -0.46679E-04   -0.74226E-06 12800   0.148E-01
  28 F= -.58219348E+03 E0= -.58223190E+03  d E =-.960347E-02  mag=     0.0000
       N       E                     dE             d eps       ncg     rms          rms(c)
DAV:   1    -0.521748294080E+03    0.49516E-04   -0.18100E-05 12656   0.135E-01    0.750E-03
DAV:   2    -0.521748319470E+03   -0.25389E-04   -0.20515E-05 12792   0.118E-01
  29 F= -.58219346E+03 E0= -.58223174E+03  d E =-.957887E-02  mag=     0.0000
       N       E                     dE             d eps       ncg     rms          rms(c)
DAV:   1    -0.521748332809E+03   -0.38729E-04   -0.12437E-05 12368   0.105E-01    0.659E-03
DAV:   2    -0.521748365792E+03   -0.32982E-04   -0.13040E-05 12760   0.129E-01
  30 F= -.58219347E+03 E0= -.58223186E+03  d E =-.959277E-02  mag=     0.0000
       N       E                     dE             d eps       ncg     rms          rms(c)
DAV:   1    -0.521748190115E+03    0.14269E-03   -0.29134E-01 20952   0.545E-01    0.617E-02
DAV:   2    -0.521748780063E+03   -0.58995E-03   -0.62279E-03 28704   0.169E-01    0.600E-02
DAV:   3    -0.521748796956E+03   -0.16893E-04   -0.37729E-04 13792   0.208E-01
  31 F= -.58219536E+03 E0= -.58223366E+03  d E =-.188911E-02  mag=     0.0000
       N       E                     dE             d eps       ncg     rms          rms(c)
DAV:   1    -0.521743528664E+03    0.52514E-02   -0.26234E+00 20848   0.161E+00    0.209E-01
DAV:   2    -0.521748654496E+03   -0.51258E-02   -0.52779E-02 30400   0.588E-01    0.203E-01
DAV:   3    -0.521749100802E+03   -0.44631E-03   -0.49670E-03 22400   0.939E-01    0.208E-01
DAV:   4    -0.521748333689E+03    0.76711E-03   -0.10437E-03 21824   0.617E-01    0.114E-01
DAV:   5    -0.521748478219E+03   -0.14453E-03   -0.91793E-04 21576   0.467E-01
  32 F= -.58219944E+03 E0= -.58223755E+03  d E =-.596623E-02  mag=     0.0000
       N       E                     dE             d eps       ncg     rms          rms(c)
DAV:   1    -0.521718160631E+03    0.30173E-01   -0.10477E+01 20864   0.325E+00    0.360E-01
DAV:   2    -0.521740766186E+03   -0.22606E-01   -0.23739E-01 28560   0.966E-01    0.333E-01
DAV:   3    -0.521741301987E+03   -0.53580E-03   -0.10716E-02 23224   0.106E+00    0.305E-01
DAV:   4    -0.521740994320E+03    0.30767E-03   -0.19498E-03 23056   0.112E+00    0.237E-01
DAV:   5    -0.521740969725E+03    0.24595E-04   -0.94190E-04 21912   0.111E+00
  33 F= -.58220080E+03 E0= -.58223855E+03  d E =-.732984E-02  mag=     0.0000
       N       E                     dE             d eps       ncg     rms          rms(c)
DAV:   1    -0.521736316077E+03    0.46782E-02   -0.55473E+00 20928   0.244E+00    0.271E-01
DAV:   2    -0.521747483192E+03   -0.11167E-01   -0.11941E-01 30000   0.808E-01    0.263E-01
DAV:   3    -0.521748000806E+03   -0.51761E-03   -0.93362E-03 22768   0.970E-01    0.266E-01
DAV:   4    -0.521747438720E+03    0.56209E-03   -0.28895E-03 22552   0.833E-01    0.182E-01
DAV:   5    -0.521747506737E+03   -0.68017E-04   -0.11853E-03 23552   0.706E-01
  34 F= -.58220085E+03 E0= -.58223918E+03  d E =-.737908E-02  mag=     0.0000
       N       E                     dE             d eps       ncg     rms          rms(c)
DAV:   1    -0.521741692911E+03    0.57458E-02   -0.13967E+00 23136   0.135E+00    0.155E-01
DAV:   2    -0.521745620994E+03   -0.39281E-02   -0.27576E-02 36816   0.107E+00    0.213E-01
DAV:   3    -0.521744585378E+03    0.10356E-02   -0.34715E-03 24800   0.117E+00    0.171E-01
DAV:   4    -0.521744051462E+03    0.53392E-03   -0.13985E-03 21352   0.522E-01    0.939E-02
DAV:   5    -0.521744107158E+03   -0.55696E-04   -0.12651E-03 20896   0.286E-01
  35 F= -.58220069E+03 E0= -.58223901E+03  d E =-.721766E-02  mag=     0.0000
       N       E                     dE             d eps       ncg     rms          rms(c)
DAV:   1    -0.521744292220E+03   -0.24076E-03   -0.64111E-02 28824   0.362E-01    0.557E-02
DAV:   2    -0.521744450348E+03   -0.15813E-03   -0.11114E-03 21592   0.348E-01
  36 F= -.58220153E+03 E0= -.58223982E+03  d E =-.835601E-03  mag=     0.0000
       N       E                     dE             d eps       ncg     rms          rms(c)
DAV:   1    -0.521743632049E+03    0.66017E-03   -0.43008E-01 22288   0.704E-01    0.119E-01
DAV:   2    -0.521745623591E+03   -0.19915E-02   -0.89540E-03 34080   0.815E-01    0.175E-01
DAV:   3    -0.521744402504E+03    0.12211E-02   -0.13044E-03 24728   0.788E-01    0.935E-02
DAV:   4    -0.521744388190E+03    0.14314E-04   -0.10163E-03 21048   0.206E-01
  37 F= -.58220278E+03 E0= -.58224147E+03  d E =-.209225E-02  mag=     0.0000
       N       E                     dE             d eps       ncg     rms          rms(c)
DAV:   1    -0.521738347702E+03    0.60548E-02   -0.17109E+00 20704   0.126E+00    0.201E-01
DAV:   2    -0.521741998269E+03   -0.36506E-02   -0.39694E-02 30192   0.500E-01    0.185E-01
DAV:   3    -0.521742138914E+03   -0.14064E-03   -0.29079E-03 22800   0.680E-01    0.165E-01
DAV:   4    -0.521742103413E+03    0.35501E-04   -0.79537E-04 21472   0.706E-01
  38 F= -.58220326E+03 E0= -.58224201E+03  d E =-.256811E-02  mag=     0.0000
       N       E                     dE             d eps       ncg     rms          rms(c)
DAV:   1    -0.521742962140E+03   -0.82323E-03   -0.41320E-01 27984   0.894E-01    0.871E-02
DAV:   2    -0.521747115628E+03   -0.41535E-02   -0.77470E-03 35168   0.134E+00    0.248E-01
DAV:   3    -0.521743670138E+03    0.34455E-02   -0.58352E-04 18832   0.120E+00    0.907E-02
DAV:   4    -0.521743493175E+03    0.17696E-03   -0.52721E-04 17216   0.320E-01
  39 F= -.58220328E+03 E0= -.58224195E+03  d E =-.258868E-02  mag=     0.0000
       N       E                     dE             d eps       ncg     rms          rms(c)
DAV:   1    -0.521743995669E+03   -0.32553E-03   -0.94093E-02 20808   0.310E-01    0.344E-02
DAV:   2    -0.521744211160E+03   -0.21549E-03   -0.13877E-03 19496   0.223E-01    0.521E-02
DAV:   3    -0.521744180160E+03    0.31000E-04   -0.53855E-04 16368   0.254E-01
  40 F= -.58220447E+03 E0= -.58224306E+03  d E =-.118714E-02  mag=     0.0000
       N       E                     dE             d eps       ncg     rms          rms(c)
DAV:   1    -0.521744212310E+03   -0.11505E-05   -0.83134E-01 20640   0.880E-01    0.127E-01
DAV:   2    -0.521745909036E+03   -0.16967E-02   -0.18816E-02 28256   0.239E-01    0.109E-01
DAV:   3    -0.521745874662E+03    0.34374E-04   -0.65955E-04 18512   0.200E-01
  41 F= -.58220764E+03 E0= -.58224626E+03  d E =-.435805E-02  mag=     0.0000
       N       E                     dE             d eps       ncg     rms          rms(c)
DAV:   1    -0.521740783766E+03    0.51253E-02   -0.33127E+00 20640   0.181E+00    0.279E-01
DAV:   2    -0.521753358253E+03   -0.12574E-01   -0.59437E-02 37416   0.187E+00    0.400E-01
DAV:   3    -0.521746630214E+03    0.67280E-02   -0.97745E-03 34600   0.194E+00    0.230E-01
DAV:   4    -0.521746551299E+03    0.78914E-04   -0.58216E-03 23904   0.446E-01    0.145E-01
DAV:   5    -0.521746895403E+03   -0.34410E-03   -0.34468E-03 22656   0.580E-01    0.136E-01
DAV:   6    -0.521746697892E+03    0.19751E-03   -0.15856E-03 22400   0.537E-01
  42 F= -.58221139E+03 E0= -.58225029E+03  d E =-.811256E-02  mag=     0.0000
       N       E                     dE             d eps       ncg     rms          rms(c)
DAV:   1    -0.521713487157E+03    0.33408E-01   -0.13198E+01 20640   0.349E+00    0.481E-01
DAV:   2    -0.521741208614E+03   -0.27721E-01   -0.29887E-01 28616   0.114E+00    0.440E-01
DAV:   3    -0.521742554819E+03   -0.13462E-02   -0.14264E-02 22848   0.153E+00    0.386E-01
DAV:   4    -0.521741552057E+03    0.10028E-02   -0.26617E-03 23776   0.168E+00    0.298E-01
DAV:   5    -0.521739729740E+03    0.18223E-02   -0.15981E-03 27224   0.110E+00    0.152E-01
DAV:   6    -0.521739561111E+03    0.16863E-03   -0.37452E-03 32936   0.507E-01    0.652E-02
DAV:   7    -0.521739573139E+03   -0.12027E-04   -0.13907E-03 21536   0.257E-01
  43 F= -.58220999E+03 E0= -.58224859E+03  d E =-.670884E-02  mag=     0.0000
       N       E                     dE             d eps       ncg     rms          rms(c)
DAV:   1    -0.521735897806E+03    0.36633E-02   -0.54508E+00 20656   0.224E+00    0.309E-01
DAV:   2    -0.521746434963E+03   -0.10537E-01   -0.11559E-01 28440   0.712E-01    0.293E-01
DAV:   3    -0.521746898737E+03   -0.46377E-03   -0.61383E-03 22832   0.101E+00    0.258E-01
DAV:   4    -0.521746353877E+03    0.54486E-03   -0.10594E-03 22584   0.104E+00    0.192E-01
DAV:   5    -0.521745676562E+03    0.67731E-03   -0.51828E-04 16592   0.744E-01    0.993E-02
DAV:   6    -0.521745654786E+03    0.21777E-04   -0.12988E-03 25312   0.535E-01
