<?xml version="1.0" encoding="ISO-8859-1"?>
<modeling>
 <generator>
  <i name="program" type="string">vasp </i>
  <i name="version" type="string">6.3.2  </i>
  <i name="subversion" type="string">27Jun22 (build Aug 17 2022 15:43:34) complex                          parallel </i>
  <i name="platform" type="string">tv2STDVTST </i>
  <i name="date" type="string">2025 02 06 </i>
  <i name="time" type="string">11:48:44 </i>
 </generator>
 <incar>
  <i type="int" name="ISTART">     0</i>
  <i type="string" name="PREC">Normal</i>
  <i type="int" name="ISPIN">     2</i>
  <i type="int" name="ICHARG">     2</i>
  <i type="int" name="IBRION">     2</i>
  <i name="EDIFF">      0.00020000</i>
  <i name="EDIFFG">     -0.03000000</i>
  <i type="int" name="NSW">   800</i>
  <i type="int" name="ISIF">     2</i>
  <i type="int" name="ISYM">     1</i>
  <i name="ENCUT">    400.00000000</i>
  <i name="POTIM">      0.50000000</i>
  <i type="logical" name="LREAL"> F  </i>
  <i type="int" name="ISMEAR">     1</i>
  <i name="SIGMA">      0.20000000</i>
  <i type="logical" name="LWAVE"> F  </i>
  <i type="logical" name="LCHARG"> F  </i>
  <i type="string" name="GGA">PE</i>
  <i type="int" name="IVDW">    11</i>
 </incar>
 <primitive_cell>
  <structure name="primitive_cell" >
   <crystal>
    <varray name="basis" >
     <v>      10.89000034       0.00000000       0.00000000 </v>
     <v>       0.00000000      10.89000034       0.00000000 </v>
     <v>       0.00000000       0.00000000      27.70499992 </v>
    </varray>
    <i name="volume">   3285.59432860 </i>
    <varray name="rec_basis" >
     <v>       0.09182736       0.00000000       0.00000000 </v>
     <v>       0.00000000       0.09182736       0.00000000 </v>
     <v>       0.00000000       0.00000000       0.03609457 </v>
    </varray>
   </crystal>
   <varray name="positions" >
    <v>       0.00000000       0.00000000       0.00000000 </v>
    <v>       0.00000000       0.33333333       0.00000000 </v>
    <v>       0.00000000       0.66666667       0.00000000 </v>
    <v>       0.33333333       0.00000000       0.00000000 </v>
    <v>       0.33333333       0.33333333       0.00000000 </v>
    <v>       0.33333333       0.66666667       0.00000000 </v>
    <v>       0.66666667       0.00000000       0.00000000 </v>
    <v>       0.66666667       0.33333333       0.00000000 </v>
    <v>       0.66666667       0.66666667       0.00000000 </v>
    <v>       0.16666667       0.16666667       0.00000000 </v>
    <v>       0.16666667       0.50000000       0.00000000 </v>
    <v>       0.16666667       0.83333333       0.00000000 </v>
    <v>       0.50000000       0.16666667       0.00000000 </v>
    <v>       0.50000000       0.50000000       0.00000000 </v>
    <v>       0.50000000       0.83333333       0.00000000 </v>
    <v>       0.83333333       0.16666667       0.00000000 </v>
    <v>       0.83333333       0.50000000       0.00000000 </v>
    <v>       0.83333333       0.83333333       0.00000000 </v>
    <v>       0.00000000       0.16666667       0.06551164 </v>
    <v>       0.00000000       0.50000000       0.06551164 </v>
    <v>       0.00000000       0.83333333       0.06551164 </v>
    <v>       0.33333333       0.16666667       0.06551164 </v>
    <v>       0.33333333       0.50000000       0.06551164 </v>
    <v>       0.33333333       0.83333333       0.06551164 </v>
    <v>       0.66666667       0.16666667       0.06551164 </v>
    <v>       0.66666667       0.50000000       0.06551164 </v>
    <v>       0.66666667       0.83333333       0.06551164 </v>
    <v>       0.16666667       0.00000000       0.06551164 </v>
    <v>       0.16666667       0.33333333       0.06551164 </v>
    <v>       0.16666667       0.66666667       0.06551164 </v>
    <v>       0.50000000       0.00000000       0.06551164 </v>
    <v>       0.50000000       0.33333333       0.06551164 </v>
    <v>       0.50000000       0.66666667       0.06551164 </v>
    <v>       0.83333333       0.00000000       0.06551164 </v>
    <v>       0.83333333       0.33333333       0.06551164 </v>
    <v>       0.83333333       0.66666667       0.06551164 </v>
    <v>       0.00000000       0.00000000       0.13119553 </v>
    <v>       0.00000000       0.33333333       0.13119553 </v>
    <v>       0.00000000       0.66666667       0.13119553 </v>
    <v>       0.33333333       0.00000000       0.13119553 </v>
    <v>       0.33333333       0.33333333       0.13119553 </v>
    <v>       0.33333333       0.66666667       0.13119553 </v>
    <v>       0.66666667       0.00000000       0.13119553 </v>
    <v>       0.66666667       0.33333333       0.13119553 </v>
    <v>       0.66666667       0.66666667       0.13119553 </v>
    <v>       0.16666667       0.16666667       0.13119553 </v>
    <v>       0.16666667       0.50000000       0.13119553 </v>
    <v>       0.16666667       0.83333333       0.13119553 </v>
    <v>       0.50000000       0.16666667       0.13119553 </v>
    <v>       0.50000000       0.50000000       0.13119553 </v>
    <v>       0.50000000       0.83333333       0.13119553 </v>
    <v>       0.83333333       0.16666667       0.13119553 </v>
    <v>       0.83333333       0.50000000       0.13119553 </v>
    <v>       0.83333333       0.83333333       0.13119553 </v>
    <v>       0.00000000       0.16666667       0.19620680 </v>
    <v>       0.00000000       0.50000000       0.19620680 </v>
    <v>       0.00000000       0.83333333       0.19620680 </v>
    <v>       0.33333333       0.16666667       0.19620680 </v>
    <v>       0.33333333       0.50000000       0.19620680 </v>
    <v>       0.33333333       0.83333333       0.19620680 </v>
    <v>       0.66666667       0.16666667       0.19620680 </v>
    <v>       0.66666667       0.50000000       0.19620680 </v>
    <v>       0.66666667       0.83333333       0.19620680 </v>
    <v>       0.16666667       0.00000000       0.19620680 </v>
    <v>       0.16666667       0.33333333       0.19620680 </v>
    <v>       0.16666667       0.66666667       0.19620680 </v>
    <v>       0.50000000       0.00000000       0.19620680 </v>
    <v>       0.50000000       0.33333333       0.19620680 </v>
    <v>       0.50000000       0.66666667       0.19620680 </v>
    <v>       0.83333333       0.00000000       0.19620680 </v>
    <v>       0.83333333       0.33333333       0.19620680 </v>
    <v>       0.83333333       0.66666667       0.19620680 </v>
    <v>       0.00000000       0.00000000       0.25873860 </v>
    <v>       0.00000000       0.33333333       0.25873860 </v>
    <v>       0.00000000       0.66666667       0.25873860 </v>
    <v>       0.33333333       0.00000000       0.25873860 </v>
    <v>       0.33333333       0.33333333       0.25873860 </v>
    <v>       0.33333333       0.66666667       0.25873860 </v>
    <v>       0.66666667       0.00000000       0.25873860 </v>
    <v>       0.66666667       0.33333333       0.25873860 </v>
    <v>       0.66666667       0.66666667       0.25873860 </v>
    <v>       0.16666667       0.16666667       0.25873860 </v>
    <v>       0.16666667       0.50000000       0.25873860 </v>
    <v>       0.16666667       0.83333333       0.25873860 </v>
    <v>       0.50000000       0.16666667       0.25873860 </v>
    <v>       0.50000000       0.50000000       0.25873860 </v>
    <v>       0.50000000       0.83333333       0.25873860 </v>
    <v>       0.83333333       0.16666667       0.25873860 </v>
    <v>       0.83333333       0.50000000       0.25873860 </v>
    <v>       0.83333333       0.83333333       0.25873860 </v>
    <v>       0.00000000       0.16666667       0.32119954 </v>
    <v>       0.00000000       0.50000000       0.32119954 </v>
    <v>       0.00000000       0.83333333       0.32119954 </v>
    <v>       0.33333333       0.16666667       0.32119954 </v>
    <v>       0.33333333       0.50000000       0.32119954 </v>
    <v>       0.33333333       0.83333333       0.32119954 </v>
    <v>       0.66666667       0.16666667       0.32119954 </v>
    <v>       0.66666667       0.50000000       0.32119954 </v>
    <v>       0.66666667       0.83333333       0.32119954 </v>
    <v>       0.16666667       0.00000000       0.32119954 </v>
    <v>       0.16666667       0.33333333       0.32119954 </v>
    <v>       0.16666667       0.66666667       0.32119954 </v>
    <v>       0.50000000       0.00000000       0.32119954 </v>
    <v>       0.50000000       0.33333333       0.32119954 </v>
    <v>       0.50000000       0.66666667       0.32119954 </v>
    <v>       0.83333333       0.00000000       0.32119954 </v>
    <v>       0.83333333       0.33333333       0.32119954 </v>
    <v>       0.83333333       0.66666667       0.32119954 </v>
    <v>       0.00000000       0.00000000       0.38476372 </v>
    <v>       0.00000000       0.33333333       0.38476372 </v>
    <v>       0.00000000       0.66666667       0.38476372 </v>
    <v>       0.33333333       0.00000000       0.38476372 </v>
    <v>       0.33333333       0.33333333       0.38476372 </v>
    <v>       0.33333333       0.66666667       0.38476372 </v>
    <v>       0.66666667       0.00000000       0.38476372 </v>
    <v>       0.66666667       0.33333333       0.38476372 </v>
    <v>       0.66666667       0.66666667       0.38476372 </v>
    <v>       0.16666667       0.16666667       0.38476372 </v>
    <v>       0.16666667       0.50000000       0.38476372 </v>
    <v>       0.16666667       0.83333333       0.38476372 </v>
    <v>       0.50000000       0.16666667       0.38476372 </v>
    <v>       0.50000000       0.50000000       0.38476372 </v>
    <v>       0.50000000       0.83333333       0.38476372 </v>
    <v>       0.83333333       0.16666667       0.38476372 </v>
    <v>       0.83333333       0.50000000       0.38476372 </v>
    <v>       0.83333333       0.83333333       0.38476372 </v>
    <v>       0.00000000       0.16666667       0.44736473 </v>
    <v>       0.00000000       0.50000000       0.44736473 </v>
    <v>       0.00000000       0.83333333       0.44736473 </v>
    <v>       0.33333333       0.16666667       0.44736473 </v>
    <v>       0.33333333       0.50000000       0.44736473 </v>
    <v>       0.33333333       0.83333333       0.44736473 </v>
    <v>       0.66666667       0.16666667       0.44736473 </v>
    <v>       0.66666667       0.50000000       0.44736473 </v>
    <v>       0.66666667       0.83333333       0.44736473 </v>
    <v>       0.16666667       0.00000000       0.44736473 </v>
    <v>       0.16666667       0.33333333       0.44736473 </v>
    <v>       0.16666667       0.66666667       0.44736473 </v>
    <v>       0.50000000       0.00000000       0.44736473 </v>
    <v>       0.50000000       0.33333333       0.44736473 </v>
    <v>       0.50000000       0.66666667       0.44736473 </v>
    <v>       0.83333333       0.00000000       0.44736473 </v>
    <v>       0.83333333       0.33333333       0.44736473 </v>
    <v>       0.83333333       0.66666667       0.44736473 </v>
    <v>       0.25000000       0.41666667       0.50150658 </v>
    <v>       0.25000000       0.46510575       0.52054652 </v>
   </varray>
  </structure>
  <varray name="primitive_index" >
   <v type="int" >        1 </v>
   <v type="int" >        2 </v>
   <v type="int" >        3 </v>
   <v type="int" >        4 </v>
   <v type="int" >        5 </v>
   <v type="int" >        6 </v>
   <v type="int" >        7 </v>
   <v type="int" >        8 </v>
   <v type="int" >        9 </v>
   <v type="int" >       10 </v>
   <v type="int" >       11 </v>
   <v type="int" >       12 </v>
   <v type="int" >       13 </v>
   <v type="int" >       14 </v>
   <v type="int" >       15 </v>
   <v type="int" >       16 </v>
   <v type="int" >       17 </v>
   <v type="int" >       18 </v>
   <v type="int" >       19 </v>
   <v type="int" >       20 </v>
   <v type="int" >       21 </v>
   <v type="int" >       22 </v>
   <v type="int" >       23 </v>
   <v type="int" >       24 </v>
   <v type="int" >       25 </v>
   <v type="int" >       26 </v>
   <v type="int" >       27 </v>
   <v type="int" >       28 </v>
   <v type="int" >       29 </v>
   <v type="int" >       30 </v>
   <v type="int" >       31 </v>
   <v type="int" >       32 </v>
   <v type="int" >       33 </v>
   <v type="int" >       34 </v>
   <v type="int" >       35 </v>
   <v type="int" >       36 </v>
   <v type="int" >       37 </v>
   <v type="int" >       38 </v>
   <v type="int" >       39 </v>
   <v type="int" >       40 </v>
   <v type="int" >       41 </v>
   <v type="int" >       42 </v>
   <v type="int" >       43 </v>
   <v type="int" >       44 </v>
   <v type="int" >       45 </v>
   <v type="int" >       46 </v>
   <v type="int" >       47 </v>
   <v type="int" >       48 </v>
   <v type="int" >       49 </v>
   <v type="int" >       50 </v>
   <v type="int" >       51 </v>
   <v type="int" >       52 </v>
   <v type="int" >       53 </v>
   <v type="int" >       54 </v>
   <v type="int" >       55 </v>
   <v type="int" >       56 </v>
   <v type="int" >       57 </v>
   <v type="int" >       58 </v>
   <v type="int" >       59 </v>
   <v type="int" >       60 </v>
   <v type="int" >       61 </v>
   <v type="int" >       62 </v>
   <v type="int" >       63 </v>
   <v type="int" >       64 </v>
   <v type="int" >       65 </v>
   <v type="int" >       66 </v>
   <v type="int" >       67 </v>
   <v type="int" >       68 </v>
   <v type="int" >       69 </v>
   <v type="int" >       70 </v>
   <v type="int" >       71 </v>
   <v type="int" >       72 </v>
   <v type="int" >       73 </v>
   <v type="int" >       74 </v>
   <v type="int" >       75 </v>
   <v type="int" >       76 </v>
   <v type="int" >       77 </v>
   <v type="int" >       78 </v>
   <v type="int" >       79 </v>
   <v type="int" >       80 </v>
   <v type="int" >       81 </v>
   <v type="int" >       82 </v>
   <v type="int" >       83 </v>
   <v type="int" >       84 </v>
   <v type="int" >       85 </v>
   <v type="int" >       86 </v>
   <v type="int" >       87 </v>
   <v type="int" >       88 </v>
   <v type="int" >       89 </v>
   <v type="int" >       90 </v>
   <v type="int" >       91 </v>
   <v type="int" >       92 </v>
   <v type="int" >       93 </v>
   <v type="int" >       94 </v>
   <v type="int" >       95 </v>
   <v type="int" >       96 </v>
   <v type="int" >       97 </v>
   <v type="int" >       98 </v>
   <v type="int" >       99 </v>
   <v type="int" >      100 </v>
   <v type="int" >      101 </v>
   <v type="int" >      102 </v>
   <v type="int" >      103 </v>
   <v type="int" >      104 </v>
   <v type="int" >      105 </v>
   <v type="int" >      106 </v>
   <v type="int" >      107 </v>
   <v type="int" >      108 </v>
   <v type="int" >      109 </v>
   <v type="int" >      110 </v>
   <v type="int" >      111 </v>
   <v type="int" >      112 </v>
   <v type="int" >      113 </v>
   <v type="int" >      114 </v>
   <v type="int" >      115 </v>
   <v type="int" >      116 </v>
   <v type="int" >      117 </v>
   <v type="int" >      118 </v>
   <v type="int" >      119 </v>
   <v type="int" >      120 </v>
   <v type="int" >      121 </v>
   <v type="int" >      122 </v>
   <v type="int" >      123 </v>
   <v type="int" >      124 </v>
   <v type="int" >      125 </v>
   <v type="int" >      126 </v>
   <v type="int" >      127 </v>
   <v type="int" >      128 </v>
   <v type="int" >      129 </v>
   <v type="int" >      130 </v>
   <v type="int" >      131 </v>
   <v type="int" >      132 </v>
   <v type="int" >      133 </v>
   <v type="int" >      134 </v>
   <v type="int" >      135 </v>
   <v type="int" >      136 </v>
   <v type="int" >      137 </v>
   <v type="int" >      138 </v>
   <v type="int" >      139 </v>
   <v type="int" >      140 </v>
   <v type="int" >      141 </v>
   <v type="int" >      142 </v>
   <v type="int" >      143 </v>
   <v type="int" >      144 </v>
   <v type="int" >      145 </v>
   <v type="int" >      146 </v>
  </varray>
 </primitive_cell>
 <kpoints>
  <generation param="Monkhorst-Pack">
   <v type="int" name="divisions">       3        3        1 </v>
   <v name="usershift">      0.00000000       0.00000000       0.00000000 </v>
   <v name="genvec1">      0.33333333       0.00000000       0.00000000 </v>
   <v name="genvec2">      0.00000000       0.33333333       0.00000000 </v>
   <v name="genvec3">      0.00000000       0.00000000       1.00000000 </v>
   <v name="shift">      0.00000000       0.00000000       0.00000000 </v>
  </generation>
  <varray name="kpointlist" >
   <v>       0.00000000       0.00000000       0.00000000 </v>
   <v>       0.33333333       0.00000000       0.00000000 </v>
   <v>       0.00000000       0.33333333       0.00000000 </v>
   <v>       0.33333333       0.33333333       0.00000000 </v>
   <v>      -0.33333333       0.33333333       0.00000000 </v>
  </varray>
  <varray name="weights" >
   <v>       0.11111111 </v>
   <v>       0.22222222 </v>
   <v>       0.22222222 </v>
   <v>       0.22222222 </v>
   <v>       0.22222222 </v>
  </varray>
 </kpoints>
 <parameters>
  <separator name="general" >
   <i type="string" name="SYSTEM">unknown system</i>
   <i type="logical" name="LCOMPAT"> F  </i>
  </separator>
  <separator name="electronic" >
   <i type="string" name="PREC">normal</i>
   <i name="ENMAX">    400.00000000</i>
   <i name="ENAUG">    586.98000000</i>
   <i name="EDIFF">      0.00020000</i>
   <i type="int" name="IALGO">    38</i>
   <i type="int" name="IWAVPR">    11</i>
   <i type="int" name="NBANDS">  1024</i>
   <i type="int" name="NBANDSLOW">    -1</i>
   <i type="int" name="NBANDSHIGH">    -1</i>
   <i name="NELECT">   1586.00000000</i>
   <i type="int" name="TURBO">     0</i>
   <i type="int" name="IRESTART">     0</i>
   <i type="int" name="NREBOOT">     0</i>
   <i type="int" name="NMIN">     0</i>
   <i name="EREF">      0.00000000</i>
   <separator name="electronic smearing" >
    <i type="int" name="ISMEAR">     1</i>
    <i name="SIGMA">      0.20000000</i>
    <i name="KSPACING">      0.50000000</i>
    <i type="logical" name="KGAMMA"> T  </i>
    <i type="logical" name="KBLOWUP"> T  </i>
   </separator>
   <separator name="electronic projectors" >
    <i type="logical" name="LREAL"> F  </i>
    <v name="ROPT">      0.00000000      0.00000000</v>
    <i type="int" name="LMAXPAW">  -100</i>
    <i type="int" name="LMAXMIX">     2</i>
    <i type="logical" name="NLSPLINE"> F  </i>
   </separator>
   <separator name="electronic startup" >
    <i type="int" name="ISTART">     0</i>
    <i type="int" name="ICHARG">     2</i>
    <i type="int" name="INIWAV">     1</i>
   </separator>
   <separator name="electronic spin" >
    <i type="int" name="ISPIN">     2</i>
    <i type="logical" name="LNONCOLLINEAR"> F  </i>
    <v name="MAGMOM">      1.00000000      1.00000000      1.00000000      1.00000000      1.00000000      1.00000000      1.00000000      1.00000000      1.00000000      1.00000000      1.00000000      1.00000000      1.00000000      1.00000000      1.00000000      1.00000000      1.00000000      1.00000000      1.00000000      1.00000000
      1.00000000      1.00000000      1.00000000      1.00000000      1.00000000      1.00000000      1.00000000      1.00000000      1.00000000      1.00000000      1.00000000      1.00000000      1.00000000      1.00000000      1.00000000      1.00000000      1.00000000      1.00000000      1.00000000      1.00000000
      1.00000000      1.00000000      1.00000000      1.00000000      1.00000000      1.00000000      1.00000000      1.00000000      1.00000000      1.00000000      1.00000000      1.00000000      1.00000000      1.00000000      1.00000000      1.00000000      1.00000000      1.00000000      1.00000000      1.00000000
      1.00000000      1.00000000      1.00000000      1.00000000      1.00000000      1.00000000      1.00000000      1.00000000      1.00000000      1.00000000      1.00000000      1.00000000      1.00000000      1.00000000      1.00000000      1.00000000      1.00000000      1.00000000      1.00000000      1.00000000
      1.00000000      1.00000000      1.00000000      1.00000000      1.00000000      1.00000000      1.00000000      1.00000000      1.00000000      1.00000000      1.00000000      1.00000000      1.00000000      1.00000000      1.00000000      1.00000000      1.00000000      1.00000000      1.00000000      1.00000000
      1.00000000      1.00000000      1.00000000      1.00000000      1.00000000      1.00000000      1.00000000      1.00000000      1.00000000      1.00000000      1.00000000      1.00000000      1.00000000      1.00000000      1.00000000      1.00000000      1.00000000      1.00000000      1.00000000      1.00000000
      1.00000000      1.00000000      1.00000000      1.00000000      1.00000000      1.00000000      1.00000000      1.00000000      1.00000000      1.00000000      1.00000000      1.00000000      1.00000000      1.00000000      1.00000000      1.00000000      1.00000000      1.00000000      1.00000000      1.00000000
      1.00000000      1.00000000      1.00000000      1.00000000      1.00000000      1.00000000</v>
    <i name="NUPDOWN">     -1.00000000</i>
    <i type="logical" name="LSORBIT"> F  </i>
    <v name="SAXIS">      0.00000000      0.00000000      1.00000000</v>
    <i type="logical" name="LSPIRAL"> F  </i>
    <v name="QSPIRAL">      0.00000000      0.00000000      0.00000000</v>
    <i type="logical" name="LZEROZ"> F  </i>
   </separator>
   <separator name="electronic exchange-correlation" >
    <i type="logical" name="LASPH"> F  </i>
    <i type="logical" name="LMETAGGA"> F  </i>
   </separator>
   <separator name="electronic convergence" >
    <i type="int" name="NELM">    60</i>
    <i type="int" name="NELMDL">    -5</i>
    <i type="int" name="NELMIN">     2</i>
    <i name="ENINI">    400.00000000</i>
    <separator name="electronic convergence detail" >
     <i type="logical" name="LDIAG"> T  </i>
     <i type="logical" name="LSUBROT"> F  </i>
     <i name="WEIMIN">      0.00100000</i>
     <i name="EBREAK">      0.00000005</i>
     <i name="DEPER">      0.30000000</i>
     <i type="int" name="NRMM">     4</i>
     <i name="TIME">      0.40000000</i>
    </separator>
   </separator>
   <separator name="electronic mixer" >
    <i name="AMIX">      0.40000000</i>
    <i name="BMIX">      1.00000000</i>
    <i name="AMIN">      0.10000000</i>
    <i name="AMIX_MAG">      1.60000000</i>
    <i name="BMIX_MAG">      1.00000000</i>
    <separator name="electronic mixer details" >
     <i type="int" name="IMIX">     4</i>
     <i type="logical" name="MIXFIRST"> F  </i>
     <i type="int" name="MAXMIX">   -45</i>
     <i name="WC">    100.00000000</i>
     <i type="int" name="INIMIX">     1</i>
     <i type="int" name="MIXPRE">     1</i>
     <i type="int" name="MREMOVE">     5</i>
    </separator>
   </separator>
   <separator name="electronic dipolcorrection" >
    <i type="logical" name="LDIPOL"> F  </i>
    <i type="logical" name="LMONO"> F  </i>
    <i type="int" name="IDIPOL">     0</i>
    <i name="EPSILON">      1.00000000</i>
    <v name="DIPOL">   -100.00000000   -100.00000000   -100.00000000</v>
    <i name="EFIELD">      0.00000000</i>
   </separator>
  </separator>
  <separator name="grids" >
   <i type="int" name="NGX">    54</i>
   <i type="int" name="NGY">    54</i>
   <i type="int" name="NGZ">   140</i>
   <i type="int" name="NGXF">   108</i>
   <i type="int" name="NGYF">   108</i>
   <i type="int" name="NGZF">   280</i>
   <i type="logical" name="ADDGRID"> F  </i>
  </separator>
  <separator name="ionic" >
   <i type="int" name="NSW">   800</i>
   <i type="int" name="IBRION">     2</i>
   <i type="int" name="MDALGO">     0</i>
   <i type="int" name="ISIF">     2</i>
   <i name="PSTRESS">      0.00000000</i>
   <i name="EDIFFG">     -0.03000000</i>
   <i type="int" name="NFREE">     1</i>
   <i name="POTIM">      0.50000000</i>
   <i name="SMASS">     -3.00000000</i>
   <i name="SCALEE">      1.00000000</i>
  </separator>
  <separator name="ionic md" >
   <i name="TEBEG">      0.00010000</i>
   <i name="TEEND">      0.00010000</i>
   <i type="int" name="NBLOCK">     1</i>
   <i type="int" name="KBLOCK">   800</i>
   <i type="int" name="NPACO">   256</i>
   <i name="APACO">     10.00000000</i>
  </separator>
  <separator name="symmetry" >
   <i type="int" name="ISYM">     1</i>
   <i name="SYMPREC">      0.00001000</i>
  </separator>
  <separator name="dos" >
   <i type="int" name="LORBIT">     0</i>
   <v name="RWIGS">     -1.00000000     -1.00000000</v>
   <i type="int" name="NEDOS">   301</i>
   <i name="EMIN">     10.00000000</i>
   <i name="EMAX">    -10.00000000</i>
   <i name="EFERMI">      0.00000000</i>
  </separator>
  <separator name="writing" >
   <i type="int" name="NWRITE">     2</i>
   <i type="logical" name="LWAVE"> F  </i>
   <i type="logical" name="LDOWNSAMPLE"> F  </i>
   <i type="logical" name="LCHARG"> F  </i>
   <i type="logical" name="LPARD"> F  </i>
   <i type="logical" name="LVTOT"> F  </i>
   <i type="logical" name="LVHAR"> F  </i>
   <i type="logical" name="LELF"> F  </i>
   <i type="logical" name="LOPTICS"> F  </i>
   <v name="STM">      0.00000000      0.00000000      0.00000000      0.00000000      0.00000000      0.00000000      0.00000000</v>
  </separator>
  <separator name="performance" >
   <i type="int" name="NPAR">     4</i>
   <i type="int" name="NSIM">     4</i>
   <i type="int" name="NBLK">    -1</i>
   <i type="logical" name="LPLANE"> T  </i>
   <i type="logical" name="LSCALAPACK"> T  </i>
   <i type="logical" name="LSCAAWARE"> F  </i>
   <i type="logical" name="LSCALU"> F  </i>
   <i type="logical" name="LASYNC"> F  </i>
   <i type="logical" name="LORBITALREAL"> F  </i>
  </separator>
  <separator name="miscellaneous" >
   <i type="int" name="IDIOT">     3</i>
   <i type="int" name="PHON_NSTRUCT">    -1</i>
   <i type="logical" name="LMUSIC"> F  </i>
   <v name="POMASS">     63.54600000      1.00000000</v>
   <v name="DARWINR">      0.00000000      0.00000000</v>
   <v name="DARWINV">      1.00000000      1.00000000</v>
   <i type="logical" name="LCORR"> T  </i>
  </separator>
  <i type="logical" name="GGA_COMPAT"> T  </i>
  <i type="logical" name="LBERRY"> F  </i>
  <i type="int" name="ICORELEVEL">     0</i>
  <i type="logical" name="LDAU"> F  </i>
  <i type="int" name="I_CONSTRAINED_M">     0</i>
  <separator name="electronic exchange-correlation" >
   <i type="string" name="GGA">PE</i>
   <i type="int" name="VOSKOWN">     0</i>
   <i type="logical" name="LHFCALC"> F  </i>
   <i type="string" name="PRECFOCK"></i>
   <i type="logical" name="LSYMGRAD"> F  </i>
   <i type="logical" name="LHFONE"> F  </i>
   <i type="logical" name="LRHFCALC"> F  </i>
   <i type="logical" name="LTHOMAS"> F  </i>
   <i type="logical" name="LMODELHF"> F  </i>
   <i type="logical" name="LFOCKACE"> F  </i>
   <i name="ENCUT4O">     -1.00000000</i>
   <i type="int" name="EXXOEP">     0</i>
   <i type="int" name="FOURORBIT">     0</i>
   <i name="AEXX">      0.00000000</i>
   <i name="HFALPHA">      0.00000000</i>
   <i name="MCALPHA">      0.00000000</i>
   <i name="ALDAX">      1.00000000</i>
   <i name="AGGAX">      1.00000000</i>
   <i name="ALDAC">      1.00000000</i>
   <i name="AGGAC">      1.00000000</i>
   <i type="int" name="NKREDX">     1</i>
   <i type="int" name="NKREDY">     1</i>
   <i type="int" name="NKREDZ">     1</i>
   <i type="logical" name="SHIFTRED"> F  </i>
   <i type="logical" name="ODDONLY"> F  </i>
   <i type="logical" name="EVENONLY"> F  </i>
   <i type="int" name="LMAXFOCK">     0</i>
   <i type="int" name="NMAXFOCKAE">     0</i>
   <i type="logical" name="LFOCKAEDFT"> F  </i>
   <i name="HFSCREEN">      0.00000000</i>
   <i name="HFSCREENC">      0.00000000</i>
   <i type="int" name="NBANDSGWLOW">     0</i>
  </separator>
  <separator name="vdW DFT" >
   <i type="logical" name="LUSE_VDW"> F  </i>
   <i name="Zab_VDW">     -0.84910000</i>
   <i name="PARAM1">      0.12340000</i>
   <i name="PARAM2">      1.00000000</i>
   <i name="PARAM3">      0.00000000</i>
  </separator>
  <separator name="model GW" >
   <i type="int" name="MODEL_GW">     0</i>
   <i name="MODEL_EPS0">     13.50244245</i>
   <i name="MODEL_ALPHA">      1.00000000</i>
  </separator>
  <separator name="linear response parameters" >
   <i type="logical" name="LEPSILON"> F  </i>
   <i type="logical" name="LRPA"> F  </i>
   <i type="logical" name="LNABLA"> F  </i>
   <i type="logical" name="LVEL"> F  </i>
   <i name="CSHIFT">      0.10000000</i>
   <i name="OMEGAMAX">     -1.00000000</i>
   <i name="DEG_THRESHOLD">      0.00200000</i>
   <i name="RTIME">     -0.10000000</i>
   <i name="WPLASMAI">      0.00000000</i>
   <v name="DFIELD">      0.00000000      0.00000000      0.00000000</v>
   <v name="WPLASMA">      0.00000000      0.00000000      0.00000000      0.00000000      0.00000000      0.00000000      0.00000000      0.00000000      0.00000000</v>
  </separator>
  <separator name="orbital magnetization" >
   <i type="logical" name="NUCIND"> F  </i>
   <v name="MAGPOS">      0.00000000      0.00000000      0.00000000</v>
   <i type="logical" name="LNICSALL"> T  </i>
   <i type="logical" name="ORBITALMAG"> F  </i>
   <i type="logical" name="LMAGBLOCH"> F  </i>
   <i type="logical" name="LCHIMAG"> F  </i>
   <i type="logical" name="LGAUGE"> T  </i>
   <i type="int" name="MAGATOM">     0</i>
   <v name="MAGDIPOL">      0.00000000      0.00000000      0.00000000</v>
   <v name="AVECCONST">      0.00000000      0.00000000      0.00000000</v>
  </separator>
  <separator name="response functions" >
   <i type="logical" name="LFINITE_TEMPERATURE"> F  </i>
   <i type="logical" name="LADDER"> F  </i>
   <i type="logical" name="LRPAFORCE"> F  </i>
   <i type="logical" name="LFXC"> F  </i>
   <i type="logical" name="LHARTREE"> T  </i>
   <i type="int" name="IBSE">     0</i>
   <v type="int" name="KPOINT">    -1     0     0     0</v>
   <i type="logical" name="LTCTC"> F  </i>
   <i type="logical" name="LTCTE"> F  </i>
   <i type="logical" name="LTETE"> F  </i>
   <i type="logical" name="LTRIPLET"> F  </i>
   <i type="logical" name="LFXCEPS"> F  </i>
   <i type="logical" name="LFXHEG"> F  </i>
   <i type="int" name="NATURALO">     2</i>
   <i type="logical" name="LHOLEGF"> F  </i>
   <i type="logical" name="L2ORDER"> F  </i>
   <i type="logical" name="LDMP1"> F  </i>
   <i type="logical" name="LMP2LT"> F  </i>
   <i type="logical" name="LSMP2LT"> F  </i>
   <i type="logical" name="LGWLF"> F  </i>
   <i name="ENCUTGW">     -2.00000000</i>
   <i name="ENCUTGWSOFT">     -2.00000000</i>
   <i name="ENCUTLF">     -1.00000000</i>
   <i type="logical" name="LESF_SPLINES"> F  </i>
   <i type="int" name="LMAXMP2">    -1</i>
   <i name="SCISSOR">      0.00000000</i>
   <i type="int" name="NOMEGA">     0</i>
   <i type="int" name="NOMEGAR">     0</i>
   <i type="int" name="NBANDSGW">    -1</i>
   <i type="int" name="NBANDSO">    -1</i>
   <i type="int" name="NBANDSV">    -1</i>
   <i type="int" name="NELMGW">     1</i>
   <i type="int" name="NELMHF">     1</i>
   <i type="int" name="DIM">     3</i>
   <i type="int" name="IESPILON">     4</i>
   <i type="int" name="ANTIRES">     0</i>
   <i name="OMEGAMAX">    -30.00000000</i>
   <i name="OMEGAMIN">    -30.00000000</i>
   <i name="OMEGATL">   -200.00000000</i>
   <i type="int" name="OMEGAGRID">     0</i>
   <i name="CSHIFT">     -0.10000000</i>
   <i type="logical" name="LSELFENERGY"> F  </i>
   <i type="logical" name="LSPECTRAL"> F  </i>
   <i type="logical" name="LSPECTRALGW"> F  </i>
   <i type="logical" name="LSINGLES"> F  </i>
   <i type="logical" name="LFERMIGW"> F  </i>
   <i type="logical" name="ODDONLYGW"> F  </i>
   <i type="logical" name="EVENONLYGW"> F  </i>
   <i type="int" name="NKREDLFX">     1</i>
   <i type="int" name="NKREDLFY">     1</i>
   <i type="int" name="NKREDLFZ">     1</i>
   <i type="int" name="MAXMEM">  2800</i>
   <i type="int" name="TELESCOPE">     0</i>
   <i type="int" name="NTAUPAR">    -1</i>
   <i type="int" name="NOMEGAPAR">    -1</i>
   <i name="DAMP_NEWTON">      0.80000001</i>
   <i name="LAMBDA">      1.00000000</i>
  </separator>
  <separator name="External order field" >
   <i name="OFIELD_KAPPA">      0.00000000</i>
   <v name="OFIELD_K">      0.00000000      0.00000000      0.00000000</v>
   <i name="OFIELD_Q6_NEAR">      0.00000000</i>
   <i name="OFIELD_Q6_FAR">      0.00000000</i>
   <i name="OFIELD_A">      0.00000000</i>
  </separator>
  <separator name="optional k-points parameters" >
   <i type="int" name="KPOINTS_OPT_MODE">     1</i>
   <i type="logical" name="LKPOINTS_OPT"> F  </i>
  </separator>
 </parameters>
 <atominfo>
  <atoms>     146 </atoms>
  <types>       2 </types>
  <array name="atoms" >
   <dimension dim="1">ion</dimension>
   <field type="string">element</field>
   <field type="int">atomtype</field>
   <set>
    <rc><c>Cu</c><c>   1</c></rc>
    <rc><c>Cu</c><c>   1</c></rc>
    <rc><c>Cu</c><c>   1</c></rc>
    <rc><c>Cu</c><c>   1</c></rc>
    <rc><c>Cu</c><c>   1</c></rc>
    <rc><c>Cu</c><c>   1</c></rc>
    <rc><c>Cu</c><c>   1</c></rc>
    <rc><c>Cu</c><c>   1</c></rc>
    <rc><c>Cu</c><c>   1</c></rc>
    <rc><c>Cu</c><c>   1</c></rc>
    <rc><c>Cu</c><c>   1</c></rc>
    <rc><c>Cu</c><c>   1</c></rc>
    <rc><c>Cu</c><c>   1</c></rc>
    <rc><c>Cu</c><c>   1</c></rc>
    <rc><c>Cu</c><c>   1</c></rc>
    <rc><c>Cu</c><c>   1</c></rc>
    <rc><c>Cu</c><c>   1</c></rc>
    <rc><c>Cu</c><c>   1</c></rc>
    <rc><c>Cu</c><c>   1</c></rc>
    <rc><c>Cu</c><c>   1</c></rc>
    <rc><c>Cu</c><c>   1</c></rc>
    <rc><c>Cu</c><c>   1</c></rc>
    <rc><c>Cu</c><c>   1</c></rc>
    <rc><c>Cu</c><c>   1</c></rc>
    <rc><c>Cu</c><c>   1</c></rc>
    <rc><c>Cu</c><c>   1</c></rc>
    <rc><c>Cu</c><c>   1</c></rc>
    <rc><c>Cu</c><c>   1</c></rc>
    <rc><c>Cu</c><c>   1</c></rc>
    <rc><c>Cu</c><c>   1</c></rc>
    <rc><c>Cu</c><c>   1</c></rc>
    <rc><c>Cu</c><c>   1</c></rc>
    <rc><c>Cu</c><c>   1</c></rc>
    <rc><c>Cu</c><c>   1</c></rc>
    <rc><c>Cu</c><c>   1</c></rc>
    <rc><c>Cu</c><c>   1</c></rc>
    <rc><c>Cu</c><c>   1</c></rc>
    <rc><c>Cu</c><c>   1</c></rc>
    <rc><c>Cu</c><c>   1</c></rc>
    <rc><c>Cu</c><c>   1</c></rc>
    <rc><c>Cu</c><c>   1</c></rc>
    <rc><c>Cu</c><c>   1</c></rc>
    <rc><c>Cu</c><c>   1</c></rc>
    <rc><c>Cu</c><c>   1</c></rc>
    <rc><c>Cu</c><c>   1</c></rc>
    <rc><c>Cu</c><c>   1</c></rc>
    <rc><c>Cu</c><c>   1</c></rc>
    <rc><c>Cu</c><c>   1</c></rc>
    <rc><c>Cu</c><c>   1</c></rc>
    <rc><c>Cu</c><c>   1</c></rc>
    <rc><c>Cu</c><c>   1</c></rc>
    <rc><c>Cu</c><c>   1</c></rc>
    <rc><c>Cu</c><c>   1</c></rc>
    <rc><c>Cu</c><c>   1</c></rc>
    <rc><c>Cu</c><c>   1</c></rc>
    <rc><c>Cu</c><c>   1</c></rc>
    <rc><c>Cu</c><c>   1</c></rc>
    <rc><c>Cu</c><c>   1</c></rc>
    <rc><c>Cu</c><c>   1</c></rc>
    <rc><c>Cu</c><c>   1</c></rc>
    <rc><c>Cu</c><c>   1</c></rc>
    <rc><c>Cu</c><c>   1</c></rc>
    <rc><c>Cu</c><c>   1</c></rc>
    <rc><c>Cu</c><c>   1</c></rc>
    <rc><c>Cu</c><c>   1</c></rc>
    <rc><c>Cu</c><c>   1</c></rc>
    <rc><c>Cu</c><c>   1</c></rc>
    <rc><c>Cu</c><c>   1</c></rc>
    <rc><c>Cu</c><c>   1</c></rc>
    <rc><c>Cu</c><c>   1</c></rc>
    <rc><c>Cu</c><c>   1</c></rc>
    <rc><c>Cu</c><c>   1</c></rc>
    <rc><c>Cu</c><c>   1</c></rc>
    <rc><c>Cu</c><c>   1</c></rc>
    <rc><c>Cu</c><c>   1</c></rc>
    <rc><c>Cu</c><c>   1</c></rc>
    <rc><c>Cu</c><c>   1</c></rc>
    <rc><c>Cu</c><c>   1</c></rc>
    <rc><c>Cu</c><c>   1</c></rc>
    <rc><c>Cu</c><c>   1</c></rc>
    <rc><c>Cu</c><c>   1</c></rc>
    <rc><c>Cu</c><c>   1</c></rc>
    <rc><c>Cu</c><c>   1</c></rc>
    <rc><c>Cu</c><c>   1</c></rc>
    <rc><c>Cu</c><c>   1</c></rc>
    <rc><c>Cu</c><c>   1</c></rc>
    <rc><c>Cu</c><c>   1</c></rc>
    <rc><c>Cu</c><c>   1</c></rc>
    <rc><c>Cu</c><c>   1</c></rc>
    <rc><c>Cu</c><c>   1</c></rc>
    <rc><c>Cu</c><c>   1</c></rc>
    <rc><c>Cu</c><c>   1</c></rc>
    <rc><c>Cu</c><c>   1</c></rc>
    <rc><c>Cu</c><c>   1</c></rc>
    <rc><c>Cu</c><c>   1</c></rc>
    <rc><c>Cu</c><c>   1</c></rc>
    <rc><c>Cu</c><c>   1</c></rc>
    <rc><c>Cu</c><c>   1</c></rc>
    <rc><c>Cu</c><c>   1</c></rc>
    <rc><c>Cu</c><c>   1</c></rc>
    <rc><c>Cu</c><c>   1</c></rc>
    <rc><c>Cu</c><c>   1</c></rc>
    <rc><c>Cu</c><c>   1</c></rc>
    <rc><c>Cu</c><c>   1</c></rc>
    <rc><c>Cu</c><c>   1</c></rc>
    <rc><c>Cu</c><c>   1</c></rc>
    <rc><c>Cu</c><c>   1</c></rc>
    <rc><c>Cu</c><c>   1</c></rc>
    <rc><c>Cu</c><c>   1</c></rc>
    <rc><c>Cu</c><c>   1</c></rc>
    <rc><c>Cu</c><c>   1</c></rc>
    <rc><c>Cu</c><c>   1</c></rc>
    <rc><c>Cu</c><c>   1</c></rc>
    <rc><c>Cu</c><c>   1</c></rc>
    <rc><c>Cu</c><c>   1</c></rc>
    <rc><c>Cu</c><c>   1</c></rc>
    <rc><c>Cu</c><c>   1</c></rc>
    <rc><c>Cu</c><c>   1</c></rc>
    <rc><c>Cu</c><c>   1</c></rc>
    <rc><c>Cu</c><c>   1</c></rc>
    <rc><c>Cu</c><c>   1</c></rc>
    <rc><c>Cu</c><c>   1</c></rc>
    <rc><c>Cu</c><c>   1</c></rc>
    <rc><c>Cu</c><c>   1</c></rc>
    <rc><c>Cu</c><c>   1</c></rc>
    <rc><c>Cu</c><c>   1</c></rc>
    <rc><c>Cu</c><c>   1</c></rc>
    <rc><c>Cu</c><c>   1</c></rc>
    <rc><c>Cu</c><c>   1</c></rc>
    <rc><c>Cu</c><c>   1</c></rc>
    <rc><c>Cu</c><c>   1</c></rc>
    <rc><c>Cu</c><c>   1</c></rc>
    <rc><c>Cu</c><c>   1</c></rc>
    <rc><c>Cu</c><c>   1</c></rc>
    <rc><c>Cu</c><c>   1</c></rc>
    <rc><c>Cu</c><c>   1</c></rc>
    <rc><c>Cu</c><c>   1</c></rc>
    <rc><c>Cu</c><c>   1</c></rc>
    <rc><c>Cu</c><c>   1</c></rc>
    <rc><c>Cu</c><c>   1</c></rc>
    <rc><c>Cu</c><c>   1</c></rc>
    <rc><c>Cu</c><c>   1</c></rc>
    <rc><c>Cu</c><c>   1</c></rc>
    <rc><c>Cu</c><c>   1</c></rc>
    <rc><c>H </c><c>   2</c></rc>
    <rc><c>H </c><c>   2</c></rc>
   </set>
  </array>
  <array name="atomtypes" >
   <dimension dim="1">type</dimension>
   <field type="int">atomspertype</field>
   <field type="string">element</field>
   <field>mass</field>
   <field>valence</field>
   <field type="string">pseudopotential</field>
   <set>
    <rc><c> 144</c><c>Cu</c><c>     63.54600000</c><c>     11.00000000</c><c>  PAW_PBE Cu 22Jun2005                  </c></rc>
    <rc><c>   2</c><c>H </c><c>      1.00000000</c><c>      1.00000000</c><c>  PAW_PBE H 15Jun2001                   </c></rc>
   </set>
  </array>
 </atominfo>
 <structure name="initialpos" >
  <crystal>
   <varray name="basis" >
    <v>      10.89000034       0.00000000       0.00000000 </v>
    <v>       0.00000000      10.89000034       0.00000000 </v>
    <v>       0.00000000       0.00000000      27.70499992 </v>
   </varray>
   <i name="volume">   3285.59432860 </i>
   <varray name="rec_basis" >
    <v>       0.09182736       0.00000000       0.00000000 </v>
    <v>       0.00000000       0.09182736       0.00000000 </v>
    <v>       0.00000000       0.00000000       0.03609457 </v>
   </varray>
  </crystal>
  <varray name="positions" >
   <v>       0.00000000       0.00000000       0.00000000 </v>
   <v>       0.00000000       0.33333333       0.00000000 </v>
   <v>       0.00000000       0.66666667       0.00000000 </v>
   <v>       0.33333333       0.00000000       0.00000000 </v>
   <v>       0.33333333       0.33333333       0.00000000 </v>
   <v>       0.33333333       0.66666667       0.00000000 </v>
   <v>       0.66666667       0.00000000       0.00000000 </v>
   <v>       0.66666667       0.33333333       0.00000000 </v>
   <v>       0.66666667       0.66666667       0.00000000 </v>
   <v>       0.16666667       0.16666667       0.00000000 </v>
   <v>       0.16666667       0.50000000       0.00000000 </v>
   <v>       0.16666667       0.83333333       0.00000000 </v>
   <v>       0.50000000       0.16666667       0.00000000 </v>
   <v>       0.50000000       0.50000000       0.00000000 </v>
   <v>       0.50000000       0.83333333       0.00000000 </v>
   <v>       0.83333333       0.16666667       0.00000000 </v>
   <v>       0.83333333       0.50000000       0.00000000 </v>
   <v>       0.83333333       0.83333333       0.00000000 </v>
   <v>       0.00000000       0.16666667       0.06551164 </v>
   <v>       0.00000000       0.50000000       0.06551164 </v>
   <v>       0.00000000       0.83333333       0.06551164 </v>
   <v>       0.33333333       0.16666667       0.06551164 </v>
   <v>       0.33333333       0.50000000       0.06551164 </v>
   <v>       0.33333333       0.83333333       0.06551164 </v>
   <v>       0.66666667       0.16666667       0.06551164 </v>
   <v>       0.66666667       0.50000000       0.06551164 </v>
   <v>       0.66666667       0.83333333       0.06551164 </v>
   <v>       0.16666667       0.00000000       0.06551164 </v>
   <v>       0.16666667       0.33333333       0.06551164 </v>
   <v>       0.16666667       0.66666667       0.06551164 </v>
   <v>       0.50000000       0.00000000       0.06551164 </v>
   <v>       0.50000000       0.33333333       0.06551164 </v>
   <v>       0.50000000       0.66666667       0.06551164 </v>
   <v>       0.83333333       0.00000000       0.06551164 </v>
   <v>       0.83333333       0.33333333       0.06551164 </v>
   <v>       0.83333333       0.66666667       0.06551164 </v>
   <v>       0.00000000       0.00000000       0.13119553 </v>
   <v>       0.00000000       0.33333333       0.13119553 </v>
   <v>       0.00000000       0.66666667       0.13119553 </v>
   <v>       0.33333333       0.00000000       0.13119553 </v>
   <v>       0.33333333       0.33333333       0.13119553 </v>
   <v>       0.33333333       0.66666667       0.13119553 </v>
   <v>       0.66666667       0.00000000       0.13119553 </v>
   <v>       0.66666667       0.33333333       0.13119553 </v>
   <v>       0.66666667       0.66666667       0.13119553 </v>
   <v>       0.16666667       0.16666667       0.13119553 </v>
   <v>       0.16666667       0.50000000       0.13119553 </v>
   <v>       0.16666667       0.83333333       0.13119553 </v>
   <v>       0.50000000       0.16666667       0.13119553 </v>
   <v>       0.50000000       0.50000000       0.13119553 </v>
   <v>       0.50000000       0.83333333       0.13119553 </v>
   <v>       0.83333333       0.16666667       0.13119553 </v>
   <v>       0.83333333       0.50000000       0.13119553 </v>
   <v>       0.83333333       0.83333333       0.13119553 </v>
   <v>       0.00000000       0.16666667       0.19620680 </v>
   <v>       0.00000000       0.50000000       0.19620680 </v>
   <v>       0.00000000       0.83333333       0.19620680 </v>
   <v>       0.33333333       0.16666667       0.19620680 </v>
   <v>       0.33333333       0.50000000       0.19620680 </v>
   <v>       0.33333333       0.83333333       0.19620680 </v>
   <v>       0.66666667       0.16666667       0.19620680 </v>
   <v>       0.66666667       0.50000000       0.19620680 </v>
   <v>       0.66666667       0.83333333       0.19620680 </v>
   <v>       0.16666667       0.00000000       0.19620680 </v>
   <v>       0.16666667       0.33333333       0.19620680 </v>
   <v>       0.16666667       0.66666667       0.19620680 </v>
   <v>       0.50000000       0.00000000       0.19620680 </v>
   <v>       0.50000000       0.33333333       0.19620680 </v>
   <v>       0.50000000       0.66666667       0.19620680 </v>
   <v>       0.83333333       0.00000000       0.19620680 </v>
   <v>       0.83333333       0.33333333       0.19620680 </v>
   <v>       0.83333333       0.66666667       0.19620680 </v>
   <v>       0.00000000       0.00000000       0.25873860 </v>
   <v>       0.00000000       0.33333333       0.25873860 </v>
   <v>       0.00000000       0.66666667       0.25873860 </v>
   <v>       0.33333333       0.00000000       0.25873860 </v>
   <v>       0.33333333       0.33333333       0.25873860 </v>
   <v>       0.33333333       0.66666667       0.25873860 </v>
   <v>       0.66666667       0.00000000       0.25873860 </v>
   <v>       0.66666667       0.33333333       0.25873860 </v>
   <v>       0.66666667       0.66666667       0.25873860 </v>
   <v>       0.16666667       0.16666667       0.25873860 </v>
   <v>       0.16666667       0.50000000       0.25873860 </v>
   <v>       0.16666667       0.83333333       0.25873860 </v>
   <v>       0.50000000       0.16666667       0.25873860 </v>
   <v>       0.50000000       0.50000000       0.25873860 </v>
   <v>       0.50000000       0.83333333       0.25873860 </v>
   <v>       0.83333333       0.16666667       0.25873860 </v>
   <v>       0.83333333       0.50000000       0.25873860 </v>
   <v>       0.83333333       0.83333333       0.25873860 </v>
   <v>       0.00000000       0.16666667       0.32119954 </v>
   <v>       0.00000000       0.50000000       0.32119954 </v>
   <v>       0.00000000       0.83333333       0.32119954 </v>
   <v>       0.33333333       0.16666667       0.32119954 </v>
   <v>       0.33333333       0.50000000       0.32119954 </v>
   <v>       0.33333333       0.83333333       0.32119954 </v>
   <v>       0.66666667       0.16666667       0.32119954 </v>
   <v>       0.66666667       0.50000000       0.32119954 </v>
   <v>       0.66666667       0.83333333       0.32119954 </v>
   <v>       0.16666667       0.00000000       0.32119954 </v>
   <v>       0.16666667       0.33333333       0.32119954 </v>
   <v>       0.16666667       0.66666667       0.32119954 </v>
   <v>       0.50000000       0.00000000       0.32119954 </v>
   <v>       0.50000000       0.33333333       0.32119954 </v>
   <v>       0.50000000       0.66666667       0.32119954 </v>
   <v>       0.83333333       0.00000000       0.32119954 </v>
   <v>       0.83333333       0.33333333       0.32119954 </v>
   <v>       0.83333333       0.66666667       0.32119954 </v>
   <v>       0.00000000       0.00000000       0.38476372 </v>
   <v>       0.00000000       0.33333333       0.38476372 </v>
   <v>       0.00000000       0.66666667       0.38476372 </v>
   <v>       0.33333333       0.00000000       0.38476372 </v>
   <v>       0.33333333       0.33333333       0.38476372 </v>
   <v>       0.33333333       0.66666667       0.38476372 </v>
   <v>       0.66666667       0.00000000       0.38476372 </v>
   <v>       0.66666667       0.33333333       0.38476372 </v>
   <v>       0.66666667       0.66666667       0.38476372 </v>
   <v>       0.16666667       0.16666667       0.38476372 </v>
   <v>       0.16666667       0.50000000       0.38476372 </v>
   <v>       0.16666667       0.83333333       0.38476372 </v>
   <v>       0.50000000       0.16666667       0.38476372 </v>
   <v>       0.50000000       0.50000000       0.38476372 </v>
   <v>       0.50000000       0.83333333       0.38476372 </v>
   <v>       0.83333333       0.16666667       0.38476372 </v>
   <v>       0.83333333       0.50000000       0.38476372 </v>
   <v>       0.83333333       0.83333333       0.38476372 </v>
   <v>       0.00000000       0.16666667       0.44736473 </v>
   <v>       0.00000000       0.50000000       0.44736473 </v>
   <v>       0.00000000       0.83333333       0.44736473 </v>
   <v>       0.33333333       0.16666667       0.44736473 </v>
   <v>       0.33333333       0.50000000       0.44736473 </v>
   <v>       0.33333333       0.83333333       0.44736473 </v>
   <v>       0.66666667       0.16666667       0.44736473 </v>
   <v>       0.66666667       0.50000000       0.44736473 </v>
   <v>       0.66666667       0.83333333       0.44736473 </v>
   <v>       0.16666667       0.00000000       0.44736473 </v>
   <v>       0.16666667       0.33333333       0.44736473 </v>
   <v>       0.16666667       0.66666667       0.44736473 </v>
   <v>       0.50000000       0.00000000       0.44736473 </v>
   <v>       0.50000000       0.33333333       0.44736473 </v>
   <v>       0.50000000       0.66666667       0.44736473 </v>
   <v>       0.83333333       0.00000000       0.44736473 </v>
   <v>       0.83333333       0.33333333       0.44736473 </v>
   <v>       0.83333333       0.66666667       0.44736473 </v>
   <v>       0.25000000       0.41666667       0.50150658 </v>
   <v>       0.25000000       0.46510575       0.52054652 </v>
  </varray>
  <varray name="selective"  type="logical" >
   <v type="logical" >  F  F  F </v>
   <v type="logical" >  F  F  F </v>
   <v type="logical" >  F  F  F </v>
   <v type="logical" >  F  F  F </v>
   <v type="logical" >  F  F  F </v>
   <v type="logical" >  F  F  F </v>
   <v type="logical" >  F  F  F </v>
   <v type="logical" >  F  F  F </v>
   <v type="logical" >  F  F  F </v>
   <v type="logical" >  F  F  F </v>
   <v type="logical" >  F  F  F </v>
   <v type="logical" >  F  F  F </v>
   <v type="logical" >  F  F  F </v>
   <v type="logical" >  F  F  F </v>
   <v type="logical" >  F  F  F </v>
   <v type="logical" >  F  F  F </v>
   <v type="logical" >  F  F  F </v>
   <v type="logical" >  F  F  F </v>
   <v type="logical" >  F  F  F </v>
   <v type="logical" >  F  F  F </v>
   <v type="logical" >  F  F  F </v>
   <v type="logical" >  F  F  F </v>
   <v type="logical" >  F  F  F </v>
   <v type="logical" >  F  F  F </v>
   <v type="logical" >  F  F  F </v>
   <v type="logical" >  F  F  F </v>
   <v type="logical" >  F  F  F </v>
   <v type="logical" >  F  F  F </v>
   <v type="logical" >  F  F  F </v>
   <v type="logical" >  F  F  F </v>
   <v type="logical" >  F  F  F </v>
   <v type="logical" >  F  F  F </v>
   <v type="logical" >  F  F  F </v>
   <v type="logical" >  F  F  F </v>
   <v type="logical" >  F  F  F </v>
   <v type="logical" >  F  F  F </v>
   <v type="logical" >  F  F  F </v>
   <v type="logical" >  F  F  F </v>
   <v type="logical" >  F  F  F </v>
   <v type="logical" >  F  F  F </v>
   <v type="logical" >  F  F  F </v>
   <v type="logical" >  F  F  F </v>
   <v type="logical" >  F  F  F </v>
   <v type="logical" >  F  F  F </v>
   <v type="logical" >  F  F  F </v>
   <v type="logical" >  F  F  F </v>
   <v type="logical" >  F  F  F </v>
   <v type="logical" >  F  F  F </v>
   <v type="logical" >  F  F  F </v>
   <v type="logical" >  F  F  F </v>
   <v type="logical" >  F  F  F </v>
   <v type="logical" >  F  F  F </v>
   <v type="logical" >  F  F  F </v>
   <v type="logical" >  F  F  F </v>
   <v type="logical" >  T  T  T </v>
   <v type="logical" >  T  T  T </v>
   <v type="logical" >  T  T  T </v>
   <v type="logical" >  T  T  T </v>
   <v type="logical" >  T  T  T </v>
   <v type="logical" >  T  T  T </v>
   <v type="logical" >  T  T  T </v>
   <v type="logical" >  T  T  T </v>
   <v type="logical" >  T  T  T </v>
   <v type="logical" >  T  T  T </v>
   <v type="logical" >  T  T  T </v>
   <v type="logical" >  T  T  T </v>
   <v type="logical" >  T  T  T </v>
   <v type="logical" >  T  T  T </v>
   <v type="logical" >  T  T  T </v>
   <v type="logical" >  T  T  T </v>
   <v type="logical" >  T  T  T </v>
   <v type="logical" >  T  T  T </v>
   <v type="logical" >  T  T  T </v>
   <v type="logical" >  T  T  T </v>
   <v type="logical" >  T  T  T </v>
   <v type="logical" >  T  T  T </v>
   <v type="logical" >  T  T  T </v>
   <v type="logical" >  T  T  T </v>
   <v type="logical" >  T  T  T </v>
   <v type="logical" >  T  T  T </v>
   <v type="logical" >  T  T  T </v>
   <v type="logical" >  T  T  T </v>
   <v type="logical" >  T  T  T </v>
   <v type="logical" >  T  T  T </v>
   <v type="logical" >  T  T  T </v>
   <v type="logical" >  T  T  T </v>
   <v type="logical" >  T  T  T </v>
   <v type="logical" >  T  T  T </v>
   <v type="logical" >  T  T  T </v>
   <v type="logical" >  T  T  T </v>
   <v type="logical" >  T  T  T </v>
   <v type="logical" >  T  T  T </v>
   <v type="logical" >  T  T  T </v>
   <v type="logical" >  T  T  T </v>
   <v type="logical" >  T  T  T </v>
   <v type="logical" >  T  T  T </v>
   <v type="logical" >  T  T  T </v>
   <v type="logical" >  T  T  T </v>
   <v type="logical" >  T  T  T </v>
   <v type="logical" >  T  T  T </v>
   <v type="logical" >  T  T  T </v>
   <v type="logical" >  T  T  T </v>
   <v type="logical" >  T  T  T </v>
   <v type="logical" >  T  T  T </v>
   <v type="logical" >  T  T  T </v>
   <v type="logical" >  T  T  T </v>
   <v type="logical" >  T  T  T </v>
   <v type="logical" >  T  T  T </v>
   <v type="logical" >  T  T  T </v>
   <v type="logical" >  T  T  T </v>
   <v type="logical" >  T  T  T </v>
   <v type="logical" >  T  T  T </v>
   <v type="logical" >  T  T  T </v>
   <v type="logical" >  T  T  T </v>
   <v type="logical" >  T  T  T </v>
   <v type="logical" >  T  T  T </v>
   <v type="logical" >  T  T  T </v>
   <v type="logical" >  T  T  T </v>
   <v type="logical" >  T  T  T </v>
   <v type="logical" >  T  T  T </v>
   <v type="logical" >  T  T  T </v>
   <v type="logical" >  T  T  T </v>
   <v type="logical" >  T  T  T </v>
   <v type="logical" >  T  T  T </v>
   <v type="logical" >  T  T  T </v>
   <v type="logical" >  T  T  T </v>
   <v type="logical" >  T  T  T </v>
   <v type="logical" >  T  T  T </v>
   <v type="logical" >  T  T  T </v>
   <v type="logical" >  T  T  T </v>
   <v type="logical" >  T  T  T </v>
   <v type="logical" >  T  T  T </v>
   <v type="logical" >  T  T  T </v>
   <v type="logical" >  T  T  T </v>
   <v type="logical" >  T  T  T </v>
   <v type="logical" >  T  T  T </v>
   <v type="logical" >  T  T  T </v>
   <v type="logical" >  T  T  T </v>
   <v type="logical" >  T  T  T </v>
   <v type="logical" >  T  T  T </v>
   <v type="logical" >  T  T  T </v>
   <v type="logical" >  T  T  T </v>
   <v type="logical" >  T  T  T </v>
   <v type="logical" >  T  T  T </v>
   <v type="logical" >  T  T  T </v>
   <v type="logical" >  T  T  T </v>
  </varray>
  <nose>
   <v>      -3.00000000       0.00000000       0.00010000       0.00010000 </v>
  </nose>
 </structure>
 <calculation>
  <scstep>
   <time name="dav">  936.92  948.67</time>
   <time name="total">  937.27  949.05</time>
   <energy>
    <i name="alphaZ">   4623.72760507 </i>
    <i name="ewald"> 915946.72716893 </i>
    <i name="hartreedc">**************** </i>
    <i name="XCdc">   6597.08289958 </i>
    <i name="pawpsdc"> 176849.62809079 </i>
    <i name="pawaedc">-192088.21954245 </i>
    <i name="eentropy">      0.00532596 </i>
    <i name="bandstr">  15996.53015720 </i>
    <i name="atom"> 200322.85745410 </i>
    <i name="e_fr_energy">  15532.68253821 </i>
    <i name="e_wo_entrp">  15532.67721225 </i>
    <i name="e_0_energy">  15532.68076289 </i>
   </energy>
  </scstep>
  <scstep>
   <time name="dav">  924.42  934.83</time>
   <time name="total">  924.44  934.84</time>
   <energy>
    <i name="e_fr_energy">   2260.16901047 </i>
    <i name="e_wo_entrp">   2260.17175823 </i>
    <i name="e_0_energy">   2260.16992639 </i>
   </energy>
  </scstep>
  <scstep>
   <time name="dav">  939.46  950.63</time>
   <time name="total">  939.47  950.64</time>
   <energy>
    <i name="e_fr_energy">   -387.56279222 </i>
    <i name="e_wo_entrp">   -387.68320633 </i>
    <i name="e_0_energy">   -387.60293026 </i>
   </energy>
  </scstep>
  <scstep>
   <time name="dav">  990.35 1001.25</time>
   <time name="total">  990.36 1001.26</time>
   <energy>
    <i name="e_fr_energy">   -608.53047673 </i>
    <i name="e_wo_entrp">   -608.77629412 </i>
    <i name="e_0_energy">   -608.61241586 </i>
   </energy>
  </scstep>
  <scstep>
   <time name="dav"> 1015.65 1028.40</time>
   <time name="total"> 1020.54 1033.34</time>
   <energy>
    <i name="e_fr_energy">   -614.46997563 </i>
    <i name="e_wo_entrp">   -614.71725022 </i>
    <i name="e_0_energy">   -614.55240049 </i>
   </energy>
  </scstep>
  <scstep>
   <time name="dav">  992.04 1002.50</time>
   <time name="total">  996.61 1007.12</time>
   <energy>
    <i name="e_fr_energy">   -500.37255868 </i>
    <i name="e_wo_entrp">   -500.31361851 </i>
    <i name="e_0_energy">   -500.35291195 </i>
   </energy>
  </scstep>
  <scstep>
   <time name="dav">  997.37 1008.28</time>
   <time name="total"> 1002.64 1013.64</time>
   <energy>
    <i name="e_fr_energy">   -441.15062696 </i>
    <i name="e_wo_entrp">   -441.09283048 </i>
    <i name="e_0_energy">   -441.13136147 </i>
   </energy>
  </scstep>
  <scstep>
   <time name="dav"> 1039.41 1050.54</time>
   <time name="total"> 1044.07 1055.24</time>
   <energy>
    <i name="e_fr_energy">   -442.28760535 </i>
    <i name="e_wo_entrp">   -442.25466335 </i>
    <i name="e_0_energy">   -442.27662468 </i>
   </energy>
  </scstep>
  <scstep>
   <time name="dav"> 1151.07 1163.71</time>
   <time name="total"> 1155.68 1168.37</time>
   <energy>
    <i name="e_fr_energy">   -434.38664696 </i>
    <i name="e_wo_entrp">   -434.38689732 </i>
    <i name="e_0_energy">   -434.38673041 </i>
   </energy>
  </scstep>
  <scstep>
   <time name="dav"> 1268.85 1282.60</time>
   <time name="total"> 1273.36 1287.15</time>
   <energy>
    <i name="e_fr_energy">   -429.77626761 </i>
    <i name="e_wo_entrp">   -429.68163319 </i>
    <i name="e_0_energy">   -429.74472280 </i>
   </energy>
  </scstep>
  <scstep>
   <time name="dav"> 1402.59 1417.13</time>
   <time name="total"> 1407.13 1421.71</time>
   <energy>
    <i name="e_fr_energy">   -432.79410655 </i>
    <i name="e_wo_entrp">   -432.69577591 </i>
    <i name="e_0_energy">   -432.76132967 </i>
   </energy>
  </scstep>
  <scstep>
   <time name="dav"> 1012.94 1024.44</time>
   <time name="total"> 1017.47 1029.01</time>
   <energy>
    <i name="e_fr_energy">   -442.81520144 </i>
    <i name="e_wo_entrp">   -442.72371982 </i>
    <i name="e_0_energy">   -442.78470757 </i>
   </energy>
  </scstep>
  <scstep>
   <time name="dav"> 1051.33 1062.59</time>
   <time name="total"> 1056.07 1067.37</time>
   <energy>
    <i name="e_fr_energy">   -446.00138477 </i>
    <i name="e_wo_entrp">   -445.93573171 </i>
    <i name="e_0_energy">   -445.97950042 </i>
   </energy>
  </scstep>
  <scstep>
   <time name="dav"> 1020.18 1031.61</time>
   <time name="total"> 1024.86 1036.33</time>
   <energy>
    <i name="e_fr_energy">   -456.40029187 </i>
    <i name="e_wo_entrp">   -456.35083036 </i>
    <i name="e_0_energy">   -456.38380470 </i>
   </energy>
  </scstep>
  <scstep>
   <time name="dav"> 1096.67 1108.58</time>
   <time name="total"> 1101.40 1113.35</time>
   <energy>
    <i name="e_fr_energy">   -467.82703226 </i>
    <i name="e_wo_entrp">   -467.84106326 </i>
    <i name="e_0_energy">   -467.83170926 </i>
   </energy>
  </scstep>
  <scstep>
   <time name="dav"> 1149.99 1163.09</time>
   <time name="total"> 1154.55 1167.68</time>
   <energy>
    <i name="e_fr_energy">   -489.06749742 </i>
    <i name="e_wo_entrp">   -489.18096691 </i>
    <i name="e_0_energy">   -489.10532059 </i>
   </energy>
  </scstep>
  <scstep>
   <time name="dav"> 1012.14 1022.84</time>
   <time name="total"> 1016.90 1027.64</time>
   <energy>
    <i name="e_fr_energy">   -495.35284130 </i>
    <i name="e_wo_entrp">   -495.48899936 </i>
    <i name="e_0_energy">   -495.39822732 </i>
   </energy>
  </scstep>
  <scstep>
   <time name="dav"> 1022.64 1034.09</time>
   <time name="total"> 1027.79 1039.35</time>
   <energy>
    <i name="e_fr_energy">   -498.59450614 </i>
    <i name="e_wo_entrp">   -498.74080180 </i>
    <i name="e_0_energy">   -498.64327136 </i>
   </energy>
  </scstep>
  <scstep>
   <time name="dav"> 1161.35 1173.47</time>
   <time name="total"> 1166.00 1178.17</time>
   <energy>
    <i name="e_fr_energy">   -505.38337597 </i>
    <i name="e_wo_entrp">   -505.53066053 </i>
    <i name="e_0_energy">   -505.43247082 </i>
   </energy>
  </scstep>
  <scstep>
   <time name="dav">  968.81  980.19</time>
   <time name="total">  973.79  985.40</time>
   <energy>
    <i name="e_fr_energy">   -510.32528389 </i>
    <i name="e_wo_entrp">   -510.44971212 </i>
    <i name="e_0_energy">   -510.36675997 </i>
   </energy>
  </scstep>
  <scstep>
   <time name="dav"> 1228.13 1240.99</time>
   <time name="total"> 1232.75 1245.66</time>
   <energy>
    <i name="e_fr_energy">   -513.20425474 </i>
    <i name="e_wo_entrp">   -513.31789819 </i>
    <i name="e_0_energy">   -513.24213589 </i>
   </energy>
  </scstep>
  <scstep>
   <time name="dav"> 1080.16 1091.07</time>
   <time name="total"> 1084.73 1095.69</time>
   <energy>
    <i name="e_fr_energy">   -515.33632827 </i>
    <i name="e_wo_entrp">   -515.45041829 </i>
    <i name="e_0_energy">   -515.37435828 </i>
   </energy>
  </scstep>
  <scstep>
   <time name="dav"> 1062.88 1074.97</time>
   <time name="total"> 1067.60 1079.73</time>
   <energy>
    <i name="e_fr_energy">   -516.85879148 </i>
    <i name="e_wo_entrp">   -516.96814544 </i>
    <i name="e_0_energy">   -516.89524280 </i>
   </energy>
  </scstep>
  <scstep>
   <time name="dav"> 1157.92 1169.98</time>
   <time name="total"> 1162.87 1175.10</time>
   <energy>
    <i name="e_fr_energy">   -518.19579303 </i>
    <i name="e_wo_entrp">   -518.31569019 </i>
    <i name="e_0_energy">   -518.23575875 </i>
   </energy>
  </scstep>
  <scstep>
   <time name="dav"> 1011.05 1021.75</time>
   <time name="total"> 1015.69 1026.44</time>
   <energy>
    <i name="e_fr_energy">   -519.27412107 </i>
    <i name="e_wo_entrp">   -519.38871384 </i>
    <i name="e_0_energy">   -519.31231866 </i>
   </energy>
  </scstep>
  <scstep>
   <time name="dav"> 1089.47 1102.09</time>
   <time name="total"> 1094.06 1106.73</time>
   <energy>
    <i name="e_fr_energy">   -519.92466628 </i>
    <i name="e_wo_entrp">   -520.03769688 </i>
    <i name="e_0_energy">   -519.96234314 </i>
   </energy>
  </scstep>
  <scstep>
   <time name="dav">  989.99 1001.45</time>
   <time name="total">  994.66 1006.16</time>
   <energy>
    <i name="e_fr_energy">   -520.62891538 </i>
    <i name="e_wo_entrp">   -520.74119987 </i>
    <i name="e_0_energy">   -520.66634355 </i>
   </energy>
  </scstep>
  <scstep>
   <time name="dav"> 1050.50 1061.61</time>
   <time name="total"> 1055.07 1066.22</time>
   <energy>
    <i name="e_fr_energy">   -521.41038716 </i>
    <i name="e_wo_entrp">   -521.52084295 </i>
    <i name="e_0_energy">   -521.44720575 </i>
   </energy>
  </scstep>
  <scstep>
   <time name="dav"> 1031.78 1042.71</time>
   <time name="total"> 1036.49 1047.47</time>
   <energy>
    <i name="e_fr_energy">   -521.52795936 </i>
    <i name="e_wo_entrp">   -521.64006337 </i>
    <i name="e_0_energy">   -521.56532736 </i>
   </energy>
  </scstep>
  <scstep>
   <time name="dav"> 1072.75 1084.55</time>
   <time name="total"> 1077.79 1089.72</time>
   <energy>
    <i name="e_fr_energy">   -521.55752311 </i>
    <i name="e_wo_entrp">   -521.67092498 </i>
    <i name="e_0_energy">   -521.59532373 </i>
   </energy>
  </scstep>
  <scstep>
   <time name="dav"> 1023.78 1034.21</time>
   <time name="total"> 1028.53 1039.00</time>
   <energy>
    <i name="e_fr_energy">   -521.57381860 </i>
    <i name="e_wo_entrp">   -521.68632089 </i>
    <i name="e_0_energy">   -521.61131936 </i>
   </energy>
  </scstep>
  <scstep>
   <time name="dav">  713.36  721.22</time>
   <time name="total">  718.02  725.92</time>
   <energy>
    <i name="e_fr_energy">   -521.57554461 </i>
    <i name="e_wo_entrp">   -521.68768889 </i>
    <i name="e_0_energy">   -521.61292604 </i>
   </energy>
  </scstep>
  <scstep>
   <time name="dav">  698.95  707.46</time>
   <time name="total">  703.61  712.16</time>
   <energy>
    <i name="e_fr_energy">   -521.57602200 </i>
    <i name="e_wo_entrp">   -521.68827656 </i>
    <i name="e_0_energy">   -521.61344019 </i>
   </energy>
  </scstep>
  <scstep>
   <time name="dav">  681.76  689.39</time>
   <time name="total">  682.06  689.70</time>
   <energy>
    <i name="alphaZ">   4623.72760507 </i>
    <i name="ewald"> 915946.72716893 </i>
    <i name="hartreedc">**************** </i>
    <i name="XCdc">   6429.43589066 </i>
    <i name="pawpsdc"> 189000.18032416 </i>
    <i name="pawaedc">-204519.88845526 </i>
    <i name="eentropy">      0.11233594 </i>
    <i name="bandstr">  -1755.30312230 </i>
    <i name="atom"> 200322.85745410 </i>
    <i name="e_fr_energy">   -521.57605348 </i>
    <i name="e_wo_entrp">   -521.68838941 </i>
    <i name="e_0_energy">   -521.61349879 </i>
   </energy>
  </scstep>
  <structure>
   <crystal>
    <varray name="basis" >
     <v>      10.89000034       0.00000000       0.00000000 </v>
     <v>       0.00000000      10.89000034       0.00000000 </v>
     <v>       0.00000000       0.00000000      27.70499992 </v>
    </varray>
    <i name="volume">   3285.59432860 </i>
    <varray name="rec_basis" >
     <v>       0.09182736       0.00000000       0.00000000 </v>
     <v>       0.00000000       0.09182736       0.00000000 </v>
     <v>       0.00000000       0.00000000       0.03609457 </v>
    </varray>
   </crystal>
   <varray name="positions" >
    <v>       0.00000000       0.00000000       0.00000000 </v>
    <v>       0.00000000       0.33333333       0.00000000 </v>
    <v>       0.00000000       0.66666667       0.00000000 </v>
    <v>       0.33333333       0.00000000       0.00000000 </v>
    <v>       0.33333333       0.33333333       0.00000000 </v>
    <v>       0.33333333       0.66666667       0.00000000 </v>
    <v>       0.66666667       0.00000000       0.00000000 </v>
    <v>       0.66666667       0.33333333       0.00000000 </v>
    <v>       0.66666667       0.66666667       0.00000000 </v>
    <v>       0.16666667       0.16666667       0.00000000 </v>
    <v>       0.16666667       0.50000000       0.00000000 </v>
    <v>       0.16666667       0.83333333       0.00000000 </v>
    <v>       0.50000000       0.16666667       0.00000000 </v>
    <v>       0.50000000       0.50000000       0.00000000 </v>
    <v>       0.50000000       0.83333333       0.00000000 </v>
    <v>       0.83333333       0.16666667       0.00000000 </v>
    <v>       0.83333333       0.50000000       0.00000000 </v>
    <v>       0.83333333       0.83333333       0.00000000 </v>
    <v>       0.00000000       0.16666667       0.06551164 </v>
    <v>       0.00000000       0.50000000       0.06551164 </v>
    <v>       0.00000000       0.83333333       0.06551164 </v>
    <v>       0.33333333       0.16666667       0.06551164 </v>
    <v>       0.33333333       0.50000000       0.06551164 </v>
    <v>       0.33333333       0.83333333       0.06551164 </v>
    <v>       0.66666667       0.16666667       0.06551164 </v>
    <v>       0.66666667       0.50000000       0.06551164 </v>
    <v>       0.66666667       0.83333333       0.06551164 </v>
    <v>       0.16666667       0.00000000       0.06551164 </v>
    <v>       0.16666667       0.33333333       0.06551164 </v>
    <v>       0.16666667       0.66666667       0.06551164 </v>
    <v>       0.50000000       0.00000000       0.06551164 </v>
    <v>       0.50000000       0.33333333       0.06551164 </v>
    <v>       0.50000000       0.66666667       0.06551164 </v>
    <v>       0.83333333       0.00000000       0.06551164 </v>
    <v>       0.83333333       0.33333333       0.06551164 </v>
    <v>       0.83333333       0.66666667       0.06551164 </v>
    <v>       0.00000000       0.00000000       0.13119553 </v>
    <v>       0.00000000       0.33333333       0.13119553 </v>
    <v>       0.00000000       0.66666667       0.13119553 </v>
    <v>       0.33333333       0.00000000       0.13119553 </v>
    <v>       0.33333333       0.33333333       0.13119553 </v>
    <v>       0.33333333       0.66666667       0.13119553 </v>
    <v>       0.66666667       0.00000000       0.13119553 </v>
    <v>       0.66666667       0.33333333       0.13119553 </v>
    <v>       0.66666667       0.66666667       0.13119553 </v>
    <v>       0.16666667       0.16666667       0.13119553 </v>
    <v>       0.16666667       0.50000000       0.13119553 </v>
    <v>       0.16666667       0.83333333       0.13119553 </v>
    <v>       0.50000000       0.16666667       0.13119553 </v>
    <v>       0.50000000       0.50000000       0.13119553 </v>
    <v>       0.50000000       0.83333333       0.13119553 </v>
    <v>       0.83333333       0.16666667       0.13119553 </v>
    <v>       0.83333333       0.50000000       0.13119553 </v>
    <v>       0.83333333       0.83333333       0.13119553 </v>
    <v>       0.00000000       0.16666667       0.19620680 </v>
    <v>       0.00000000       0.50000000       0.19620680 </v>
    <v>       0.00000000       0.83333333       0.19620680 </v>
    <v>       0.33333333       0.16666667       0.19620680 </v>
    <v>       0.33333333       0.50000000       0.19620680 </v>
    <v>       0.33333333       0.83333333       0.19620680 </v>
    <v>       0.66666667       0.16666667       0.19620680 </v>
    <v>       0.66666667       0.50000000       0.19620680 </v>
    <v>       0.66666667       0.83333333       0.19620680 </v>
    <v>       0.16666667       0.00000000       0.19620680 </v>
    <v>       0.16666667       0.33333333       0.19620680 </v>
    <v>       0.16666667       0.66666667       0.19620680 </v>
    <v>       0.50000000       0.00000000       0.19620680 </v>
    <v>       0.50000000       0.33333333       0.19620680 </v>
    <v>       0.50000000       0.66666667       0.19620680 </v>
    <v>       0.83333333       0.00000000       0.19620680 </v>
    <v>       0.83333333       0.33333333       0.19620680 </v>
    <v>       0.83333333       0.66666667       0.19620680 </v>
    <v>       0.00000000       0.00000000       0.25873860 </v>
    <v>       0.00000000       0.33333333       0.25873860 </v>
    <v>       0.00000000       0.66666667       0.25873860 </v>
    <v>       0.33333333       0.00000000       0.25873860 </v>
    <v>       0.33333333       0.33333333       0.25873860 </v>
    <v>       0.33333333       0.66666667       0.25873860 </v>
    <v>       0.66666667       0.00000000       0.25873860 </v>
    <v>       0.66666667       0.33333333       0.25873860 </v>
    <v>       0.66666667       0.66666667       0.25873860 </v>
    <v>       0.16666667       0.16666667       0.25873860 </v>
    <v>       0.16666667       0.50000000       0.25873860 </v>
    <v>       0.16666667       0.83333333       0.25873860 </v>
    <v>       0.50000000       0.16666667       0.25873860 </v>
    <v>       0.50000000       0.50000000       0.25873860 </v>
    <v>       0.50000000       0.83333333       0.25873860 </v>
    <v>       0.83333333       0.16666667       0.25873860 </v>
    <v>       0.83333333       0.50000000       0.25873860 </v>
    <v>       0.83333333       0.83333333       0.25873860 </v>
    <v>       0.00000000       0.16666667       0.32119954 </v>
    <v>       0.00000000       0.50000000       0.32119954 </v>
    <v>       0.00000000       0.83333333       0.32119954 </v>
    <v>       0.33333333       0.16666667       0.32119954 </v>
    <v>       0.33333333       0.50000000       0.32119954 </v>
    <v>       0.33333333       0.83333333       0.32119954 </v>
    <v>       0.66666667       0.16666667       0.32119954 </v>
    <v>       0.66666667       0.50000000       0.32119954 </v>
    <v>       0.66666667       0.83333333       0.32119954 </v>
    <v>       0.16666667       0.00000000       0.32119954 </v>
    <v>       0.16666667       0.33333333       0.32119954 </v>
    <v>       0.16666667       0.66666667       0.32119954 </v>
    <v>       0.50000000       0.00000000       0.32119954 </v>
    <v>       0.50000000       0.33333333       0.32119954 </v>
    <v>       0.50000000       0.66666667       0.32119954 </v>
    <v>       0.83333333       0.00000000       0.32119954 </v>
    <v>       0.83333333       0.33333333       0.32119954 </v>
    <v>       0.83333333       0.66666667       0.32119954 </v>
    <v>       0.00000000       0.00000000       0.38476372 </v>
    <v>       0.00000000       0.33333333       0.38476372 </v>
    <v>       0.00000000       0.66666667       0.38476372 </v>
    <v>       0.33333333       0.00000000       0.38476372 </v>
    <v>       0.33333333       0.33333333       0.38476372 </v>
    <v>       0.33333333       0.66666667       0.38476372 </v>
    <v>       0.66666667       0.00000000       0.38476372 </v>
    <v>       0.66666667       0.33333333       0.38476372 </v>
    <v>       0.66666667       0.66666667       0.38476372 </v>
    <v>       0.16666667       0.16666667       0.38476372 </v>
    <v>       0.16666667       0.50000000       0.38476372 </v>
    <v>       0.16666667       0.83333333       0.38476372 </v>
    <v>       0.50000000       0.16666667       0.38476372 </v>
    <v>       0.50000000       0.50000000       0.38476372 </v>
    <v>       0.50000000       0.83333333       0.38476372 </v>
    <v>       0.83333333       0.16666667       0.38476372 </v>
    <v>       0.83333333       0.50000000       0.38476372 </v>
    <v>       0.83333333       0.83333333       0.38476372 </v>
    <v>       0.00000000       0.16666667       0.44736473 </v>
    <v>       0.00000000       0.50000000       0.44736473 </v>
    <v>       0.00000000       0.83333333       0.44736473 </v>
    <v>       0.33333333       0.16666667       0.44736473 </v>
    <v>       0.33333333       0.50000000       0.44736473 </v>
    <v>       0.33333333       0.83333333       0.44736473 </v>
    <v>       0.66666667       0.16666667       0.44736473 </v>
    <v>       0.66666667       0.50000000       0.44736473 </v>
    <v>       0.66666667       0.83333333       0.44736473 </v>
    <v>       0.16666667       0.00000000       0.44736473 </v>
    <v>       0.16666667       0.33333333       0.44736473 </v>
    <v>       0.16666667       0.66666667       0.44736473 </v>
    <v>       0.50000000       0.00000000       0.44736473 </v>
    <v>       0.50000000       0.33333333       0.44736473 </v>
    <v>       0.50000000       0.66666667       0.44736473 </v>
    <v>       0.83333333       0.00000000       0.44736473 </v>
    <v>       0.83333333       0.33333333       0.44736473 </v>
    <v>       0.83333333       0.66666667       0.44736473 </v>
    <v>       0.25000000       0.41666667       0.50150658 </v>
    <v>       0.25000000       0.46510575       0.52054652 </v>
   </varray>
  </structure>
  <varray name="forces" >
   <v>      -0.00160555       0.00132771       0.30973239 </v>
   <v>       0.00199854      -0.00184981       0.31032274 </v>
   <v>       0.00177312       0.00006925       0.31086431 </v>
   <v>       0.00045050       0.00112148       0.31014268 </v>
   <v>       0.00111653      -0.00222011       0.30857772 </v>
   <v>       0.00124303       0.00015369       0.31020258 </v>
   <v>       0.00200286      -0.00096373       0.31032351 </v>
   <v>      -0.00250113      -0.00052831       0.31019076 </v>
   <v>      -0.00264528       0.00092830       0.30989587 </v>
   <v>      -0.00199141       0.00263397       0.31014088 </v>
   <v>      -0.00219971       0.00115044       0.30822231 </v>
   <v>      -0.00118300      -0.00299621       0.30998640 </v>
   <v>      -0.00036501       0.00197930       0.31062542 </v>
   <v>      -0.00028889       0.00125219       0.31017203 </v>
   <v>       0.00127522      -0.00270359       0.30999392 </v>
   <v>       0.00181499      -0.00194517       0.31046087 </v>
   <v>       0.00147441       0.00050237       0.31057325 </v>
   <v>      -0.00036729       0.00214445       0.31042874 </v>
   <v>       0.00061183       0.00218004      -0.08110843 </v>
   <v>       0.00264128       0.00059268      -0.07669622 </v>
   <v>      -0.00074031      -0.00264427      -0.07753298 </v>
   <v>       0.00064514       0.00267278      -0.07835252 </v>
   <v>      -0.00005913       0.00078963      -0.07387094 </v>
   <v>      -0.00055724       0.00167204      -0.07899745 </v>
   <v>      -0.00229042      -0.00099452      -0.07623220 </v>
   <v>       0.00274006      -0.00087396      -0.07975887 </v>
   <v>      -0.00060722       0.00036416      -0.07467687 </v>
   <v>       0.00220481      -0.00140988      -0.08070299 </v>
   <v>      -0.00002908      -0.00004652      -0.07638834 </v>
   <v>      -0.00051050      -0.00302462      -0.07833052 </v>
   <v>       0.00028648       0.00103197      -0.07633973 </v>
   <v>      -0.00295337      -0.00123877      -0.07931131 </v>
   <v>      -0.00224026      -0.00041250      -0.08147714 </v>
   <v>      -0.00075553      -0.00006425      -0.07462051 </v>
   <v>      -0.00008206       0.00146922      -0.07948999 </v>
   <v>       0.00172575      -0.00003619      -0.07731490 </v>
   <v>      -0.00049093       0.00236374      -0.00183626 </v>
   <v>       0.00422400      -0.00661364      -0.00809907 </v>
   <v>       0.00346799       0.00075970      -0.00683086 </v>
   <v>      -0.00122679       0.00170439       0.00505446 </v>
   <v>       0.00504568      -0.00467388      -0.00843719 </v>
   <v>       0.00620870      -0.00221037      -0.00899882 </v>
   <v>       0.00189454      -0.00082194      -0.00574553 </v>
   <v>      -0.00349925      -0.00080345       0.00080619 </v>
   <v>      -0.00459292       0.00083234      -0.00237556 </v>
   <v>      -0.00624790       0.00452038      -0.00822682 </v>
   <v>      -0.00519343       0.00456365      -0.00903874 </v>
   <v>      -0.00304194      -0.00379710      -0.00141642 </v>
   <v>       0.00023939       0.00411014      -0.00614012 </v>
   <v>      -0.00215208       0.00497254      -0.01005293 </v>
   <v>       0.00163003      -0.00535988      -0.00417291 </v>
   <v>       0.00274391      -0.00127146      -0.00367010 </v>
   <v>       0.00140380       0.00024676       0.00311105 </v>
   <v>      -0.00051961       0.00153562      -0.00569912 </v>
   <v>       0.00105053       0.00242696      -0.25950334 </v>
   <v>       0.00109903       0.00058104      -0.25580681 </v>
   <v>      -0.00038984      -0.00331742      -0.26844491 </v>
   <v>       0.00067565       0.00139555      -0.25414611 </v>
   <v>      -0.00142494      -0.00050016      -0.26995904 </v>
   <v>      -0.00017877      -0.00106493      -0.26581438 </v>
   <v>      -0.00217503      -0.00110400      -0.26993282 </v>
   <v>      -0.00080937      -0.00037199      -0.26981104 </v>
   <v>       0.00038740       0.00147331      -0.26834126 </v>
   <v>       0.00100738       0.00044973      -0.27639121 </v>
   <v>       0.00002308       0.00040756      -0.26577722 </v>
   <v>      -0.00093827      -0.00061790      -0.25730159 </v>
   <v>       0.00066942       0.00166101      -0.27375914 </v>
   <v>      -0.00082857      -0.00121871      -0.25634608 </v>
   <v>      -0.00115113       0.00000963      -0.25647404 </v>
   <v>      -0.00183125      -0.00091195      -0.26762710 </v>
   <v>       0.00176047       0.00052665      -0.27275079 </v>
   <v>       0.00314308       0.00025844      -0.27220282 </v>
   <v>       0.00171609      -0.00100208      -0.02726411 </v>
   <v>      -0.00141082      -0.00320736      -0.03283294 </v>
   <v>      -0.00116595       0.00279759      -0.03496589 </v>
   <v>      -0.00139126      -0.00766787      -0.03546947 </v>
   <v>      -0.00001616       0.00134686      -0.00628569 </v>
   <v>       0.00143025      -0.00018143      -0.02339470 </v>
   <v>      -0.00142673       0.00078365      -0.02755681 </v>
   <v>       0.00905678      -0.00053141      -0.03798577 </v>
   <v>       0.00356807       0.00019457      -0.03165967 </v>
   <v>      -0.00292770      -0.00381405      -0.03999816 </v>
   <v>       0.00149921      -0.00057519      -0.00464885 </v>
   <v>      -0.00156193       0.01114221      -0.04200475 </v>
   <v>       0.00210278      -0.00109121      -0.03710564 </v>
   <v>       0.00066999       0.00101168      -0.02898031 </v>
   <v>       0.00050532       0.00155337      -0.03275334 </v>
   <v>       0.00009618       0.00108982      -0.02843635 </v>
   <v>      -0.01173876      -0.00017988      -0.03965169 </v>
   <v>       0.00104406      -0.00167864      -0.02780532 </v>
   <v>      -0.00156195      -0.00044381       0.05572673 </v>
[...]
    <v>       0.66666667       0.16666667       0.06551164 </v>
    <v>       0.66666667       0.50000000       0.06551164 </v>
    <v>       0.66666667       0.83333333       0.06551164 </v>
    <v>       0.16666667       0.00000000       0.06551164 </v>
    <v>       0.16666667       0.33333333       0.06551164 </v>
    <v>       0.16666667       0.66666667       0.06551164 </v>
    <v>       0.50000000       0.00000000       0.06551164 </v>
    <v>       0.50000000       0.33333333       0.06551164 </v>
    <v>       0.50000000       0.66666667       0.06551164 </v>
    <v>       0.83333333       0.00000000       0.06551164 </v>
    <v>       0.83333333       0.33333333       0.06551164 </v>
    <v>       0.83333333       0.66666667       0.06551164 </v>
    <v>       0.00000000       0.00000000       0.13119553 </v>
    <v>       0.00000000       0.33333333       0.13119553 </v>
    <v>       0.00000000       0.66666667       0.13119553 </v>
    <v>       0.33333333       0.00000000       0.13119553 </v>
    <v>       0.33333333       0.33333333       0.13119553 </v>
    <v>       0.33333333       0.66666667       0.13119553 </v>
    <v>       0.66666667       0.00000000       0.13119553 </v>
    <v>       0.66666667       0.33333333       0.13119553 </v>
    <v>       0.66666667       0.66666667       0.13119553 </v>
    <v>       0.16666667       0.16666667       0.13119553 </v>
    <v>       0.16666667       0.50000000       0.13119553 </v>
    <v>       0.16666667       0.83333333       0.13119553 </v>
    <v>       0.50000000       0.16666667       0.13119553 </v>
    <v>       0.50000000       0.50000000       0.13119553 </v>
    <v>       0.50000000       0.83333333       0.13119553 </v>
    <v>       0.83333333       0.16666667       0.13119553 </v>
    <v>       0.83333333       0.50000000       0.13119553 </v>
    <v>       0.83333333       0.83333333       0.13119553 </v>
    <v>      -0.00017707       0.16655968       0.19416479 </v>
    <v>      -0.00037673       0.49989645       0.19418611 </v>
    <v>      -0.00039891       0.83336165       0.19414291 </v>
    <v>       0.33308914       0.16643731       0.19419879 </v>
    <v>       0.33345890       0.50014442       0.19419611 </v>
    <v>       0.33314959       0.83329270       0.19419496 </v>
    <v>       0.66657788       0.16628339       0.19413267 </v>
    <v>       0.66653001       0.49994554       0.19418883 </v>
    <v>       0.66663420       0.83349502       0.19422260 </v>
    <v>       0.16644017      -0.00011483       0.19414455 </v>
    <v>       0.16626051       0.33291813       0.19412659 </v>
    <v>       0.16648930       0.66670494       0.19420563 </v>
    <v>       0.49985674      -0.00027802       0.19412045 </v>
    <v>       0.49986523       0.33326337       0.19421385 </v>
    <v>       0.49978054       0.66652956       0.19424241 </v>
    <v>       0.83272128      -0.00042616       0.19423184 </v>
    <v>       0.83313731       0.33324390       0.19415009 </v>
    <v>       0.83298649       0.66657910       0.19412561 </v>
    <v>       0.00000077      -0.00014984       0.25737081 </v>
    <v>      -0.00060346       0.33297351       0.25692979 </v>
    <v>      -0.00053150       0.66653609       0.25709617 </v>
    <v>       0.33292388      -0.00035293       0.25707042 </v>
    <v>       0.33318784       0.33309951       0.25717003 </v>
    <v>       0.33329564       0.66659805       0.25708899 </v>
    <v>       0.66613574      -0.00042988       0.25709035 </v>
    <v>       0.66673207       0.33307682       0.25716589 </v>
    <v>       0.66641636       0.66647497       0.25724511 </v>
    <v>       0.16616765       0.16619385       0.25691499 </v>
    <v>       0.16636808       0.49994659       0.25717593 </v>
    <v>       0.16624762       0.83356517       0.25712874 </v>
    <v>       0.49965704       0.16632664       0.25715294 </v>
    <v>       0.49979898       0.50007187       0.25705469 </v>
    <v>       0.49963191       0.83318977       0.25723615 </v>
    <v>       0.83303370       0.16684292       0.25735612 </v>
    <v>       0.83282292       0.49981588       0.25700458 </v>
    <v>       0.83276548       0.83297385       0.25718261 </v>
    <v>      -0.00028093       0.16669928       0.31974286 </v>
    <v>      -0.00036212       0.49989125       0.31964892 </v>
    <v>      -0.00037114       0.83286379       0.31983234 </v>
    <v>       0.33304305       0.16644919       0.31964358 </v>
    <v>       0.33279529       0.49964479       0.31975709 </v>
    <v>       0.33295113       0.83308011       0.31988415 </v>
    <v>       0.66607265       0.16649763       0.31983014 </v>
    <v>       0.66623976       0.49981690       0.31988225 </v>
    <v>       0.66609533       0.83295768       0.31985205 </v>
    <v>       0.16631563      -0.00019245       0.31979769 </v>
    <v>       0.16641003       0.33333797       0.31973525 </v>
    <v>       0.16609896       0.66634129       0.31964111 </v>
    <v>       0.49919499      -0.00025802       0.31988076 </v>
    <v>       0.49958603       0.33288561       0.31965616 </v>
    <v>       0.49963985       0.66649636       0.31981947 </v>
    <v>       0.83289495      -0.00020421       0.31986041 </v>
    <v>       0.83301919       0.33323613       0.31975839 </v>
    <v>       0.83298030       0.66612187       0.31986637 </v>
    <v>      -0.00040855       0.00001968       0.38342898 </v>
    <v>      -0.00090330       0.33345187       0.38351013 </v>
    <v>      -0.00047690       0.66599200       0.38370563 </v>
    <v>       0.33285542      -0.00021650       0.38366121 </v>
    <v>       0.33289792       0.33292631       0.38365655 </v>
    <v>       0.33269769       0.66692434       0.38347225 </v>
    <v>       0.66617483      -0.00001119       0.38362870 </v>
    <v>       0.66650835       0.33287737       0.38346979 </v>
    <v>       0.66641533       0.66619316       0.38363193 </v>
    <v>       0.16650364       0.16592853       0.38345719 </v>
    <v>       0.16613601       0.49969680       0.38370300 </v>
    <v>       0.16610944       0.83331432       0.38345204 </v>
    <v>       0.49904542       0.16636043       0.38372384 </v>
    <v>       0.50019775       0.49952397       0.38344457 </v>
    <v>       0.49920925       0.83319480       0.38368113 </v>
    <v>       0.83327983       0.16660717       0.38347965 </v>
    <v>       0.83275432       0.49979175       0.38359640 </v>
    <v>       0.83328055       0.83289778       0.38360048 </v>
    <v>      -0.00059950       0.16629411       0.44625674 </v>
    <v>      -0.00085670       0.49978872       0.44641328 </v>
    <v>      -0.00046097       0.83312090       0.44605661 </v>
    <v>       0.33286413       0.16632911       0.44649886 </v>
    <v>       0.33408289       0.50052684       0.44544752 </v>
    <v>       0.33266336       0.83315840       0.44616744 </v>
    <v>       0.66645312       0.16620877       0.44601388 </v>
    <v>       0.66637296       0.49952760       0.44612363 </v>
    <v>       0.66666064       0.83346927       0.44605101 </v>
    <v>       0.16595993      -0.00018790       0.44610727 </v>
    <v>       0.16574010       0.33242319       0.44558594 </v>
    <v>       0.16608527       0.66693336       0.44609332 </v>
    <v>       0.49953841      -0.00029963       0.44615254 </v>
    <v>       0.50013558       0.33271930       0.44606777 </v>
    <v>       0.50029311       0.66708507       0.44601272 </v>
    <v>       0.83334479      -0.00002259       0.44589164 </v>
    <v>       0.83289891       0.33289059       0.44620458 </v>
    <v>       0.83279847       0.66652309       0.44620900 </v>
    <v>       0.28414687       0.42403491       0.52655302 </v>
    <v>       0.27720027       0.48913003       0.53686340 </v>
   </varray>
  </structure>
  <varray name="forces" >
   <v>      -0.00348762      -0.00025630       0.31228488 </v>
   <v>       0.00066004      -0.00158397       0.31350041 </v>
   <v>       0.00062101      -0.00033564       0.31356610 </v>
   <v>      -0.00085105      -0.00013140       0.31365310 </v>
   <v>      -0.00087832      -0.00173769       0.31218453 </v>
   <v>      -0.00091642      -0.00049514       0.31262492 </v>
   <v>       0.00105195      -0.00122687       0.31184031 </v>
   <v>      -0.00319048      -0.00157116       0.31328701 </v>
   <v>      -0.00325170       0.00043739       0.31304057 </v>
   <v>      -0.00230731       0.00143975       0.31345967 </v>
   <v>      -0.00240288      -0.00022008       0.31182805 </v>
   <v>      -0.00221482      -0.00294902       0.31311091 </v>
   <v>      -0.00074636       0.00096537       0.31349664 </v>
   <v>      -0.00121584      -0.00024738       0.31264796 </v>
   <v>      -0.00000425      -0.00255317       0.31289562 </v>
   <v>      -0.00078976      -0.00304006       0.31250560 </v>
   <v>      -0.00039695      -0.00046745       0.31391511 </v>
   <v>      -0.00170886       0.00188283       0.31222297 </v>
   <v>      -0.00120593      -0.00018817      -0.08697390 </v>
   <v>      -0.00060946      -0.00044278      -0.08561365 </v>
   <v>      -0.00186841      -0.00178166      -0.08608514 </v>
   <v>      -0.00091209      -0.00003543      -0.08601586 </v>
   <v>      -0.00100723      -0.00028298      -0.08363773 </v>
   <v>      -0.00113487       0.00001995      -0.08626709 </v>
   <v>      -0.00234119      -0.00130493      -0.08579359 </v>
   <v>      -0.00030069      -0.00072693      -0.08612006 </v>
   <v>      -0.00153451      -0.00059170      -0.08486062 </v>
   <v>      -0.00073420      -0.00099927      -0.08619903 </v>
   <v>      -0.00134426      -0.00087201      -0.08667092 </v>
   <v>      -0.00159790      -0.00151811      -0.08689132 </v>
   <v>      -0.00080706      -0.00035995      -0.08543521 </v>
   <v>      -0.00221068      -0.00130824      -0.08709340 </v>
   <v>      -0.00185538      -0.00068624      -0.08790103 </v>
   <v>      -0.00173568      -0.00091795      -0.08502241 </v>
   <v>      -0.00125295      -0.00043801      -0.08593971 </v>
   <v>      -0.00073971      -0.00026108      -0.08559891 </v>
   <v>      -0.01493213       0.00017660      -0.22215159 </v>
   <v>      -0.00685681      -0.00474268      -0.23171162 </v>
   <v>      -0.00190874      -0.00196005      -0.22333848 </v>
   <v>      -0.00682673      -0.00319661      -0.22323060 </v>
   <v>      -0.00321368      -0.00354188      -0.21763985 </v>
   <v>      -0.00332416       0.00067708      -0.22681098 </v>
   <v>      -0.00563258      -0.00547356      -0.24004473 </v>
   <v>      -0.00972409      -0.00524103      -0.22085001 </v>
   <v>      -0.01492799       0.00266224      -0.22185405 </v>
   <v>      -0.00730691      -0.00513192      -0.23363034 </v>
   <v>      -0.00580577      -0.00118116      -0.21450947 </v>
   <v>      -0.00812784      -0.00625133      -0.22398144 </v>
   <v>      -0.00648521       0.00153234      -0.22217425 </v>
   <v>      -0.00131186      -0.00114296      -0.22826806 </v>
   <v>      -0.00175081      -0.01326218      -0.22329295 </v>
   <v>      -0.00203045      -0.01046175      -0.22290961 </v>
   <v>      -0.00706654      -0.00365986      -0.22578618 </v>
   <v>      -0.00797040      -0.00268212      -0.23536526 </v>
   <v>      -0.03055644      -0.02854468       0.00077189 </v>
   <v>       0.02563298       0.00794735       0.00178811 </v>
   <v>       0.01200575      -0.00142309       0.01779414 </v>
   <v>       0.01691541       0.01184592      -0.00027572 </v>
   <v>      -0.03988658      -0.03109000      -0.00118247 </v>
   <v>       0.00293357      -0.00637088      -0.00729506 </v>
   <v>      -0.00356195       0.02694557       0.02106453 </v>
   <v>      -0.00763663      -0.00260144      -0.01048939 </v>
   <v>      -0.02639012      -0.04176650      -0.00807456 </v>
   <v>      -0.00585588      -0.00769371      -0.01890447 </v>
   <v>       0.03420863       0.04538034       0.01898690 </v>
   <v>      -0.00363030      -0.00708561       0.01098296 </v>
   <v>      -0.00936472       0.01283060       0.00514546 </v>
   <v>       0.00637457      -0.01070824       0.00778219 </v>
   <v>       0.02315578       0.02384112      -0.01160619 </v>
   <v>       0.05738661       0.04334630       0.01919070 </v>
   <v>      -0.00965172      -0.01282103      -0.01703084 </v>
   <v>       0.00742439       0.00484709       0.00159129 </v>
   <v>      -0.05278967      -0.00532234      -0.10359510 </v>
   <v>       0.03585284       0.02495857      -0.00704709 </v>
   <v>       0.00996282       0.01083425      -0.06092011 </v>
   <v>       0.01499677       0.00793057      -0.03486672 </v>
   <v>      -0.02015012       0.01065522      -0.06996030 </v>
   <v>      -0.02633412       0.00520046      -0.02310945 </v>
   <v>       0.01411063       0.03156015      -0.00349465 </v>
   <v>      -0.03538891       0.00709515      -0.06469882 </v>
   <v>      -0.00173790       0.00706480      -0.07202267 </v>
   <v>       0.02230720       0.03247203       0.00171186 </v>
   <v>       0.00463860      -0.01692444      -0.07775590 </v>
   <v>       0.01030561      -0.03753471      -0.05265427 </v>
   <v>       0.01989494      -0.00043010      -0.07492653 </v>
   <v>       0.00705856      -0.02486218      -0.01204714 </v>
   <v>       0.00862302       0.00097271      -0.06976388 </v>
   <v>      -0.00614313      -0.05496874      -0.10370104 </v>
   <v>       0.00947100       0.00803102      -0.01872038 </v>
   <v>       0.02973763       0.01542021      -0.03342567 </v>
   <v>       0.01476860       0.00487881       0.05327517 </v>
   <v>      -0.00452784      -0.01283054       0.05721377 </v>
   <v>      -0.00948458       0.00125811       0.04232142 </v>
   <v>      -0.01675134      -0.00109796       0.06602485 </v>
   <v>       0.02547501       0.01922287       0.04651233 </v>
   <v>      -0.00834329      -0.00235383       0.02701830 </v>
   <v>      -0.00006058      -0.02130219       0.04753294 </v>
   <v>      -0.00184756      -0.00970029       0.02053738 </v>
   <v>       0.01399840       0.01924765       0.06806770 </v>
   <v>       0.01743741       0.00625041       0.04148639 </v>
   <v>      -0.02107597      -0.03042938       0.03272667 </v>
   <v>       0.01254508       0.01566589       0.06159317 </v>
   <v>       0.03564824       0.00651268       0.04072898 </v>
   <v>       0.00985017       0.01787915       0.06429959 </v>
   <v>      -0.00248235      -0.00473550       0.05489185 </v>
   <v>      -0.01345024      -0.01105261       0.02903679 </v>
   <v>       0.00262581       0.01537162       0.04991826 </v>
   <v>       0.00359232       0.02240370       0.03810244 </v>
   <v>       0.00815657      -0.01598293      -0.01342850 </v>
   <v>       0.02901289      -0.01806626      -0.01675231 </v>
   <v>       0.00946022       0.01694068      -0.03621377 </v>
   <v>      -0.00260702       0.00335225      -0.02271320 </v>
   <v>       0.01531528       0.00048997      -0.04446703 </v>
   <v>       0.01327298      -0.04242302       0.00298276 </v>
   <v>       0.00130283      -0.02053498      -0.04535603 </v>
   <v>      -0.00718889       0.00165950      -0.00983700 </v>
   <v>      -0.00166089       0.03506268      -0.02639766 </v>
   <v>      -0.01700740       0.03062812      -0.01437549 </v>
   <v>      -0.00598884       0.02047879      -0.05356384 </v>
   <v>      -0.00109830      -0.00623015      -0.00905121 </v>
   <v>       0.02970129       0.00213561      -0.04354510 </v>
   <v>      -0.04244176       0.01379421       0.00197327 </v>
   <v>       0.04250392       0.00478762      -0.03488017 </v>
   <v>      -0.02295170      -0.00342853      -0.02082365 </v>
   <v>       0.01243573      -0.00711648      -0.01577395 </v>
   <v>      -0.02953933       0.01005375      -0.03967801 </v>
   <v>       0.02248328       0.01760202      -0.00715163 </v>
   <v>       0.01711763      -0.00574680      -0.03501655 </v>
   <v>       0.00881340       0.00355814       0.02951040 </v>
   <v>      -0.00907808       0.00892459      -0.03034989 </v>
   <v>      -0.03541670      -0.02257144       0.10157874 </v>
   <v>       0.00205999      -0.00479779       0.02647007 </v>
   <v>      -0.00214461       0.01018592       0.03456310 </v>
   <v>      -0.00541572       0.00357129       0.02968785 </v>
   <v>      -0.00896427      -0.00592328       0.02466892 </v>
   <v>       0.01196437      -0.00079450       0.02871904 </v>
   <v>      -0.01952026      -0.01857652       0.00655792 </v>
   <v>      -0.00404878       0.00525876      -0.01431897 </v>
   <v>       0.00284805       0.00449494       0.03186153 </v>
   <v>      -0.00262581       0.00621198       0.00540944 </v>
   <v>      -0.02724014      -0.02574092       0.02625540 </v>
   <v>      -0.01554223      -0.00925259       0.04495551 </v>
   <v>       0.00267794       0.01107383       0.01597757 </v>
   <v>       0.00772838      -0.00576055       0.02329898 </v>
   <v>       0.00037238       0.20230335       0.10283590 </v>
   <v>       0.03184168      -0.19617536      -0.02053738 </v>
  </varray>
  <varray name="stress" >
   <v>     -35.43107367      -0.00567630       0.18315817 </v>
   <v>      -0.00567630     -35.51373068       0.06829684 </v>
   <v>       0.18315804       0.06829670     -13.27761634 </v>
  </varray>
  <energy>
   <i name="e_fr_energy">   -582.20998811 </i>
   <i name="e_wo_entrp">   -582.32579489 </i>
   <i name="e_0_energy">   -582.24859037 </i>
  </energy>
  <time name="totalsc"> 9909.1110019.67</time>
 </calculation>
 <calculation>
  <scstep>
   <time name="dav">  937.95  948.85</time>
   <time name="total">  943.17  954.16</time>
   <energy>
    <i name="alphaZ">   4623.72760507 </i>
    <i name="ewald"> 922754.54439066 </i>
    <i name="hartreedc">**************** </i>
    <i name="XCdc">   6429.83085431 </i>
    <i name="pawpsdc"> 189109.54509344 </i>
    <i name="pawaedc">-204631.24524071 </i>
    <i name="eentropy">      0.11592222 </i>
    <i name="bandstr">  -1793.05539681 </i>
    <i name="atom"> 200322.85745410 </i>
    <i name="e_fr_energy">   -521.73589781 </i>
    <i name="e_wo_entrp">   -521.85182003 </i>
    <i name="e_0_energy">   -521.77453855 </i>
   </energy>
  </scstep>
  <scstep>
   <time name="dav"> 1207.60 1221.46</time>
   <time name="total"> 1212.55 1226.53</time>
   <energy>
    <i name="e_fr_energy">   -521.74643496 </i>
    <i name="e_wo_entrp">   -521.86290432 </i>
    <i name="e_0_energy">   -521.78525808 </i>
   </energy>
  </scstep>
  <scstep>
   <time name="dav"> 1013.03 1024.79</time>
   <time name="total"> 1017.71 1029.52</time>
   <energy>
    <i name="e_fr_energy">   -521.74689874 </i>
    <i name="e_wo_entrp">   -521.86138258 </i>
    <i name="e_0_energy">   -521.78506002 </i>
   </energy>
  </scstep>
  <scstep>
   <time name="dav"> 1003.90 1015.90</time>
   <time name="total"> 1008.50 1020.54</time>
   <energy>
    <i name="e_fr_energy">   -521.74635388 </i>
    <i name="e_wo_entrp">   -521.86295300 </i>
    <i name="e_0_energy">   -521.78522025 </i>
   </energy>
  </scstep>
  <scstep>
   <time name="dav">  795.06  802.89</time>
   <time name="total">  799.70  807.57</time>
   <energy>
    <i name="e_fr_energy">   -521.74567656 </i>
    <i name="e_wo_entrp">   -521.86194093 </i>
    <i name="e_0_energy">   -521.78443135 </i>
   </energy>
  </scstep>
  <scstep>
   <time name="dav"> 1106.62 1117.63</time>
   <time name="total"> 1106.92 1117.94</time>
   <energy>
    <i name="alphaZ">   4623.72760507 </i>
    <i name="ewald"> 922754.54439066 </i>
    <i name="hartreedc">**************** </i>
    <i name="XCdc">   6429.85417180 </i>
    <i name="pawpsdc"> 189102.60245390 </i>
    <i name="pawaedc">-204624.29242150 </i>
    <i name="eentropy">      0.11477352 </i>
    <i name="bandstr">  -1788.50890397 </i>
    <i name="atom"> 200322.85745410 </i>
    <i name="e_fr_energy">   -521.74565479 </i>
    <i name="e_wo_entrp">   -521.86042831 </i>
    <i name="e_0_energy">   -521.78391263 </i>
   </energy>
  </scstep>
