unknown system                          
           1
    10.890000    0.000000    0.000000
     0.000000   10.890000    0.000000
     0.000000    0.000000   27.705000
   Cu   H 
   144     2
Direct configuration=     1
   0.00000000  0.00000000  0.00000000
   0.00000000  0.33333333  0.00000000
   0.00000000  0.66666667  0.00000000
   0.33333333  0.00000000  0.00000000
   0.33333333  0.33333333  0.00000000
   0.33333333  0.66666667  0.00000000
   0.66666667  0.00000000  0.00000000
   0.66666667  0.33333333  0.00000000
   0.66666667  0.66666667  0.00000000
   0.16666667  0.16666667  0.00000000
   0.16666667  0.50000000  0.00000000
   0.16666667  0.83333333  0.00000000
   0.50000000  0.16666667  0.00000000
   0.50000000  0.50000000  0.00000000
   0.50000000  0.83333333  0.00000000
   0.83333333  0.16666667  0.00000000
   0.83333333  0.50000000  0.00000000
   0.83333333  0.83333333  0.00000000
   0.00000000  0.16666667  0.06551164
   0.00000000  0.50000000  0.06551164
   0.00000000  0.83333333  0.06551164
   0.33333333  0.16666667  0.06551164
   0.33333333  0.50000000  0.06551164
   0.33333333  0.83333333  0.06551164
   0.66666667  0.16666667  0.06551164
   0.66666667  0.50000000  0.06551164
   0.66666667  0.83333333  0.06551164
   0.16666667  0.00000000  0.06551164
   0.16666667  0.33333333  0.06551164
   0.16666667  0.66666667  0.06551164
   0.50000000  0.00000000  0.06551164
   0.50000000  0.33333333  0.06551164
   0.50000000  0.66666667  0.06551164
   0.83333333  0.00000000  0.06551164
   0.83333333  0.33333333  0.06551164
   0.83333333  0.66666667  0.06551164
   0.00000000  0.00000000  0.13119553
   0.00000000  0.33333333  0.13119553
   0.00000000  0.66666667  0.13119553
   0.33333333  0.00000000  0.13119553
   0.33333333  0.33333333  0.13119553
   0.33333333  0.66666667  0.13119553
   0.66666667  0.00000000  0.13119553
   0.66666667  0.33333333  0.13119553
   0.66666667  0.66666667  0.13119553
   0.16666667  0.16666667  0.13119553
   0.16666667  0.50000000  0.13119553
   0.16666667  0.83333333  0.13119553
   0.50000000  0.16666667  0.13119553
   0.50000000  0.50000000  0.13119553
   0.50000000  0.83333333  0.13119553
   0.83333333  0.16666667  0.13119553
   0.83333333  0.50000000  0.13119553
   0.83333333  0.83333333  0.13119553
   0.00000000  0.16666667  0.19620680
   0.00000000  0.50000000  0.19620680
   0.00000000  0.83333333  0.19620680
   0.33333333  0.16666667  0.19620680
   0.33333333  0.50000000  0.19620680
   0.33333333  0.83333333  0.19620680
   0.66666667  0.16666667  0.19620680
   0.66666667  0.50000000  0.19620680
   0.66666667  0.83333333  0.19620680
   0.16666667  0.00000000  0.19620680
   0.16666667  0.33333333  0.19620680
   0.16666667  0.66666667  0.19620680
   0.50000000  0.00000000  0.19620680
   0.50000000  0.33333333  0.19620680
   0.50000000  0.66666667  0.19620680
   0.83333333  0.00000000  0.19620680
   0.83333333  0.33333333  0.19620680
   0.83333333  0.66666667  0.19620680
   0.00000000  0.00000000  0.25873860
   0.00000000  0.33333333  0.25873860
   0.00000000  0.66666667  0.25873860
   0.33333333  0.00000000  0.25873860
   0.33333333  0.33333333  0.25873860
   0.33333333  0.66666667  0.25873860
   0.66666667  0.00000000  0.25873860
   0.66666667  0.33333333  0.25873860
   0.66666667  0.66666667  0.25873860
   0.16666667  0.16666667  0.25873860
   0.16666667  0.50000000  0.25873860
   0.16666667  0.83333333  0.25873860
   0.50000000  0.16666667  0.25873860
   0.50000000  0.50000000  0.25873860
   0.50000000  0.83333333  0.25873860
   0.83333333  0.16666667  0.25873860
   0.83333333  0.50000000  0.25873860
   0.83333333  0.83333333  0.25873860
   0.00000000  0.16666667  0.32119954
   0.00000000  0.50000000  0.32119954
   0.00000000  0.83333333  0.32119954
   0.33333333  0.16666667  0.32119954
   0.33333333  0.50000000  0.32119954
   0.33333333  0.83333333  0.32119954
   0.66666667  0.16666667  0.32119954
   0.66666667  0.50000000  0.32119954
   0.66666667  0.83333333  0.32119954
   0.16666667  0.00000000  0.32119954
   0.16666667  0.33333333  0.32119954
   0.16666667  0.66666667  0.32119954
   0.50000000  0.00000000  0.32119954
   0.50000000  0.33333333  0.32119954
   0.50000000  0.66666667  0.32119954
   0.83333333  0.00000000  0.32119954
   0.83333333  0.33333333  0.32119954
   0.83333333  0.66666667  0.32119954
   0.00000000  0.00000000  0.38476372
   0.00000000  0.33333333  0.38476372
   0.00000000  0.66666667  0.38476372
   0.33333333  0.00000000  0.38476372
   0.33333333  0.33333333  0.38476372
   0.33333333  0.66666667  0.38476372
   0.66666667  0.00000000  0.38476372
   0.66666667  0.33333333  0.38476372
   0.66666667  0.66666667  0.38476372
   0.16666667  0.16666667  0.38476372
   0.16666667  0.50000000  0.38476372
   0.16666667  0.83333333  0.38476372
   0.50000000  0.16666667  0.38476372
   0.50000000  0.50000000  0.38476372
   0.50000000  0.83333333  0.38476372
   0.83333333  0.16666667  0.38476372
   0.83333333  0.50000000  0.38476372
   0.83333333  0.83333333  0.38476372
   0.00000000  0.16666667  0.44736473
   0.00000000  0.50000000  0.44736473
   0.00000000  0.83333333  0.44736473
   0.33333333  0.16666667  0.44736473
   0.33333333  0.50000000  0.44736473
   0.33333333  0.83333333  0.44736473
   0.66666667  0.16666667  0.44736473
   0.66666667  0.50000000  0.44736473
   0.66666667  0.83333333  0.44736473
   0.16666667  0.00000000  0.44736473
   0.16666667  0.33333333  0.44736473
   0.16666667  0.66666667  0.44736473
   0.50000000  0.00000000  0.44736473
   0.50000000  0.33333333  0.44736473
   0.50000000  0.66666667  0.44736473
   0.83333333  0.00000000  0.44736473
   0.83333333  0.33333333  0.44736473
   0.83333333  0.66666667  0.44736473
   0.25000000  0.41666667  0.50150658
   0.25000000  0.46510575  0.52054652
Direct configuration=     2
   0.00000000  0.00000000  0.00000000
   0.00000000  0.33333333  0.00000000
   0.00000000  0.66666667  0.00000000
   0.33333333  0.00000000  0.00000000
   0.33333333  0.33333333  0.00000000
   0.33333333  0.66666667  0.00000000
   0.66666667  0.00000000  0.00000000
   0.66666667  0.33333333  0.00000000
   0.66666667  0.66666667  0.00000000
   0.16666667  0.16666667  0.00000000
   0.16666667  0.50000000  0.00000000
   0.16666667  0.83333333  0.00000000
   0.50000000  0.16666667  0.00000000
   0.50000000  0.50000000  0.00000000
   0.50000000  0.83333333  0.00000000
   0.83333333  0.16666667  0.00000000
   0.83333333  0.50000000  0.00000000
   0.83333333  0.83333333  0.00000000
   0.00000000  0.16666667  0.06551164
   0.00000000  0.50000000  0.06551164
   0.00000000  0.83333333  0.06551164
   0.33333333  0.16666667  0.06551164
   0.33333333  0.50000000  0.06551164
   0.33333333  0.83333333  0.06551164
   0.66666667  0.16666667  0.06551164
   0.66666667  0.50000000  0.06551164
   0.66666667  0.83333333  0.06551164
   0.16666667  0.00000000  0.06551164
   0.16666667  0.33333333  0.06551164
   0.16666667  0.66666667  0.06551164
   0.50000000  0.00000000  0.06551164
   0.50000000  0.33333333  0.06551164
   0.50000000  0.66666667  0.06551164
   0.83333333  0.00000000  0.06551164
   0.83333333  0.33333333  0.06551164
   0.83333333  0.66666667  0.06551164
   0.00000000  0.00000000  0.13119553
   0.00000000  0.33333333  0.13119553
   0.00000000  0.66666667  0.13119553
   0.33333333  0.00000000  0.13119553
   0.33333333  0.33333333  0.13119553
   0.33333333  0.66666667  0.13119553
   0.66666667  0.00000000  0.13119553
   0.66666667  0.33333333  0.13119553
   0.66666667  0.66666667  0.13119553
   0.16666667  0.16666667  0.13119553
   0.16666667  0.50000000  0.13119553
   0.16666667  0.83333333  0.13119553
   0.50000000  0.16666667  0.13119553
   0.50000000  0.50000000  0.13119553
   0.50000000  0.83333333  0.13119553
   0.83333333  0.16666667  0.13119553
   0.83333333  0.50000000  0.13119553
   0.83333333  0.83333333  0.13119553
   0.00000465  0.16667742  0.19575492
   0.00000487  0.50000257  0.19576136
  -0.00000173  0.83331864  0.19573935
   0.33333633  0.16667285  0.19576425
   0.33332702  0.49999778  0.19573672
   0.33333254  0.83332862  0.19574393
   0.66665703  0.16666178  0.19573676
   0.66666308  0.49999835  0.19573698
   0.66666838  0.83333986  0.19573953
   0.16667113  0.00000199  0.19572552
   0.16666677  0.33333514  0.19574400
   0.16666251  0.66666393  0.19575876
   0.50000297  0.00000736  0.19573010
   0.49999633  0.33332793  0.19576042
   0.49999490  0.66666671  0.19576020
   0.83332522 -0.00000404  0.19574078
   0.83334113  0.33333567  0.19573186
   0.83334726  0.66666781  0.19573281
   0.00000760 -0.00000444  0.25869112
  -0.00000625  0.33331912  0.25868143
  -0.00000517  0.66667906  0.25867771
   0.33332717 -0.00003397  0.25867683
   0.33333326  0.33333930  0.25872765
   0.33333967  0.66666586  0.25869786
   0.66666035  0.00000347  0.25869061
   0.66670679  0.33333098  0.25867245
   0.66668247  0.66666753  0.25868347
   0.16665370  0.16664977  0.25866895
   0.16667331  0.49999745  0.25873050
   0.16665975  0.83338269  0.25866545
   0.50000932  0.16666183  0.25867399
   0.50000297  0.50000448  0.25868813
   0.50000224  0.83334021  0.25868156
   0.83333376  0.16667149  0.25868908
   0.83328133  0.49999920  0.25866955
   0.83333796  0.83332590  0.25869018
  -0.00000692  0.16666470  0.32129658
  -0.00002109  0.50001099  0.32126044
   0.00000287  0.83330420  0.32129533
   0.33334835  0.16665600  0.32128013
   0.33331695  0.49999166  0.32125939
   0.33333781  0.83327061  0.32130876
   0.66664225  0.16667152  0.32129006
   0.66659367  0.50000132  0.32130865
   0.66665635  0.83332863  0.32128861
   0.16666853  0.00004566  0.32130061
   0.16666541  0.33333309  0.32125262
   0.16664951  0.66669504  0.32125249
   0.49999790  0.00002488  0.32128612
   0.50002950  0.33330905  0.32126316
   0.50002750  0.66669439  0.32127811
   0.83332917  0.00000026  0.32128817
   0.83338158  0.33333429  0.32130162
   0.83336887  0.66666327  0.32129310
   0.00000251 -0.00001094  0.38480344
   0.00004999  0.33338646  0.38485339
   0.00003502  0.66663472  0.38483613
   0.33333981 -0.00006486  0.38480294
   0.33335810  0.33332034  0.38472635
   0.33328896  0.66652541  0.38487670
   0.66666179  0.00000332  0.38480319
   0.66673561  0.33332915  0.38480120
   0.66669509  0.66667332  0.38480101
   0.16669400  0.16668959  0.38484261
   0.16657570  0.50006094  0.38464361
   0.16666557  0.83342348  0.38479541
   0.49999548  0.16666789  0.38481494
   0.49985142  0.49997314  0.38487928
   0.50001343  0.83335614  0.38479624
   0.83332596  0.16666132  0.38479976
   0.83323152  0.50000451  0.38479472
   0.83333637  0.83333008  0.38480071
   0.00004261  0.16671695  0.44737630
  -0.00034313  0.50005841  0.44724202
   0.00000668  0.83331098  0.44736584
   0.33332579  0.16657861  0.44731402
   0.33384434  0.50044920  0.44734107
   0.33331496  0.83327963  0.44736430
   0.66665281  0.16666940  0.44735831
   0.66663425  0.49998742  0.44736082
   0.66665947  0.83332789  0.44735154
   0.16668031  0.00001617  0.44736274
   0.16576075  0.33219003  0.44687494
   0.16650934  0.66717486  0.44721992
   0.49999569  0.00000899  0.44735499
   0.50024975  0.33323316  0.44727826
   0.49996384  0.66664451  0.44736400
   0.83333728  0.00000495  0.44735113
   0.83336565  0.33335069  0.44736494
   0.83334752  0.66666050  0.44736341
   0.25047544  0.41294558  0.50062709
   0.25033183  0.46919998  0.52227233
Direct configuration=     3
   0.00000000  0.00000000  0.00000000
   0.00000000  0.33333333  0.00000000
   0.00000000  0.66666667  0.00000000
   0.33333333  0.00000000  0.00000000
   0.33333333  0.33333333  0.00000000
   0.33333333  0.66666667  0.00000000
   0.66666667  0.00000000  0.00000000
   0.66666667  0.33333333  0.00000000
   0.66666667  0.66666667  0.00000000
   0.16666667  0.16666667  0.00000000
   0.16666667  0.50000000  0.00000000
   0.16666667  0.83333333  0.00000000
   0.50000000  0.16666667  0.00000000
   0.50000000  0.50000000  0.00000000
   0.50000000  0.83333333  0.00000000
   0.83333333  0.16666667  0.00000000
   0.83333333  0.50000000  0.00000000
   0.83333333  0.83333333  0.00000000
   0.00000000  0.16666667  0.06551164
   0.00000000  0.50000000  0.06551164
   0.00000000  0.83333333  0.06551164
   0.33333333  0.16666667  0.06551164
   0.33333333  0.50000000  0.06551164
   0.33333333  0.83333333  0.06551164
   0.66666667  0.16666667  0.06551164
   0.66666667  0.50000000  0.06551164
   0.66666667  0.83333333  0.06551164
   0.16666667  0.00000000  0.06551164
   0.16666667  0.33333333  0.06551164
   0.16666667  0.66666667  0.06551164
   0.50000000  0.00000000  0.06551164
   0.50000000  0.33333333  0.06551164
   0.50000000  0.66666667  0.06551164
   0.83333333  0.00000000  0.06551164
   0.83333333  0.33333333  0.06551164
   0.83333333  0.66666667  0.06551164
   0.00000000  0.00000000  0.13119553
   0.00000000  0.33333333  0.13119553
   0.00000000  0.66666667  0.13119553
   0.33333333  0.00000000  0.13119553
   0.33333333  0.33333333  0.13119553
   0.33333333  0.66666667  0.13119553
   0.66666667  0.00000000  0.13119553
   0.66666667  0.33333333  0.13119553
   0.66666667  0.66666667  0.13119553
   0.16666667  0.16666667  0.13119553
   0.16666667  0.50000000  0.13119553
   0.16666667  0.83333333  0.13119553
   0.50000000  0.16666667  0.13119553
   0.50000000  0.50000000  0.13119553
   0.50000000  0.83333333  0.13119553
   0.83333333  0.16666667  0.13119553
   0.83333333  0.50000000  0.13119553
   0.83333333  0.83333333  0.13119553
   0.00000308  0.16667379  0.19590756
   0.00000322  0.50000170  0.19591182
  -0.00000114  0.83332360  0.19589725
   0.33333532  0.16667076  0.19591373
   0.33332915  0.49999853  0.19589550
   0.33333281  0.83333021  0.19590028
   0.66666029  0.16666343  0.19589553
   0.66666429  0.49999891  0.19589567
   0.66666780  0.83333766  0.19589737
   0.16666962  0.00000132  0.19588808
   0.16666673  0.33333453  0.19590032
   0.16666391  0.66666485  0.19591010
   0.50000196  0.00000487  0.19589112
   0.49999757  0.33332976  0.19591120
   0.49999662  0.66666669  0.19591105
   0.83332796 -0.00000268  0.19589819
   0.83333850  0.33333488  0.19589228
   0.83334255  0.66666742  0.19589291
   0.00000503 -0.00000294  0.25870716
  -0.00000414  0.33332392  0.25870074
  -0.00000342  0.66667487  0.25869828
   0.33332925 -0.00002249  0.25869770
   0.33333329  0.33333728  0.25873135
   0.33333753  0.66666613  0.25871162
   0.66666248  0.00000230  0.25870682
   0.66669324  0.33333177  0.25869480
   0.66667713  0.66666724  0.25870209
   0.16665808  0.16665548  0.25869247
   0.16667106  0.49999831  0.25873324
   0.16666208  0.83336602  0.25869016
   0.50000617  0.16666347  0.25869581
   0.50000197  0.50000297  0.25870518
   0.50000148  0.83333789  0.25870083
   0.83333362  0.16666986  0.25870581
   0.83329890  0.49999947  0.25869287
   0.83333640  0.83332841  0.25870653
  -0.00000458  0.16666536  0.32126380
  -0.00001397  0.50000728  0.32123987
   0.00000190  0.83331404  0.32126298
   0.33334328  0.16665960  0.32125291
   0.33332248  0.49999447  0.32123918
   0.33333630  0.83329179  0.32127187
   0.66665050  0.16666988  0.32125948
   0.66661833  0.50000087  0.32127180
   0.66665983  0.83333022  0.32125853
   0.16666790  0.00003024  0.32126647
   0.16666583  0.33333317  0.32123469
   0.16665530  0.66668546  0.32123460
   0.49999861  0.00001647  0.32125687
   0.50001954  0.33331725  0.32124167
   0.50001821  0.66668502  0.32125157
   0.83333058  0.00000017  0.32125824
   0.83336528  0.33333396  0.32126714
   0.83335687  0.66666442  0.32126150
   0.00000166 -0.00000725  0.38479002
   0.00003310  0.33336852  0.38482310
   0.00002319  0.66664551  0.38481167
   0.33333762 -0.00004295  0.38478969
   0.33334974  0.33332473  0.38473897
   0.33330395  0.66657313  0.38483853
   0.66666344  0.00000220  0.38478986
   0.66671232  0.33333056  0.38478854
   0.66668549  0.66667108  0.38478841
   0.16668477  0.16668185  0.38481596
   0.16660642  0.50004036  0.38468418
   0.16666594  0.83339303  0.38478470
   0.49999701  0.16666748  0.38479764
   0.49990161  0.49998221  0.38484025
   0.50000889  0.83334843  0.38478525
   0.83332845  0.16666313  0.38478758
   0.83326591  0.50000299  0.38478425
   0.83333534  0.83333118  0.38478821
   0.00002822  0.16669997  0.44737239
  -0.00022723  0.50003868  0.44728347
   0.00000442  0.83331853  0.44736546
   0.33332834  0.16660835  0.44733115
   0.33367173  0.50029747  0.44734906
   0.33332117  0.83329777  0.44736445
   0.66665749  0.16666848  0.44736048
   0.66664520  0.49999167  0.44736214
   0.66666190  0.83332973  0.44735599
   0.16667570  0.00001071  0.44736341
   0.16606675  0.33257621  0.44704038
   0.16656248  0.66700320  0.44726883
   0.49999714  0.00000595  0.44735828
   0.50016539  0.33326700  0.44730747
   0.49997606  0.66665199  0.44736425
   0.83333595  0.00000328  0.44735572
   0.83335474  0.33334483  0.44736487
   0.83334273  0.66666258  0.44736385
   0.25031485  0.41420248  0.50092416
   0.25021975  0.46781704  0.52168939
Direct configuration=     4
   0.00000000  0.00000000  0.00000000
   0.00000000  0.33333333  0.00000000
   0.00000000  0.66666667  0.00000000
   0.33333333  0.00000000  0.00000000
   0.33333333  0.33333333  0.00000000
   0.33333333  0.66666667  0.00000000
   0.66666667  0.00000000  0.00000000
   0.66666667  0.33333333  0.00000000
   0.66666667  0.66666667  0.00000000
   0.16666667  0.16666667  0.00000000
   0.16666667  0.50000000  0.00000000
   0.16666667  0.83333333  0.00000000
   0.50000000  0.16666667  0.00000000
   0.50000000  0.50000000  0.00000000
   0.50000000  0.83333333  0.00000000
   0.83333333  0.16666667  0.00000000
   0.83333333  0.50000000  0.00000000
   0.83333333  0.83333333  0.00000000
   0.00000000  0.16666667  0.06551164
   0.00000000  0.50000000  0.06551164
   0.00000000  0.83333333  0.06551164
   0.33333333  0.16666667  0.06551164
   0.33333333  0.50000000  0.06551164
   0.33333333  0.83333333  0.06551164
   0.66666667  0.16666667  0.06551164
   0.66666667  0.50000000  0.06551164
   0.66666667  0.83333333  0.06551164
   0.16666667  0.00000000  0.06551164
   0.16666667  0.33333333  0.06551164
   0.16666667  0.66666667  0.06551164
   0.50000000  0.00000000  0.06551164
   0.50000000  0.33333333  0.06551164
   0.50000000  0.66666667  0.06551164
   0.83333333  0.00000000  0.06551164
   0.83333333  0.33333333  0.06551164
   0.83333333  0.66666667  0.06551164
   0.00000000  0.00000000  0.13119553
   0.00000000  0.33333333  0.13119553
   0.00000000  0.66666667  0.13119553
   0.33333333  0.00000000  0.13119553
   0.33333333  0.33333333  0.13119553
   0.33333333  0.66666667  0.13119553
   0.66666667  0.00000000  0.13119553
   0.66666667  0.33333333  0.13119553
   0.66666667  0.66666667  0.13119553
   0.16666667  0.16666667  0.13119553
   0.16666667  0.50000000  0.13119553
   0.16666667  0.83333333  0.13119553
   0.50000000  0.16666667  0.13119553
   0.50000000  0.50000000  0.13119553
   0.50000000  0.83333333  0.13119553
   0.83333333  0.16666667  0.13119553
   0.83333333  0.50000000  0.13119553
   0.83333333  0.83333333  0.13119553
   0.00000638  0.16668534  0.19540701
   0.00001411  0.50000433  0.19542103
  -0.00000490  0.83330827  0.19537975
   0.33333915  0.16668295  0.19542606
   0.33331840  0.49999397  0.19537792
   0.33333360  0.83332129  0.19538838
   0.66665118  0.16665691  0.19537513
   0.66665623  0.49999838  0.19537467
   0.66667002  0.83334515  0.19538024
   0.16667358  0.00000536  0.19535227
   0.16667063  0.33334137  0.19539130
   0.16666133  0.66665655  0.19541641
   0.50000540  0.00001264  0.19536239
   0.49998879  0.33332498  0.19541872
   0.49998966  0.66666658  0.19541778
   0.83331993 -0.00000657  0.19538311
   0.83335042  0.33333584  0.19536489
   0.83335878  0.66666996  0.19536733
   0.00001426 -0.00000923  0.25861447
  -0.00001515  0.33330656  0.25859681
  -0.00001260  0.66669172  0.25858952
   0.33332157 -0.00006491  0.25858944
   0.33333435  0.33334321  0.25867870
   0.33334543  0.66666776  0.25862725
   0.66665548  0.00000627  0.25861298
   0.66674511  0.33332997  0.25858027
   0.66670065  0.66666763  0.25859987
   0.16664310  0.16663108  0.25857340
   0.16667825  0.49999574  0.25868247
   0.16665495  0.83342975  0.25856758
   0.50001824  0.16665487  0.25858234
   0.50000758  0.50000808  0.25860935
   0.50000313  0.83334983  0.25859634
   0.83333345  0.16667595  0.25861085
   0.83323214  0.49999824  0.25857551
   0.83334169  0.83331995  0.25861247
  -0.00000804  0.16666837  0.32136965
  -0.00006217  0.50001930  0.32129736
   0.00000664  0.83327951  0.32136494
   0.33335875  0.16663473  0.32133702
   0.33332111  0.49999664  0.32130219
   0.33334093  0.83321308  0.32139033
   0.66662351  0.16667773  0.32135493
   0.66652442  0.50000168  0.32139027
   0.66664890  0.83332490  0.32135224
   0.16667250  0.00008482  0.32137307
   0.16665147  0.33331237  0.32128691
   0.16663682  0.66674134  0.32128529
   0.49999374  0.00004540  0.32134729
   0.50006771  0.33329185  0.32130705
   0.50004613  0.66671223  0.32133786
   0.83332574 -0.00000029  0.32135210
   0.83342263  0.33333754  0.32137528
   0.83340046  0.66665845  0.32136079
   0.00000369 -0.00001645  0.38484949
   0.00002139  0.33342903  0.38490696
   0.00005352  0.66661565  0.38489896
   0.33334740 -0.00012030  0.38484596
   0.33338802  0.33332967  0.38470076
   0.33325360  0.66641886  0.38496923
   0.66665874  0.00000643  0.38484730
   0.66679843  0.33332647  0.38483936
   0.66671278  0.66667808  0.38484448
   0.16671528  0.16662877  0.38488484
   0.16651297  0.50011836  0.38454978
   0.16666670  0.83351597  0.38482377
   0.49999230  0.16666265  0.38486395
   0.49974043  0.49995198  0.38497458
   0.50002269  0.83336970  0.38483504
   0.83332428  0.16665700  0.38484239
   0.83313206  0.50000942  0.38482521
   0.83334044  0.83332738  0.38484302
   0.00002606  0.16670623  0.44739382
  -0.00062903  0.50011773  0.44713728
  -0.00000114  0.83330898  0.44737473
   0.33333128  0.16650654  0.44727632
   0.33403241  0.50064021  0.44746399
   0.33330834  0.83324404  0.44737139
   0.66665002  0.16666598  0.44735985
   0.66661093  0.49998095  0.44736510
   0.66665215  0.83332165  0.44734625
   0.16668922  0.00002362  0.44737014
   0.16515918  0.33139771  0.44653569
   0.16636853  0.66759699  0.44710568
   0.49999147  0.00001284  0.44735320
   0.50046857  0.33313065  0.44720952
   0.49996228  0.66665660  0.44737195
   0.83334204  0.00001011  0.44734522
   0.83338272  0.33335897  0.44737336
   0.83334816  0.66666252  0.44737012
   0.25094468  0.41447941  0.50163408
   0.25069653  0.46802761  0.52183950
Direct configuration=     5
   0.00000000  0.00000000  0.00000000
   0.00000000  0.33333333  0.00000000
   0.00000000  0.66666667  0.00000000
   0.33333333  0.00000000  0.00000000
   0.33333333  0.33333333  0.00000000
   0.33333333  0.66666667  0.00000000
   0.66666667  0.00000000  0.00000000
   0.66666667  0.33333333  0.00000000
   0.66666667  0.66666667  0.00000000
   0.16666667  0.16666667  0.00000000
   0.16666667  0.50000000  0.00000000
   0.16666667  0.83333333  0.00000000
   0.50000000  0.16666667  0.00000000
   0.50000000  0.50000000  0.00000000
   0.50000000  0.83333333  0.00000000
   0.83333333  0.16666667  0.00000000
   0.83333333  0.50000000  0.00000000
   0.83333333  0.83333333  0.00000000
   0.00000000  0.16666667  0.06551164
   0.00000000  0.50000000  0.06551164
   0.00000000  0.83333333  0.06551164
   0.33333333  0.16666667  0.06551164
   0.33333333  0.50000000  0.06551164
   0.33333333  0.83333333  0.06551164
   0.66666667  0.16666667  0.06551164
   0.66666667  0.50000000  0.06551164
   0.66666667  0.83333333  0.06551164
   0.16666667  0.00000000  0.06551164
   0.16666667  0.33333333  0.06551164
   0.16666667  0.66666667  0.06551164
   0.50000000  0.00000000  0.06551164
   0.50000000  0.33333333  0.06551164
   0.50000000  0.66666667  0.06551164
   0.83333333  0.00000000  0.06551164
   0.83333333  0.33333333  0.06551164
   0.83333333  0.66666667  0.06551164
   0.00000000  0.00000000  0.13119553
   0.00000000  0.33333333  0.13119553
   0.00000000  0.66666667  0.13119553
   0.33333333  0.00000000  0.13119553
   0.33333333  0.33333333  0.13119553
   0.33333333  0.66666667  0.13119553
   0.66666667  0.00000000  0.13119553
   0.66666667  0.33333333  0.13119553
   0.66666667  0.66666667  0.13119553
   0.16666667  0.16666667  0.13119553
   0.16666667  0.50000000  0.13119553
   0.16666667  0.83333333  0.13119553
   0.50000000  0.16666667  0.13119553
   0.50000000  0.50000000  0.13119553
   0.50000000  0.83333333  0.13119553
   0.83333333  0.16666667  0.13119553
   0.83333333  0.50000000  0.13119553
   0.83333333  0.83333333  0.13119553
   0.00001015  0.16669853  0.19483590
   0.00002653  0.50000733  0.19486105
  -0.00000918  0.83329077  0.19478929
   0.33334354  0.16669686  0.19486963
   0.33330613  0.49998875  0.19478738
   0.33333450  0.83331111  0.19480431
   0.66664078  0.16664948  0.19478137
   0.66664703  0.49999778  0.19478022
   0.66667256  0.83335369  0.19479022
   0.16667809  0.00000997  0.19474093
   0.16667507  0.33334918  0.19481051
   0.16665838  0.66664707  0.19485313
   0.50000932  0.00002150  0.19475912
   0.49997877  0.33331953  0.19485682
   0.49998172  0.66666645  0.19485496
   0.83331076 -0.00001102  0.19479541
   0.83336403  0.33333694  0.19476315
   0.83337730  0.66667286  0.19476764
   0.00002479 -0.00001641  0.25850871
  -0.00002772  0.33328676  0.25847823
  -0.00002308  0.66671094  0.25846542
   0.33331281 -0.00011331  0.25846593
   0.33333556  0.33334998  0.25861864
   0.33335445  0.66666963  0.25853098
   0.66664750  0.00001080  0.25850590
   0.66680430  0.33332790  0.25844959
   0.66672748  0.66666807  0.25848324
   0.16662601  0.16660324  0.25843755
   0.16668645  0.49999280  0.25862455
   0.16664680  0.83350246  0.25842772
   0.50003200  0.16664506  0.25845287
   0.50001399  0.50001392  0.25850001
   0.50000501  0.83336345  0.25847712
   0.83333326  0.16668290  0.25850251
   0.83315597  0.49999684  0.25844160
   0.83334774  0.83331030  0.25850515
  -0.00001198  0.16667180  0.32149042
  -0.00011716  0.50003302  0.32136296
   0.00001205  0.83324012  0.32148129
   0.33337641  0.16660636  0.32143298
   0.33331953  0.49999910  0.32137409
   0.33334622  0.83312327  0.32152550
   0.66659272  0.16668669  0.32146383
   0.66641726  0.50000260  0.32152544
   0.66663642  0.83331882  0.32145917
   0.16667774  0.00014711  0.32149469
   0.16663508  0.33328863  0.32134649
   0.16661573  0.66680509  0.32134311
   0.49998819  0.00007840  0.32145045
   0.50012268  0.33326287  0.32138165
   0.50007799  0.66674327  0.32143631
   0.83332021 -0.00000081  0.32145920
   0.83348806  0.33334162  0.32149867
   0.83345020  0.66665163  0.32147407
   0.00000601 -0.00002696  0.38491733
   0.00000802  0.33349807  0.38500265
   0.00008813  0.66658159  0.38499855
   0.33335857 -0.00020856  0.38491017
   0.33343170  0.33333531  0.38465716
   0.33319616  0.66624285  0.38511835
   0.66665339  0.00001126  0.38491283
   0.66689667  0.33332179  0.38489735
   0.66674393  0.66668607  0.38490845
   0.16675010  0.16656820  0.38496343
   0.16640633  0.50020736  0.38439644
   0.16666758  0.83365623  0.38486834
   0.49998693  0.16665715  0.38493962
   0.49955653  0.49991749  0.38512784
   0.50003844  0.83339396  0.38489185
   0.83331953  0.16665000  0.38490492
   0.83297933  0.50001675  0.38487194
   0.83334627  0.83332304  0.38490555
   0.00002360  0.16671337  0.44741827
  -0.00108747  0.50020792  0.44697049
  -0.00000748  0.83329809  0.44738531
   0.33333463  0.16639037  0.44721376
   0.33444394  0.50103127  0.44759513
   0.33329371  0.83318274  0.44737932
   0.66664150  0.16666313  0.44735913
   0.66657182  0.49996872  0.44736848
   0.66664103  0.83331243  0.44733513
   0.16670464  0.00003836  0.44737781
   0.16412365  0.33005307  0.44595984
   0.16614725  0.66827448  0.44691951
   0.49998499  0.00002069  0.44734742
   0.50081448  0.33297508  0.44709776
   0.49994656  0.66666185  0.44738074
   0.83334900  0.00001791  0.44733324
   0.83341465  0.33337510  0.44738305
   0.83335436  0.66666246  0.44737726
   0.25166330  0.41479539  0.50244408
   0.25124053  0.46826787  0.52201078
Direct configuration=     6
   0.00000000  0.00000000  0.00000000
   0.00000000  0.33333333  0.00000000
   0.00000000  0.66666667  0.00000000
   0.33333333  0.00000000  0.00000000
   0.33333333  0.33333333  0.00000000
   0.33333333  0.66666667  0.00000000
   0.66666667  0.00000000  0.00000000
   0.66666667  0.33333333  0.00000000
   0.66666667  0.66666667  0.00000000
   0.16666667  0.16666667  0.00000000
   0.16666667  0.50000000  0.00000000
   0.16666667  0.83333333  0.00000000
   0.50000000  0.16666667  0.00000000
   0.50000000  0.50000000  0.00000000
   0.50000000  0.83333333  0.00000000
   0.83333333  0.16666667  0.00000000
   0.83333333  0.50000000  0.00000000
   0.83333333  0.83333333  0.00000000
   0.00000000  0.16666667  0.06551164
   0.00000000  0.50000000  0.06551164
   0.00000000  0.83333333  0.06551164
   0.33333333  0.16666667  0.06551164
   0.33333333  0.50000000  0.06551164
   0.33333333  0.83333333  0.06551164
   0.66666667  0.16666667  0.06551164
   0.66666667  0.50000000  0.06551164
   0.66666667  0.83333333  0.06551164
   0.16666667  0.00000000  0.06551164
   0.16666667  0.33333333  0.06551164
   0.16666667  0.66666667  0.06551164
   0.50000000  0.00000000  0.06551164
   0.50000000  0.33333333  0.06551164
   0.50000000  0.66666667  0.06551164
   0.83333333  0.00000000  0.06551164
   0.83333333  0.33333333  0.06551164
   0.83333333  0.66666667  0.06551164
   0.00000000  0.00000000  0.13119553
   0.00000000  0.33333333  0.13119553
   0.00000000  0.66666667  0.13119553
   0.33333333  0.00000000  0.13119553
   0.33333333  0.33333333  0.13119553
   0.33333333  0.66666667  0.13119553
   0.66666667  0.00000000  0.13119553
   0.66666667  0.33333333  0.13119553
   0.66666667  0.66666667  0.13119553
   0.16666667  0.16666667  0.13119553
   0.16666667  0.50000000  0.13119553
   0.16666667  0.83333333  0.13119553
   0.50000000  0.16666667  0.13119553
   0.50000000  0.50000000  0.13119553