 vasp.6.3.2 27Jun22 (build Aug 17 2022 15:43:34) complex                        
  
 executed on           tv2STDVTST date 2025.01.17  13:53:47
 running   20 mpi-ranks, with    1 threads/rank
 distrk:  each k-point on   20 cores,    1 groups
 distr:  one band on NCORE=   5 cores,    4 groups


--------------------------------------------------------------------------------------------------------


 -----------------------------------------------------------------------------
|                                                                             |
|           W    W    AA    RRRRR   N    N  II  N    N   GGGG   !!!           |
|           W    W   A  A   R    R  NN   N  II  NN   N  G    G  !!!           |
|           W    W  A    A  R    R  N N  N  II  N N  N  G       !!!           |
|           W WW W  AAAAAA  RRRRR   N  N N  II  N  N N  G  GGG   !            |
|           WW  WW  A    A  R   R   N   NN  II  N   NN  G    G                |
|           W    W  A    A  R    R  N    N  II  N    N   GGGG   !!!           |
|                                                                             |
|     Found issues when parsing the INCAR file                                |
|     In line 64: Tagname --- R W I G S contains invalid characters.          |
|     Please check if the interpretation in the OUTCAR file is correct.       |
|                                                                             |
 -----------------------------------------------------------------------------

 INCAR:
    = \=\=\=\=\=\=\=\=\=\=\=\=\=\=\=\=\=\=\=\=\=\=\=\=\=\=\=\=\=\=\=\=\=\=\=\=\=\=\=\=\=\=\=\=\=\=\=\=\=\=\=\=\=\=\=\=\=\=\=\=\=\=\=\=\=\=\=\=\=\=\=\=
    = \=\=\=\=\=\=\=\=\=\=\=\=\=\=\=\=\=\=\=\=\=\=\=\=\=\=\=\=\=\=\=\=\=\=\=\=\=\=\=\=\=\=\=\=\=\=\=\=\=\=\=\=\=\=\=\=\=\=\=\=\=\=\=\=\=\=\=\=\=\=\=\=
   ISTART = 0
   ICHARG = 2
   IPIPOL = 3
   IVDW = 11
   IDIPOL = 3
   IVDW = 11
    = \=\=\=\=\=\=\=\=\=\=\=\=\=\=\=\=\=\=\=\=\=\=\=\=\=\=\=\=\=\=\=\=\=\=\=\=\=\=\=\=\=\=\=\=\=\=\=\=\=\=\=\=\=\=\=\=\=\=\=\=\=\=\=\=\=\=\=\=\=\=\=\=
    = \=\=\=\=\=\=\=\=\=\=\=\=\=\=\=\=\=\=\=\=\=\=\=\=\=\=\=\=\=\=\=\=\=\=\=\=\=\=\=\=\=\=\=\=\=\=\=\=\=\=\=\=\=\=\=\=\=\=\=\=\=\=\=\=\=\=\=\=\=\=\=\=
   ISPIN = 2
    = \=\=\=\=\=\=\=\=\=\=\=\=\=\=\=\=\=\=\=\=\=\=\=\=\=\=\=\=\=\=\=\=\=\=\=\=\=\=\=\=\=\=\=\=\=\=\=\=\=\=\=\=\=\=\=\=\=\=\=\=\=\=\=\=\=\=\=\=\=\=\=\=
    = \=\=\=\=\=\=\=\=\=\=\=\=\=\=\=\=\=\=\=\=\=\=\=\=\=\=\=\=\=\=\=\=\=\=\=\=\=\=\=\=\=\=\=\=\=\=\=\=\=\=\=\=\=\=\=\=\=\=\=\=\=\=\=\=\=\=\=\=\=\=\=\=
   ENCUT = 400
   PREC = Normal
   EDIFF = 2E-04
   GGA = PE
   ISMEAR = 1
   SIGMA = 0.2
   LREAL = .FALSE.
    = \=\=\=\=\=\=\=\=\=\=\=\=\=\=\=\=\=\=\=\=\=\=\=\=\=\=\=\=\=\=\=\=\=\=\=\=\=\=\=\=\=\=\=\=\=\=\=\=\=\=\=\=\=\=\=\=\=\=\=\=\=\=\=\=\=\=\=\=\=\=\=\=
    = \=\=\=\=\=\=\=\=\=\=\=\=\=\=\=\=\=\=\=\=\=\=\=\=\=\=\=\=\=\=\=\=\=\=\=\=\=\=\=\=\=\=\=\=\=\=\=\=\=\=\=\=\=\=\=\=\=\=\=\=\=\=\=\=\=\=\=\=\=\=\=\=
   ISYM = 1
   NSW = 800
   IBRION = 2
   POTIM = 0.5
   ISIF = 2
   EDIFFG = -.03
    = \=\=\=\=\=\=\=\=\=\=\=\=\=\=\=\=\=\=\=\=\=\=\=\=\=\=\=\=\=\=\=\=\=\=\=\=\=\=\=\=\=\=\=\=\=\=\=\=\=\=\=\=\=\=\=\=\=\=\=\=\=\=\=\=\=\=\=\=\=\=\=\=
    = \=\=\=\=\=\=\=\=\=\=\=\=\=\=\=\=\=\=\=\=\=\=\=\=\=\=\=\=\=\=\=\=\=\=\=\=\=\=\=\=\=\=\=\=\=\=\=\=\=\=\=\=\=\=\=\=\=\=\=\=\=\=\=\=\=\=\=\=\=\=\=\=
   NPAR = 4
   LWAVE = .FALSE.
   LCHARG = .FALSE.

 POTCAR:    PAW_PBE Cu 22Jun2005                  
 -----------------------------------------------------------------------------
|                                                                             |
|           W    W    AA    RRRRR   N    N  II  N    N   GGGG   !!!           |
|           W    W   A  A   R    R  NN   N  II  NN   N  G    G  !!!           |
|           W    W  A    A  R    R  N N  N  II  N N  N  G       !!!           |
|           W WW W  AAAAAA  RRRRR   N  N N  II  N  N N  G  GGG   !            |
|           WW  WW  A    A  R   R   N   NN  II  N   NN  G    G                |
|           W    W  A    A  R    R  N    N  II  N    N   GGGG   !!!           |
|                                                                             |
|     You use a magnetic or noncollinear calculation, but did not specify     |
|     the initial magnetic moment with the MAGMOM tag. Note that a            |
|     default of 1 will be used for all atoms. This ferromagnetic setup       |
|     may break the symmetry of the crystal, in particular it may rule        |
|     out finding an antiferromagnetic solution. Thence, we recommend         |
|     setting the initial magnetic moment manually or verifying carefully     |
|     that this magnetic setup is desired.                                    |
|                                                                             |
 -----------------------------------------------------------------------------

 POTCAR:    PAW_PBE Cu 22Jun2005                  
   SHA256 =  0e71e558f37a4e8407882b4609ceaae59938afaad9ced71dfe8490308a0ab630 Cu/POTCAR             
   COPYR  = (c) Copyright 22Jun2005 Georg Kresse                                                    
   COPYR  = This file is part of the software VASP. Any use, copying, and all other rights are regul
   COPYR  = If you do not have a valid VASP license, you may not use, copy or distribute this file. 
   VRHFIN =Cu: d10 p1                                                                               
   LEXCH  = PE                                                                                      
   EATOM  =  1390.9808 eV,  102.2342 Ry                                                             
                                                                                                    
   TITEL  = PAW_PBE Cu 22Jun2005                                                                    
   LULTRA =        F    use ultrasoft PP ?                                                          
   IUNSCR =        1    unscreen: 0-lin 1-nonlin 2-no                                               
   RPACOR =    2.000    partial core radius                                                         
   POMASS =   63.546; ZVAL   =   11.000    mass and valenz                                          
   RCORE  =    2.300    outmost cutoff radius                                                       
   RWIGS  =    2.200; RWIGS  =    1.164    wigner-seitz radius (au A)                               
   ENMAX  =  295.446; ENMIN  =  221.585 eV                                                          
   ICORE  =        3    local potential                                                             
   LCOR   =        T    correct aug charges                                                         
   LPAW   =        T    paw PP                                                                      
   EAUG   =  586.980                                                                                
   DEXC   =    0.000                                                                                
   RMAX   =    2.344    core radius for proj-oper                                                   
   RAUG   =    1.300    factor for augmentation sphere                                              
   RDEP   =    2.302    radius for radial grids                                                     
   RDEPT  =    1.771    core radius for aug-charge                                                  
                                                                                                    
   Atomic configuration                                                                             
    9 entries                                                                                       
     n  l   j            E        occ.                                                              
     1  0  0.50     -8850.2468   2.0000                                                             
     2  0  0.50     -1062.3498   2.0000                                                             
     2  1  1.50      -916.8226   6.0000                                                             
     3  0  0.50      -114.6929   2.0000                                                             
     3  1  1.50       -72.1325   6.0000                                                             
     3  2  2.50        -5.0394  10.0000                                                             
     4  0  0.50        -4.6097   1.0000                                                             
     4  1  0.50        -4.0817   0.0000                                                             
     4  3  2.50        -1.3606   0.0000                                                             
   Description                                                                                      
     l       E           TYP  RCUT    TYP  RCUT                                                     
     2     -5.0393973     23  2.200                                                                 
     2     10.8846608     23  2.200                                                                 
     0     -4.6097109     23  2.200                                                                 
     0      8.2520465     23  2.200                                                                 
     1     -2.7211652     23  2.200                                                                 
     1     21.7055443     23  2.200                                                                 
     3      2.7211652     23  2.300                                                                 
  local pseudopotential read in
  partial core-charges read in
  partial kinetic energy density read in
  atomic valenz-charges read in
  non local Contribution for L=           2  read in
    real space projection operators read in
  non local Contribution for L=           2  read in
    real space projection operators read in
  non local Contribution for L=           0  read in
    real space projection operators read in
  non local Contribution for L=           0  read in
    real space projection operators read in
  non local Contribution for L=           1  read in
    real space projection operators read in
  non local Contribution for L=           1  read in
    real space projection operators read in
    PAW grid and wavefunctions read in
 
   number of l-projection  operators is LMAX  =           6
   number of lm-projection operators is LMMAX =          18
 
  PAW_PBE Cu 22Jun2005                  :
 energy of atom  1       EATOM=-1390.9808
 kinetic energy error for atom=    0.0232 (will be added to EATOM!!)
 
 
 POSCAR: FCC Cu
  positions in cartesian coordinates
  velocities in cartesian coordinates
  No initial velocities read in
 exchange correlation table for  LEXCH =        8
   RHO(1)=    0.500       N(1)  =     2000
   RHO(2)=  100.500       N(2)  =     4000

 VTST: version 4.2, (08/11/21)

 CHAIN: initializing optimizer
 
 OPT: Using VASP Conjugate-Gradient optimizer
 CHAIN: Read ICHAIN            0
 
 POSCAR: FCC Cu
  positions in cartesian coordinates
  velocities in cartesian coordinates
  No initial velocities read in
 


--------------------------------------------------------------------------------------------------------


 ion  position               nearest neighbor table
   1  0.000  0.000  0.000-   2 2.57   2 2.57   2 2.57
   2  0.333  0.333  0.071-   3 2.57   1 2.57   1 2.57   3 2.57   1 2.57   3 2.57
   3  0.667  0.667  0.141-   2 2.57   2 2.57   2 2.57   4 2.57   4 2.57   4 2.57
   4  0.000  0.000  0.212-   5 2.57   5 2.57   5 2.57   3 2.57   3 2.57   3 2.57
   5  0.333  0.333  0.283-   6 2.57   6 2.57   6 2.57   4 2.57   4 2.57   4 2.57
   6  0.667  0.667  0.353-   5 2.57   5 2.57   5 2.57   7 2.57   7 2.57   7 2.57
   7  0.000  0.000  0.424-   8 2.57   6 2.57   6 2.57   8 2.57   8 2.57   6 2.57
   8  0.333  0.333  0.494-   7 2.57   7 2.57   7 2.57
 
  LATTYP: Found a hexagonal cell.
 ALAT       =     2.5667977333
 C/A-ratio  =    11.5593334001
  
  Lattice vectors:
  
 A1 = (  -1.2833988667,  -2.2229120434,   0.0000000000)
 A2 = (   2.5667977333,   0.0000000000,   0.0000000000)
 A3 = (   0.0000000000,   0.0000000000,  29.6704707700)


Analysis of symmetry for initial positions (statically):
=====================================================================
 Subroutine PRICEL returns:
 Original cell was already a primitive cell.
 

 Routine SETGRP: Setting up the symmetry group for a 
 hexagonal supercell.


 Subroutine GETGRP returns: Found 12 space group operations
 (whereof  6 operations were pure point group operations)
 out of a pool of 24 trial point group operations.


The static configuration has the point symmetry C_3v.
 The point group associated with its full space group is D_3d.


Analysis of symmetry for dynamics (positions and initial velocities):
=====================================================================
 Subroutine PRICEL returns:
 Original cell was already a primitive cell.
 

 Routine SETGRP: Setting up the symmetry group for a 
 hexagonal supercell.


 Subroutine GETGRP returns: Found 12 space group operations
 (whereof  6 operations were pure point group operations)
 out of a pool of 24 trial point group operations.


The dynamic configuration has the point symmetry C_3v.
 The point group associated with its full space group is D_3d.


Analysis of constrained symmetry for selective dynamics:
=====================================================================
 Subroutine PRICEL returns:
 Original cell was already a primitive cell.
 

 Routine SETGRP: Setting up the symmetry group for a 
 hexagonal supercell.


 Subroutine GETGRP returns: Found  6 space group operations
 (whereof  6 operations were pure point group operations)
 out of a pool of 24 trial point group operations.


The constrained configuration has the point symmetry C_3v.


Analysis of structural, dynamic, and magnetic symmetry:
=====================================================================
 Subroutine PRICEL returns:
 Original cell was already a primitive cell.
 

 Routine SETGRP: Setting up the symmetry group for a 
 hexagonal supercell.


 Subroutine GETGRP returns: Found  6 space group operations
 (whereof  6 operations were pure point group operations)
 out of a pool of 24 trial point group operations.


The overall configuration has the point symmetry C_3v.


 Subroutine INISYM returns: Found  6 space group operations
 (whereof  6 operations are pure point group operations),
 and found     1 'primitive' translations


----------------------------------------------------------------------------------------

                                     Primitive cell                                     

  volume of cell :     169.2928

  direct lattice vectors                    reciprocal lattice vectors
     2.566797733  0.000000000  0.000000000     0.389590495 -0.224930177  0.000000000
     1.283398867  2.222912043  0.000000000     0.000000000  0.449860355  0.000000000
     0.000000000  0.000000000 29.670470770     0.000000000  0.000000000  0.033703543

  length of vectors
     2.566797733  2.566797733 29.670470770     0.449860355  0.449860355  0.033703543

  position of ions in fractional coordinates (direct lattice)
     0.000000000  0.000000000  0.000000000
     0.333333333  0.333333333  0.070635264
     0.666666667  0.666666667  0.141270528
     0.000000000  0.000000000  0.211905792
     0.333333333  0.333333333  0.282541056
     0.666666667  0.666666667  0.353176320
     0.000000000  0.000000000  0.423811585
     0.333333333  0.333333333  0.494446849

  ion indices of the primitive-cell ions
   primitive index   ion index
                 1           1
                 2           2
                 3           3
                 4           4
                 5           5
                 6           6
                 7           7
                 8           8

----------------------------------------------------------------------------------------

 
 
 KPOINTS: Auto-mesh                               

Automatic generation of k-mesh.
 Grid dimensions read from file:
 generate k-points for:    3    3    1

 Generating k-lattice:

  Cartesian coordinates                     Fractional coordinates (reciprocal lattice)
     0.129863498 -0.074976726  0.000000000     0.333333333  0.000000000  0.000000000
     0.000000000  0.149953452  0.000000000     0.000000000  0.333333333  0.000000000
     0.000000000  0.000000000  0.033703543     0.000000000  0.000000000  1.000000000

  Length of vectors
     0.149953452  0.149953452  0.033703543

  Shift w.r.t. Gamma in fractional coordinates (k-lattice)
     0.000000000  0.000000000  0.000000000

 
 Subroutine IBZKPT returns following result:
 ===========================================
 
 Found      3 irreducible k-points:
 
 Following reciprocal coordinates:
            Coordinates               Weight
  0.000000  0.000000  0.000000      1.000000
  0.333333  0.000000  0.000000      6.000000
 -0.333333  0.333333  0.000000      2.000000
 
 Following cartesian coordinates:
            Coordinates               Weight
  0.000000  0.000000  0.000000      1.000000
  0.129863 -0.074977  0.000000      6.000000
 -0.129863  0.224930  0.000000      2.000000
 


--------------------------------------------------------------------------------------------------------




 Dimension of arrays:
   k-points           NKPTS =      3   k-points in BZ     NKDIM =      3   number of bands    NBANDS=     56
   number of dos      NEDOS =    301   number of ions     NIONS =      8
   non local maximal  LDIM  =      6   non local SUM 2l+1 LMDIM =     18
   total plane-waves  NPLWV =  29400
   max r-space proj   IRMAX =      1   max aug-charges    IRDMAX=   5229
   dimension x,y,z NGX =    14 NGY =   14 NGZ =  150
   dimension x,y,z NGXF=    28 NGYF=   28 NGZF=  300
   support grid    NGXF=    28 NGYF=   28 NGZF=  300
   ions per type =               8
   NGX,Y,Z   is equivalent  to a cutoff of   9.07,  9.07,  8.40 a.u.
   NGXF,Y,Z  is equivalent  to a cutoff of  18.13, 18.13, 16.81 a.u.

 SYSTEM =  unknown system                          
 POSCAR =  FCC Cu                                  

 Startparameter for this run:
   NWRITE =      2    write-flag & timer
   PREC   = normal    normal or accurate (medium, high low for compatibility)
   ISTART =      0    job   : 0-new  1-cont  2-samecut
   ICHARG =      2    charge: 1-file 2-atom 10-const
   ISPIN  =      2    spin polarized calculation?
   LNONCOLLINEAR =      F non collinear calculations
   LSORBIT =      F    spin-orbit coupling
   INIWAV =      1    electr: 0-lowe 1-rand  2-diag
   LASPH  =      F    aspherical Exc in radial PAW
 Electronic Relaxation 1
   ENCUT  =  400.0 eV  29.40 Ry    5.42 a.u.   4.19  4.19 48.39*2*pi/ulx,y,z
   ENINI  =  400.0     initial cutoff
   ENAUG  =  587.0 eV  augmentation charge cutoff
   NELM   =     60;   NELMIN=  2; NELMDL= -5     # of ELM steps 
   EDIFF  = 0.2E-03   stopping-criterion for ELM
   LREAL  =      F    real-space projection
   NLSPLINE    = F    spline interpolate recip. space projectors
   LCOMPAT=      F    compatible to vasp.4.4
   GGA_COMPAT  = T    GGA compatible to vasp.4.4-vasp.4.6
   LMAXPAW     = -100 max onsite density
   LMAXMIX     =    2 max onsite mixed and CHGCAR
   VOSKOWN=      0    Vosko Wilk Nusair interpolation
   ROPT   =    0.00000
 Ionic relaxation
   EDIFFG = -.3E-01   stopping-criterion for IOM
   NSW    =    800    number of steps for IOM
   NBLOCK =      1;   KBLOCK =    800    inner block; outer block 
   IBRION =      2    ionic relax: 0-MD 1-quasi-New 2-CG
   NFREE  =      1    steps in history (QN), initial steepest desc. (CG)
   ISIF   =      2    stress and relaxation
   IWAVPR =     11    prediction:  0-non 1-charg 2-wave 3-comb
   ISYM   =      1    0-nonsym 1-usesym 2-fastsym
   LCORR  =      T    Harris-Foulkes like correction to forces

   POTIM  = 0.5000    time-step for ionic-motion
   TEIN   =    0.0    initial temperature
   TEBEG  =    0.0;   TEEND  =   0.0 temperature during run
   SMASS  =  -3.00    Nose mass-parameter (am)
   estimated Nose-frequenzy (Omega)   =  0.10E-29 period in steps = 0.13E+47 mass=  -0.151E-27a.u.
   SCALEE = 1.0000    scale energy and forces
   NPACO  =    256;   APACO  = 10.0  distance and # of slots for P.C.
   PSTRESS=    0.0 pullay stress

  Mass of Ions in am
   POMASS =  63.55
  Ionic Valenz
   ZVAL   =  11.00
  Atomic Wigner-Seitz radii
   RWIGS  =  -1.00
  virtual crystal weights 
   VCA    =   1.00
   NELECT =      88.0000    total number of electrons
   NUPDOWN=      -1.0000    fix difference up-down

 DOS related values:
   EMIN   =  10.00;   EMAX   =-10.00  energy-range for DOS
   EFERMI =   0.00
   ISMEAR =     1;   SIGMA  =   0.20  broadening in eV -4-tet -1-fermi 0-gaus

 Electronic relaxation 2 (details)
   IALGO  =     38    algorithm
   LDIAG  =      T    sub-space diagonalisation (order eigenvalues)
   LSUBROT=      F    optimize rotation matrix (better conditioning)
   TURBO    =      0    0=normal 1=particle mesh
   IRESTART =      0    0=no restart 2=restart with 2 vectors
   NREBOOT  =      0    no. of reboots
   NMIN     =      0    reboot dimension
   EREF     =   0.00    reference energy to select bands
   IMIX   =      4    mixing-type and parameters
     AMIX     =   0.40;   BMIX     =  1.00
     AMIX_MAG =   1.60;   BMIX_MAG =  1.00
     AMIN     =   0.10
     WC   =   100.;   INIMIX=   1;  MIXPRE=   1;  MAXMIX= -45

 Intra band minimization:
   WEIMIN = 0.0010     energy-eigenvalue tresh-hold
   EBREAK =  0.89E-06  absolut break condition
   DEPER  =   0.30     relativ break condition  

   TIME   =   0.40     timestep for ELM

  volume/ion in A,a.u.               =      21.16       142.81
  Fermi-wavevector in a.u.,A,eV,Ry     =   1.316304  2.487454 23.574226  1.732657
  Thomas-Fermi vector in A             =   2.446426
 
 Write flags
   LWAVE        =      F    write WAVECAR
   LDOWNSAMPLE  =      F    k-point downsampling of WAVECAR
   LCHARG       =      F    write CHGCAR
   LVTOT        =      F    write LOCPOT, total local potential
   LVHAR        =      F    write LOCPOT, Hartree potential only
   LELF         =      F    write electronic localiz. function (ELF)
   LORBIT       =      0    0 simple, 1 ext, 2 COOP (PROOUT), +10 PAW based schemes


 Dipole corrections
   LMONO  =      F    monopole corrections only (constant potential shift)
   LDIPOL =      F    correct potential (dipole corrections)
   IDIPOL =      3    1-x, 2-y, 3-z, 4-all directions 
   EPSILON=  1.0000000 bulk dielectric constant

 Exchange correlation treatment:
   GGA     =    PE    GGA type
   LEXCH   =     8    internal setting for exchange type
   LIBXC   =     F    Libxc                    
   VOSKOWN =     0    Vosko Wilk Nusair interpolation
   LHFCALC =     F    Hartree Fock is set to
   LHFONE  =     F    Hartree Fock one center treatment
   AEXX    =    0.0000 exact exchange contribution

 Linear response parameters
   LEPSILON=     F    determine dielectric tensor
   LRPA    =     F    only Hartree local field effects (RPA)
   LNABLA  =     F    use nabla operator in PAW spheres
   LVEL    =     F    velocity operator in full k-point grid
   CSHIFT  =0.1000    complex shift for real part using Kramers Kronig
   OMEGAMAX=  -1.0    maximum frequency
   DEG_THRESHOLD= 0.2000000E-02 threshold for treating states as degnerate
   RTIME   =   -0.100 relaxation time in fs
  (WPLASMAI=    0.000 imaginary part of plasma frequency in eV, 0.658/RTIME)
   DFIELD  = 0.0000000 0.0000000 0.0000000 field for delta impulse in time
 
  Optional k-point grid parameters
   LKPOINTS_OPT  =     F    use optional k-point grid
   KPOINTS_OPT_MODE=     1    mode for optional k-point grid
 
 Orbital magnetization related:
   ORBITALMAG=     F  switch on orbital magnetization
   LCHIMAG   =     F  perturbation theory with respect to B field
   DQ        =  0.001000  dq finite difference perturbation B field
   LLRAUG    =     F  two centre corrections for induced B field



--------------------------------------------------------------------------------------------------------


 conjugate gradient relaxation of ions
   using selective dynamics as specified on POSCAR
   WARNING: If single coordinates had been selected the selection of coordinates
            is made according to the corresponding   d i r e c t   coordinates!
            Don't support selection of single cartesian coordinates -- sorry ...
  !
 charge density and potential will be updated during run
 spin polarized calculation
 Variant of blocked Davidson
 Davidson routine will perform the subspace rotation
 perform sub-space diagonalisation
    after iterative eigenvector-optimisation
 modified Broyden-mixing scheme, WC =      100.0
 initial mixing is a Kerker type mixing with AMIX =  0.4000 and BMIX =      1.0000
 Hartree-type preconditioning will be used
 using additional bands           12
 reciprocal scheme for non local part
 use partial core corrections
 calculate Harris-corrections to forces 
   (improved forces if not selfconsistent)
 use gradient corrections 
 use of overlap-Matrix (Vanderbilt PP)
 Methfessel and Paxton  Order N= 1 SIGMA  =   0.20


--------------------------------------------------------------------------------------------------------


  energy-cutoff  :      400.00
  volume of cell :      169.29
      direct lattice vectors                 reciprocal lattice vectors
     2.566797733  0.000000000  0.000000000     0.389590495 -0.224930177  0.000000000
     1.283398867  2.222912043  0.000000000     0.000000000  0.449860355  0.000000000
     0.000000000  0.000000000 29.670470770     0.000000000  0.000000000  0.033703543

  length of vectors
     2.566797733  2.566797733 29.670470770     0.449860355  0.449860355  0.033703543


 
 k-points in units of 2pi/SCALE and weight: Auto-mesh                               
   0.00000000  0.00000000  0.00000000       0.111
   0.12986350 -0.07497673  0.00000000       0.667
  -0.12986350  0.22493018  0.00000000       0.222
 
 k-points in reciprocal lattice and weights: Auto-mesh                               
   0.00000000  0.00000000  0.00000000       0.111
   0.33333333  0.00000000  0.00000000       0.667
  -0.33333333  0.33333333  0.00000000       0.222
 
 position of ions in fractional coordinates (direct lattice) 
   0.00000000  0.00000000  0.00000000
   0.33333333  0.33333333  0.07063526
   0.66666667  0.66666667  0.14127053
   0.00000000  0.00000000  0.21190579
   0.33333333  0.33333333  0.28254106
   0.66666667  0.66666667  0.35317632
   0.00000000  0.00000000  0.42381158
   0.33333333  0.33333333  0.49444685
 
 position of ions in cartesian coordinates  (Angst):
   0.00000000  0.00000000  0.00000000
   1.28339887  0.74097068  2.09578154
   2.56679773  1.48194136  4.19156308
   0.00000000  0.00000000  6.28734462
   1.28339887  0.74097068  8.38312615
   2.56679773  1.48194136 10.47890769
   0.00000000  0.00000000 12.57468923
   1.28339887  0.74097068 14.67047077
 


--------------------------------------------------------------------------------------------------------


 k-point   1 :   0.0000 0.0000 0.0000  plane waves:    3091
 k-point   2 :   0.3333 0.0000 0.0000  plane waves:    3081
 k-point   3 :  -0.3333 0.3333 0.0000  plane waves:    3096

 maximum and minimum number of plane-waves per node :       629      605

 maximum number of plane-waves:      3096
 maximum index in each direction: 
   IXMAX=    4   IYMAX=    4   IZMAX=   48
   IXMIN=   -4   IYMIN=   -4   IZMIN=  -48


 parallel 3D FFT for wavefunctions:
    minimum data exchange during FFTs selected (reduces bandwidth)
 parallel 3D FFT for charge:
    minimum data exchange during FFTs selected (reduces bandwidth)


 total amount of memory used by VASP MPI-rank0    33727. kBytes
=======================================================================

   base      :      30000. kBytes
   nonl-proj :        347. kBytes
   fftplans  :        716. kBytes
   grid      :       1721. kBytes
   one-center:         62. kBytes
   wavefun   :        881. kBytes
 
     INWAV:  cpu time      0.0000: real time      0.0012
 Broyden mixing: mesh for mixing (old mesh)
   NGX =  9   NGY =  9   NGZ = 97
  (NGX  = 28   NGY  = 28   NGZ  =300)
  gives a total of   7857 points

 initial charge density was supplied:
 charge density of overlapping atoms calculated
 number of electron      88.0000000 magnetization       8.0000000
 keeping initial charge density in first step


--------------------------------------------------------------------------------------------------------


 Maximum index for augmentation-charges          477 (set IRDMAX)


--------------------------------------------------------------------------------------------------------


 First call to EWALD:  gamma=   0.320
 Maximum number of real-space cells 6x 6x 1
 Maximum number of reciprocal cells 2x 2x13

    FEWALD:  cpu time      0.0019: real time      0.0019


--------------------------------------- Iteration      1(   1)  ---------------------------------------


    POTLOK:  cpu time      0.0220: real time      0.0223
    SETDIJ:  cpu time      0.0065: real time      0.0066
     EDDAV:  cpu time      0.1953: real time      0.1970
       DOS:  cpu time      0.0011: real time      0.0011
    --------------------------------------------
      LOOP:  cpu time      0.2250: real time      0.2270

 eigenvalue-minimisations  :   672
 total energy-change (2. order) : 0.7643813E+03  (-0.3303887E+04)
 number of electron      88.0000000 magnetization       8.0000000
 augmentation part       88.0000000 magnetization       8.0000000

 Free energy of the ion-electron system (eV)
  ---------------------------------------------------
  alpha Z        PSCENC =       276.47370612
  Ewald energy   TEWEN  =     49799.34773087
  -Hartree energ DENC   =    -60800.69884003
  -exchange      EXHF   =         0.00000000
  -V(xc)+E(xc)   XCENC  =       365.94474599
  PAW double counting   =      9824.77996839   -10671.36745220
  entropy T*S    EENTRO =        -0.00652961
  eigenvalues    EBANDS =       842.24682751
  atomic energy  EATOM  =     11127.66112160
  Solvation  Ediel_sol  =         0.00000000
  ---------------------------------------------------
  free energy    TOTEN  =       764.38127865 eV

  energy without entropy =      764.38780826  energy(sigma->0) =      764.38345519


--------------------------------------------------------------------------------------------------------




--------------------------------------- Iteration      1(   2)  ---------------------------------------


     EDDAV:  cpu time      0.1854: real time      0.1876
       DOS:  cpu time      0.0008: real time      0.0008
    --------------------------------------------
      LOOP:  cpu time      0.1862: real time      0.1883

 eigenvalue-minimisations  :   672
 total energy-change (2. order) :-0.7040654E+03  (-0.6805342E+03)
 number of electron      88.0000000 magnetization       8.0000000
 augmentation part       88.0000000 magnetization       8.0000000

 Free energy of the ion-electron system (eV)
  ---------------------------------------------------
  alpha Z        PSCENC =       276.47370612
  Ewald energy   TEWEN  =     49799.34773087
  -Hartree energ DENC   =    -60800.69884003
  -exchange      EXHF   =         0.00000000
  -V(xc)+E(xc)   XCENC  =       365.94474599
  PAW double counting   =      9824.77996839   -10671.36745220
  entropy T*S    EENTRO =        -0.00942297
  eigenvalues    EBANDS =       138.18431591
  atomic energy  EATOM  =     11127.66112160
  Solvation  Ediel_sol  =         0.00000000
  ---------------------------------------------------
  free energy    TOTEN  =        60.31587368 eV

  energy without entropy =       60.32529665  energy(sigma->0) =       60.31901467


--------------------------------------------------------------------------------------------------------




--------------------------------------- Iteration      1(   3)  ---------------------------------------


     EDDAV:  cpu time      0.1920: real time      0.1938
       DOS:  cpu time      0.0008: real time      0.0008
    --------------------------------------------
      LOOP:  cpu time      0.1928: real time      0.1946

 eigenvalue-minimisations  :   704
 total energy-change (2. order) :-0.9274521E+02  (-0.8797873E+02)
 number of electron      88.0000000 magnetization       8.0000000
 augmentation part       88.0000000 magnetization       8.0000000

 Free energy of the ion-electron system (eV)
  ---------------------------------------------------
  alpha Z        PSCENC =       276.47370612
  Ewald energy   TEWEN  =     49799.34773087
  -Hartree energ DENC   =    -60800.69884003
  -exchange      EXHF   =         0.00000000
  -V(xc)+E(xc)   XCENC  =       365.94474599
  PAW double counting   =      9824.77996839   -10671.36745220
  entropy T*S    EENTRO =         0.02722151
  eigenvalues    EBANDS =        45.40245757
  atomic energy  EATOM  =     11127.66112160
  Solvation  Ediel_sol  =         0.00000000
  ---------------------------------------------------
  free energy    TOTEN  =       -32.42934018 eV

  energy without entropy =      -32.45656169  energy(sigma->0) =      -32.43841401


--------------------------------------------------------------------------------------------------------




--------------------------------------- Iteration      1(   4)  ---------------------------------------


     EDDAV:  cpu time      0.2036: real time      0.2055
       DOS:  cpu time      0.0008: real time      0.0008
    --------------------------------------------
      LOOP:  cpu time      0.2044: real time      0.2063

 eigenvalue-minimisations  :   768
 total energy-change (2. order) :-0.3487733E+01  (-0.3466406E+01)
 number of electron      88.0000000 magnetization       8.0000000
 augmentation part       88.0000000 magnetization       8.0000000

 Free energy of the ion-electron system (eV)
  ---------------------------------------------------
  alpha Z        PSCENC =       276.47370612
  Ewald energy   TEWEN  =     49799.34773087
  -Hartree energ DENC   =    -60800.69884003
  -exchange      EXHF   =         0.00000000
  -V(xc)+E(xc)   XCENC  =       365.94474599
  PAW double counting   =      9824.77996839   -10671.36745220
  entropy T*S    EENTRO =         0.03584197
  eigenvalues    EBANDS =        41.90610429
  atomic energy  EATOM  =     11127.66112160
  Solvation  Ediel_sol  =         0.00000000
  ---------------------------------------------------
  free energy    TOTEN  =       -35.91707299 eV

  energy without entropy =      -35.95291496  energy(sigma->0) =      -35.92902032


--------------------------------------------------------------------------------------------------------




--------------------------------------- Iteration      1(   5)  ---------------------------------------


     EDDAV:  cpu time      0.2035: real time      0.2057
       DOS:  cpu time      0.0008: real time      0.0008
    CHARGE:  cpu time      0.0561: real time      0.0564
    MIXING:  cpu time      0.0005: real time      0.0005
    --------------------------------------------
      LOOP:  cpu time      0.2610: real time      0.2635

 eigenvalue-minimisations  :   776
 total energy-change (2. order) :-0.7602520E-01  (-0.7601467E-01)
 number of electron      87.9999971 magnetization       7.4997589
 augmentation part       52.0329816 magnetization       7.7123197

 Broyden mixing:
  rms(total) = 0.27077E+01    rms(broyden)= 0.27076E+01
  rms(prec ) = 0.27657E+01
  weight for this iteration     100.00

 Free energy of the ion-electron system (eV)
  ---------------------------------------------------
  alpha Z        PSCENC =       276.47370612
  Ewald energy   TEWEN  =     49799.34773087
  -Hartree energ DENC   =    -60800.69884003
  -exchange      EXHF   =         0.00000000
  -V(xc)+E(xc)   XCENC  =       365.94474599
  PAW double counting   =      9824.77996839   -10671.36745220
  entropy T*S    EENTRO =         0.03596016
  eigenvalues    EBANDS =        41.82996089
  atomic energy  EATOM  =     11127.66112160
  Solvation  Ediel_sol  =         0.00000000
  ---------------------------------------------------
  free energy    TOTEN  =       -35.99309819 eV

  energy without entropy =      -36.02905836  energy(sigma->0) =      -36.00508492


--------------------------------------------------------------------------------------------------------




--------------------------------------- Iteration      1(   6)  ---------------------------------------


    POTLOK:  cpu time      0.0190: real time      0.0193
    SETDIJ:  cpu time      0.0061: real time      0.0061
     EDDAV:  cpu time      0.1934: real time      0.1949
       DOS:  cpu time      0.0006: real time      0.0006
    CHARGE:  cpu time      0.0519: real time      0.0521
    MIXING:  cpu time      0.0007: real time      0.0008
    --------------------------------------------
      LOOP:  cpu time      0.2718: real time      0.2737

 eigenvalue-minimisations  :   720
 total energy-change (2. order) : 0.6409127E+01  (-0.8150608E+01)
 number of electron      87.9999966 magnetization       7.1778343
 augmentation part       58.4351084 magnetization       5.6038397

 Broyden mixing:
  rms(total) = 0.13181E+01    rms(broyden)= 0.13180E+01
  rms(prec ) = 0.14025E+01
  weight for this iteration     100.00

 eigenvalues of (default mixing * dielectric matrix)
  average eigenvalue GAMMA=   0.7935
  0.7935

 Free energy of the ion-electron system (eV)
  ---------------------------------------------------
  alpha Z        PSCENC =       276.47370612
  Ewald energy   TEWEN  =     49799.34773087
  -Hartree energ DENC   =    -60538.52626109
  -exchange      EXHF   =         0.00000000
  -V(xc)+E(xc)   XCENC  =       356.67480258
  PAW double counting   =      9944.82855496   -10747.12017195
  entropy T*S    EENTRO =        -0.02834534
  eigenvalues    EBANDS =      -248.89510941
  atomic energy  EATOM  =     11127.66112160
  Solvation  Ediel_sol  =         0.00000000
  ---------------------------------------------------
  free energy    TOTEN  =       -29.58397166 eV

  energy without entropy =      -29.55562631  energy(sigma->0) =      -29.57452321


--------------------------------------------------------------------------------------------------------




--------------------------------------- Iteration      1(   7)  ---------------------------------------


    POTLOK:  cpu time      0.0291: real time      0.0294
    SETDIJ:  cpu time      0.0068: real time      0.0068
     EDDAV:  cpu time      0.2072: real time      0.2087
       DOS:  cpu time      0.0008: real time      0.0008
    CHARGE:  cpu time      0.0504: real time      0.0507
    MIXING:  cpu time      0.0007: real time      0.0007
    --------------------------------------------
      LOOP:  cpu time      0.2950: real time      0.2971

 eigenvalue-minimisations  :   776
 total energy-change (2. order) : 0.2550974E+01  (-0.2498532E+01)
 number of electron      87.9999969 magnetization       6.9604662
 augmentation part       56.4131715 magnetization       5.4094417

 Broyden mixing:
  rms(total) = 0.83732E+00    rms(broyden)= 0.83722E+00
  rms(prec ) = 0.92473E+00
  weight for this iteration     100.00

 eigenvalues of (default mixing * dielectric matrix)
  average eigenvalue GAMMA=   0.6952
  0.8861  0.5044

 Free energy of the ion-electron system (eV)
  ---------------------------------------------------
  alpha Z        PSCENC =       276.47370612
  Ewald energy   TEWEN  =     49799.34773087
  -Hartree energ DENC   =    -60712.53079391
  -exchange      EXHF   =         0.00000000
  -V(xc)+E(xc)   XCENC  =       360.29222903
  PAW double counting   =     10159.13040352   -10999.25437606
  entropy T*S    EENTRO =         0.00104751
  eigenvalues    EBANDS =       -38.15406622
  atomic energy  EATOM  =     11127.66112160
  Solvation  Ediel_sol  =         0.00000000
  ---------------------------------------------------
  free energy    TOTEN  =       -27.03299754 eV

  energy without entropy =      -27.03404505  energy(sigma->0) =      -27.03334671


--------------------------------------------------------------------------------------------------------




--------------------------------------- Iteration      1(   8)  ---------------------------------------


    POTLOK:  cpu time      0.0198: real time      0.0200
    SETDIJ:  cpu time      0.0057: real time      0.0058
     EDDAV:  cpu time      0.2627: real time      0.2650
       DOS:  cpu time      0.0008: real time      0.0008
    CHARGE:  cpu time      0.0498: real time      0.0501
    MIXING:  cpu time      0.0007: real time      0.0007
    --------------------------------------------
      LOOP:  cpu time      0.3395: real time      0.3423

 eigenvalue-minimisations  :  1032
 total energy-change (2. order) : 0.9707435E+00  (-0.7216670E+00)
 number of electron      87.9999968 magnetization       6.4355483
 augmentation part       56.2025105 magnetization       4.8333663

 Broyden mixing:
  rms(total) = 0.63406E+00    rms(broyden)= 0.63398E+00
  rms(prec ) = 0.64512E+00
  weight for this iteration     100.00

 eigenvalues of (default mixing * dielectric matrix)
  average eigenvalue GAMMA=   0.7136
  1.0915  0.6613  0.3880

 Free energy of the ion-electron system (eV)
  ---------------------------------------------------
  alpha Z        PSCENC =       276.47370612
  Ewald energy   TEWEN  =     49799.34773087
  -Hartree energ DENC   =    -60668.58586539
  -exchange      EXHF   =         0.00000000
  -V(xc)+E(xc)   XCENC  =       360.73610666
  PAW double counting   =     10230.98161409   -11078.40294204
  entropy T*S    EENTRO =        -0.01595366
  eigenvalues    EBANDS =       -74.25777225
  atomic energy  EATOM  =     11127.66112160
  Solvation  Ediel_sol  =         0.00000000
  ---------------------------------------------------
  free energy    TOTEN  =       -26.06225400 eV

  energy without entropy =      -26.04630034  energy(sigma->0) =      -26.05693611


--------------------------------------------------------------------------------------------------------




--------------------------------------- Iteration      1(   9)  ---------------------------------------


    POTLOK:  cpu time      0.0187: real time      0.0190
    SETDIJ:  cpu time      0.0059: real time      0.0059
     EDDAV:  cpu time      0.2381: real time      0.2399
       DOS:  cpu time      0.0007: real time      0.0007
    CHARGE:  cpu time      0.0499: real time      0.0501
    MIXING:  cpu time      0.0007: real time      0.0007
    --------------------------------------------
      LOOP:  cpu time      0.3140: real time      0.3163

 eigenvalue-minimisations  :   936
 total energy-change (2. order) : 0.3197301E+00  (-0.2642680E+00)
 number of electron      87.9999968 magnetization       5.7930536
 augmentation part       56.0152976 magnetization       4.1151669

 Broyden mixing:
  rms(total) = 0.56980E+00    rms(broyden)= 0.56979E+00
  rms(prec ) = 0.57256E+00
  weight for this iteration     100.00

 eigenvalues of (default mixing * dielectric matrix)
  average eigenvalue GAMMA=   0.7417
  1.0275  0.7893  0.7893  0.3608

 Free energy of the ion-electron system (eV)
  ---------------------------------------------------
  alpha Z        PSCENC =       276.47370612
  Ewald energy   TEWEN  =     49799.34773087
  -Hartree energ DENC   =    -60691.66287189
  -exchange      EXHF   =         0.00000000
  -V(xc)+E(xc)   XCENC  =       360.79495711
  PAW double counting   =     10377.01675605   -11234.27401664
  entropy T*S    EENTRO =        -0.01798403
  eigenvalues    EBANDS =       -41.08192307
  atomic energy  EATOM  =     11127.66112160
  Solvation  Ediel_sol  =         0.00000000
  ---------------------------------------------------
  free energy    TOTEN  =       -25.74252389 eV

  energy without entropy =      -25.72453986  energy(sigma->0) =      -25.73652921


--------------------------------------------------------------------------------------------------------




--------------------------------------- Iteration      1(  10)  ---------------------------------------


    POTLOK:  cpu time      0.0187: real time      0.0190
    SETDIJ:  cpu time      0.0057: real time      0.0057
     EDDAV:  cpu time      0.2048: real time      0.2063
       DOS:  cpu time      0.0008: real time      0.0008
    CHARGE:  cpu time      0.0517: real time      0.0520
    MIXING:  cpu time      0.0008: real time      0.0008
    --------------------------------------------
      LOOP:  cpu time      0.2824: real time      0.2846

 eigenvalue-minimisations  :   776
 total energy-change (2. order) : 0.6654347E-01  (-0.1326013E+00)
 number of electron      87.9999968 magnetization       3.6700995
 augmentation part       56.1373201 magnetization       2.0575353

 Broyden mixing:
  rms(total) = 0.50356E+00    rms(broyden)= 0.50355E+00
  rms(prec ) = 0.50580E+00
  weight for this iteration     100.00

 eigenvalues of (default mixing * dielectric matrix)
  average eigenvalue GAMMA=   1.1840
  3.1170  1.2274  0.7012  0.5129  0.3613

 Free energy of the ion-electron system (eV)
  ---------------------------------------------------
  alpha Z        PSCENC =       276.47370612
  Ewald energy   TEWEN  =     49799.34773087
  -Hartree energ DENC   =    -60694.09941815
  -exchange      EXHF   =         0.00000000
  -V(xc)+E(xc)   XCENC  =       360.25654092
  PAW double counting   =     10472.46965248   -11333.60754008
  entropy T*S    EENTRO =        -0.01845504
  eigenvalues    EBANDS =       -34.15931914
  atomic energy  EATOM  =     11127.66112160
  Solvation  Ediel_sol  =         0.00000000
  ---------------------------------------------------
  free energy    TOTEN  =       -25.67598042 eV

  energy without entropy =      -25.65752538  energy(sigma->0) =      -25.66982874


--------------------------------------------------------------------------------------------------------




--------------------------------------- Iteration      1(  11)  ---------------------------------------


    POTLOK:  cpu time      0.0187: real time      0.0189
    SETDIJ:  cpu time      0.0059: real time      0.0059
     EDDAV:  cpu time      0.2327: real time      0.2344
       DOS:  cpu time      0.0008: real time      0.0008
    CHARGE:  cpu time      0.0500: real time      0.0502
    MIXING:  cpu time      0.0008: real time      0.0008
    --------------------------------------------
      LOOP:  cpu time      0.3088: real time      0.3110

 eigenvalue-minimisations  :   920
 total energy-change (2. order) :-0.2534349E-01  (-0.2648321E+00)
 number of electron      87.9999967 magnetization       2.8537563
 augmentation part       56.6565383 magnetization       1.6643077

 Broyden mixing:
  rms(total) = 0.42051E+00    rms(broyden)= 0.42049E+00
  rms(prec ) = 0.44013E+00
  weight for this iteration     100.00

 eigenvalues of (default mixing * dielectric matrix)
  average eigenvalue GAMMA=   1.3623
  4.8583  1.0902  0.7039  0.7039  0.3666  0.4512

 Free energy of the ion-electron system (eV)
  ---------------------------------------------------
  alpha Z        PSCENC =       276.47370612
  Ewald energy   TEWEN  =     49799.34773087
  -Hartree energ DENC   =    -60700.23664350
  -exchange      EXHF   =         0.00000000
  -V(xc)+E(xc)   XCENC  =       359.06419061
  PAW double counting   =     10672.18788363   -11539.90199742
  entropy T*S    EENTRO =        -0.00967009
  eigenvalues    EBANDS =       -20.28764574
  atomic energy  EATOM  =     11127.66112160
  Solvation  Ediel_sol  =         0.00000000
  ---------------------------------------------------
  free energy    TOTEN  =       -25.70132391 eV

  energy without entropy =      -25.69165382  energy(sigma->0) =      -25.69810055


--------------------------------------------------------------------------------------------------------




--------------------------------------- Iteration      1(  12)  ---------------------------------------


    POTLOK:  cpu time      0.0187: real time      0.0189
    SETDIJ:  cpu time      0.0057: real time      0.0057
     EDDAV:  cpu time      0.2384: real time      0.2407
       DOS:  cpu time      0.0008: real time      0.0008
    CHARGE:  cpu time      0.0493: real time      0.0496
    MIXING:  cpu time      0.0009: real time      0.0009
    --------------------------------------------
      LOOP:  cpu time      0.3137: real time      0.3165

 eigenvalue-minimisations  :   944
 total energy-change (2. order) :-0.2291734E+00  (-0.2314991E+00)
 number of electron      87.9999968 magnetization       2.4227805
 augmentation part       56.4881688 magnetization       1.3296428

 Broyden mixing:
  rms(total) = 0.32607E+00    rms(broyden)= 0.32599E+00
  rms(prec ) = 0.38697E+00
  weight for this iteration     100.00

 eigenvalues of (default mixing * dielectric matrix)
  average eigenvalue GAMMA=   1.3937
  5.7983  1.0514  0.8313  0.8313  0.3627  0.4403  0.4403

 Free energy of the ion-electron system (eV)
  ---------------------------------------------------
  alpha Z        PSCENC =       276.47370612
  Ewald energy   TEWEN  =     49799.34773087
  -Hartree energ DENC   =    -60719.35404155
  -exchange      EXHF   =         0.00000000
  -V(xc)+E(xc)   XCENC  =       359.28122012
  PAW double counting   =     10710.50015022   -11582.85860143
  entropy T*S    EENTRO =        -0.00940691
  eigenvalues    EBANDS =         3.02762362
  atomic energy  EATOM  =     11127.66112160
  Solvation  Ediel_sol  =         0.00000000
  ---------------------------------------------------
  free energy    TOTEN  =       -25.93049733 eV

  energy without entropy =      -25.92109043  energy(sigma->0) =      -25.92736170


--------------------------------------------------------------------------------------------------------




--------------------------------------- Iteration      1(  13)  ---------------------------------------


    POTLOK:  cpu time      0.0187: real time      0.0190
    SETDIJ:  cpu time      0.0057: real time      0.0057
     EDDAV:  cpu time      0.2558: real time      0.2577
       DOS:  cpu time      0.0008: real time      0.0008
    CHARGE:  cpu time      0.0498: real time      0.0500
    MIXING:  cpu time      0.0010: real time      0.0010
    --------------------------------------------
      LOOP:  cpu time      0.3317: real time      0.3341

 eigenvalue-minimisations  :  1024
 total energy-change (2. order) :-0.3074337E+00  (-0.2463859E+00)
 number of electron      87.9999968 magnetization       1.6586761
 augmentation part       56.3029419 magnetization       0.6267001

 Broyden mixing:
  rms(total) = 0.22807E+00    rms(broyden)= 0.22795E+00
  rms(prec ) = 0.27120E+00
  weight for this iteration     100.00

 eigenvalues of (default mixing * dielectric matrix)
  average eigenvalue GAMMA=   1.7931
  9.0624  1.7788  0.8811  0.8083  0.7283  0.4897  0.3643  0.2318

 Free energy of the ion-electron system (eV)
  ---------------------------------------------------
  alpha Z        PSCENC =       276.47370612
  Ewald energy   TEWEN  =     49799.34773087
  -Hartree energ DENC   =    -60728.06021436
  -exchange      EXHF   =         0.00000000
  -V(xc)+E(xc)   XCENC  =       359.39806211
  PAW double counting   =     10693.17965834   -11566.53140030
  entropy T*S    EENTRO =        -0.01233290
  eigenvalues    EBANDS =        12.30573749
  atomic energy  EATOM  =     11127.66112160
  Solvation  Ediel_sol  =         0.00000000
  ---------------------------------------------------
  free energy    TOTEN  =       -26.23793102 eV

  energy without entropy =      -26.22559812  energy(sigma->0) =      -26.23382005


--------------------------------------------------------------------------------------------------------




--------------------------------------- Iteration      1(  14)  ---------------------------------------


    POTLOK:  cpu time      0.0187: real time      0.0189
    SETDIJ:  cpu time      0.0057: real time      0.0057
     EDDAV:  cpu time      0.2786: real time      0.2807
       DOS:  cpu time      0.0008: real time      0.0008
    CHARGE:  cpu time      0.0505: real time      0.0507
    MIXING:  cpu time      0.0012: real time      0.0012
    --------------------------------------------
      LOOP:  cpu time      0.3555: real time      0.3581

 eigenvalue-minimisations  :  1080
 total energy-change (2. order) :-0.1639841E+01  (-0.1955506E+00)
 number of electron      87.9999967 magnetization       1.4491107
 augmentation part       56.0470148 magnetization       0.6070535

 Broyden mixing:
  rms(total) = 0.13056E+00    rms(broyden)= 0.13050E+00
  rms(prec ) = 0.14315E+00
  weight for this iteration     100.00

 eigenvalues of (default mixing * dielectric matrix)
  average eigenvalue GAMMA=   1.9190
 10.8517  2.2615  0.8447  0.8447  0.8598  0.5461  0.4797  0.3648  0.2182

 Free energy of the ion-electron system (eV)
  ---------------------------------------------------
  alpha Z        PSCENC =       276.47370612
  Ewald energy   TEWEN  =     49799.34773087
  -Hartree energ DENC   =    -60725.93532400
  -exchange      EXHF   =         0.00000000
  -V(xc)+E(xc)   XCENC  =       358.88905324
  PAW double counting   =     10550.71607000   -11418.25623845
  entropy T*S    EENTRO =        -0.01321827
  eigenvalues    EBANDS =         3.23932706
  atomic energy  EATOM  =     11127.66112160
  Solvation  Ediel_sol  =         0.00000000
  ---------------------------------------------------
  free energy    TOTEN  =       -27.87777183 eV

  energy without entropy =      -27.86455356  energy(sigma->0) =      -27.87336574


--------------------------------------------------------------------------------------------------------




--------------------------------------- Iteration      1(  15)  ---------------------------------------


    POTLOK:  cpu time      0.0197: real time      0.0200
    SETDIJ:  cpu time      0.0057: real time      0.0060
     EDDAV:  cpu time      0.2300: real time      0.2317
       DOS:  cpu time      0.0008: real time      0.0008
    CHARGE:  cpu time      0.0497: real time      0.0499
    MIXING:  cpu time      0.0012: real time      0.0012
    --------------------------------------------
      LOOP:  cpu time      0.3070: real time      0.3095

 eigenvalue-minimisations  :   904
 total energy-change (2. order) :-0.8955346E+00  (-0.8975046E-01)
 number of electron      87.9999968 magnetization       1.4196797
 augmentation part       56.1258800 magnetization       0.6862686

 Broyden mixing:
  rms(total) = 0.92538E-01    rms(broyden)= 0.92500E-01
  rms(prec ) = 0.94460E-01
  weight for this iteration     100.00

 eigenvalues of (default mixing * dielectric matrix)
  average eigenvalue GAMMA=   1.8709
 11.1377  2.6713  0.9468  0.9468  0.8221  0.5750  0.5750  0.3649  0.4509  0.2190

 Free energy of the ion-electron system (eV)
  ---------------------------------------------------
  alpha Z        PSCENC =       276.47370612
  Ewald energy   TEWEN  =     49799.34773087
  -Hartree energ DENC   =    -60714.89876974
  -exchange      EXHF   =         0.00000000
  -V(xc)+E(xc)   XCENC  =       358.23031367
  PAW double counting   =     10468.50730408   -11329.83875709
  entropy T*S    EENTRO =        -0.00654663
  eigenvalues    EBANDS =       -14.24940930
  atomic energy  EATOM  =     11127.66112160
  Solvation  Ediel_sol  =         0.00000000
  ---------------------------------------------------
  free energy    TOTEN  =       -28.77330642 eV

  energy without entropy =      -28.76675978  energy(sigma->0) =      -28.77112421


--------------------------------------------------------------------------------------------------------




--------------------------------------- Iteration      1(  16)  ---------------------------------------


    POTLOK:  cpu time      0.0187: real time      0.0190
    SETDIJ:  cpu time      0.0057: real time      0.0057
     EDDAV:  cpu time      0.2067: real time      0.2083
       DOS:  cpu time      0.0008: real time      0.0008
    CHARGE:  cpu time      0.0497: real time      0.0500
    MIXING:  cpu time      0.0012: real time      0.0012
    --------------------------------------------
      LOOP:  cpu time      0.2829: real time      0.2850

 eigenvalue-minimisations  :   792
 total energy-change (2. order) :-0.3437950E+00  (-0.2513090E-01)
 number of electron      87.9999968 magnetization       1.3255333
 augmentation part       56.1886016 magnetization       0.6478240

 Broyden mixing:
  rms(total) = 0.79935E-01    rms(broyden)= 0.79916E-01
  rms(prec ) = 0.82422E-01
  weight for this iteration     100.00

 eigenvalues of (default mixing * dielectric matrix)
  average eigenvalue GAMMA=   1.8334
 11.2781  3.0061  1.0213  1.0213  0.8003  0.8003  0.7027  0.3646  0.4766  0.4766
  0.2195

 Free energy of the ion-electron system (eV)
  ---------------------------------------------------
  alpha Z        PSCENC =       276.47370612
  Ewald energy   TEWEN  =     49799.34773087
  -Hartree energ DENC   =    -60708.40200337
  -exchange      EXHF   =         0.00000000
  -V(xc)+E(xc)   XCENC  =       357.94265445
  PAW double counting   =     10445.72924764   -11304.95816039
  entropy T*S    EENTRO =        -0.00676515
  eigenvalues    EBANDS =       -22.90463319
  atomic energy  EATOM  =     11127.66112160
  Solvation  Ediel_sol  =         0.00000000
  ---------------------------------------------------
  free energy    TOTEN  =       -29.11710142 eV

  energy without entropy =      -29.11033627  energy(sigma->0) =      -29.11484637


--------------------------------------------------------------------------------------------------------




--------------------------------------- Iteration      1(  17)  ---------------------------------------


    POTLOK:  cpu time      0.0186: real time      0.0189
    SETDIJ:  cpu time      0.0057: real time      0.0058
     EDDAV:  cpu time      0.2208: real time      0.2224
       DOS:  cpu time      0.0008: real time      0.0008
    CHARGE:  cpu time      0.0502: real time      0.0504
    MIXING:  cpu time      0.0013: real time      0.0013
    --------------------------------------------
      LOOP:  cpu time      0.2973: real time      0.2995

 eigenvalue-minimisations  :   864
 total energy-change (2. order) :-0.3403176E+00  (-0.2056253E-01)
 number of electron      87.9999968 magnetization       1.1410157
 augmentation part       56.2125150 magnetization       0.5688291

 Broyden mixing:
  rms(total) = 0.72471E-01    rms(broyden)= 0.72455E-01
  rms(prec ) = 0.72976E-01
  weight for this iteration     100.00

 eigenvalues of (default mixing * dielectric matrix)
  average eigenvalue GAMMA=   1.8425
 11.7418  3.2285  1.5804  0.9432  0.9432  0.7207  0.7207  0.7048  0.3646  0.4797
  0.4629  0.2195

 Free energy of the ion-electron system (eV)
  ---------------------------------------------------
  alpha Z        PSCENC =       276.47370612
  Ewald energy   TEWEN  =     49799.34773087
  -Hartree energ DENC   =    -60698.46939148
  -exchange      EXHF   =         0.00000000
  -V(xc)+E(xc)   XCENC  =       357.70485608
  PAW double counting   =     10436.85652538   -11295.49912894
  entropy T*S    EENTRO =        -0.01202293
  eigenvalues    EBANDS =       -33.52081575
  atomic energy  EATOM  =     11127.66112160
  Solvation  Ediel_sol  =         0.00000000
  ---------------------------------------------------
  free energy    TOTEN  =       -29.45741905 eV

  energy without entropy =      -29.44539612  energy(sigma->0) =      -29.45341141


--------------------------------------------------------------------------------------------------------




--------------------------------------- Iteration      1(  18)  ---------------------------------------


    POTLOK:  cpu time      0.0186: real time      0.0189
    SETDIJ:  cpu time      0.0057: real time      0.0057
     EDDAV:  cpu time      0.1960: real time      0.1980
       DOS:  cpu time      0.0008: real time      0.0008
    CHARGE:  cpu time      0.0495: real time      0.0497
    MIXING:  cpu time      0.0013: real time      0.0013
    --------------------------------------------
      LOOP:  cpu time      0.2719: real time      0.2745

 eigenvalue-minimisations  :   736
 total energy-change (2. order) :-0.2191187E+00  (-0.1145150E-01)
 number of electron      87.9999968 magnetization       0.8262721
 augmentation part       56.1734307 magnetization       0.3327589

 Broyden mixing:
  rms(total) = 0.60721E-01    rms(broyden)= 0.60707E-01
  rms(prec ) = 0.61987E-01
  weight for this iteration     100.00

 eigenvalues of (default mixing * dielectric matrix)
  average eigenvalue GAMMA=   1.9081
 12.3465  3.6388  2.2659  1.0931  1.0931  0.8022  0.8022  0.6737  0.5807  0.3646
  0.4775  0.4482  0.2195

 Free energy of the ion-electron system (eV)
  ---------------------------------------------------
  alpha Z        PSCENC =       276.47370612
  Ewald energy   TEWEN  =     49799.34773087
  -Hartree energ DENC   =    -60695.19299126
  -exchange      EXHF   =         0.00000000
  -V(xc)+E(xc)   XCENC  =       357.57058654
  PAW double counting   =     10452.61392086   -11312.65542223
  entropy T*S    EENTRO =        -0.01563342
  eigenvalues    EBANDS =       -35.47955682
  atomic energy  EATOM  =     11127.66112160
  Solvation  Ediel_sol  =         0.00000000
  ---------------------------------------------------
  free energy    TOTEN  =       -29.67653774 eV

  energy without entropy =      -29.66090432  energy(sigma->0) =      -29.67132660


--------------------------------------------------------------------------------------------------------




--------------------------------------- Iteration      1(  19)  ---------------------------------------


    POTLOK:  cpu time      0.0186: real time      0.0188
    SETDIJ:  cpu time      0.0060: real time      0.0060
     EDDAV:  cpu time      0.2227: real time      0.2243
       DOS:  cpu time      0.0008: real time      0.0008
    CHARGE:  cpu time      0.0501: real time      0.0503
    MIXING:  cpu time      0.0014: real time      0.0014
    --------------------------------------------
      LOOP:  cpu time      0.2995: real time      0.3017

 eigenvalue-minimisations  :   872
 total energy-change (2. order) :-0.1933693E+00  (-0.1210657E-01)
 number of electron      87.9999968 magnetization       0.5868081
 augmentation part       56.1476414 magnetization       0.2290031

 Broyden mixing:
  rms(total) = 0.50617E-01    rms(broyden)= 0.50575E-01
  rms(prec ) = 0.52883E-01
  weight for this iteration     100.00

 eigenvalues of (default mixing * dielectric matrix)
  average eigenvalue GAMMA=   1.9182
 12.8678  4.1149  2.7322  1.1226  1.1226  0.8131  0.8131  0.2195  0.3646  0.6171
  0.6171  0.5197  0.4493  0.4816

 Free energy of the ion-electron system (eV)
  ---------------------------------------------------
  alpha Z        PSCENC =       276.47370612
  Ewald energy   TEWEN  =     49799.34773087
  -Hartree energ DENC   =    -60689.09103173
  -exchange      EXHF   =         0.00000000
  -V(xc)+E(xc)   XCENC  =       357.42940535
  PAW double counting   =     10472.04665935   -11333.67773438
  entropy T*S    EENTRO =        -0.02019847
  eigenvalues    EBANDS =       -40.03956580
  atomic energy  EATOM  =     11127.66112160
  Solvation  Ediel_sol  =         0.00000000
  ---------------------------------------------------
  free energy    TOTEN  =       -29.86990708 eV

  energy without entropy =      -29.84970861  energy(sigma->0) =      -29.86317425


--------------------------------------------------------------------------------------------------------




--------------------------------------- Iteration      1(  20)  ---------------------------------------


    POTLOK:  cpu time      0.0186: real time      0.0188
    SETDIJ:  cpu time      0.0057: real time      0.0057
     EDDAV:  cpu time      0.2114: real time      0.2129
       DOS:  cpu time      0.0008: real time      0.0008
    CHARGE:  cpu time      0.0489: real time      0.0491
    MIXING:  cpu time      0.0015: real time      0.0015
    --------------------------------------------
      LOOP:  cpu time      0.2868: real time      0.2889

 eigenvalue-minimisations  :   816
 total energy-change (2. order) :-0.1102524E+00  (-0.4231987E-02)
 number of electron      87.9999968 magnetization       0.3121380
 augmentation part       56.1510560 magnetization       0.0390156

 Broyden mixing:
  rms(total) = 0.36563E-01    rms(broyden)= 0.36522E-01
  rms(prec ) = 0.37639E-01
  weight for this iteration     100.00

 eigenvalues of (default mixing * dielectric matrix)
  average eigenvalue GAMMA=   2.0546
 13.7861  5.5007  3.0343  1.4103  1.0380  1.0380  0.8366  0.8366  0.7387  0.6262
  0.2195  0.3646  0.4921  0.4509  0.4467

 Free energy of the ion-electron system (eV)
  ---------------------------------------------------
  alpha Z        PSCENC =       276.47370612
  Ewald energy   TEWEN  =     49799.34773087
  -Hartree energ DENC   =    -60686.07804826
  -exchange      EXHF   =         0.00000000
  -V(xc)+E(xc)   XCENC  =       357.29154167
  PAW double counting   =     10485.17682097   -11347.52674455
  entropy T*S    EENTRO =        -0.02238205
  eigenvalues    EBANDS =       -42.30390585
  atomic energy  EATOM  =     11127.66112160
  Solvation  Ediel_sol  =         0.00000000
  ---------------------------------------------------
  free energy    TOTEN  =       -29.98015946 eV

  energy without entropy =      -29.95777742  energy(sigma->0) =      -29.97269878


--------------------------------------------------------------------------------------------------------




--------------------------------------- Iteration      1(  21)  ---------------------------------------


    POTLOK:  cpu time      0.0186: real time      0.0188
    SETDIJ:  cpu time      0.0057: real time      0.0057
     EDDAV:  cpu time      0.2318: real time      0.2335
       DOS:  cpu time      0.0008: real time      0.0008
    CHARGE:  cpu time      0.0487: real time      0.0493
    MIXING:  cpu time      0.0016: real time      0.0016
    --------------------------------------------
      LOOP:  cpu time      0.3072: real time      0.3097

 eigenvalue-minimisations  :   912
 total energy-change (2. order) :-0.3047592E+00  (-0.5797542E-02)
 number of electron      87.9999968 magnetization       0.2048370
 augmentation part       56.1788255 magnetization       0.0021467

 Broyden mixing:
  rms(total) = 0.27972E-01    rms(broyden)= 0.27926E-01
  rms(prec ) = 0.35410E-01
  weight for this iteration     100.00

 eigenvalues of (default mixing * dielectric matrix)
  average eigenvalue GAMMA=   2.2803
 16.0534  7.9334  2.9424  1.8731  1.0694  1.0694  0.8063  0.8063  0.6545  0.6492
  0.6492  0.2195  0.3646  0.4946  0.4664  0.4338

 Free energy of the ion-electron system (eV)
  ---------------------------------------------------
  alpha Z        PSCENC =       276.47370612
  Ewald energy   TEWEN  =     49799.34773087
  -Hartree energ DENC   =    -60685.60269312
  -exchange      EXHF   =         0.00000000
  -V(xc)+E(xc)   XCENC  =       356.93541439
  PAW double counting   =     10491.24366467   -11353.35571471
  entropy T*S    EENTRO =        -0.02540182
  eigenvalues    EBANDS =       -42.96274670
  atomic energy  EATOM  =     11127.66112160
  Solvation  Ediel_sol  =         0.00000000
  ---------------------------------------------------
  free energy    TOTEN  =       -30.28491869 eV

  energy without entropy =      -30.25951687  energy(sigma->0) =      -30.27645142


--------------------------------------------------------------------------------------------------------




--------------------------------------- Iteration      1(  22)  ---------------------------------------


    POTLOK:  cpu time      0.0187: real time      0.0191
    SETDIJ:  cpu time      0.0057: real time      0.0057
     EDDAV:  cpu time      0.2366: real time      0.2384
       DOS:  cpu time      0.0008: real time      0.0008
    CHARGE:  cpu time      0.0486: real time      0.0488
    MIXING:  cpu time      0.0017: real time      0.0017
    --------------------------------------------
      LOOP:  cpu time      0.3120: real time      0.3145

 eigenvalue-minimisations  :   944
 total energy-change (2. order) :-0.2384235E+00  (-0.4034685E-02)
 number of electron      87.9999968 magnetization       0.1339012
 augmentation part       56.2086630 magnetization       0.0208391

 Broyden mixing:
  rms(total) = 0.25942E-01    rms(broyden)= 0.25918E-01
  rms(prec ) = 0.28841E-01
  weight for this iteration     100.00

 eigenvalues of (default mixing * dielectric matrix)
  average eigenvalue GAMMA=   2.3900
 18.2984  8.7156  3.0748  2.1314  1.0135  1.0135  0.8652  0.8652  0.7588  0.7588
  0.2195  0.6168  0.3646  0.5638  0.4663  0.4663  0.4375

 Free energy of the ion-electron system (eV)
  ---------------------------------------------------
  alpha Z        PSCENC =       276.47370612
  Ewald energy   TEWEN  =     49799.34773087
  -Hartree energ DENC   =    -60680.33605361
  -exchange      EXHF   =         0.00000000
  -V(xc)+E(xc)   XCENC  =       356.72992953
  PAW double counting   =     10474.98878377   -11335.88244682
  entropy T*S    EENTRO =        -0.02780335
  eigenvalues    EBANDS =       -49.47831030
  atomic energy  EATOM  =     11127.66112160
  Solvation  Ediel_sol  =         0.00000000
  ---------------------------------------------------
  free energy    TOTEN  =       -30.52334218 eV

  energy without entropy =      -30.49553883  energy(sigma->0) =      -30.51407440


--------------------------------------------------------------------------------------------------------




--------------------------------------- Iteration      1(  23)  ---------------------------------------


    POTLOK:  cpu time      0.0189: real time      0.0191
    SETDIJ:  cpu time      0.0059: real time      0.0059
     EDDAV:  cpu time      0.1995: real time      0.2010
       DOS:  cpu time      0.0008: real time      0.0008
    CHARGE:  cpu time      0.0486: real time      0.0488
    MIXING:  cpu time      0.0018: real time      0.0018
    --------------------------------------------
      LOOP:  cpu time      0.2754: real time      0.2774

 eigenvalue-minimisations  :   760
 total energy-change (2. order) :-0.1242552E-01  (-0.6529198E-03)
 number of electron      87.9999968 magnetization       0.0883994
 augmentation part       56.1743494 magnetization       0.0058825

 Broyden mixing:
  rms(total) = 0.95528E-02    rms(broyden)= 0.95385E-02
  rms(prec ) = 0.11137E-01
  weight for this iteration     100.00

 eigenvalues of (default mixing * dielectric matrix)
  average eigenvalue GAMMA=   2.4571
 20.4127  9.1544  3.0424  2.2208  1.0547  1.0547  1.0883  0.8262  0.8262  0.7487
  0.7487  0.2195  0.5796  0.3646  0.5326  0.4591  0.4591  0.4349

 Free energy of the ion-electron system (eV)
  ---------------------------------------------------
  alpha Z        PSCENC =       276.47370612
  Ewald energy   TEWEN  =     49799.34773087
  -Hartree energ DENC   =    -60682.56546884
  -exchange      EXHF   =         0.00000000
  -V(xc)+E(xc)   XCENC  =       356.77861347
  PAW double counting   =     10472.31998630   -11333.31065986
  entropy T*S    EENTRO =        -0.03006853
  eigenvalues    EBANDS =       -47.21072882
  atomic energy  EATOM  =     11127.66112160
  Solvation  Ediel_sol  =         0.00000000
  ---------------------------------------------------
  free energy    TOTEN  =       -30.53576770 eV

  energy without entropy =      -30.50569917  energy(sigma->0) =      -30.52574486


--------------------------------------------------------------------------------------------------------




--------------------------------------- Iteration      1(  24)  ---------------------------------------


    POTLOK:  cpu time      0.0187: real time      0.0189
    SETDIJ:  cpu time      0.0057: real time      0.0057
     EDDAV:  cpu time      0.2177: real time      0.2193
       DOS:  cpu time      0.0008: real time      0.0008
    CHARGE:  cpu time      0.0504: real time      0.0507
    MIXING:  cpu time      0.0022: real time      0.0022
    --------------------------------------------
      LOOP:  cpu time      0.2955: real time      0.2976

 eigenvalue-minimisations  :   792
 total energy-change (2. order) : 0.2192271E-02  (-0.2550979E-03)
 number of electron      87.9999968 magnetization       0.0599197
 augmentation part       56.1655431 magnetization       0.0032347

 Broyden mixing:
  rms(total) = 0.67809E-02    rms(broyden)= 0.67713E-02
  rms(prec ) = 0.95631E-02
  weight for this iteration     100.00

 eigenvalues of (default mixing * dielectric matrix)
  average eigenvalue GAMMA=   2.4108
 20.9578  9.2219  3.0863  2.2800  1.1368  1.0402  1.0402  0.8699  0.8699  0.8355
  0.8355  0.6601  0.2195  0.5897  0.3646  0.4974  0.4320  0.4339  0.4339

 Free energy of the ion-electron system (eV)
  ---------------------------------------------------
  alpha Z        PSCENC =       276.47370612
  Ewald energy   TEWEN  =     49799.34773087
  -Hartree energ DENC   =    -60682.22242927
  -exchange      EXHF   =         0.00000000
  -V(xc)+E(xc)   XCENC  =       356.80480830
  PAW double counting   =     10469.11448661   -11330.04544975
  entropy T*S    EENTRO =        -0.03028348
  eigenvalues    EBANDS =       -47.63726642
  atomic energy  EATOM  =     11127.66112160
  Solvation  Ediel_sol  =         0.00000000
  ---------------------------------------------------
  free energy    TOTEN  =       -30.53357543 eV

  energy without entropy =      -30.50329195  energy(sigma->0) =      -30.52348094


--------------------------------------------------------------------------------------------------------




--------------------------------------- Iteration      1(  25)  ---------------------------------------


    POTLOK:  cpu time      0.0196: real time      0.0199
    SETDIJ:  cpu time      0.0059: real time      0.0059
     EDDAV:  cpu time      0.1776: real time      0.1793
       DOS:  cpu time      0.0008: real time      0.0008
    CHARGE:  cpu time      0.0486: real time      0.0488
    MIXING:  cpu time      0.0021: real time      0.0021
    --------------------------------------------
      LOOP:  cpu time      0.2547: real time      0.2569

 eigenvalue-minimisations  :   616
 total energy-change (2. order) : 0.6427412E-03  (-0.9916294E-04)
 number of electron      87.9999968 magnetization       0.0271501
 augmentation part       56.1642284 magnetization      -0.0151124

 Broyden mixing:
  rms(total) = 0.47210E-02    rms(broyden)= 0.47150E-02
  rms(prec ) = 0.64105E-02
  weight for this iteration     100.00

 eigenvalues of (default mixing * dielectric matrix)
  average eigenvalue GAMMA=   2.4100
 21.6845  9.2149  3.3509  2.2435  1.9309  1.0760  1.0760  0.8847  0.8847  0.8345
  0.8345  0.7123  0.2195  0.5672  0.5672  0.3647  0.4780  0.4578  0.4292  0.3882

 Free energy of the ion-electron system (eV)
  ---------------------------------------------------
  alpha Z        PSCENC =       276.47370612
  Ewald energy   TEWEN  =     49799.34773087
  -Hartree energ DENC   =    -60682.21842976
  -exchange      EXHF   =         0.00000000
  -V(xc)+E(xc)   XCENC  =       356.80608498
  PAW double counting   =     10467.50102353   -11328.37694729
  entropy T*S    EENTRO =        -0.03051096
  eigenvalues    EBANDS =       -47.69671178
  atomic energy  EATOM  =     11127.66112160
  Solvation  Ediel_sol  =         0.00000000
  ---------------------------------------------------
  free energy    TOTEN  =       -30.53293269 eV

  energy without entropy =      -30.50242173  energy(sigma->0) =      -30.52276237


--------------------------------------------------------------------------------------------------------




--------------------------------------- Iteration      1(  26)  ---------------------------------------


    POTLOK:  cpu time      0.0188: real time      0.0190
    SETDIJ:  cpu time      0.0058: real time      0.0058
     EDDAV:  cpu time      0.1762: real time      0.1775
       DOS:  cpu time      0.0008: real time      0.0008
    CHARGE:  cpu time      0.0492: real time      0.0494
    MIXING:  cpu time      0.0022: real time      0.0022
    --------------------------------------------
      LOOP:  cpu time      0.2530: real time      0.2547

 eigenvalue-minimisations  :   616
 total energy-change (2. order) :-0.4734667E-03  (-0.5173324E-04)
 number of electron      87.9999968 magnetization       0.0219073
 augmentation part       56.1634080 magnetization      -0.0036856

 Broyden mixing:
  rms(total) = 0.31973E-02    rms(broyden)= 0.31893E-02
  rms(prec ) = 0.42085E-02
  weight for this iteration     100.00

 eigenvalues of (default mixing * dielectric matrix)
  average eigenvalue GAMMA=   2.3844
 21.9102  9.2300  3.5373  2.6697  2.1674  1.0559  1.0559  1.0901  0.8579  0.8579
  0.7588  0.7588  0.7000  0.2195  0.5853  0.3647  0.5174  0.4577  0.4577  0.4248
  0.3949

 Free energy of the ion-electron system (eV)
  ---------------------------------------------------
  alpha Z        PSCENC =       276.47370612
  Ewald energy   TEWEN  =     49799.34773087
  -Hartree energ DENC   =    -60682.57357951
  -exchange      EXHF   =         0.00000000
  -V(xc)+E(xc)   XCENC  =       356.80367042
  PAW double counting   =     10465.22915824   -11325.99427731
  entropy T*S    EENTRO =        -0.03094574
  eigenvalues    EBANDS =       -47.44999085
  atomic energy  EATOM  =     11127.66112160
  Solvation  Ediel_sol  =         0.00000000
  ---------------------------------------------------
  free energy    TOTEN  =       -30.53340615 eV

  energy without entropy =      -30.50246042  energy(sigma->0) =      -30.52309091


--------------------------------------------------------------------------------------------------------




--------------------------------------- Iteration      1(  27)  ---------------------------------------


    POTLOK:  cpu time      0.0188: real time      0.0191
    SETDIJ:  cpu time      0.0057: real time      0.0057
     EDDAV:  cpu time      0.1486: real time      0.1497
       DOS:  cpu time      0.0008: real time      0.0008
    CHARGE:  cpu time      0.0492: real time      0.0494
    MIXING:  cpu time      0.0023: real time      0.0023
    --------------------------------------------
      LOOP:  cpu time      0.2254: real time      0.2270

 eigenvalue-minimisations  :   472
 total energy-change (2. order) :-0.8907247E-03  (-0.3194861E-04)
 number of electron      87.9999968 magnetization       0.0197782
 augmentation part       56.1708551 magnetization       0.0019866

 Broyden mixing:
  rms(total) = 0.29696E-02    rms(broyden)= 0.29667E-02
  rms(prec ) = 0.35257E-02
  weight for this iteration     100.00

 eigenvalues of (default mixing * dielectric matrix)
  average eigenvalue GAMMA=   2.3435
 22.0488  9.2017  3.9760  2.6697  2.1998  1.1703  1.0529  1.0529  0.9158  0.9158
  0.8270  0.8270  0.6694  0.6694  0.2195  0.5492  0.5263  0.3647  0.4482  0.4482
  0.4291  0.3744

 Free energy of the ion-electron system (eV)
  ---------------------------------------------------
  alpha Z        PSCENC =       276.47370612
  Ewald energy   TEWEN  =     49799.34773087
  -Hartree energ DENC   =    -60681.81720102
  -exchange      EXHF   =         0.00000000
  -V(xc)+E(xc)   XCENC  =       356.79813609
  PAW double counting   =     10463.38293322   -11324.00484471
  entropy T*S    EENTRO =        -0.03068344
  eigenvalues    EBANDS =       -48.34519561
  atomic energy  EATOM  =     11127.66112160
  Solvation  Ediel_sol  =         0.00000000
  ---------------------------------------------------
  free energy    TOTEN  =       -30.53429688 eV

  energy without entropy =      -30.50361344  energy(sigma->0) =      -30.52406907


[...]
      7      -1.9526      1.00000
      8      -1.8622      1.00000
      9      -1.7725      1.00000
     10      -1.6776      1.00000
     11      -1.4562      1.00000
     12      -1.2617      1.00000
     13      -1.1046      1.00000
     14      -0.9698      1.00000
     15      -0.9197      1.00000
     16      -0.7946      1.00000
     17      -0.7598      1.00000
     18      -0.7075      1.00000
     19      -0.6531      1.00000
     20      -0.5978      1.00000
     21      -0.5210      1.00000
     22      -0.3859      1.00000
     23      -0.3488      1.00000
     24      -0.1977      1.00000
     25      -0.0903      1.00000
     26       0.0244      1.00000
     27       0.1038      1.00000
     28       0.1864      1.00000
     29       0.2494      1.00000
     30       0.2818      1.00000
     31       0.3012      1.00000
     32       0.3430      1.00000
     33       0.3793      1.00000
     34       0.3823      1.00000
     35       0.4563      1.00000
     36       0.5042      1.00000
     37       0.5376      1.00000
     38       0.6171      1.00000
     39       0.6245      1.00000
     40       0.8305      1.00000
     41       0.8588      1.00000
     42       0.8955      1.00000
     43       1.0059      1.00000
     44       1.1193      1.00014
     45       1.6381      0.76927
     46       2.7249     -0.00000
     47       4.0754     -0.00000
     48       5.6009     -0.00000
     49       6.8629     -0.00000
     50       8.5471      0.00000
     51       9.0353      0.00000
     52       9.4336      0.00000
     53       9.7836      0.00000
     54      10.3154      0.00000
     55      10.5242      0.00000
     56      10.9880      0.00000

 k-point     3 :      -0.3333    0.3333    0.0000
  band No.  band energies     occupation 
      1      -1.8618      1.00000
      2      -1.8552      1.00000
      3      -1.8518      1.00000
      4      -1.7794      1.00000
      5      -1.7392      1.00000
      6      -1.7260      1.00000
      7      -1.6993      1.00000
      8      -1.6982      1.00000
      9      -1.6730      1.00000
     10      -1.6642      1.00000
     11      -1.5941      1.00000
     12      -1.4905      1.00000
     13      -1.3715      1.00000
     14      -1.2466      1.00000
     15      -1.1790      1.00000
     16      -1.0298      1.00000
     17      -1.0022      1.00000
     18      -0.9862      1.00000
     19      -0.9139      1.00000
     20      -0.7060      1.00000
     21      -0.5558      1.00000
     22      -0.1289      1.00000
     23      -0.1133      1.00000
     24      -0.0292      1.00000
     25      -0.0290      1.00000
     26      -0.0081      1.00000
     27       0.0092      1.00000
     28       0.0100      1.00000
     29       0.0192      1.00000
     30       0.0559      1.00000
     31       0.3491      1.00000
     32       0.4022      1.00000
     33       0.4986      1.00000
     34       0.5019      1.00000
     35       0.5533      1.00000
     36       0.6041      1.00000
     37       0.7007      1.00000
     38       0.7387      1.00000
     39       0.7776      1.00000
     40       0.8451      1.00000
     41       5.4518     -0.00000
     42       5.4572     -0.00000
     43       5.4732     -0.00000
     44       5.6308     -0.00000
     45       5.6748     -0.00000
     46       5.9534     -0.00000
     47       6.1062     -0.00000
     48       6.7448     -0.00000
     49       6.8604     -0.00000
     50       7.3791      0.00000
     51       7.3978      0.00000
     52       7.4793      0.00000
     53       7.9132      0.00000
     54       7.9275      0.00000
     55       8.6886      0.00000
     56       8.9145      0.00000


--------------------------------------------------------------------------------------------------------


 soft charge-density along one line, spin component           1
         0         1         2         3         4         5         6         7         8         9
 total charge-density along one line
 
 soft charge-density along one line, spin component           2
         0         1         2         3         4         5         6         7         8         9
 total charge-density along one line
 
 pseudopotential strength for first ion, spin component:           1
 -6.185  -0.000   0.000  -0.004   0.000  -2.241   0.000  -0.000
 -0.000  -6.235   0.000   0.000  -0.004   0.000  -2.207  -0.000
  0.000   0.000  -6.264   0.000   0.000  -0.000  -0.000  -2.187
 -0.004   0.000   0.000  -6.235  -0.000   0.003  -0.000  -0.000
  0.000  -0.004   0.000  -0.000  -6.186  -0.000   0.003  -0.000
 -2.241   0.000  -0.000   0.003  -0.000   8.558  -0.000   0.000
  0.000  -2.207  -0.000  -0.000   0.003  -0.000   8.536  -0.000
 -0.000  -0.000  -2.187  -0.000  -0.000   0.000  -0.000   8.522
  0.003  -0.000  -0.000  -2.207   0.000  -0.002  -0.000  -0.000
 -0.000   0.003  -0.000   0.000  -2.241   0.000  -0.002   0.000
  0.000   0.000   0.003   0.000   0.000   0.000   0.000   0.001
  0.000   0.000   0.005   0.000   0.000   0.000   0.000   0.002
  0.000  -0.014  -0.000  -0.000   0.000  -0.000   0.011   0.000
 -0.000   0.000  -0.013   0.000  -0.000  -0.000  -0.000   0.009
  0.000  -0.000  -0.000  -0.014   0.000   0.000  -0.000   0.000
  0.000  -0.016  -0.000   0.000   0.000   0.000   0.014  -0.000
  0.000   0.000  -0.014   0.000   0.000  -0.000   0.000   0.009
  0.000   0.000  -0.000  -0.016   0.000   0.000  -0.000  -0.000
 pseudopotential strength for first ion, spin component:           2
 -6.186  -0.000   0.000  -0.004   0.000  -2.241   0.000  -0.000
 -0.000  -6.235   0.000   0.000  -0.004   0.000  -2.207  -0.000
  0.000   0.000  -6.264   0.000   0.000  -0.000  -0.000  -2.187
 -0.004   0.000   0.000  -6.235  -0.000   0.003  -0.000  -0.000
  0.000  -0.004   0.000  -0.000  -6.186  -0.000   0.003  -0.000
 -2.241   0.000  -0.000   0.003  -0.000   8.558  -0.000   0.000
  0.000  -2.207  -0.000  -0.000   0.003  -0.000   8.536  -0.000
 -0.000  -0.000  -2.187  -0.000  -0.000   0.000  -0.000   8.522
  0.003  -0.000  -0.000  -2.207   0.000  -0.002  -0.000  -0.000
 -0.000   0.003  -0.000   0.000  -2.241   0.000  -0.002   0.000
  0.000   0.000   0.003   0.000   0.000   0.000   0.000   0.001
  0.000   0.000   0.005   0.000   0.000   0.000   0.000   0.002
  0.000  -0.014  -0.000  -0.000   0.000  -0.000   0.011   0.000
 -0.000   0.000  -0.013   0.000  -0.000  -0.000  -0.000   0.009
  0.000  -0.000  -0.000  -0.014   0.000   0.000  -0.000   0.000
  0.000  -0.016  -0.000   0.000   0.000   0.000   0.014  -0.000
  0.000   0.000  -0.014   0.000   0.000  -0.000   0.000   0.009
  0.000   0.000  -0.000  -0.016   0.000   0.000  -0.000  -0.000
 total augmentation occupancy for first ion, spin component:           1
  1.932   0.000  -0.000  -0.004   0.000  -0.017  -0.000   0.000   0.004   0.000   0.000  -0.000  -0.000  -0.000   0.005   0.000
  0.000   1.927   0.000   0.000  -0.004  -0.000  -0.028  -0.000  -0.000   0.004   0.000   0.000   0.002   0.000   0.000  -0.014
 -0.000   0.000   1.908   0.000  -0.000   0.000  -0.000  -0.019  -0.000   0.000  -0.083   0.029  -0.000   0.075  -0.000   0.000
 -0.004   0.000   0.000   1.927  -0.000   0.004  -0.000  -0.000  -0.028   0.000   0.000  -0.000   0.000   0.000   0.002  -0.000
  0.000  -0.004  -0.000  -0.000   1.932   0.000   0.004   0.000   0.000  -0.017   0.000  -0.000   0.005  -0.000   0.000  -0.001
 -0.017  -0.000   0.000   0.004   0.000   0.013  -0.000  -0.000   0.000   0.000   0.000  -0.000  -0.000  -0.000   0.003   0.000
 -0.000  -0.028  -0.000  -0.000   0.004  -0.000   0.009  -0.000   0.000   0.000   0.000   0.000   0.015   0.000   0.000  -0.001
  0.000  -0.000  -0.019  -0.000   0.000  -0.000  -0.000   0.010  -0.000  -0.000  -0.026   0.001  -0.000   0.017  -0.000   0.000
  0.004  -0.000  -0.000  -0.028   0.000   0.000   0.000  -0.000   0.009   0.000   0.000   0.000   0.000  -0.000   0.015  -0.000
  0.000   0.004   0.000   0.000  -0.017   0.000   0.000  -0.000   0.000   0.013   0.000  -0.000   0.003  -0.000   0.000  -0.000
  0.000   0.000  -0.083   0.000   0.000   0.000   0.000  -0.026   0.000   0.000   1.692  -0.139   0.000   0.150  -0.000   0.000
 -0.000   0.000   0.029  -0.000  -0.000  -0.000   0.000   0.001   0.000  -0.000  -0.139   0.016   0.000  -0.021  -0.000   0.000
 -0.000   0.002  -0.000   0.000   0.005  -0.000   0.015  -0.000   0.000   0.003   0.000   0.000   0.225  -0.000   0.000  -0.014
 -0.000   0.000   0.075   0.000  -0.000  -0.000  -0.000   0.017  -0.000  -0.000   0.150  -0.021   0.000   0.101   0.000   0.000
  0.005   0.000  -0.000   0.002   0.000   0.003   0.000  -0.000   0.015   0.000   0.000   0.000   0.000   0.000   0.225  -0.000
  0.000  -0.014   0.000  -0.000  -0.001   0.000  -0.001   0.000  -0.000  -0.000   0.000   0.000  -0.014   0.000  -0.000   0.001
  0.000   0.000  -0.020   0.000   0.000   0.000   0.000  -0.001   0.000   0.000  -0.020   0.002  -0.000  -0.008  -0.000   0.000
 -0.001  -0.000   0.000  -0.014  -0.000  -0.000  -0.000   0.000  -0.001  -0.000   0.000   0.000  -0.000  -0.000  -0.014   0.000
 total augmentation occupancy for first ion, spin component:           2
 -0.000   0.000   0.000  -0.000  -0.000  -0.000   0.000   0.000  -0.000  -0.000   0.000   0.000  -0.000  -0.000   0.000  -0.000
  0.000   0.000   0.000   0.000  -0.000   0.000  -0.000   0.000  -0.000  -0.000  -0.000   0.000   0.000   0.000   0.000   0.000
  0.000   0.000  -0.000   0.000   0.000   0.000   0.000  -0.000   0.000   0.000  -0.000  -0.000  -0.000   0.000  -0.000  -0.000
 -0.000   0.000   0.000   0.000  -0.000  -0.000  -0.000   0.000  -0.000  -0.000   0.000  -0.000   0.000   0.000   0.000   0.000
 -0.000  -0.000   0.000  -0.000  -0.000  -0.000  -0.000   0.000  -0.000  -0.000   0.000   0.000   0.000  -0.000   0.000   0.000
 -0.000   0.000   0.000  -0.000  -0.000  -0.000   0.000   0.000  -0.000   0.000  -0.000  -0.000   0.000   0.000  -0.000  -0.000
  0.000  -0.000   0.000  -0.000  -0.000   0.000   0.000   0.000   0.000  -0.000   0.000   0.000   0.000   0.000   0.000  -0.000
  0.000   0.000  -0.000   0.000   0.000   0.000   0.000  -0.000   0.000   0.000   0.000   0.000   0.000  -0.000   0.000  -0.000
 -0.000  -0.000   0.000  -0.000  -0.000  -0.000   0.000   0.000   0.000  -0.000   0.000   0.000   0.000  -0.000   0.000  -0.000
 -0.000  -0.000   0.000  -0.000  -0.000  -0.000  -0.000   0.000  -0.000  -0.000  -0.000  -0.000  -0.000   0.000  -0.000   0.000
  0.000  -0.000  -0.000   0.000   0.000  -0.000   0.000   0.000  -0.000  -0.000  -0.000   0.000   0.000   0.000   0.000   0.000
  0.000   0.000  -0.000   0.000   0.000  -0.000   0.000   0.000   0.000  -0.000   0.000  -0.000   0.000   0.000  -0.000   0.000
 -0.000   0.000  -0.000   0.000   0.000   0.000   0.000   0.000   0.000  -0.000   0.000   0.000  -0.000   0.000  -0.000   0.000
 -0.000  -0.000   0.000  -0.000  -0.000   0.000   0.000  -0.000   0.000   0.000   0.000   0.000   0.000  -0.000  -0.000   0.000
  0.000   0.000  -0.000   0.000   0.000  -0.000   0.000   0.000   0.000  -0.000   0.000  -0.000  -0.000   0.000  -0.000   0.000
 -0.000   0.000  -0.000   0.000   0.000  -0.000  -0.000  -0.000  -0.000   0.000   0.000  -0.000   0.000   0.000   0.000  -0.000
 -0.000  -0.000   0.000   0.000  -0.000  -0.000  -0.000   0.000   0.000  -0.000  -0.000   0.000   0.000   0.000   0.000   0.000
  0.000   0.000  -0.000   0.000   0.000   0.000  -0.000  -0.000  -0.000   0.000   0.000   0.000   0.000  -0.000   0.000  -0.000


------------------------ aborting loop because EDIFF is reached ----------------------------------------



 DIPCOR: dipole corrections for dipol
 direction  3 min pos   229,
 dipolmoment           0.000000      0.000000     -0.006261 electrons x Angstroem
 Tr[quadrupol]       -79.807414

 energy correction for charged system         0.000000 eV
 dipol+quadrupol energy correction            0.000021 eV
 added-field ion interaction          0.000000 eV  (added to PSCEN)

 
  *************** adding dipol energy to TOTEN NOW **************** 
    CHARGE:  cpu time      0.0482: real time      0.0485
    FORLOC:  cpu time      0.0008: real time      0.0008
    FORNL :  cpu time      0.0820: real time      0.0823
    STRESS:  cpu time      0.0945: real time      0.0949
    FORCOR:  cpu time      0.0200: real time      0.0201
    FORHAR:  cpu time      0.0026: real time      0.0026
    MIXING:  cpu time      0.0006: real time      0.0006
    OFIELD:  cpu time      0.0000: real time      0.0000

 ---------------------------------------------------------------------------------------------

         DFTD3 V3.0 Rev 1        
 Edisp (eV)   -3.43762

 E6    (eV) :    -1.4230
 E8    (eV) :    -2.0147
 % E8        : 58.61
    FORVDW:  cpu time      0.0454: real time      0.0456

  FORCE on cell =-STRESS in cart. coord.  units (eV):
  Direction    XX          YY          ZZ          XY          YZ          ZX
  --------------------------------------------------------------------------------------
  Alpha Z   276.47371   276.47371   276.47371
  Ewald   59666.97813 59666.97813-65535.44104    -0.00000     0.00000    -0.00000
  Hartree 62854.85794 62854.85794-61035.49219     0.00000    -0.00000    -0.00000
  E(xc)    -514.67806  -514.67792  -515.11241    -0.00012     0.00000     0.00000
  Local  ************************125514.40763     0.00402    -0.00000    -0.00000
  n-local  -174.08538  -166.82253  -176.02648     6.29040    -1.11912     1.94471
  augment   759.54389   759.54836   753.43952    -0.00387     0.00001     0.00002
  Kinetic   732.01115   708.69778   719.06406   -20.18957    -2.19964     3.80976
  Fock        0.00000     0.00000     0.00000     0.00000     0.00000     0.00000
  vdW        -4.15529    -4.15529    -3.51360     0.00000     0.00000     0.00000
  -------------------------------------------------------------------------------------
  Total      -5.07995    -5.07995    -2.20079    -0.00000     0.00000    -0.00000
  in kB     -48.07638   -48.07638   -20.82813    -0.00000     0.00000    -0.00000
  external pressure =      -38.99 kB  Pullay stress =        0.00 kB


 VOLUME and BASIS-vectors are now :
 -----------------------------------------------------------------------------
  energy-cutoff  :      400.00
  volume of cell :      169.29
      direct lattice vectors                 reciprocal lattice vectors
     2.566797733  0.000000000  0.000000000     0.389590495 -0.224930177  0.000000000
     1.283398867  2.222912043  0.000000000     0.000000000  0.449860355  0.000000000
     0.000000000  0.000000000 29.670470770     0.000000000  0.000000000  0.033703543

  length of vectors
     2.566797733  2.566797733 29.670470770     0.449860355  0.449860355  0.033703543


 FORCES acting on ions
    electron-ion (+dipol)            ewald-force                    non-local-force                 convergence-correction
 -----------------------------------------------------------------------------------------------
   -.423E-05 -.244E-05 0.599E+04   0.797E-08 -.252E-08 -.599E+04   -.694E-17 0.000E+00 -.343E+01   -.122E-07 -.706E-08 -.547E-01
   0.790E-05 0.579E-05 0.433E+04   -.235E-07 -.483E-09 -.433E+04   0.000E+00 -.139E-16 -.250E-01   0.568E-07 0.327E-07 0.409E+00
   -.976E-05 -.536E-05 0.260E+04   0.246E-07 0.967E-08 -.260E+04   0.000E+00 -.867E-18 0.735E-01   0.187E-05 0.108E-05 0.969E+00
   0.171E-06 0.988E-07 0.881E+03   0.506E-09 -.968E-08 -.881E+03   0.173E-17 -.173E-17 -.646E+00   -.787E-06 -.455E-06 0.842E+00
   0.791E-05 0.580E-05 -.856E+03   -.244E-07 0.146E-09 0.855E+03   -.260E-17 -.173E-17 0.912E+00   -.242E-05 -.140E-05 0.649E+00
   -.484E-05 -.252E-05 -.258E+04   0.244E-07 0.989E-08 0.258E+04   -.173E-17 0.173E-17 0.220E-01   -.154E-05 -.888E-06 0.614E+00
   0.493E-05 0.285E-05 -.431E+04   0.873E-09 -.103E-07 0.431E+04   0.694E-17 -.139E-16 -.252E+00   -.617E-06 -.356E-06 0.265E+00
   0.686E-05 0.520E-05 -.606E+04   -.104E-07 0.325E-08 0.606E+04   0.000E+00 0.000E+00 0.380E+01   -.118E-05 -.679E-06 -.385E+00
 -----------------------------------------------------------------------------------------------
   0.894E-05 0.941E-05 -.370E+01   -.168E-12 0.585E-13 0.546E-11   -.260E-17 -.304E-16 0.458E+00   -.462E-05 -.267E-05 0.331E+01
 
 
 POSITION                                       TOTAL-FORCE (eV/Angst)
 -----------------------------------------------------------------------------------
      0.00000      0.00000      0.00000        -0.000000     -0.000000      0.456737
      1.28340      0.74097      2.09578        -0.000000      0.000000     -0.407381
      2.56680      1.48194      4.12675         0.000000      0.000000     -0.004016
     -0.00000     -0.00000      6.17636         0.000000      0.000000     -0.003223
      1.28340      0.74097      8.20574         0.000000      0.000000      0.007494
      2.56680      1.48194     10.25294         0.000000      0.000000     -0.020175
      0.00000      0.00000     12.28375        -0.000000      0.000000     -0.021378
      1.28340      0.74097     14.28315        -0.000000     -0.000000     -0.008058
 -----------------------------------------------------------------------------------
    total drift:                                0.000004      0.000007      0.066026


--------------------------------------------------------------------------------------------------------



  FREE ENERGIE OF THE ION-ELECTRON SYSTEM (eV)
  ---------------------------------------------------
  free  energy   TOTEN  =       -33.97029385 eV

  energy  without entropy=      -33.94068975  energy(sigma->0) =      -33.96042582
 
 d Force = 0.3065494E-03[ 0.673E-04, 0.546E-03]  d Energy = 0.4354272E-03-0.129E-03
 d Force =-0.4908522E+02[-0.491E+02,-0.491E+02]  d Ewald  =-0.4908522E+02 0.133E-05


--------------------------------------------------------------------------------------------------------


    POTLOK:  cpu time      0.0272: real time      0.0273


--------------------------------------------------------------------------------------------------------


 stress matrix after NEB project (eV)
     -5.07995     -0.00000     -0.00000
     -0.00000     -5.07995      0.00000
      0.00000      0.00000     -2.20079
  FORCES: max atom, RMS     0.021378    0.011245
  FORCE total and by dimension    0.031806    0.021378
  Stress total and by dimension    7.513673    5.079951
 Conjugate gradient step on ions:
 trial-energy change:   -0.000435  1 .order   -0.000307   -0.000546   -0.000067
  (g-gl).g = 0.304E-03      g.g   = 0.334E-03  gl.gl    = 0.181E-02
 g(Force)  = 0.334E-03   g(Stress)= 0.000E+00 ortho     = 0.570E-06
 gamma     =   0.16773
 trial     =   1.63582
 opt step  =   1.86599  (harmonic =   1.86599) maximal distance =0.00347469
 next E    =   -33.970170   (d E  =  -0.00031)


--------------------------------------------------------------------------------------------------------


  
 reached required accuracy - stopping structural energy minimisation
     LOOP+:  cpu time      1.0880: real time      1.1211
    4ORBIT:  cpu time      0.0000: real time      0.0000

 total amount of memory used by VASP MPI-rank0    33727. kBytes
=======================================================================

   base      :      30000. kBytes
   nonl-proj :        347. kBytes
   fftplans  :        716. kBytes
   grid      :       1721. kBytes
   one-center:         62. kBytes
   wavefun   :        881. kBytes
 
  
  
 General timing and accounting informations for this job:
 ========================================================
  
                  Total CPU time used (sec):       55.613
                            User time (sec):       55.248
                          System time (sec):        0.365
                         Elapsed time (sec):       57.979
  
                   Maximum memory used (kb):      227232.
                   Average memory used (kb):          N/A
  
                          Minor page faults:        96578
                          Major page faults:         6529
                 Voluntary context switches:         2660
