  10  10   0   0
  0.1692928E+02  0.2566798E-09  0.2566798E-09  0.2967047E-08  0.5000000E-15
  1.000000000000000E-004
  CAR 
 unknown system                          
     18.26097145     -8.79756879  301      2.04982963      1.00000000
     -8.798  0.0000E+00  0.0000E+00  0.0000E+00  0.0000E+00
     -8.707  0.0000E+00  0.0000E+00  0.0000E+00  0.0000E+00
     -8.617  0.0000E+00  0.0000E+00  0.0000E+00  0.0000E+00
     -8.527  0.0000E+00  0.0000E+00  0.0000E+00  0.0000E+00
     -8.437 -0.2384E-31 -0.2384E-31 -0.2150E-32 -0.2150E-32
     -8.347 -0.2982E-28 -0.2982E-28 -0.2692E-29 -0.2692E-29
     -8.256 -0.2477E-25 -0.2477E-25 -0.2237E-26 -0.2237E-26
     -8.166 -0.1364E-22 -0.1364E-22 -0.1232E-23 -0.1232E-23
     -8.076 -0.4977E-20 -0.4977E-20 -0.4502E-21 -0.4502E-21
     -7.986 -0.1203E-17 -0.1203E-17 -0.1089E-18 -0.1089E-18
     -7.896 -0.1859E-15 -0.1859E-15 -0.1688E-16 -0.1688E-16
     -7.805 -0.1952E-13 -0.1952E-13 -0.1777E-14 -0.1777E-14
     -7.715 -0.1348E-11 -0.1348E-11 -0.1233E-12 -0.1233E-12
     -7.625 -0.6103E-10 -0.6103E-10 -0.5628E-11 -0.5628E-11
     -7.535 -0.1803E-08 -0.1803E-08 -0.1682E-09 -0.1682E-09
     -7.445 -0.3445E-07 -0.3445E-07 -0.3276E-08 -0.3276E-08
     -7.354 -0.4199E-06 -0.4199E-06 -0.4115E-07 -0.4115E-07
     -7.264 -0.3177E-05 -0.3177E-05 -0.3277E-06 -0.3277E-06
     -7.174 -0.1403E-04 -0.1403E-04 -0.1593E-05 -0.1593E-05
     -7.084 -0.2943E-04 -0.2943E-04 -0.4248E-05 -0.4248E-05
     -6.994  0.1135E-04  0.1135E-04 -0.3224E-05 -0.3224E-05
     -6.903  0.2085E-03  0.2085E-03  0.1558E-04  0.1558E-04
     -6.813  0.4799E-03  0.4799E-03  0.5887E-04  0.5887E-04
     -6.723  0.5234E-03  0.5234E-03  0.1061E-03  0.1061E-03
     -6.633  0.3142E-03  0.3142E-03  0.1344E-03  0.1344E-03
     -6.543  0.2400E-03  0.2400E-03  0.1561E-03  0.1561E-03
     -6.452  0.4292E-03  0.4292E-03  0.1948E-03  0.1948E-03
     -6.362  0.5151E-03  0.5151E-03  0.2412E-03  0.2412E-03
     -6.272  0.3320E-03  0.3320E-03  0.2712E-03  0.2712E-03
     -6.182  0.2320E-03  0.2320E-03  0.2921E-03  0.2921E-03
     -6.092  0.4130E-03  0.4130E-03  0.3294E-03  0.3294E-03
     -6.002  0.5410E-03  0.5410E-03  0.3781E-03  0.3781E-03
     -5.911  0.3509E-03  0.3509E-03  0.4098E-03  0.4098E-03
     -5.821  0.7583E-04  0.7583E-04  0.4166E-03  0.4166E-03
     -5.731  0.4891E-04  0.4891E-04  0.4210E-03  0.4210E-03
     -5.641  0.3043E-03  0.3043E-03  0.4485E-03  0.4485E-03
     -5.551  0.5495E-03  0.5495E-03  0.4981E-03  0.4981E-03
     -5.460  0.4795E-03  0.4795E-03  0.5413E-03  0.5413E-03
     -5.370  0.1971E-03  0.1971E-03  0.5591E-03  0.5591E-03
     -5.280  0.5996E-05  0.5997E-05  0.5596E-03  0.5596E-03
     -5.190 -0.3272E-04 -0.3272E-04  0.5567E-03  0.5567E-03
     -5.100 -0.2844E-04 -0.2844E-04  0.5541E-03  0.5541E-03
     -5.009 -0.3251E-04 -0.3251E-04  0.5512E-03  0.5512E-03
     -4.919  0.1939E-04  0.1939E-04  0.5529E-03  0.5529E-03
     -4.829  0.2311E-03  0.2311E-03  0.5738E-03  0.5738E-03
     -4.739  0.5071E-03  0.5071E-03  0.6195E-03  0.6195E-03
     -4.649  0.5427E-03  0.5427E-03  0.6685E-03  0.6685E-03
     -4.558  0.2894E-03  0.2894E-03  0.6946E-03  0.6946E-03
     -4.468  0.2820E-04  0.2820E-04  0.6971E-03  0.6971E-03
     -4.378 -0.1163E-03 -0.1163E-03  0.6866E-03  0.6866E-03
     -4.288 -0.1957E-03 -0.1957E-03  0.6690E-03  0.6690E-03
     -4.198  0.7842E-04  0.7841E-04  0.6760E-03  0.6760E-03
     -4.107  0.1255E-02  0.1255E-02  0.7892E-03  0.7892E-03
     -4.017  0.2825E-02  0.2825E-02  0.1044E-02  0.1044E-02
     -3.927  0.3251E-02  0.3251E-02  0.1337E-02  0.1337E-02
     -3.837  0.2737E-02  0.2737E-02  0.1584E-02  0.1584E-02
     -3.747  0.2965E-02  0.2965E-02  0.1852E-02  0.1852E-02
     -3.656  0.3490E-02  0.3490E-02  0.2166E-02  0.2166E-02
     -3.566  0.3071E-02  0.3071E-02  0.2443E-02  0.2443E-02
     -3.476  0.2772E-02  0.2772E-02  0.2693E-02  0.2693E-02
     -3.386  0.3161E-02  0.3161E-02  0.2979E-02  0.2979E-02
     -3.296  0.2618E-02  0.2618E-02  0.3215E-02  0.3215E-02
     -3.205  0.1193E-02  0.1193E-02  0.3322E-02  0.3322E-02
     -3.115  0.1157E-02  0.1157E-02  0.3427E-02  0.3427E-02
     -3.025  0.2880E-02  0.2880E-02  0.3686E-02  0.3686E-02
     -2.935  0.3772E-02  0.3772E-02  0.4027E-02  0.4027E-02
     -2.845  0.2335E-02  0.2335E-02  0.4237E-02  0.4237E-02
     -2.754  0.7289E-03  0.7289E-03  0.4303E-02  0.4303E-02
     -2.664  0.1633E-02  0.1633E-02  0.4450E-02  0.4450E-02
     -2.574  0.4342E-02  0.4342E-02  0.4842E-02  0.4842E-02
     -2.484  0.5336E-02  0.5336E-02  0.5323E-02  0.5323E-02
     -2.394  0.3416E-02  0.3416E-02  0.5631E-02  0.5631E-02
     -2.304  0.1684E-02  0.1684E-02  0.5783E-02  0.5783E-02
     -2.213  0.2214E-02  0.2214E-02  0.5983E-02  0.5983E-02
     -2.123  0.3000E-02  0.3000E-02  0.6253E-02  0.6253E-02
     -2.033  0.2290E-02  0.2290E-02  0.6460E-02  0.6460E-02
     -1.943  0.1628E-02  0.1628E-02  0.6607E-02  0.6607E-02
     -1.853  0.2416E-02  0.2416E-02  0.6825E-02  0.6825E-02
     -1.762  0.4206E-02  0.4206E-02  0.7204E-02  0.7204E-02
     -1.672  0.7547E-02  0.7547E-02  0.7885E-02  0.7885E-02
     -1.582  0.1301E-01  0.1301E-01  0.9058E-02  0.9058E-02
     -1.492  0.1794E-01  0.1794E-01  0.1068E-01  0.1068E-01
     -1.402  0.1837E-01  0.1837E-01  0.1233E-01  0.1233E-01
     -1.311  0.1407E-01  0.1407E-01  0.1360E-01  0.1360E-01
     -1.221  0.9458E-02  0.9458E-02  0.1445E-01  0.1445E-01
     -1.131  0.7601E-02  0.7601E-02  0.1514E-01  0.1514E-01
     -1.041  0.7179E-02  0.7179E-02  0.1579E-01  0.1579E-01
     -0.951  0.6450E-02  0.6450E-02  0.1637E-01  0.1637E-01
     -0.860  0.6215E-02  0.6215E-02  0.1693E-01  0.1693E-01
     -0.770  0.8360E-02  0.8360E-02  0.1768E-01  0.1768E-01
     -0.680  0.1238E-01  0.1238E-01  0.1880E-01  0.1880E-01
     -0.590  0.1595E-01  0.1595E-01  0.2024E-01  0.2024E-01
     -0.500  0.1895E-01  0.1895E-01  0.2195E-01  0.2195E-01
     -0.409  0.2156E-01  0.2156E-01  0.2389E-01  0.2389E-01
     -0.319  0.2126E-01  0.2126E-01  0.2581E-01  0.2581E-01
     -0.229  0.1715E-01  0.1715E-01  0.2736E-01  0.2736E-01
     -0.139  0.1264E-01  0.1264E-01  0.2850E-01  0.2850E-01
     -0.049  0.1064E-01  0.1064E-01  0.2946E-01  0.2946E-01
      0.042  0.1093E-01  0.1093E-01  0.3044E-01  0.3044E-01
      0.132  0.1256E-01  0.1256E-01  0.3158E-01  0.3158E-01
      0.222  0.1521E-01  0.1521E-01  0.3295E-01  0.3295E-01
      0.312  0.1808E-01  0.1808E-01  0.3458E-01  0.3458E-01
      0.402  0.1934E-01  0.1934E-01  0.3632E-01  0.3632E-01
      0.493  0.1940E-01  0.1940E-01  0.3807E-01  0.3807E-01
      0.583  0.2125E-01  0.2125E-01  0.3999E-01  0.3999E-01
      0.673  0.2514E-01  0.2514E-01  0.4226E-01  0.4226E-01
      0.763  0.2785E-01  0.2785E-01  0.4477E-01  0.4477E-01
      0.853  0.2671E-01  0.2671E-01  0.4718E-01  0.4718E-01
      0.944  0.2229E-01  0.2229E-01  0.4919E-01  0.4919E-01
      1.034  0.1820E-01  0.1820E-01  0.5083E-01  0.5083E-01
      1.124  0.1693E-01  0.1693E-01  0.5236E-01  0.5236E-01
      1.214  0.1591E-01  0.1591E-01  0.5379E-01  0.5379E-01
      1.304  0.1182E-01  0.1182E-01  0.5486E-01  0.5486E-01
      1.394  0.6191E-02  0.6191E-02  0.5542E-01  0.5542E-01
      1.485  0.2038E-02  0.2038E-02  0.5560E-01  0.5560E-01
      1.575  0.4703E-04  0.4703E-04  0.5560E-01  0.5560E-01
      1.665 -0.5016E-03 -0.5016E-03  0.5556E-01  0.5556E-01
      1.755 -0.2886E-03 -0.2886E-03  0.5553E-01  0.5553E-01
      1.845  0.7635E-03  0.7635E-03  0.5560E-01  0.5560E-01
      1.936  0.2591E-02  0.2591E-02  0.5584E-01  0.5584E-01
      2.026  0.3686E-02  0.3686E-02  0.5617E-01  0.5617E-01
      2.116  0.2852E-02  0.2852E-02  0.5643E-01  0.5643E-01
      2.206  0.1203E-02  0.1203E-02  0.5653E-01  0.5653E-01
      2.296  0.3508E-03  0.3508E-03  0.5657E-01  0.5657E-01
      2.387  0.3729E-03  0.3729E-03  0.5660E-01  0.5660E-01
      2.477  0.4689E-03  0.4689E-03  0.5664E-01  0.5664E-01
      2.567  0.2760E-03  0.2760E-03  0.5667E-01  0.5667E-01
      2.657  0.1293E-04  0.1294E-04  0.5667E-01  0.5667E-01
      2.747 -0.1595E-03 -0.1595E-03  0.5665E-01  0.5665E-01
      2.838 -0.1691E-03 -0.1691E-03  0.5664E-01  0.5664E-01
      2.928  0.4593E-03  0.4593E-03  0.5668E-01  0.5668E-01
      3.018  0.2046E-02  0.2046E-02  0.5686E-01  0.5686E-01
      3.108  0.3367E-02  0.3367E-02  0.5717E-01  0.5717E-01
      3.198  0.2824E-02  0.2824E-02  0.5742E-01  0.5742E-01
      3.289  0.1114E-02  0.1114E-02  0.5752E-01  0.5752E-01
      3.379  0.1478E-04  0.1478E-04  0.5752E-01  0.5752E-01
      3.469 -0.1726E-03 -0.1726E-03  0.5751E-01  0.5751E-01
      3.559 -0.7532E-04 -0.7532E-04  0.5750E-01  0.5750E-01
      3.649 -0.1617E-04 -0.1617E-04  0.5750E-01  0.5750E-01
      3.740 -0.2084E-05 -0.2084E-05  0.5750E-01  0.5750E-01
      3.830 -0.8031E-06 -0.8031E-06  0.5750E-01  0.5750E-01
      3.920 -0.6408E-05 -0.6408E-05  0.5750E-01  0.5750E-01
      4.010 -0.3882E-04 -0.3882E-04  0.5750E-01  0.5750E-01
      4.100 -0.1301E-03 -0.1301E-03  0.5748E-01  0.5748E-01
      4.191 -0.1511E-03 -0.1511E-03  0.5747E-01  0.5747E-01
      4.281  0.4522E-03  0.4522E-03  0.5751E-01  0.5751E-01
      4.371  0.2028E-02  0.2028E-02  0.5769E-01  0.5769E-01
      4.461  0.3362E-02  0.3362E-02  0.5800E-01  0.5800E-01
      4.551  0.2840E-02  0.2840E-02  0.5825E-01  0.5825E-01
      4.642  0.1132E-02  0.1132E-02  0.5836E-01  0.5836E-01
      4.732  0.2076E-04  0.2076E-04  0.5836E-01  0.5836E-01
      4.822 -0.1732E-03 -0.1732E-03  0.5834E-01  0.5834E-01
      4.912 -0.7633E-04 -0.7633E-04  0.5834E-01  0.5834E-01
      5.002 -0.1649E-04 -0.1649E-04  0.5833E-01  0.5833E-01
      5.092 -0.2231E-05 -0.2231E-05  0.5833E-01  0.5833E-01
      5.183 -0.1946E-05 -0.1946E-05  0.5833E-01  0.5833E-01
      5.273 -0.1460E-04 -0.1460E-04  0.5833E-01  0.5833E-01
      5.363 -0.7241E-04 -0.7241E-04  0.5833E-01  0.5833E-01
      5.453 -0.1954E-03 -0.1954E-03  0.5831E-01  0.5831E-01
      5.543 -0.1539E-03 -0.1539E-03  0.5829E-01  0.5829E-01
      5.634  0.6849E-03  0.6848E-03  0.5836E-01  0.5836E-01
      5.724  0.2707E-02  0.2707E-02  0.5860E-01  0.5860E-01
      5.814  0.5338E-02  0.5337E-02  0.5908E-01  0.5908E-01
      5.904  0.7212E-02  0.7211E-02  0.5973E-01  0.5973E-01
      5.994  0.6731E-02  0.6731E-02  0.6034E-01  0.6034E-01
      6.085  0.4116E-02  0.4116E-02  0.6071E-01  0.6071E-01
      6.175  0.1947E-02  0.1947E-02  0.6089E-01  0.6089E-01
      6.265  0.1447E-02  0.1447E-02  0.6102E-01  0.6102E-01
      6.355  0.1422E-02  0.1422E-02  0.6114E-01  0.6114E-01
      6.445  0.1014E-02  0.1014E-02  0.6124E-01  0.6124E-01
      6.536  0.5856E-03  0.5851E-03  0.6129E-01  0.6129E-01
      6.626  0.4581E-03  0.4579E-03  0.6133E-01  0.6133E-01
      6.716  0.4846E-03  0.4850E-03  0.6137E-01  0.6137E-01
      6.806  0.6514E-03  0.6518E-03  0.6143E-01  0.6143E-01
      6.896  0.1018E-02  0.1019E-02  0.6152E-01  0.6152E-01
      6.987  0.1788E-02  0.1788E-02  0.6169E-01  0.6169E-01
      7.077  0.3240E-02  0.3240E-02  0.6198E-01  0.6198E-01
      7.167  0.4324E-02  0.4323E-02  0.6237E-01  0.6237E-01
      7.257  0.3554E-02  0.3553E-02  0.6269E-01  0.6269E-01
      7.347  0.1687E-02  0.1686E-02  0.6284E-01  0.6284E-01
      7.438  0.5203E-03  0.5204E-03  0.6289E-01  0.6289E-01
      7.528  0.6774E-03  0.6780E-03  0.6295E-01  0.6295E-01
      7.618  0.1821E-02  0.1821E-02  0.6311E-01  0.6311E-01
      7.708  0.2836E-02  0.2836E-02  0.6337E-01  0.6337E-01
      7.798  0.2592E-02  0.2592E-02  0.6360E-01  0.6360E-01
      7.889  0.1332E-02  0.1332E-02  0.6372E-01  0.6372E-01
      7.979  0.2650E-03  0.2650E-03  0.6375E-01  0.6375E-01
      8.069  0.2819E-03  0.2820E-03  0.6377E-01  0.6377E-01
      8.159  0.1321E-02  0.1321E-02  0.6389E-01  0.6389E-01
      8.249  0.2443E-02  0.2443E-02  0.6411E-01  0.6411E-01
      8.340  0.3104E-02  0.3104E-02  0.6439E-01  0.6439E-01
      8.430  0.3585E-02  0.3585E-02  0.6471E-01  0.6471E-01
      8.520  0.3488E-02  0.3489E-02  0.6503E-01  0.6503E-01
      8.610  0.2397E-02  0.2397E-02  0.6525E-01  0.6525E-01
      8.700  0.1387E-02  0.1387E-02  0.6537E-01  0.6537E-01
      8.790  0.1270E-02  0.1270E-02  0.6549E-01  0.6548E-01
      8.881  0.1697E-02  0.1697E-02  0.6564E-01  0.6564E-01
      8.971  0.2586E-02  0.2586E-02  0.6587E-01  0.6587E-01
      9.061  0.3543E-02  0.3543E-02  0.6619E-01  0.6619E-01
      9.151  0.3627E-02  0.3628E-02  0.6652E-01  0.6652E-01
      9.241  0.3343E-02  0.3343E-02  0.6682E-01  0.6682E-01
      9.332  0.3764E-02  0.3764E-02  0.6716E-01  0.6716E-01
      9.422  0.4061E-02  0.4061E-02  0.6753E-01  0.6753E-01
      9.512  0.2975E-02  0.2975E-02  0.6779E-01  0.6779E-01
      9.602  0.1452E-02  0.1452E-02  0.6792E-01  0.6792E-01
      9.692  0.1320E-02  0.1319E-02  0.6804E-01  0.6804E-01
      9.783  0.2342E-02  0.2342E-02  0.6826E-01  0.6825E-01
      9.873  0.2702E-02  0.2702E-02  0.6850E-01  0.6850E-01
      9.963  0.2051E-02  0.2050E-02  0.6868E-01  0.6868E-01
     10.053  0.1967E-02  0.1964E-02  0.6886E-01  0.6886E-01
     10.143  0.2872E-02  0.2870E-02  0.6912E-01  0.6912E-01
     10.234  0.3027E-02  0.3029E-02  0.6939E-01  0.6939E-01
     10.324  0.2052E-02  0.2055E-02  0.6958E-01  0.6958E-01
     10.414  0.1901E-02  0.1901E-02  0.6975E-01  0.6975E-01
     10.504  0.2925E-02  0.2924E-02  0.7001E-01  0.7001E-01
     10.594  0.3194E-02  0.3194E-02  0.7030E-01  0.7030E-01
     10.685  0.2198E-02  0.2199E-02  0.7050E-01  0.7050E-01
     10.775  0.1558E-02  0.1559E-02  0.7064E-01  0.7064E-01
     10.865  0.2277E-02  0.2276E-02  0.7085E-01  0.7085E-01
     10.955  0.3738E-02  0.3737E-02  0.7118E-01  0.7118E-01
     11.045  0.4576E-02  0.4576E-02  0.7160E-01  0.7160E-01
     11.136  0.3715E-02  0.3716E-02  0.7193E-01  0.7193E-01
     11.226  0.1674E-02  0.1675E-02  0.7208E-01  0.7208E-01
     11.316  0.1274E-03  0.1280E-03  0.7209E-01  0.7209E-01
     11.406 -0.3738E-04 -0.3748E-04  0.7209E-01  0.7209E-01
     11.496  0.1013E-02  0.1013E-02  0.7218E-01  0.7218E-01
     11.587  0.2792E-02  0.2791E-02  0.7243E-01  0.7243E-01
     11.677  0.4418E-02  0.4417E-02  0.7283E-01  0.7283E-01
     11.767  0.4741E-02  0.4741E-02  0.7326E-01  0.7326E-01
     11.857  0.3471E-02  0.3472E-02  0.7357E-01  0.7357E-01
     11.947  0.1791E-02  0.1792E-02  0.7373E-01  0.7373E-01
     12.038  0.1208E-02  0.1208E-02  0.7384E-01  0.7384E-01
     12.128  0.1960E-02  0.1959E-02  0.7402E-01  0.7402E-01
     12.218  0.2793E-02  0.2793E-02  0.7427E-01  0.7427E-01
     12.308  0.2429E-02  0.2430E-02  0.7449E-01  0.7449E-01
     12.398  0.1134E-02  0.1136E-02  0.7459E-01  0.7459E-01
     12.488  0.1343E-03  0.1350E-03  0.7460E-01  0.7460E-01
     12.579 -0.1353E-03 -0.1352E-03  0.7459E-01  0.7459E-01
     12.669 -0.7931E-04 -0.7939E-04  0.7459E-01  0.7459E-01
     12.759 -0.2076E-04 -0.2079E-04  0.7458E-01  0.7458E-01
     12.849 -0.4674E-05 -0.4677E-05  0.7458E-01  0.7458E-01
     12.939 -0.1036E-04 -0.1035E-04  0.7458E-01  0.7458E-01
     13.030 -0.3635E-04 -0.3631E-04  0.7458E-01  0.7458E-01
     13.120 -0.5280E-04 -0.5283E-04  0.7457E-01  0.7457E-01
     13.210  0.9521E-04  0.9492E-04  0.7458E-01  0.7458E-01
     13.300  0.5591E-03  0.5585E-03  0.7463E-01  0.7463E-01
     13.390  0.1052E-02  0.1051E-02  0.7473E-01  0.7473E-01
     13.481  0.1015E-02  0.1015E-02  0.7482E-01  0.7482E-01
     13.571  0.4944E-03  0.4950E-03  0.7486E-01  0.7486E-01
     13.661  0.6307E-04  0.6337E-04  0.7487E-01  0.7487E-01
     13.751 -0.5504E-04 -0.5502E-04  0.7486E-01  0.7486E-01
     13.841 -0.3249E-04 -0.3253E-04  0.7486E-01  0.7486E-01
     13.932 -0.8389E-05 -0.8405E-05  0.7486E-01  0.7486E-01
     14.022 -0.1250E-05 -0.1254E-05  0.7486E-01  0.7486E-01
     14.112 -0.1157E-06 -0.1161E-06  0.7486E-01  0.7486E-01
     14.202 -0.6848E-08 -0.6873E-08  0.7486E-01  0.7486E-01
     14.292 -0.2631E-09 -0.2643E-09  0.7486E-01  0.7486E-01
     14.383 -0.6620E-11 -0.6651E-11  0.7486E-01  0.7486E-01
     14.473 -0.1096E-12 -0.1102E-12  0.7486E-01  0.7486E-01
     14.563 -0.1197E-14 -0.1204E-14  0.7486E-01  0.7486E-01
     14.653 -0.8548E-17 -0.8890E-17  0.7486E-01  0.7486E-01
     14.743 -0.3267E-27 -0.3248E-27  0.7486E-01  0.7486E-01
     14.834 -0.2351E-24 -0.2338E-24  0.7486E-01  0.7486E-01
     14.924 -0.1121E-21 -0.1116E-21  0.7486E-01  0.7486E-01
     15.014 -0.3544E-19 -0.3527E-19  0.7486E-01  0.7486E-01
     15.104 -0.7158E-17 -0.7125E-17  0.7486E-01  0.7486E-01
     15.194 -0.9901E-15 -0.9861E-15  0.7486E-01  0.7486E-01
     15.285 -0.8981E-13 -0.8947E-13  0.7486E-01  0.7486E-01
     15.375 -0.5355E-11 -0.5337E-11  0.7486E-01  0.7486E-01
     15.465 -0.2090E-09 -0.2084E-09  0.7486E-01  0.7486E-01
     15.555 -0.5310E-08 -0.5296E-08  0.7486E-01  0.7486E-01
     15.645 -0.8689E-07 -0.8670E-07  0.7486E-01  0.7486E-01
     15.736 -0.9003E-06 -0.8986E-06  0.7486E-01  0.7486E-01
     15.826 -0.5702E-05 -0.5694E-05  0.7486E-01  0.7486E-01
     15.916 -0.2021E-04 -0.2019E-04  0.7486E-01  0.7486E-01
     16.006 -0.2716E-04 -0.2717E-04  0.7486E-01  0.7486E-01
     16.096  0.6067E-04  0.6052E-04  0.7486E-01  0.7486E-01
     16.186  0.3137E-03  0.3134E-03  0.7489E-01  0.7489E-01
     16.277  0.5521E-03  0.5520E-03  0.7494E-01  0.7494E-01
     16.367  0.4920E-03  0.4922E-03  0.7498E-01  0.7498E-01
     16.457  0.2109E-03  0.2111E-03  0.7500E-01  0.7500E-01
     16.547  0.1159E-04  0.1168E-04  0.7500E-01  0.7500E-01
     16.637 -0.2940E-04 -0.2941E-04  0.7500E-01  0.7500E-01
     16.728 -0.1402E-04 -0.1403E-04  0.7500E-01  0.7500E-01
     16.818 -0.3172E-05 -0.3177E-05  0.7500E-01  0.7500E-01
     16.908 -0.4190E-06 -0.4199E-06  0.7500E-01  0.7500E-01
     16.998 -0.3437E-07 -0.3445E-07  0.7500E-01  0.7500E-01
     17.088 -0.1798E-08 -0.1803E-08  0.7500E-01  0.7500E-01
     17.179 -0.6084E-10 -0.6103E-10  0.7500E-01  0.7500E-01
     17.269 -0.1343E-11 -0.1348E-11  0.7500E-01  0.7500E-01
     17.359 -0.1944E-13 -0.1952E-13  0.7500E-01  0.7500E-01
     17.449 -0.1850E-15 -0.1857E-15  0.7500E-01  0.7500E-01
     17.539 -0.1368E-17 -0.1368E-17  0.7500E-01  0.7500E-01
     17.630  0.0000E+00  0.0000E+00  0.7500E-01  0.7500E-01
     17.720  0.0000E+00  0.0000E+00  0.7500E-01  0.7500E-01
     17.810  0.0000E+00  0.0000E+00  0.7500E-01  0.7500E-01
     17.900  0.0000E+00  0.0000E+00  0.7500E-01  0.7500E-01
     17.990  0.0000E+00  0.0000E+00  0.7500E-01  0.7500E-01
     18.081  0.0000E+00  0.0000E+00  0.7500E-01  0.7500E-01
     18.171  0.0000E+00  0.0000E+00  0.7500E-01  0.7500E-01
     18.261  0.0000E+00  0.0000E+00  0.7500E-01  0.7500E-01
