   10   10  800    2
  0.1692928E+02  0.2566798E-09  0.2566798E-09  0.2967047E-08  0.5000000E-15
  1.000000000000000E-004
  CAR 
 unknown system                          
     90      4     60
 
  0.0000000E+00  0.0000000E+00  0.0000000E+00  0.1111111E+00
      1         -6.797569       -6.797569   1.000000   1.000000
      2         -6.427060       -6.427060   1.000000   1.000000
      3         -6.056237       -6.056237   1.000000   1.000000
      4         -5.570740       -5.570740   1.000000   1.000000
      5         -4.729443       -4.729443   1.000000   1.000000
      6         -3.788357       -3.788356   1.000000   1.000000
      7         -2.985155       -2.985155   1.000000   1.000000
      8         -2.556720       -2.556719   1.000000   1.000000
      9         -2.486814       -2.486814   1.000000   1.000000
     10         -0.615770       -0.615770   1.000000   1.000000
     11         -0.591343       -0.591343   1.000000   1.000000
     12         -0.509727       -0.509727   1.000000   1.000000
     13         -0.509603       -0.509603   1.000000   1.000000
     14         -0.497537       -0.497537   1.000000   1.000000
     15         -0.497508       -0.497507   1.000000   1.000000
     16         -0.438125       -0.438125   1.000000   1.000000
     17         -0.423849       -0.423849   1.000000   1.000000
     18         -0.423781       -0.423781   1.000000   1.000000
     19         -0.401739       -0.401739   1.000000   1.000000
     20         -0.401688       -0.401688   1.000000   1.000000
     21         -0.356062       -0.356062   1.000000   1.000000
     22         -0.326187       -0.326187   1.000000   1.000000
     23         -0.326158       -0.326158   1.000000   1.000000
     24         -0.289601       -0.289601   1.000000   1.000000
     25         -0.289497       -0.289497   1.000000   1.000000
     26         -0.138878       -0.138878   1.000000   1.000000
     27          0.054846        0.054846   1.000000   1.000000
     28          0.056358        0.056358   1.000000   1.000000
     29          0.093961        0.093961   1.000000   1.000000
     30          0.180475        0.180475   1.000000   1.000000
     31          0.180635        0.180635   1.000000   1.000000
     32          0.355068        0.355068   1.000000   1.000000
     33          0.355481        0.355481   1.000000   1.000000
     34          0.363454        0.363454   1.000000   1.000000
     35          0.363457        0.363457   1.000000   1.000000
     36          0.483278        0.483278   1.000000   1.000000
     37          0.484132        0.484132   1.000000   1.000000
     38          0.606435        0.606435   1.000000   1.000000
     39          0.606925        0.606925   1.000000   1.000000
     40          0.719520        0.719520   1.000000   1.000000
     41          0.720058        0.720058   1.000000   1.000000
     42          0.803163        0.803163   1.000000   1.000000
     43          0.881249        0.881249   1.000000   1.000000
     44          0.881709        0.881709   1.000000   1.000000
     45          1.077496        1.077496   1.000000   1.000000
     46          1.082452        1.082452   1.000000   1.000000
     47          1.218896        1.218896   1.000000   1.000000
     48          1.219142        1.219142   1.000000   1.000000
     49          2.110942        2.110943   0.254310   0.254307
     50          2.400648        2.400648  -0.016257  -0.016257
     51          5.903306        5.903384  -0.000000  -0.000000
     52          6.603989        6.604131  -0.000000  -0.000000
     53          7.378492        7.378684  -0.000000  -0.000000
     54          8.353986        8.354078   0.000000   0.000000
     55          8.839212        8.839348   0.000000   0.000000
     56         10.645762       10.645842   0.000000   0.000000
     57         10.886117       10.886238   0.000000   0.000000
     58         13.362363       13.362437   0.000000   0.000000
     59         13.408267       13.408383   0.000000   0.000000
     60         16.260893       16.260971   0.000000   0.000000
 
  0.3333333E+00  0.5551115E-16  0.0000000E+00  0.4444444E+00
      1         -3.996291       -3.996291   1.000000   1.000000
      2         -3.687670       -3.687670   1.000000   1.000000
      3         -3.400838       -3.400838   1.000000   1.000000
      4         -2.993464       -2.993464   1.000000   1.000000
      5         -2.558547       -2.558547   1.000000   1.000000
      6         -2.172703       -2.172703   1.000000   1.000000
      7         -1.842817       -1.842817   1.000000   1.000000
      8         -1.660726       -1.660726   1.000000   1.000000
      9         -1.588759       -1.588759   1.000000   1.000000
     10         -1.488529       -1.488529   1.000000   1.000000
     11         -1.423820       -1.423820   1.000000   1.000000
     12         -1.205861       -1.205861   1.000000   1.000000
     13         -1.014947       -1.014947   1.000000   1.000000
     14         -0.864790       -0.864790   1.000000   1.000000
     15         -0.690423       -0.690423   1.000000   1.000000
     16         -0.674855       -0.674855   1.000000   1.000000
     17         -0.538435       -0.538435   1.000000   1.000000
     18         -0.476173       -0.476173   1.000000   1.000000
     19         -0.419715       -0.419715   1.000000   1.000000
     20         -0.330763       -0.330763   1.000000   1.000000
     21         -0.325013       -0.325012   1.000000   1.000000
     22         -0.233881       -0.233881   1.000000   1.000000
     23         -0.116525       -0.116525   1.000000   1.000000
     24         -0.088309       -0.088308   1.000000   1.000000
     25          0.064014        0.064014   1.000000   1.000000
     26          0.165108        0.165108   1.000000   1.000000
     27          0.291281        0.291281   1.000000   1.000000
     28          0.368781        0.368781   1.000000   1.000000
     29          0.446385        0.446385   1.000000   1.000000
     30          0.525828        0.525828   1.000000   1.000000
     31          0.539205        0.539205   1.000000   1.000000
     32          0.610819        0.610819   1.000000   1.000000
     33          0.631600        0.631600   1.000000   1.000000
     34          0.683157        0.683157   1.000000   1.000000
     35          0.708639        0.708639   1.000000   1.000000
     36          0.761337        0.761337   1.000000   1.000000
     37          0.786881        0.786881   1.000000   1.000000
     38          0.800380        0.800380   1.000000   1.000000
     39          0.899522        0.899522   1.000000   1.000000
     40          0.921479        0.921479   1.000000   1.000000
     41          1.048794        1.048794   1.000000   1.000000
     42          1.169665        1.169665   1.000000   1.000000
     43          1.173318        1.173318   1.000000   1.000000
     44          1.189838        1.189838   1.000000   1.000000
     45          1.349245        1.349245   1.000004   1.000004
     46          1.973659        1.973659   0.797853   0.797853
     47          3.082054        3.082054  -0.000000  -0.000000
     48          4.436290        4.436290  -0.000000  -0.000000
     49          5.937115        5.937116  -0.000000  -0.000000
     50          7.164199        7.164200  -0.000000  -0.000000
     51          8.490598        8.490616   0.000000   0.000000
     52          9.027033        9.027040   0.000000   0.000000
     53          9.379827        9.379834   0.000000   0.000000
     54          9.770298        9.770343   0.000000   0.000000
     55         10.163967       10.164143   0.000000   0.000000
     56         10.525674       10.525781   0.000000   0.000000
     57         11.076093       11.076156   0.000000   0.000000
     58         11.647243       11.647263   0.000000   0.000000
     59         11.741572       11.741652   0.000000   0.000000
     60         12.226554       12.226644   0.000000   0.000000
 
  0.0000000E+00  0.3333333E+00  0.0000000E+00  0.2222222E+00
      1         -4.020531       -4.020531   1.000000   1.000000
      2         -3.685029       -3.685029   1.000000   1.000000
      3         -3.395370       -3.395370   1.000000   1.000000
      4         -2.986862       -2.986862   1.000000   1.000000
      5         -2.552515       -2.552515   1.000000   1.000000
      6         -2.167480       -2.167480   1.000000   1.000000
      7         -1.838496       -1.838496   1.000000   1.000000
      8         -1.660554       -1.660554   1.000000   1.000000
      9         -1.587347       -1.587347   1.000000   1.000000
     10         -1.486900       -1.486900   1.000000   1.000000
     11         -1.423153       -1.423153   1.000000   1.000000
     12         -1.205168       -1.205168   1.000000   1.000000
     13         -1.015256       -1.015256   1.000000   1.000000
     14         -0.865856       -0.865856   1.000000   1.000000
     15         -0.692009       -0.692009   1.000000   1.000000
     16         -0.674471       -0.674471   1.000000   1.000000
     17         -0.539262       -0.539262   1.000000   1.000000
     18         -0.476108       -0.476108   1.000000   1.000000
     19         -0.420681       -0.420681   1.000000   1.000000
     20         -0.330781       -0.330781   1.000000   1.000000
     21         -0.324991       -0.324991   1.000000   1.000000
     22         -0.235381       -0.235381   1.000000   1.000000
     23         -0.117846       -0.117846   1.000000   1.000000
     24         -0.088282       -0.088282   1.000000   1.000000
     25          0.060484        0.060484   1.000000   1.000000
     26          0.164561        0.164561   1.000000   1.000000
     27          0.276930        0.276930   1.000000   1.000000
     28          0.368331        0.368331   1.000000   1.000000
     29          0.428535        0.428535   1.000000   1.000000
     30          0.525463        0.525463   1.000000   1.000000
     31          0.537294        0.537294   1.000000   1.000000
     32          0.610851        0.610851   1.000000   1.000000
     33          0.631358        0.631358   1.000000   1.000000
     34          0.683181        0.683181   1.000000   1.000000
     35          0.709661        0.709661   1.000000   1.000000
     36          0.761253        0.761253   1.000000   1.000000
     37          0.791319        0.791319   1.000000   1.000000
     38          0.800284        0.800284   1.000000   1.000000
     39          0.900513        0.900513   1.000000   1.000000
     40          0.920745        0.920745   1.000000   1.000000
     41          1.047020        1.047020   1.000000   1.000000
     42          1.170162        1.170162   1.000000   1.000000
     43          1.173389        1.173389   1.000000   1.000000
     44          1.189482        1.189482   1.000000   1.000000
     45          1.349284        1.349284   1.000004   1.000004
     46          1.977423        1.977423   0.785255   0.785255
     47          3.088281        3.088281  -0.000000  -0.000000
     48          4.441544        4.441544  -0.000000  -0.000000
     49          5.929643        5.929643  -0.000000  -0.000000
     50          7.130021        7.130022  -0.000000  -0.000000
     51          8.423627        8.423640   0.000000   0.000000
     52          9.063592        9.063601   0.000000   0.000000
     53          9.464793        9.464804   0.000000   0.000000
     54          9.890902        9.890990   0.000000   0.000000
     55         10.145304       10.145464   0.000000   0.000000
     56         10.824030       10.824101   0.000000   0.000000
     57         10.962864       10.962933   0.000000   0.000000
     58         11.525016       11.525052   0.000000   0.000000
     59         11.852096       11.852164   0.000000   0.000000
     60         12.092160       12.092225   0.000000   0.000000
 
 -0.3333333E+00  0.3333333E+00  0.0000000E+00  0.2222222E+00
      1         -2.539806       -2.539806   1.000000   1.000000
      2         -1.579104       -1.579104   1.000000   1.000000
      3         -1.568594       -1.568594   1.000000   1.000000
      4         -1.565244       -1.565244   1.000000   1.000000
      5         -1.500651       -1.500651   1.000000   1.000000
      6         -1.461426       -1.461426   1.000000   1.000000
      7         -1.444361       -1.444361   1.000000   1.000000
      8         -1.413656       -1.413656   1.000000   1.000000
      9         -1.408691       -1.408691   1.000000   1.000000
     10         -1.395265       -1.395265   1.000000   1.000000
     11         -1.390059       -1.390059   1.000000   1.000000
     12         -1.355665       -1.355665   1.000000   1.000000
     13         -1.258254       -1.258253   1.000000   1.000000
     14         -1.154681       -1.154681   1.000000   1.000000
     15         -1.116480       -1.116480   1.000000   1.000000
     16         -1.037065       -1.037065   1.000000   1.000000
     17         -0.741082       -0.741082   1.000000   1.000000
     18         -0.697153       -0.697152   1.000000   1.000000
     19         -0.692745       -0.692745   1.000000   1.000000
     20         -0.625391       -0.625390   1.000000   1.000000
     21         -0.471018       -0.471018   1.000000   1.000000
     22         -0.369698       -0.369698   1.000000   1.000000
     23          0.012340        0.012340   1.000000   1.000000
     24          0.091003        0.091003   1.000000   1.000000
     25          0.211950        0.211950   1.000000   1.000000
     26          0.227241        0.227241   1.000000   1.000000
     27          0.300220        0.300220   1.000000   1.000000
     28          0.301198        0.301198   1.000000   1.000000
     29          0.330594        0.330594   1.000000   1.000000
     30          0.339279        0.339279   1.000000   1.000000
     31          0.351422        0.351422   1.000000   1.000000
     32          0.612409        0.612409   1.000000   1.000000
     33          0.703876        0.703876   1.000000   1.000000
     34          0.820133        0.820133   1.000000   1.000000
     35          0.830571        0.830571   1.000000   1.000000
     36          0.852880        0.852880   1.000000   1.000000
     37          0.926407        0.926407   1.000000   1.000000
     38          0.970418        0.970418   1.000000   1.000000
     39          0.976793        0.976793   1.000000   1.000000
     40          1.046331        1.046331   1.000000   1.000000
     41          1.119377        1.119377   1.000000   1.000000
     42          5.744382        5.744382  -0.000000  -0.000000
     43          5.748980        5.748980  -0.000000  -0.000000
     44          5.771851        5.771851  -0.000000  -0.000000
     45          5.919122        5.919123  -0.000000  -0.000000
     46          5.942074        5.942074  -0.000000  -0.000000
     47          6.183161        6.183161  -0.000000  -0.000000
     48          6.330283        6.330283  -0.000000  -0.000000
     49          6.875157        6.875157  -0.000000  -0.000000
     50          7.078868        7.078868  -0.000000  -0.000000
     51          7.651130        7.651130   0.000000   0.000000
     52          7.662213        7.662213   0.000000   0.000000
     53          7.785643        7.785643   0.000000   0.000000
     54          8.200655        8.200655   0.000000   0.000000
     55          8.221188        8.221188   0.000000   0.000000
     56          8.757567        8.757567   0.000000   0.000000
     57          9.190391        9.190391   0.000000   0.000000
     58          9.314198        9.314198   0.000000   0.000000
     59         10.457566       10.457566   0.000000   0.000000
     60         11.008914       11.008915   0.000000   0.000000
