       N       E                     dE             d eps       ncg     rms          rms(c)
DAV:   1     0.796138417506E+03    0.79614E+03   -0.33481E+04   960   0.189E+03
DAV:   2     0.730352132206E+02   -0.72310E+03   -0.69178E+03   960   0.402E+02
DAV:   3    -0.328622676888E+02   -0.10590E+03   -0.99644E+02   996   0.197E+02
DAV:   4    -0.373973686100E+02   -0.45351E+01   -0.44975E+01  1076   0.567E+01
DAV:   5    -0.374978344077E+02   -0.10047E+00   -0.10038E+00  1108   0.719E+00    0.276E+01
DAV:   6    -0.343719350632E+02    0.31259E+01   -0.10742E+02  1280   0.189E+02    0.203E+01
DAV:   7    -0.947932121843E+02   -0.60421E+02   -0.30517E+02  1408   0.251E+02    0.632E+01
DAV:   8    -0.401744015871E+02    0.54619E+02   -0.21406E+02  1624   0.127E+02    0.220E+01
DAV:   9    -0.332041461828E+02    0.69703E+01   -0.49579E+01  1564   0.101E+02    0.168E+01
DAV:  10    -0.310502107980E+02    0.21539E+01   -0.17443E+01  1428   0.528E+01    0.118E+01
DAV:  11    -0.305971244022E+02    0.45309E+00   -0.16556E+00  1284   0.279E+01    0.101E+01
DAV:  12    -0.298969268609E+02    0.70020E+00   -0.14269E+00  1132   0.189E+01    0.820E+00
DAV:  13    -0.296406009945E+02    0.25633E+00   -0.14862E+00  1344   0.435E+01    0.643E+00
DAV:  14    -0.317972008813E+02   -0.21566E+01   -0.18342E+00  1504   0.342E+01    0.514E+00
DAV:  15    -0.333065163034E+02   -0.15093E+01   -0.15908E+00  1552   0.310E+01    0.440E+00
DAV:  16    -0.347780123159E+02   -0.14715E+01   -0.16138E+00  1380   0.242E+01    0.391E+00
DAV:  17    -0.353464836196E+02   -0.56847E+00   -0.81060E-01  1304   0.240E+01    0.200E+00
DAV:  18    -0.358240662398E+02   -0.47758E+00   -0.50704E-01  1252   0.140E+01    0.125E+00
DAV:  19    -0.360607455547E+02   -0.23668E+00   -0.19234E-01  1340   0.733E+00    0.953E-01
DAV:  20    -0.362382799214E+02   -0.17753E+00   -0.11365E-01  1232   0.627E+00    0.787E-01
DAV:  21    -0.363504228514E+02   -0.11214E+00   -0.73011E-02  1380   0.484E+00    0.616E-01
DAV:  22    -0.364018342664E+02   -0.51411E-01   -0.40342E-02  1168   0.317E+00    0.513E-01
DAV:  23    -0.364697729124E+02   -0.67939E-01   -0.38863E-02  1208   0.231E+00    0.364E-01
DAV:  24    -0.367631132532E+02   -0.29334E+00   -0.25745E-02  1120   0.182E+00    0.336E-01
DAV:  25    -0.369353637209E+02   -0.17225E+00   -0.13095E-02  1224   0.132E+00    0.233E-01
DAV:  26    -0.369900583631E+02   -0.54695E-01   -0.78593E-03  1300   0.235E+00    0.185E-01
DAV:  27    -0.370074815323E+02   -0.17423E-01   -0.55700E-03  1208   0.164E+00    0.119E-01
DAV:  28    -0.370118595352E+02   -0.43780E-02   -0.13378E-03  1056   0.695E-01    0.963E-02
DAV:  29    -0.370158317358E+02   -0.39722E-02   -0.11019E-03  1004   0.597E-01    0.676E-02
DAV:  30    -0.370177354957E+02   -0.19038E-02   -0.74020E-04   864   0.330E-01    0.614E-02
DAV:  31    -0.370184240816E+02   -0.68859E-03   -0.42485E-04   860   0.239E-01    0.532E-02
DAV:  32    -0.370196659258E+02   -0.12418E-02   -0.44571E-04   764   0.259E-01    0.510E-02
DAV:  33    -0.370207135484E+02   -0.10476E-02   -0.23586E-04   688   0.438E-01    0.260E-02
DAV:  34    -0.370217195909E+02   -0.10060E-02   -0.18177E-04   684   0.174E-01    0.154E-02
DAV:  35    -0.370221888098E+02   -0.46922E-03   -0.84047E-05   632   0.118E-01    0.976E-03
DAV:  36    -0.370225100944E+02   -0.32128E-03   -0.66722E-05   616   0.107E-01    0.799E-03
DAV:  37    -0.370225667600E+02   -0.56666E-04   -0.27903E-05   616   0.684E-02
   1 F= -.40699011E+02 E0= -.40690588E+02  d E =-.406990E+02  mag=     0.0007
       N       E                     dE             d eps       ncg     rms          rms(c)
DAV:   1    -0.370121606595E+02    0.10349E-01   -0.12213E+01  1016   0.138E+01    0.747E-01
DAV:   2    -0.370426416149E+02   -0.30481E-01   -0.51753E-01  1568   0.106E+01    0.669E-01
DAV:   3    -0.370370237590E+02    0.56179E-02   -0.56876E-01  1696   0.178E+01    0.581E-01
DAV:   4    -0.370241002606E+02    0.12923E-01   -0.14307E-01  1632   0.839E+00    0.307E-01
DAV:   5    -0.370258077470E+02   -0.17075E-02   -0.43711E-02  1356   0.658E+00    0.295E-01
DAV:   6    -0.370225915292E+02    0.32162E-02   -0.24769E-02  1528   0.504E+00    0.635E-02
DAV:   7    -0.370227773420E+02   -0.18581E-03   -0.32244E-03  1344   0.107E+00    0.468E-02
DAV:   8    -0.370228201372E+02   -0.42795E-04   -0.60131E-04   796   0.560E-01
   2 F= -.40723998E+02 E0= -.40715161E+02  d E =-.249878E-01  mag=     0.0005
       N       E                     dE             d eps       ncg     rms          rms(c)
DAV:   1    -0.370482021978E+02   -0.25425E-01   -0.20773E+00  1008   0.568E+00    0.264E-01
DAV:   2    -0.370520796269E+02   -0.38774E-02   -0.57903E-02  1536   0.347E+00    0.222E-01
DAV:   3    -0.370522879724E+02   -0.20835E-03   -0.47964E-02  1696   0.537E+00    0.209E-01
DAV:   4    -0.370511064842E+02    0.11815E-02   -0.16677E-02  1232   0.342E+00    0.120E-01
DAV:   5    -0.370507852058E+02    0.32128E-03   -0.75315E-03   912   0.276E+00    0.837E-02
DAV:   6    -0.370505486481E+02    0.23656E-03   -0.17095E-03   804   0.129E+00    0.184E-02
DAV:   7    -0.370505638578E+02   -0.15210E-04   -0.39635E-04   656   0.348E-01
   3 F= -.40734860E+02 E0= -.40726223E+02  d E =-.358498E-01  mag=     0.0004
       N       E                     dE             d eps       ncg     rms          rms(c)
DAV:   1    -0.370626637478E+02   -0.12115E-01   -0.87425E+00   992   0.119E+01    0.252E-01
DAV:   2    -0.370833295695E+02   -0.20666E-01   -0.22783E-01  1568   0.670E+00    0.368E-01
DAV:   3    -0.370790336343E+02    0.42959E-02   -0.10009E-01  1616   0.796E+00    0.251E-01
DAV:   4    -0.370779412450E+02    0.10924E-02   -0.10136E-02  1456   0.234E+00    0.168E-01
DAV:   5    -0.370779614483E+02   -0.20203E-04   -0.32785E-03  1104   0.157E+00    0.138E-01
DAV:   6    -0.370777109861E+02    0.25046E-03   -0.51400E-03  1188   0.218E+00    0.612E-02
DAV:   7    -0.370776048640E+02    0.10612E-03   -0.18080E-03   812   0.120E+00
   4 F= -.40764783E+02 E0= -.40756135E+02  d E =-.299230E-01  mag=     0.0004
       N       E                     dE             d eps       ncg     rms          rms(c)
DAV:   1    -0.370260758959E+02    0.51635E-01   -0.35468E+01  1016   0.246E+01    0.536E-01
DAV:   2    -0.371133674847E+02   -0.87292E-01   -0.94232E-01  1536   0.138E+01    0.768E-01
DAV:   3    -0.370979182659E+02    0.15449E-01   -0.41685E-01  1624   0.168E+01    0.508E-01
DAV:   4    -0.370922948803E+02    0.56234E-02   -0.54744E-02  1576   0.553E+00    0.339E-01
DAV:   5    -0.370924501336E+02   -0.15525E-03   -0.14574E-02  1488   0.328E+00    0.293E-01
DAV:   6    -0.370911778631E+02    0.12723E-02   -0.17849E-02  1352   0.388E+00    0.148E-01
DAV:   7    -0.370908729202E+02    0.30494E-03   -0.54804E-03  1592   0.220E+00    0.506E-02
DAV:   8    -0.370908461489E+02    0.26771E-04   -0.11923E-03   936   0.808E-01
   5 F= -.40783787E+02 E0= -.40775321E+02  d E =-.489270E-01  mag=     0.0003
       N       E                     dE             d eps       ncg     rms          rms(c)
DAV:   1    -0.370910071003E+02   -0.13418E-03   -0.10986E+00  1032   0.421E+00    0.787E-02
DAV:   2    -0.370934049379E+02   -0.23978E-02   -0.26288E-02  1600   0.209E+00    0.118E-01
DAV:   3    -0.370928669083E+02    0.53803E-03   -0.85489E-03  1392   0.216E+00    0.790E-02
DAV:   4    -0.370928396660E+02    0.27242E-04   -0.72114E-04   840   0.571E-01
   6 F= -.40784764E+02 E0= -.40776221E+02  d E =-.499033E-01  mag=     0.0003
       N       E                     dE             d eps       ncg     rms          rms(c)
DAV:   1    -0.370951508438E+02   -0.22839E-02   -0.68949E+00  1008   0.110E+01    0.231E-01
DAV:   2    -0.371095396215E+02   -0.14389E-01   -0.15425E-01  1352   0.289E+00    0.237E-01
DAV:   3    -0.371093828221E+02    0.15680E-03   -0.91053E-03  1264   0.237E+00    0.196E-01
DAV:   4    -0.371093420980E+02    0.40724E-04   -0.91986E-03   992   0.246E+00    0.166E-01
DAV:   5    -0.371087828550E+02    0.55924E-03   -0.50191E-03   776   0.180E+00    0.114E-01
DAV:   6    -0.371085640542E+02    0.21880E-03   -0.18188E-03   976   0.107E+00    0.373E-02
DAV:   7    -0.371085636978E+02    0.35641E-06   -0.10950E-03   796   0.983E-01
   7 F= -.40803807E+02 E0= -.40795457E+02  d E =-.190435E-01  mag=     0.0002
       N       E                     dE             d eps       ncg     rms          rms(c)
DAV:   1    -0.371083393261E+02    0.22473E-03   -0.14128E+00  1008   0.494E+00    0.109E-01
DAV:   2    -0.371111724780E+02   -0.28332E-02   -0.30366E-02  1344   0.119E+00    0.102E-01
DAV:   3    -0.371111002122E+02    0.72266E-04   -0.66545E-04   932   0.519E-01
   8 F= -.40808061E+02 E0= -.40799704E+02  d E =-.232970E-01  mag=     0.0002
       N       E                     dE             d eps       ncg     rms          rms(c)
DAV:   1    -0.371155936145E+02   -0.44211E-02   -0.30188E+00  1024   0.734E+00    0.198E-01
DAV:   2    -0.371208287501E+02   -0.52351E-02   -0.60483E-02  1340   0.194E+00    0.180E-01
DAV:   3    -0.371207944372E+02    0.34313E-04   -0.63276E-03  1176   0.206E+00    0.151E-01
DAV:   4    -0.371207632966E+02    0.31141E-04   -0.10466E-02   784   0.258E+00    0.124E-01
DAV:   5    -0.371203080854E+02    0.45521E-03   -0.53114E-03   744   0.172E+00    0.570E-02
DAV:   6    -0.371202231336E+02    0.84952E-04   -0.12786E-03   712   0.985E-01
   9 F= -.40820834E+02 E0= -.40812341E+02  d E =-.127734E-01  mag=     0.0002
       N       E                     dE             d eps       ncg     rms          rms(c)
DAV:   1    -0.371184848812E+02    0.18232E-02   -0.11109E+00  1024   0.450E+00    0.112E-01
DAV:   2    -0.371206589834E+02   -0.21741E-02   -0.23262E-02  1484   0.162E+00    0.113E-01
DAV:   3    -0.371206418914E+02    0.17092E-04   -0.63755E-03  1232   0.198E+00    0.911E-02
DAV:   4    -0.371204738567E+02    0.16803E-03   -0.31466E-03   704   0.142E+00    0.667E-02
DAV:   5    -0.371204620107E+02    0.11846E-04   -0.16537E-03   736   0.123E+00
  10 F= -.40823688E+02 E0= -.40815414E+02  d E =-.156277E-01  mag=     0.0001
       N       E                     dE             d eps       ncg     rms          rms(c)
DAV:   1    -0.371231014398E+02   -0.26276E-02   -0.20470E+00  1000   0.591E+00    0.123E-01
DAV:   2    -0.371268898673E+02   -0.37884E-02   -0.40539E-02  1352   0.186E+00    0.138E-01
DAV:   3    -0.371268027819E+02    0.87085E-04   -0.45483E-03  1136   0.170E+00    0.109E-01
DAV:   4    -0.371267109978E+02    0.91784E-04   -0.18182E-03   704   0.104E+00
  11 F= -.40831176E+02 E0= -.40822899E+02  d E =-.748719E-02  mag=     0.0001
       N       E                     dE             d eps       ncg     rms          rms(c)
DAV:   1    -0.371043317097E+02    0.22471E-01   -0.18542E+01  1016   0.182E+01    0.422E-01
DAV:   2    -0.371419122478E+02   -0.37581E-01   -0.41134E-01  1356   0.613E+00    0.491E-01
DAV:   3    -0.371408644869E+02    0.10478E-02   -0.57146E-02  1296   0.599E+00    0.375E-01
DAV:   4    -0.371394117807E+02    0.14527E-02   -0.29111E-02  1616   0.423E+00    0.322E-01
DAV:   5    -0.371383505635E+02    0.10612E-02   -0.22307E-02  1680   0.370E+00    0.167E-01
DAV:   6    -0.371376754006E+02    0.67516E-03   -0.16001E-02  1376   0.389E+00    0.105E-01
DAV:   7    -0.371371792102E+02    0.49619E-03   -0.41082E-03  1224   0.202E+00    0.291E-02
DAV:   8    -0.371372367894E+02   -0.57579E-04   -0.86628E-04   940   0.420E-01
  12 F= -.40845657E+02 E0= -.40837244E+02  d E =-.219681E-01  mag=     0.0001
       N       E                     dE             d eps       ncg     rms          rms(c)
DAV:   1    -0.370048306447E+02    0.13235E+00   -0.76078E+01  1104   0.384E+01    0.773E-01
DAV:   2    -0.371372587673E+02   -0.13243E+00   -0.14391E+00  1424   0.962E+00    0.881E-01
DAV:   3    -0.371320148995E+02    0.52439E-02   -0.88128E-02  1168   0.705E+00    0.666E-01
DAV:   4    -0.371292443832E+02    0.27705E-02   -0.19367E-02  1184   0.419E+00    0.517E-01
DAV:   5    -0.371274305845E+02    0.18138E-02   -0.48258E-02  1696   0.576E+00    0.317E-01
DAV:   6    -0.371284777159E+02   -0.10471E-02   -0.13297E-01  1520   0.917E+00    0.263E-01
DAV:   7    -0.371233717754E+02    0.51059E-02   -0.66800E-02  1616   0.636E+00    0.804E-02
DAV:   8    -0.371232666671E+02    0.10511E-03   -0.35075E-03  1536   0.117E+00    0.310E-02
DAV:   9    -0.371233053435E+02   -0.38676E-04   -0.64021E-04   888   0.310E-01
  13 F= -.40841152E+02 E0= -.40832638E+02  d E =-.174637E-01  mag=     0.0001
       N       E                     dE             d eps       ncg     rms          rms(c)
DAV:   1    -0.370892910949E+02    0.33976E-01   -0.27822E+01  1016   0.225E+01    0.495E-01
DAV:   2    -0.371418469246E+02   -0.52556E-01   -0.58133E-01  1324   0.587E+00    0.507E-01
DAV:   3    -0.371406458831E+02    0.12010E-02   -0.32214E-02  1200   0.493E+00    0.393E-01
DAV:   4    -0.371406513687E+02   -0.54855E-05   -0.35355E-02  1408   0.487E+00    0.329E-01
DAV:   5    -0.371418466789E+02   -0.11953E-02   -0.78373E-02  1560   0.668E+00    0.290E-01
DAV:   6    -0.371383143847E+02    0.35323E-02   -0.39681E-02  1696   0.522E+00    0.131E-01
DAV:   7    -0.371373146522E+02    0.99973E-03   -0.57722E-03  1296   0.201E+00    0.468E-02
DAV:   8    -0.371374231420E+02   -0.10849E-03   -0.15354E-03  1136   0.612E-01
  14 F= -.40849236E+02 E0= -.40840694E+02  d E =-.255479E-01  mag=     0.0001
       N       E                     dE             d eps       ncg     rms          rms(c)
DAV:   1    -0.371342330493E+02    0.30816E-02   -0.58886E+00  1000   0.102E+01    0.228E-01
DAV:   2    -0.371457964636E+02   -0.11563E-01   -0.13477E-01  1408   0.397E+00    0.255E-01
DAV:   3    -0.371454975643E+02    0.29890E-03   -0.41819E-02  1472   0.501E+00    0.228E-01
DAV:   4    -0.371446810270E+02    0.81654E-03   -0.80511E-03  1200   0.215E+00    0.160E-01
DAV:   5    -0.371444739786E+02    0.20705E-03   -0.22098E-03  1176   0.125E+00    0.980E-02
DAV:   6    -0.371444235415E+02    0.50437E-04   -0.40290E-03  1200   0.205E+00    0.612E-02
DAV:   7    -0.371442563966E+02    0.16714E-03   -0.10622E-03   704   0.105E+00
  15 F= -.40858011E+02 E0= -.40849491E+02  d E =-.877425E-02  mag=     0.0001
       N       E                     dE             d eps       ncg     rms          rms(c)
DAV:   1    -0.371319521885E+02    0.12471E-01   -0.75922E+00  1000   0.116E+01    0.258E-01
DAV:   2    -0.371472260552E+02   -0.15274E-01   -0.17445E-01  1424   0.440E+00    0.286E-01
DAV:   3    -0.371469287176E+02    0.29734E-03   -0.52795E-02  1520   0.568E+00    0.257E-01
DAV:   4    -0.371458680607E+02    0.10607E-02   -0.10606E-02  1248   0.250E+00    0.179E-01
DAV:   5    -0.371455787975E+02    0.28926E-03   -0.24985E-03  1240   0.121E+00    0.106E-01
DAV:   6    -0.371455545995E+02    0.24198E-04   -0.35323E-03  1184   0.193E+00    0.587E-02
DAV:   7    -0.371454110199E+02    0.14358E-03   -0.12629E-03   752   0.113E+00
  16 F= -.40861541E+02 E0= -.40852987E+02  d E =-.123047E-01  mag=     0.0000
       N       E                     dE             d eps       ncg     rms          rms(c)
DAV:   1    -0.371460090939E+02   -0.45449E-03   -0.88490E-01   984   0.397E+00    0.132E-01
DAV:   2    -0.371479002456E+02   -0.18912E-02   -0.22528E-02  1424   0.171E+00    0.128E-01
DAV:   3    -0.371478480748E+02    0.52171E-04   -0.89734E-03  1184   0.242E+00    0.110E-01
DAV:   4    -0.371475991224E+02    0.24895E-03   -0.32151E-03   768   0.144E+00    0.646E-02
DAV:   5    -0.371477019503E+02   -0.10283E-03   -0.20910E-03   728   0.143E+00    0.626E-02
DAV:   6    -0.371475351799E+02    0.16677E-03   -0.12735E-03   736   0.114E+00
  17 F= -.40862742E+02 E0= -.40854248E+02  d E =-.120138E-02  mag=     0.0000
       N       E                     dE             d eps       ncg     rms          rms(c)
DAV:   1    -0.371474012416E+02    0.30071E-03   -0.81666E-02   992   0.122E+00    0.425E-02
DAV:   2    -0.371475524255E+02   -0.15118E-03   -0.19325E-03  1308   0.380E-01
  18 F= -.40862990E+02 E0= -.40854516E+02  d E =-.144914E-02  mag=     0.0000
       N       E                     dE             d eps       ncg     rms          rms(c)
DAV:   1    -0.371483736965E+02   -0.97245E-03   -0.92433E-01  1032   0.405E+00    0.841E-02
DAV:   2    -0.371502474030E+02   -0.18737E-02   -0.20317E-02  1376   0.154E+00    0.866E-02
DAV:   3    -0.371502143399E+02    0.33063E-04   -0.52003E-03  1104   0.176E+00    0.805E-02
DAV:   4    -0.371500980550E+02    0.11628E-03   -0.13173E-03   640   0.993E-01
  19 F= -.40864895E+02 E0= -.40856405E+02  d E =-.190434E-02  mag=     0.0000
       N       E                     dE             d eps       ncg     rms          rms(c)
DAV:   1    -0.371505132192E+02   -0.29888E-03   -0.21672E-01  1032   0.196E+00    0.606E-02
DAV:   2    -0.371510250574E+02   -0.51184E-03   -0.59146E-03  1616   0.133E+00    0.741E-02
DAV:   3    -0.371508517499E+02    0.17331E-03   -0.28628E-03   752   0.144E+00    0.526E-02
DAV:   4    -0.371508217911E+02    0.29959E-04   -0.83676E-04   640   0.744E-01
  20 F= -.40865324E+02 E0= -.40856887E+02  d E =-.233408E-02  mag=     0.0000
       N       E                     dE             d eps       ncg     rms          rms(c)
DAV:   1    -0.371499691476E+02    0.88260E-03   -0.85416E-01  1016   0.389E+00    0.900E-02
DAV:   2    -0.371516087641E+02   -0.16396E-02   -0.19126E-02  1472   0.172E+00    0.977E-02
DAV:   3    -0.371514974416E+02    0.11132E-03   -0.52332E-03  1072   0.183E+00    0.858E-02
DAV:   4    -0.371514137531E+02    0.83689E-04   -0.91603E-04   664   0.762E-01
  21 F= -.40865357E+02 E0= -.40856865E+02  d E =-.236690E-02  mag=     0.0000
       N       E                     dE             d eps       ncg     rms          rms(c)
DAV:   1    -0.371510785392E+02    0.41890E-03   -0.16566E-01  1192   0.196E+00    0.444E-02
DAV:   2    -0.371517057377E+02   -0.62720E-03   -0.69665E-03  1304   0.216E+00    0.838E-02
DAV:   3    -0.371512540134E+02    0.45172E-03   -0.23131E-03   744   0.156E+00    0.220E-02
DAV:   4    -0.371512763076E+02   -0.22294E-04   -0.33271E-04   680   0.277E-01
  22 F= -.40865461E+02 E0= -.40856999E+02  d E =-.247039E-02  mag=     0.0000
       N       E                     dE             d eps       ncg     rms          rms(c)
DAV:   1    -0.371532722557E+02   -0.20182E-02   -0.11580E+00  1000   0.442E+00    0.935E-02
DAV:   2    -0.371554510657E+02   -0.21788E-02   -0.23772E-02  1360   0.153E+00    0.980E-02
DAV:   3    -0.371554367732E+02    0.14292E-04   -0.43589E-03  1040   0.170E+00    0.889E-02
DAV:   4    -0.371553231255E+02    0.11365E-03   -0.11512E-03   656   0.860E-01
  23 F= -.40867066E+02 E0= -.40858598E+02  d E =-.160584E-02  mag=     0.0000
       N       E                     dE             d eps       ncg     rms          rms(c)
DAV:   1    -0.371560578476E+02   -0.62107E-03   -0.64517E-02  1288   0.130E+00    0.598E-02
DAV:   2    -0.371565468093E+02   -0.48896E-03   -0.56442E-03  1056   0.235E+00    0.103E-01
DAV:   3    -0.371559919530E+02    0.55486E-03   -0.29618E-03   744   0.174E+00    0.285E-02
DAV:   4    -0.371560175328E+02   -0.25580E-04   -0.83043E-04   624   0.750E-01
  24 F= -.40867204E+02 E0= -.40858737E+02  d E =-.174374E-02  mag=     0.0000
       N       E                     dE             d eps       ncg     rms          rms(c)
DAV:   1    -0.371585182321E+02   -0.25263E-02   -0.84108E-01  1008   0.373E+00    0.923E-02
DAV:   2    -0.371600998155E+02   -0.15816E-02   -0.17206E-02  1400   0.146E+00    0.982E-02
DAV:   3    -0.371599633966E+02    0.13642E-03   -0.28689E-03  1120   0.142E+00    0.752E-02
DAV:   4    -0.371599478700E+02    0.15527E-04   -0.15162E-03   672   0.102E+00
  25 F= -.40868820E+02 E0= -.40860324E+02  d E =-.161616E-02  mag=     0.0000
       N       E                     dE             d eps       ncg     rms          rms(c)
DAV:   1    -0.371607298598E+02   -0.76646E-03   -0.87790E-02  1344   0.176E+00    0.649E-02
DAV:   2    -0.371617995090E+02   -0.10696E-02   -0.15609E-02  1056   0.320E+00    0.125E-01
DAV:   3    -0.371606934941E+02    0.11060E-02   -0.11381E-02   688   0.258E+00    0.392E-02
DAV:   4    -0.371607426972E+02   -0.49203E-04   -0.68658E-04   680   0.752E-01
  26 F= -.40868905E+02 E0= -.40860509E+02  d E =-.170072E-02  mag=     0.0000
       N       E                     dE             d eps       ncg     rms          rms(c)
DAV:   1    -0.371626691387E+02   -0.19756E-02   -0.19002E-01  1024   0.185E+00    0.368E-02
DAV:   2    -0.371631430247E+02   -0.47389E-03   -0.49494E-03  1456   0.947E-01    0.494E-02
DAV:   3    -0.371630580416E+02    0.84983E-04   -0.12494E-03   696   0.924E-01
  27 F= -.40869682E+02 E0= -.40861072E+02  d E =-.777432E-03  mag=     0.0000
       N       E                     dE             d eps       ncg     rms          rms(c)
DAV:   1    -0.371663055519E+02   -0.31625E-02   -0.10623E+00   992   0.404E+00    0.103E-01
DAV:   2    -0.371682152359E+02   -0.19097E-02   -0.21024E-02  1376   0.143E+00    0.111E-01
DAV:   3    -0.371680637504E+02    0.15149E-03   -0.28820E-03  1104   0.137E+00    0.906E-02
DAV:   4    -0.371680397556E+02    0.23995E-04   -0.16202E-03   720   0.107E+00
  28 F= -.40871053E+02 E0= -.40862475E+02  d E =-.214836E-02  mag=     0.0000
       N       E                     dE             d eps       ncg     rms          rms(c)
DAV:   1    -0.371683854246E+02   -0.32167E-03   -0.42479E+00   992   0.821E+00    0.202E-01
DAV:   2    -0.371786472278E+02   -0.10262E-01   -0.12188E-01  1600   0.516E+00    0.260E-01
DAV:   3    -0.371759377844E+02    0.27094E-02   -0.48401E-02  1792   0.500E+00    0.196E-01
DAV:   4    -0.371756124945E+02    0.32529E-03   -0.38100E-03  1144   0.143E+00    0.143E-01
DAV:   5    -0.371755010028E+02    0.11149E-03   -0.17610E-03  1088   0.106E+00
  29 F= -.40871397E+02 E0= -.40862970E+02  d E =-.249153E-02  mag=     0.0000
       N       E                     dE             d eps       ncg     rms          rms(c)
DAV:   1    -0.371778103457E+02   -0.21979E-02   -0.32977E-01  1288   0.300E+00    0.810E-02
DAV:   2    -0.371792623536E+02   -0.14520E-02   -0.17599E-02  1536   0.380E+00    0.146E-01
DAV:   3    -0.371779744580E+02    0.12879E-02   -0.75109E-03   968   0.263E+00    0.429E-02
DAV:   4    -0.371780312942E+02   -0.56836E-04   -0.10501E-03   776   0.743E-01
  30 F= -.40871875E+02 E0= -.40862980E+02  d E =-.478503E-03  mag=     0.0000
       N       E                     dE             d eps       ncg     rms          rms(c)
DAV:   1    -0.371795012063E+02   -0.15267E-02   -0.14717E-01  1080   0.175E+00    0.452E-02
DAV:   2    -0.371799366298E+02   -0.43542E-03   -0.55319E-03  1424   0.149E+00    0.609E-02
DAV:   3    -0.371797519221E+02    0.18471E-03   -0.27288E-03   752   0.132E+00    0.409E-02
DAV:   4    -0.371797460870E+02    0.58351E-05   -0.32780E-04   608   0.396E-01
  31 F= -.40872220E+02 E0= -.40863374E+02  d E =-.823325E-03  mag=     0.0000
       N       E                     dE             d eps       ncg     rms          rms(c)
DAV:   1    -0.371822293348E+02   -0.24774E-02   -0.58359E-01   992   0.306E+00    0.712E-02
DAV:   2    -0.371831959097E+02   -0.96657E-03   -0.10675E-02  1264   0.797E-01    0.727E-02
DAV:   3    -0.371831763997E+02    0.19510E-04   -0.80367E-04   768   0.679E-01
  32 F= -.40872916E+02 E0= -.40864012E+02  d E =-.151912E-02  mag=     0.0000
       N       E                     dE             d eps       ncg     rms          rms(c)
DAV:   1    -0.371859869881E+02   -0.27911E-02   -0.23369E+00   992   0.611E+00    0.161E-01
DAV:   2    -0.371901533199E+02   -0.41663E-02   -0.49025E-02  1488   0.287E+00    0.176E-01
DAV:   3    -0.371897775018E+02    0.37582E-03   -0.13541E-02  1536   0.288E+00    0.144E-01
DAV:   4    -0.371895273782E+02    0.25012E-03   -0.38480E-03   856   0.143E+00    0.112E-01
DAV:   5    -0.371895996383E+02   -0.72260E-04   -0.30629E-03   896   0.163E+00    0.896E-02
DAV:   6    -0.371892963225E+02    0.30332E-03   -0.18579E-03   968   0.132E+00    0.280E-02
DAV:   7    -0.371893275848E+02   -0.31262E-04   -0.45393E-04   768   0.312E-01
  33 F= -.40873620E+02 E0= -.40864704E+02  d E =-.222305E-02  mag=     0.0000
       N       E                     dE             d eps       ncg     rms          rms(c)
DAV:   1    -0.371841780593E+02    0.51183E-02   -0.93361E+00   992   0.122E+01    0.272E-01
DAV:   2    -0.372022438033E+02   -0.18066E-01   -0.19142E-01  1264   0.316E+00    0.291E-01
DAV:   3    -0.372013703546E+02    0.87345E-03   -0.22185E-02  1376   0.352E+00    0.251E-01
DAV:   4    -0.372009704487E+02    0.39991E-03   -0.12037E-02  1152   0.285E+00    0.196E-01
DAV:   5    -0.372011000969E+02   -0.12965E-03   -0.14754E-02  1072   0.300E+00    0.171E-01
DAV:   6    -0.372001106466E+02    0.98945E-03   -0.97045E-03  1248   0.252E+00    0.523E-02
DAV:   7    -0.372001158663E+02   -0.52197E-05   -0.14303E-03  1024   0.793E-01
  34 F= -.40873600E+02 E0= -.40864580E+02  d E =-.220356E-02  mag=     0.0000
       N       E                     dE             d eps       ncg     rms          rms(c)
DAV:   1    -0.371913267656E+02    0.87839E-02   -0.23726E+00   992   0.610E+00    0.138E-01
DAV:   2    -0.371956294001E+02   -0.43026E-02   -0.46729E-02  1360   0.245E+00    0.167E-01
DAV:   3    -0.371953288258E+02    0.30057E-03   -0.72716E-03  1376   0.216E+00    0.122E-01
DAV:   4    -0.371952096326E+02    0.11919E-03   -0.34317E-03   832   0.140E+00    0.106E-01
DAV:   5    -0.371951946223E+02    0.15010E-04   -0.31531E-03   896   0.145E+00    0.863E-02
DAV:   6    -0.371949672458E+02    0.22738E-03   -0.15115E-03   824   0.100E+00    0.223E-02
DAV:   7    -0.371949765669E+02   -0.93212E-05   -0.25474E-04   600   0.351E-01
  35 F= -.40873901E+02 E0= -.40864925E+02  d E =-.250448E-02  mag=     0.0000
       N       E                     dE             d eps       ncg     rms          rms(c)
DAV:   1    -0.371967583594E+02   -0.17911E-02   -0.59097E-01   992   0.304E+00    0.662E-02
DAV:   2    -0.371977879258E+02   -0.10296E-02   -0.11130E-02  1264   0.954E-01    0.751E-02
DAV:   3    -0.371977208267E+02    0.67099E-04   -0.10358E-03   912   0.802E-01
  36 F= -.40873922E+02 E0= -.40864854E+02  d E =-.252506E-02  mag=     0.0000
       N       E                     dE             d eps       ncg     rms          rms(c)
DAV:   1    -0.371955455624E+02    0.22424E-02   -0.23444E-01  1024   0.200E+00    0.474E-02
DAV:   2    -0.371963656696E+02   -0.82011E-03   -0.90109E-03  1192   0.187E+00    0.835E-02
DAV:   3    -0.371959414896E+02    0.42418E-03   -0.75694E-03  1160   0.197E+00    0.301E-02
DAV:   4    -0.371959821239E+02   -0.40634E-04   -0.96309E-04   856   0.637E-01
  37 F= -.40873904E+02 E0= -.40864958E+02  d E =-.250757E-02  mag=     0.0000
       N       E                     dE             d eps       ncg     rms          rms(c)
DAV:   1    -0.371982242416E+02   -0.22828E-02   -0.33155E-01  1040   0.238E+00    0.401E-02
DAV:   2    -0.371988530685E+02   -0.62883E-03   -0.65783E-03  1416   0.766E-01    0.446E-02
DAV:   3    -0.371988481502E+02    0.49183E-05   -0.13532E-03   680   0.909E-01
  38 F= -.40875921E+02 E0= -.40866997E+02  d E =-.201703E-02  mag=     0.0000
       N       E                     dE             d eps       ncg     rms          rms(c)
DAV:   1    -0.372005333713E+02   -0.16803E-02   -0.11449E+00  1040   0.439E+00    0.920E-02
DAV:   2    -0.372026423359E+02   -0.21090E-02   -0.22841E-02  1424   0.137E+00    0.105E-01
DAV:   3    -0.372026188439E+02    0.23492E-04   -0.31093E-03  1032   0.143E+00    0.848E-02
DAV:   4    -0.372025323056E+02    0.86538E-04   -0.13518E-03   656   0.881E-01
  39 F= -.40878051E+02 E0= -.40869066E+02  d E =-.414696E-02  mag=     0.0000
       N       E                     dE             d eps       ncg     rms          rms(c)
DAV:   1    -0.372030974293E+02   -0.47859E-03   -0.78903E-02  1344   0.161E+00    0.661E-02
DAV:   2    -0.372041955444E+02   -0.10981E-02   -0.16428E-02   992   0.340E+00    0.129E-01
DAV:   3    -0.372031006123E+02    0.10949E-02   -0.13239E-02   688   0.295E+00    0.536E-02
DAV:   4    -0.372030212175E+02    0.79395E-04   -0.13906E-03   712   0.942E-01
  40 F= -.40878145E+02 E0= -.40869116E+02  d E =-.424115E-02  mag=     0.0000
       N       E                     dE             d eps       ncg     rms          rms(c)
DAV:   1    -0.372036725060E+02   -0.57189E-03   -0.15131E-01  1048   0.167E+00    0.482E-02
DAV:   2    -0.372041414093E+02   -0.46890E-03   -0.56699E-03  1512   0.142E+00    0.627E-02
DAV:   3    -0.372038980477E+02    0.24336E-03   -0.37777E-03   792   0.150E+00    0.404E-02
DAV:   4    -0.372038966908E+02    0.13569E-05   -0.37425E-04   632   0.443E-01
  41 F= -.40878678E+02 E0= -.40869822E+02  d E =-.532261E-03  mag=     0.0000
       N       E                     dE             d eps       ncg     rms          rms(c)
DAV:   1    -0.372039864142E+02   -0.88366E-04   -0.77541E-03  1376   0.525E-01    0.235E-02
DAV:   2    -0.372040100517E+02   -0.23638E-04   -0.34232E-04   704   0.577E-01
  42 F= -.40878724E+02 E0= -.40869927E+02  d E =-.578353E-03  mag=     0.0000
       N       E                     dE             d eps       ncg     rms          rms(c)
DAV:   1    -0.372040778490E+02   -0.91435E-04   -0.16676E-01  1072   0.178E+00    0.336E-02
DAV:   2    -0.372044233193E+02   -0.34547E-03   -0.38351E-03  1408   0.769E-01    0.409E-02
DAV:   3    -0.372043810867E+02    0.42233E-04   -0.12304E-03   656   0.869E-01
  43 F= -.40879052E+02 E0= -.40870199E+02  d E =-.328424E-03  mag=     0.0000
       N       E                     dE             d eps       ncg     rms          rms(c)
DAV:   1    -0.372044239090E+02   -0.58967E-06   -0.31520E-02  1080   0.789E-01    0.309E-02
DAV:   2    -0.372044460608E+02   -0.22152E-04   -0.48806E-04   640   0.417E-01
  44 F= -.40879101E+02 E0= -.40870129E+02  d E =-.377433E-03  mag=     0.0000
       N       E                     dE             d eps       ncg     rms          rms(c)
DAV:   1    -0.372044244437E+02   -0.53472E-06   -0.59582E-03  1440   0.814E-01    0.244E-02
DAV:   2    -0.372046757964E+02   -0.25135E-03   -0.33485E-03   664   0.144E+00    0.590E-02
DAV:   3    -0.372044072580E+02    0.26854E-03   -0.25363E-03   664   0.123E+00    0.122E-02
DAV:   4    -0.372044192529E+02   -0.11995E-04   -0.11201E-04   568   0.148E-01
  45 F= -.40879081E+02 E0= -.40870150E+02  d E =-.357046E-03  mag=     0.0000
       N       E                     dE             d eps       ncg     rms          rms(c)
DAV:   1    -0.372044475545E+02   -0.40296E-04   -0.30066E-03  1152   0.271E-01    0.873E-03
DAV:   2    -0.372044497291E+02   -0.21746E-05   -0.34067E-05   480   0.171E-01
  46 F= -.40879106E+02 E0= -.40870191E+02  d E =-.382551E-03  mag=     0.0000
       N       E                     dE             d eps       ncg     rms          rms(c)
DAV:   1    -0.372044486891E+02   -0.11347E-05   -0.80924E-05   496   0.230E-01    0.784E-03
DAV:   2    -0.372045078422E+02   -0.59153E-04   -0.75009E-04   616   0.679E-01
  47 F= -.40879164E+02 E0= -.40870168E+02  d E =-.440089E-03  mag=     0.0000
       N       E                     dE             d eps       ncg     rms          rms(c)
DAV:   1    -0.372044478451E+02    0.84404E-06   -0.53810E-04   592   0.572E-01    0.186E-03
DAV:   2    -0.372044497307E+02   -0.18856E-05   -0.12237E-05   568   0.826E-02
  48 F= -.40879106E+02 E0= -.40870219E+02  d E =-.382479E-03  mag=     0.0000
       N       E                     dE             d eps       ncg     rms          rms(c)
DAV:   1    -0.372044494478E+02   -0.16027E-05   -0.12484E-05   480   0.824E-02    0.189E-03
DAV:   2    -0.372044509888E+02   -0.15411E-05   -0.16706E-05   480   0.109E-01
  49 F= -.40879107E+02 E0= -.40870197E+02  d E =-.383486E-03  mag=     0.0000
       N       E                     dE             d eps       ncg     rms          rms(c)
DAV:   1    -0.372044499466E+02   -0.49882E-06   -0.13753E-05   480   0.967E-02    0.917E-04
DAV:   2    -0.372044506945E+02   -0.74791E-06   -0.99121E-06   480   0.754E-02
  50 F= -.40879107E+02 E0= -.40870211E+02  d E =-.383349E-03  mag=     0.0000
       N       E                     dE             d eps       ncg     rms          rms(c)
DAV:   1    -0.372044501787E+02   -0.23209E-06   -0.65351E-06   480   0.636E-02    0.761E-04
DAV:   2    -0.372044504328E+02   -0.25409E-06   -0.20022E-06   480   0.329E-02
  51 F= -.40879107E+02 E0= -.40870207E+02  d E =-.383014E-03  mag=     0.0000
       N       E                     dE             d eps       ncg     rms          rms(c)
DAV:   1    -0.372043717358E+02    0.78443E-04   -0.15237E-02  1080   0.514E-01    0.216E-02
DAV:   2    -0.372043855608E+02   -0.13825E-04   -0.19758E-04   632   0.231E-01
  52 F= -.40879168E+02 E0= -.40870305E+02  d E =-.617366E-04  mag=     0.0000
       N       E                     dE             d eps       ncg     rms          rms(c)
DAV:   1    -0.372043803364E+02   -0.86005E-05   -0.85144E-04   864   0.460E-01    0.209E-02
DAV:   2    -0.372046091525E+02   -0.22882E-03   -0.29204E-03   672   0.141E+00    0.601E-02
DAV:   3    -0.372043847459E+02    0.22441E-03   -0.22661E-03   664   0.116E+00    0.795E-03
DAV:   4    -0.372044076272E+02   -0.22881E-04   -0.25844E-04   576   0.180E-01
  53 F= -.40879154E+02 E0= -.40870233E+02  d E =-.471861E-04  mag=     0.0000
       N       E                     dE             d eps       ncg     rms          rms(c)
DAV:   1    -0.372043953671E+02   -0.10621E-04   -0.40091E-04   640   0.179E-01    0.971E-03
DAV:   2    -0.372044016198E+02   -0.62527E-05   -0.10651E-04   544   0.215E-01
  54 F= -.40879176E+02 E0= -.40870239E+02  d E =-.696343E-04  mag=     0.0000
       N       E                     dE             d eps       ncg     rms          rms(c)
DAV:   1    -0.372044132186E+02   -0.17852E-04   -0.16311E-04   568   0.292E-01    0.709E-03
DAV:   2    -0.372044476822E+02   -0.34464E-04   -0.44543E-04   592   0.541E-01
  55 F= -.40879208E+02 E0= -.40870234E+02  d E =-.101351E-03  mag=     0.0000
       N       E                     dE             d eps       ncg     rms          rms(c)
DAV:   1    -0.372044083045E+02    0.49141E-05   -0.33930E-04   592   0.455E-01    0.202E-03
DAV:   2    -0.372044112089E+02   -0.29045E-05   -0.34397E-05   568   0.129E-01
  56 F= -.40879178E+02 E0= -.40870257E+02  d E =-.716214E-04  mag=     0.0000
       N       E                     dE             d eps       ncg     rms          rms(c)
DAV:   1    -0.372044101409E+02   -0.18365E-05   -0.23342E-05   480   0.119E-01    0.144E-03
DAV:   2    -0.372044108690E+02   -0.72801E-06   -0.81525E-06   480   0.290E-02
  57 F= -.40879177E+02 E0= -.40870267E+02  d E =-.702876E-04  mag=     0.0000
       N       E                     dE             d eps       ncg     rms          rms(c)
DAV:   1    -0.372044964561E+02   -0.86315E-04   -0.10726E-02  1056   0.433E-01    0.816E-03
DAV:   2    -0.372045076807E+02   -0.11225E-04   -0.13359E-04   568   0.172E-01
  58 F= -.40879225E+02 E0= -.40870333E+02  d E =-.475634E-04  mag=     0.0000
       N       E                     dE             d eps       ncg     rms          rms(c)
DAV:   1    -0.372045300139E+02   -0.33558E-04   -0.12562E-03  1072   0.273E-01    0.106E-02
DAV:   2    -0.372045497876E+02   -0.19774E-04   -0.25565E-04   552   0.401E-01
  59 F= -.40879251E+02 E0= -.40870380E+02  d E =-.737269E-04  mag=     0.0000
       N       E                     dE             d eps       ncg     rms          rms(c)
DAV:   1    -0.372044892691E+02    0.40745E-04   -0.32574E-04   632   0.374E-01    0.112E-02
DAV:   2    -0.372045192000E+02   -0.29931E-04   -0.35990E-04   592   0.457E-01
  60 F= -.40879231E+02 E0= -.40870369E+02  d E =-.543352E-04  mag=     0.0000
       N       E                     dE             d eps       ncg     rms          rms(c)
DAV:   1    -0.372045313580E+02   -0.42089E-04   -0.26958E-04   576   0.405E-01    0.499E-03
DAV:   2    -0.372045391648E+02   -0.78068E-05   -0.93115E-05   512   0.206E-01
  61 F= -.40879241E+02 E0= -.40870357E+02  d E =-.643330E-04  mag=     0.0000
       N       E                     dE             d eps       ncg     rms          rms(c)
DAV:   1    -0.372045270580E+02    0.43000E-05   -0.63414E-05   480   0.191E-01    0.364E-03
DAV:   2    -0.372045295715E+02   -0.25134E-05   -0.24933E-05   512   0.118E-01
  62 F= -.40879237E+02 E0= -.40870337E+02  d E =-.597216E-04  mag=     0.0000
       N       E                     dE             d eps       ncg     rms          rms(c)
DAV:   1    -0.372045364298E+02   -0.93718E-05   -0.26198E-05   480   0.117E-01    0.280E-03
DAV:   2    -0.372045409804E+02   -0.45505E-05   -0.57706E-05   480   0.193E-01
  63 F= -.40879245E+02 E0= -.40870358E+02  d E =-.680726E-04  mag=     0.0000
