 vasp.6.3.2 27Jun22 (build Aug 17 2022 15:43:34) complex                        
  
 executed on           tv2STDVTST date 2025.02.04  14:05:28
 running   20 mpi-ranks, with    1 threads/rank
 distrk:  each k-point on   20 cores,    1 groups
 distr:  one band on NCORE=   5 cores,    4 groups


--------------------------------------------------------------------------------------------------------


 -----------------------------------------------------------------------------
|                                                                             |
|           W    W    AA    RRRRR   N    N  II  N    N   GGGG   !!!           |
|           W    W   A  A   R    R  NN   N  II  NN   N  G    G  !!!           |
|           W    W  A    A  R    R  N N  N  II  N N  N  G       !!!           |
|           W WW W  AAAAAA  RRRRR   N  N N  II  N  N N  G  GGG   !            |
|           WW  WW  A    A  R   R   N   NN  II  N   NN  G    G                |
|           W    W  A    A  R    R  N    N  II  N    N   GGGG   !!!           |
|                                                                             |
|     Found issues when parsing the INCAR file                                |
|     In line 61: Tagname --- R W I G S contains invalid characters.          |
|     Please check if the interpretation in the OUTCAR file is correct.       |
|                                                                             |
 -----------------------------------------------------------------------------

 INCAR:
    = \=\=\=\=\=\=\=\=\=\=\=\=\=\=\=\=\=\=\=\=\=\=\=\=\=\=\=\=\=\=\=\=\=\=\=\=\=\=\=\=\=\=\=\=\=\=\=\=\=\=\=\=\=\=\=\=\=\=\=\=\=\=\=\=\=\=\=\=\=\=\=\=
    = \=\=\=\=\=\=\=\=\=\=\=\=\=\=\=\=\=\=\=\=\=\=\=\=\=\=\=\=\=\=\=\=\=\=\=\=\=\=\=\=\=\=\=\=\=\=\=\=\=\=\=\=\=\=\=\=\=\=\=\=\=\=\=\=\=\=\=\=\=\=\=\=
   ISTART = 0
   ICHARG = 2
   IPIPOL = 3
   IVDW = 11
    = \=\=\=\=\=\=\=\=\=\=\=\=\=\=\=\=\=\=\=\=\=\=\=\=\=\=\=\=\=\=\=\=\=\=\=\=\=\=\=\=\=\=\=\=\=\=\=\=\=\=\=\=\=\=\=\=\=\=\=\=\=\=\=\=\=\=\=\=\=\=\=\=
    = \=\=\=\=\=\=\=\=\=\=\=\=\=\=\=\=\=\=\=\=\=\=\=\=\=\=\=\=\=\=\=\=\=\=\=\=\=\=\=\=\=\=\=\=\=\=\=\=\=\=\=\=\=\=\=\=\=\=\=\=\=\=\=\=\=\=\=\=\=\=\=\=
   ISPIN = 2
    = \=\=\=\=\=\=\=\=\=\=\=\=\=\=\=\=\=\=\=\=\=\=\=\=\=\=\=\=\=\=\=\=\=\=\=\=\=\=\=\=\=\=\=\=\=\=\=\=\=\=\=\=\=\=\=\=\=\=\=\=\=\=\=\=\=\=\=\=\=\=\=\=
    = \=\=\=\=\=\=\=\=\=\=\=\=\=\=\=\=\=\=\=\=\=\=\=\=\=\=\=\=\=\=\=\=\=\=\=\=\=\=\=\=\=\=\=\=\=\=\=\=\=\=\=\=\=\=\=\=\=\=\=\=\=\=\=\=\=\=\=\=\=\=\=\=
   ENCUT = 400
   PREC = Normal
   EDIFF = 2E-04
   GGA = PE
   ISMEAR = 1
   SIGMA = 0.2
   LREAL = .FALSE.
    = \=\=\=\=\=\=\=\=\=\=\=\=\=\=\=\=\=\=\=\=\=\=\=\=\=\=\=\=\=\=\=\=\=\=\=\=\=\=\=\=\=\=\=\=\=\=\=\=\=\=\=\=\=\=\=\=\=\=\=\=\=\=\=\=\=\=\=\=\=\=\=\=
    = \=\=\=\=\=\=\=\=\=\=\=\=\=\=\=\=\=\=\=\=\=\=\=\=\=\=\=\=\=\=\=\=\=\=\=\=\=\=\=\=\=\=\=\=\=\=\=\=\=\=\=\=\=\=\=\=\=\=\=\=\=\=\=\=\=\=\=\=\=\=\=\=
   ISYM = 1
   NSW = 800
   IBRION = 2
   POTIM = 0.5
   ISIF = 2
   EDIFFG = -.03
    = \=\=\=\=\=\=\=\=\=\=\=\=\=\=\=\=\=\=\=\=\=\=\=\=\=\=\=\=\=\=\=\=\=\=\=\=\=\=\=\=\=\=\=\=\=\=\=\=\=\=\=\=\=\=\=\=\=\=\=\=\=\=\=\=\=\=\=\=\=\=\=\=
    = \=\=\=\=\=\=\=\=\=\=\=\=\=\=\=\=\=\=\=\=\=\=\=\=\=\=\=\=\=\=\=\=\=\=\=\=\=\=\=\=\=\=\=\=\=\=\=\=\=\=\=\=\=\=\=\=\=\=\=\=\=\=\=\=\=\=\=\=\=\=\=\=
   NPAR = 4
   LWAVE = .FALSE.
   LCHARG = .FALSE.

 POTCAR:    PAW_PBE Cu 22Jun2005                  
 POTCAR:    PAW_PBE H 15Jun2001                   
 -----------------------------------------------------------------------------
|                                                                             |
|           W    W    AA    RRRRR   N    N  II  N    N   GGGG   !!!           |
|           W    W   A  A   R    R  NN   N  II  NN   N  G    G  !!!           |
|           W    W  A    A  R    R  N N  N  II  N N  N  G       !!!           |
|           W WW W  AAAAAA  RRRRR   N  N N  II  N  N N  G  GGG   !            |
|           WW  WW  A    A  R   R   N   NN  II  N   NN  G    G                |
|           W    W  A    A  R    R  N    N  II  N    N   GGGG   !!!           |
|                                                                             |
|     You use a magnetic or noncollinear calculation, but did not specify     |
|     the initial magnetic moment with the MAGMOM tag. Note that a            |
|     default of 1 will be used for all atoms. This ferromagnetic setup       |
|     may break the symmetry of the crystal, in particular it may rule        |
|     out finding an antiferromagnetic solution. Thence, we recommend         |
|     setting the initial magnetic moment manually or verifying carefully     |
|     that this magnetic setup is desired.                                    |
|                                                                             |
 -----------------------------------------------------------------------------

 POTCAR:    PAW_PBE Cu 22Jun2005                  
   SHA256 =  0e71e558f37a4e8407882b4609ceaae59938afaad9ced71dfe8490308a0ab630 Cu/POTCAR             
   COPYR  = (c) Copyright 22Jun2005 Georg Kresse                                                    
   COPYR  = This file is part of the software VASP. Any use, copying, and all other rights are regul
   COPYR  = If you do not have a valid VASP license, you may not use, copy or distribute this file. 
   VRHFIN =Cu: d10 p1                                                                               
   LEXCH  = PE                                                                                      
   EATOM  =  1390.9808 eV,  102.2342 Ry                                                             
                                                                                                    
   TITEL  = PAW_PBE Cu 22Jun2005                                                                    
   LULTRA =        F    use ultrasoft PP ?                                                          
   IUNSCR =        1    unscreen: 0-lin 1-nonlin 2-no                                               
   RPACOR =    2.000    partial core radius                                                         
   POMASS =   63.546; ZVAL   =   11.000    mass and valenz                                          
   RCORE  =    2.300    outmost cutoff radius                                                       
   RWIGS  =    2.200; RWIGS  =    1.164    wigner-seitz radius (au A)                               
   ENMAX  =  295.446; ENMIN  =  221.585 eV                                                          
   ICORE  =        3    local potential                                                             
   LCOR   =        T    correct aug charges                                                         
   LPAW   =        T    paw PP                                                                      
   EAUG   =  586.980                                                                                
   DEXC   =    0.000                                                                                
   RMAX   =    2.344    core radius for proj-oper                                                   
   RAUG   =    1.300    factor for augmentation sphere                                              
   RDEP   =    2.302    radius for radial grids                                                     
   RDEPT  =    1.771    core radius for aug-charge                                                  
                                                                                                    
   Atomic configuration                                                                             
    9 entries                                                                                       
     n  l   j            E        occ.                                                              
     1  0  0.50     -8850.2468   2.0000                                                             
     2  0  0.50     -1062.3498   2.0000                                                             
     2  1  1.50      -916.8226   6.0000                                                             
     3  0  0.50      -114.6929   2.0000                                                             
     3  1  1.50       -72.1325   6.0000                                                             
     3  2  2.50        -5.0394  10.0000                                                             
     4  0  0.50        -4.6097   1.0000                                                             
     4  1  0.50        -4.0817   0.0000                                                             
     4  3  2.50        -1.3606   0.0000                                                             
   Description                                                                                      
     l       E           TYP  RCUT    TYP  RCUT                                                     
     2     -5.0393973     23  2.200                                                                 
     2     10.8846608     23  2.200                                                                 
     0     -4.6097109     23  2.200                                                                 
     0      8.2520465     23  2.200                                                                 
     1     -2.7211652     23  2.200                                                                 
     1     21.7055443     23  2.200                                                                 
     3      2.7211652     23  2.300                                                                 
  local pseudopotential read in
  partial core-charges read in
  partial kinetic energy density read in
  atomic valenz-charges read in
  non local Contribution for L=           2  read in
    real space projection operators read in
  non local Contribution for L=           2  read in
    real space projection operators read in
  non local Contribution for L=           0  read in
    real space projection operators read in
  non local Contribution for L=           0  read in
    real space projection operators read in
  non local Contribution for L=           1  read in
    real space projection operators read in
  non local Contribution for L=           1  read in
    real space projection operators read in
    PAW grid and wavefunctions read in
 
   number of l-projection  operators is LMAX  =           6
   number of lm-projection operators is LMMAX =          18
 
 POTCAR:    PAW_PBE H 15Jun2001                   
   SHA256 =  030f79b5d3ab3cf0e668861823c8fb652ff669f3e15e46930bd03bfd63a607b6 H/POTCAR              
   COPYR  = (c) Copyright 15Jun2001 Georg Kresse                                                    
   COPYR  = This file is part of the software VASP. Any use, copying, and all other rights are regul
   COPYR  = If you do not have a valid VASP license, you may not use, copy or distribute this file. 
   VRHFIN =H: ultrasoft test                                                                        
   LEXCH  = PE                                                                                      
   EATOM  =    12.4884 eV,    0.9179 Ry                                                             
                                                                                                    
   TITEL  = PAW_PBE H 15Jun2001                                                                     
   LULTRA =        F    use ultrasoft PP ?                                                          
   IUNSCR =        0    unscreen: 0-lin 1-nonlin 2-no                                               
   RPACOR =    0.000    partial core radius                                                         
   POMASS =    1.000; ZVAL   =    1.000    mass and valenz                                          
   RCORE  =    1.100    outmost cutoff radius                                                       
   RWIGS  =    0.700; RWIGS  =    0.370    wigner-seitz radius (au A)                               
   ENMAX  =  250.000; ENMIN  =  200.000 eV                                                          
   RCLOC  =    0.701    cutoff for local pot                                                        
   LCOR   =        T    correct aug charges                                                         
   LPAW   =        T    paw PP                                                                      
   EAUG   =  400.000                                                                                
   RMAX   =    1.123    core radius for proj-oper                                                   
   RAUG   =    1.200    factor for augmentation sphere                                              
   RDEP   =    1.112    radius for radial grids                                                     
   RDEPT  =    0.926    core radius for aug-charge                                                  
                                                                                                    
   Atomic configuration                                                                             
    2 entries                                                                                       
     n  l   j            E        occ.                                                              
     1  0  0.50        -6.4927   1.0000                                                             
     2  1  0.50        -3.4015   0.0000                                                             
   Description                                                                                      
     l       E           TYP  RCUT    TYP  RCUT                                                     
     0     -6.4927494     23  1.100                                                                 
     0      6.8029130     23  1.100                                                                 
     1     -4.0817478     23  1.100                                                                 
  local pseudopotential read in
  atomic valenz-charges read in
  non local Contribution for L=           0  read in
    real space projection operators read in
  non local Contribution for L=           0  read in
    real space projection operators read in
  non local Contribution for L=           1  read in
    real space projection operators read in
    PAW grid and wavefunctions read in
 
   number of l-projection  operators is LMAX  =           3
   number of lm-projection operators is LMMAX =           5
 
  PAW_PBE Cu 22Jun2005                  :
 energy of atom  1       EATOM=-1390.9808
 kinetic energy error for atom=    0.0232 (will be added to EATOM!!)
  PAW_PBE H 15Jun2001                   :
 energy of atom  2       EATOM=  -12.4884
 kinetic energy error for atom=    0.0098 (will be added to EATOM!!)
 
 
 POSCAR: FCC Cu
  positions in cartesian coordinates
  No initial velocities read in
 exchange correlation table for  LEXCH =        8
   RHO(1)=    0.500       N(1)  =     2000
   RHO(2)=  100.500       N(2)  =     4000

 VTST: version 4.2, (08/11/21)

 CHAIN: initializing optimizer
 
 OPT: Using VASP Conjugate-Gradient optimizer
 CHAIN: Read ICHAIN            0
 
 POSCAR: FCC Cu
  positions in cartesian coordinates
  No initial velocities read in
 


--------------------------------------------------------------------------------------------------------


 ion  position               nearest neighbor table
   1  0.000  0.000  0.000-   2 2.57   2 2.57   2 2.57
   2  0.333  0.333  0.071-   3 2.51   3 2.51   3 2.51   1 2.57   1 2.57   1 2.57
   3  0.667  0.667  0.139-   2 2.51   2 2.51   2 2.51   4 2.53   4 2.53   4 2.53
   4  0.000  0.000  0.208-   5 2.51   5 2.51   5 2.51   3 2.53   3 2.53   3 2.53
   5  0.333  0.333  0.277-   4 2.51   4 2.51   4 2.51   6 2.53   6 2.53   6 2.53
   6  0.667  0.667  0.346-   7 2.51   7 2.51   7 2.51   5 2.53   5 2.53   5 2.53
   7  0.000  0.000  0.414-   8 2.49   8 2.49   8 2.49   6 2.51   6 2.51   6 2.51
   8  0.333  0.333  0.481-   7 2.49   7 2.49   7 2.49
   9  0.833  0.333  0.534-  10 0.75
  10  0.833  0.333  0.559-   9 0.75
 
  LATTYP: Found a hexagonal cell.
 ALAT       =     2.5667977333
 C/A-ratio  =    11.5593335643
  
  Lattice vectors:
  
 A1 = (  -1.2833988667,  -2.2229120434,   0.0000000000)
 A2 = (   2.5667977333,   0.0000000000,   0.0000000000)
 A3 = (   0.0000000000,   0.0000000000,  29.6704711914)


Analysis of symmetry for initial positions (statically):
=====================================================================
 Subroutine PRICEL returns:
 Original cell was already a primitive cell.
 

 Routine SETGRP: Setting up the symmetry group for a 
 hexagonal supercell.


 Subroutine GETGRP returns: Found  2 space group operations
 (whereof  2 operations were pure point group operations)
 out of a pool of 24 trial point group operations.


The static configuration has the point symmetry C_1h.


Analysis of symmetry for dynamics (positions and initial velocities):
=====================================================================
 Subroutine PRICEL returns:
 Original cell was already a primitive cell.
 

 Routine SETGRP: Setting up the symmetry group for a 
 hexagonal supercell.


 Subroutine GETGRP returns: Found  2 space group operations
 (whereof  2 operations were pure point group operations)
 out of a pool of 24 trial point group operations.


The dynamic configuration has the point symmetry C_1h.


Analysis of structural, dynamic, and magnetic symmetry:
=====================================================================
 Subroutine PRICEL returns:
 Original cell was already a primitive cell.
 

 Routine SETGRP: Setting up the symmetry group for a 
 hexagonal supercell.


 Subroutine GETGRP returns: Found  2 space group operations
 (whereof  2 operations were pure point group operations)
 out of a pool of 24 trial point group operations.


The overall configuration has the point symmetry C_1h.


 Subroutine INISYM returns: Found  2 space group operations
 (whereof  2 operations are pure point group operations),
 and found     1 'primitive' translations


----------------------------------------------------------------------------------------

                                     Primitive cell                                     

  volume of cell :     169.2928

  direct lattice vectors                    reciprocal lattice vectors
     2.566797733  0.000000000  0.000000000     0.389590495 -0.224930177  0.000000000
     1.283398867  2.222912043  0.000000000     0.000000000  0.449860355  0.000000000
     0.000000000  0.000000000 29.670471191     0.000000000  0.000000000  0.033703543

  length of vectors
     2.566797733  2.566797733 29.670471191     0.449860355  0.449860355  0.033703543

  position of ions in fractional coordinates (direct lattice)
     0.000000000  0.000000000  0.000000000
     0.333333333  0.333333333  0.070635264
     0.666666667  0.666666667  0.139085938
     0.000000000  0.000000000  0.208165116
     0.333333333  0.333333333  0.276562395
     0.666666667  0.666666667  0.345560339
     0.000000000  0.000000000  0.414005934
     0.333333333  0.333333333  0.481392695
     0.833333334  0.333333333  0.534259303
     0.833333334  0.333333333  0.559402146

  ion indices of the primitive-cell ions
   primitive index   ion index
                 1           1
                 2           2
                 3           3
                 4           4
                 5           5
                 6           6
                 7           7
                 8           8
                 9           9
                10          10

----------------------------------------------------------------------------------------

 
 
 KPOINTS: Auto-mesh                               

Automatic generation of k-mesh.
 Grid dimensions read from file:
 generate k-points for:    3    3    1

 Generating k-lattice:

  Cartesian coordinates                     Fractional coordinates (reciprocal lattice)
     0.129863498 -0.074976726  0.000000000     0.333333333  0.000000000  0.000000000
     0.000000000  0.149953452  0.000000000     0.000000000  0.333333333  0.000000000
     0.000000000  0.000000000  0.033703543     0.000000000  0.000000000  1.000000000

  Length of vectors
     0.149953452  0.149953452  0.033703543

  Shift w.r.t. Gamma in fractional coordinates (k-lattice)
     0.000000000  0.000000000  0.000000000

 
 Subroutine IBZKPT returns following result:
 ===========================================
 
 Found      4 irreducible k-points:
 
 Following reciprocal coordinates:
            Coordinates               Weight
  0.000000  0.000000  0.000000      1.000000
  0.333333  0.000000  0.000000      4.000000
  0.000000  0.333333  0.000000      2.000000
 -0.333333  0.333333  0.000000      2.000000
 
 Following cartesian coordinates:
            Coordinates               Weight
  0.000000  0.000000  0.000000      1.000000
  0.129863 -0.074977  0.000000      4.000000
  0.000000  0.149953  0.000000      2.000000
 -0.129863  0.224930  0.000000      2.000000
 


--------------------------------------------------------------------------------------------------------




 Dimension of arrays:
   k-points           NKPTS =      4   k-points in BZ     NKDIM =      4   number of bands    NBANDS=     60
   number of dos      NEDOS =    301   number of ions     NIONS =     10
   non local maximal  LDIM  =      6   non local SUM 2l+1 LMDIM =     18
   total plane-waves  NPLWV =  29400
   max r-space proj   IRMAX =      1   max aug-charges    IRDMAX=   5229
   dimension x,y,z NGX =    14 NGY =   14 NGZ =  150
   dimension x,y,z NGXF=    28 NGYF=   28 NGZF=  300
   support grid    NGXF=    28 NGYF=   28 NGZF=  300
   ions per type =               8   2
   NGX,Y,Z   is equivalent  to a cutoff of   9.07,  9.07,  8.40 a.u.
   NGXF,Y,Z  is equivalent  to a cutoff of  18.13, 18.13, 16.81 a.u.

 SYSTEM =  unknown system                          
 POSCAR =  FCC Cu                                  

 Startparameter for this run:
   NWRITE =      2    write-flag & timer
   PREC   = normal    normal or accurate (medium, high low for compatibility)
   ISTART =      0    job   : 0-new  1-cont  2-samecut
   ICHARG =      2    charge: 1-file 2-atom 10-const
   ISPIN  =      2    spin polarized calculation?
   LNONCOLLINEAR =      F non collinear calculations
   LSORBIT =      F    spin-orbit coupling
   INIWAV =      1    electr: 0-lowe 1-rand  2-diag
   LASPH  =      F    aspherical Exc in radial PAW
 Electronic Relaxation 1
   ENCUT  =  400.0 eV  29.40 Ry    5.42 a.u.   4.19  4.19 48.39*2*pi/ulx,y,z
   ENINI  =  400.0     initial cutoff
   ENAUG  =  587.0 eV  augmentation charge cutoff
   NELM   =     60;   NELMIN=  2; NELMDL= -5     # of ELM steps 
   EDIFF  = 0.2E-03   stopping-criterion for ELM
   LREAL  =      F    real-space projection
   NLSPLINE    = F    spline interpolate recip. space projectors
   LCOMPAT=      F    compatible to vasp.4.4
   GGA_COMPAT  = T    GGA compatible to vasp.4.4-vasp.4.6
   LMAXPAW     = -100 max onsite density
   LMAXMIX     =    2 max onsite mixed and CHGCAR
   VOSKOWN=      0    Vosko Wilk Nusair interpolation
   ROPT   =    0.00000   0.00000
 Ionic relaxation
   EDIFFG = -.3E-01   stopping-criterion for IOM
   NSW    =    800    number of steps for IOM
   NBLOCK =      1;   KBLOCK =    800    inner block; outer block 
   IBRION =      2    ionic relax: 0-MD 1-quasi-New 2-CG
   NFREE  =      1    steps in history (QN), initial steepest desc. (CG)
   ISIF   =      2    stress and relaxation
   IWAVPR =     11    prediction:  0-non 1-charg 2-wave 3-comb
   ISYM   =      1    0-nonsym 1-usesym 2-fastsym
   LCORR  =      T    Harris-Foulkes like correction to forces

   POTIM  = 0.5000    time-step for ionic-motion
   TEIN   =    0.0    initial temperature
   TEBEG  =    0.0;   TEEND  =   0.0 temperature during run
   SMASS  =  -3.00    Nose mass-parameter (am)
   estimated Nose-frequenzy (Omega)   =  0.10E-29 period in steps = 0.13E+47 mass=  -0.151E-27a.u.
   SCALEE = 1.0000    scale energy and forces
   NPACO  =    256;   APACO  = 10.0  distance and # of slots for P.C.
   PSTRESS=    0.0 pullay stress

  Mass of Ions in am
   POMASS =  63.55  1.00
  Ionic Valenz
   ZVAL   =  11.00  1.00
  Atomic Wigner-Seitz radii
   RWIGS  =  -1.00 -1.00
  virtual crystal weights 
   VCA    =   1.00  1.00
   NELECT =      90.0000    total number of electrons
   NUPDOWN=      -1.0000    fix difference up-down

 DOS related values:
   EMIN   =  10.00;   EMAX   =-10.00  energy-range for DOS
   EFERMI =   0.00
   ISMEAR =     1;   SIGMA  =   0.20  broadening in eV -4-tet -1-fermi 0-gaus

 Electronic relaxation 2 (details)
   IALGO  =     38    algorithm
   LDIAG  =      T    sub-space diagonalisation (order eigenvalues)
   LSUBROT=      F    optimize rotation matrix (better conditioning)
   TURBO    =      0    0=normal 1=particle mesh
   IRESTART =      0    0=no restart 2=restart with 2 vectors
   NREBOOT  =      0    no. of reboots
   NMIN     =      0    reboot dimension
   EREF     =   0.00    reference energy to select bands
   IMIX   =      4    mixing-type and parameters
     AMIX     =   0.40;   BMIX     =  1.00
     AMIX_MAG =   1.60;   BMIX_MAG =  1.00
     AMIN     =   0.10
     WC   =   100.;   INIMIX=   1;  MIXPRE=   1;  MAXMIX= -45

 Intra band minimization:
   WEIMIN = 0.0010     energy-eigenvalue tresh-hold
   EBREAK =  0.83E-06  absolut break condition
   DEPER  =   0.30     relativ break condition  

   TIME   =   0.40     timestep for ELM

  volume/ion in A,a.u.               =      16.93       114.24
  Fermi-wavevector in a.u.,A,eV,Ry     =   1.326202  2.506158 23.930072  1.758811
  Thomas-Fermi vector in A             =   2.455606
 
 Write flags
   LWAVE        =      F    write WAVECAR
   LDOWNSAMPLE  =      F    k-point downsampling of WAVECAR
   LCHARG       =      F    write CHGCAR
   LVTOT        =      F    write LOCPOT, total local potential
   LVHAR        =      F    write LOCPOT, Hartree potential only
   LELF         =      F    write electronic localiz. function (ELF)
   LORBIT       =      0    0 simple, 1 ext, 2 COOP (PROOUT), +10 PAW based schemes


 Dipole corrections
   LMONO  =      F    monopole corrections only (constant potential shift)
   LDIPOL =      F    correct potential (dipole corrections)
   IDIPOL =      0    1-x, 2-y, 3-z, 4-all directions 
   EPSILON=  1.0000000 bulk dielectric constant

 Exchange correlation treatment:
   GGA     =    PE    GGA type
   LEXCH   =     8    internal setting for exchange type
   LIBXC   =     F    Libxc                    
   VOSKOWN =     0    Vosko Wilk Nusair interpolation
   LHFCALC =     F    Hartree Fock is set to
   LHFONE  =     F    Hartree Fock one center treatment
   AEXX    =    0.0000 exact exchange contribution

 Linear response parameters
   LEPSILON=     F    determine dielectric tensor
   LRPA    =     F    only Hartree local field effects (RPA)
   LNABLA  =     F    use nabla operator in PAW spheres
   LVEL    =     F    velocity operator in full k-point grid
   CSHIFT  =0.1000    complex shift for real part using Kramers Kronig
   OMEGAMAX=  -1.0    maximum frequency
   DEG_THRESHOLD= 0.2000000E-02 threshold for treating states as degnerate
   RTIME   =   -0.100 relaxation time in fs
  (WPLASMAI=    0.000 imaginary part of plasma frequency in eV, 0.658/RTIME)
   DFIELD  = 0.0000000 0.0000000 0.0000000 field for delta impulse in time
 
  Optional k-point grid parameters
   LKPOINTS_OPT  =     F    use optional k-point grid
   KPOINTS_OPT_MODE=     1    mode for optional k-point grid
 
 Orbital magnetization related:
   ORBITALMAG=     F  switch on orbital magnetization
   LCHIMAG   =     F  perturbation theory with respect to B field
   DQ        =  0.001000  dq finite difference perturbation B field
   LLRAUG    =     F  two centre corrections for induced B field



--------------------------------------------------------------------------------------------------------


 conjugate gradient relaxation of ions
 charge density and potential will be updated during run
 spin polarized calculation
 Variant of blocked Davidson
 Davidson routine will perform the subspace rotation
 perform sub-space diagonalisation
    after iterative eigenvector-optimisation
 modified Broyden-mixing scheme, WC =      100.0
 initial mixing is a Kerker type mixing with AMIX =  0.4000 and BMIX =      1.0000
 Hartree-type preconditioning will be used
 using additional bands           15
 reciprocal scheme for non local part
 use partial core corrections
 calculate Harris-corrections to forces 
   (improved forces if not selfconsistent)
 use gradient corrections 
 use of overlap-Matrix (Vanderbilt PP)
 Methfessel and Paxton  Order N= 1 SIGMA  =   0.20


--------------------------------------------------------------------------------------------------------


  energy-cutoff  :      400.00
  volume of cell :      169.29
      direct lattice vectors                 reciprocal lattice vectors
     2.566797733  0.000000000  0.000000000     0.389590495 -0.224930177  0.000000000
     1.283398867  2.222912043  0.000000000     0.000000000  0.449860355  0.000000000
     0.000000000  0.000000000 29.670471191     0.000000000  0.000000000  0.033703543

  length of vectors
     2.566797733  2.566797733 29.670471191     0.449860355  0.449860355  0.033703543


 
 k-points in units of 2pi/SCALE and weight: Auto-mesh                               
   0.00000000  0.00000000  0.00000000       0.111
   0.12986350 -0.07497673  0.00000000       0.444
   0.00000000  0.14995345  0.00000000       0.222
  -0.12986350  0.22493018  0.00000000       0.222
 
 k-points in reciprocal lattice and weights: Auto-mesh                               
   0.00000000  0.00000000  0.00000000       0.111
   0.33333333  0.00000000  0.00000000       0.444
   0.00000000  0.33333333  0.00000000       0.222
  -0.33333333  0.33333333  0.00000000       0.222
 
 position of ions in fractional coordinates (direct lattice) 
   0.00000000  0.00000000  0.00000000
   0.33333333  0.33333333  0.07063526
   0.66666667  0.66666667  0.13908594
   0.00000000  0.00000000  0.20816512
   0.33333333  0.33333333  0.27656240
   0.66666667  0.66666667  0.34556034
   0.00000000  0.00000000  0.41400593
   0.33333333  0.33333333  0.48139269
   0.83333333  0.33333333  0.53425930
   0.83333333  0.33333333  0.55940215
 
 position of ions in cartesian coordinates  (Angst):
   0.00000000  0.00000000  0.00000000
   1.28339887  0.74097068  2.09578157
   2.56679773  1.48194136  4.12674532
   0.00000000  0.00000000  6.17635708
   1.28339887  0.74097068  8.20573658
   2.56679773  1.48194136 10.25293808
   0.00000000  0.00000000 12.28375114
   1.28339887  0.74097068 14.28314809
   2.56679773  0.74097068 15.85172525
   2.56679773  0.74097068 16.59772525
 


--------------------------------------------------------------------------------------------------------


 k-point   1 :   0.0000 0.0000 0.0000  plane waves:    3091
 k-point   2 :   0.3333 0.0000 0.0000  plane waves:    3081
 k-point   3 :   0.0000 0.3333 0.0000  plane waves:    3081
 k-point   4 :  -0.3333 0.3333 0.0000  plane waves:    3096

 maximum and minimum number of plane-waves per node :       634      594

 maximum number of plane-waves:      3096
 maximum index in each direction: 
   IXMAX=    4   IYMAX=    4   IZMAX=   48
   IXMIN=   -4   IYMIN=   -4   IZMIN=  -48


 parallel 3D FFT for wavefunctions:
    minimum data exchange during FFTs selected (reduces bandwidth)
 parallel 3D FFT for charge:
    minimum data exchange during FFTs selected (reduces bandwidth)


 total amount of memory used by VASP MPI-rank0    34706. kBytes
=======================================================================

   base      :      30000. kBytes
   nonl-proj :        813. kBytes
   fftplans  :        716. kBytes
   grid      :       1856. kBytes
   one-center:         62. kBytes
   wavefun   :       1259. kBytes
 
     INWAV:  cpu time      0.0000: real time      0.0003
 Broyden mixing: mesh for mixing (old mesh)
   NGX =  9   NGY =  9   NGZ = 97
  (NGX  = 28   NGY  = 28   NGZ  =300)
  gives a total of   7857 points

 initial charge density was supplied:
 charge density of overlapping atoms calculated
 number of electron      90.0000000 magnetization      10.0000000
 keeping initial charge density in first step


--------------------------------------------------------------------------------------------------------


 Maximum index for augmentation-charges          479 (set IRDMAX)


--------------------------------------------------------------------------------------------------------


 First call to EWALD:  gamma=   0.320
 Maximum number of real-space cells 6x 6x 1
 Maximum number of reciprocal cells 2x 2x13

    FEWALD:  cpu time      0.0019: real time      0.0019


--------------------------------------- Iteration      1(   1)  ---------------------------------------


    POTLOK:  cpu time      0.0224: real time      0.0227
    SETDIJ:  cpu time      0.0068: real time      0.0069
     EDDAV:  cpu time      0.2848: real time      0.2874
       DOS:  cpu time      0.0012: real time      0.0012
    --------------------------------------------
      LOOP:  cpu time      0.3152: real time      0.3182

 eigenvalue-minimisations  :   960
 total energy-change (2. order) : 0.7961384E+03  (-0.3348070E+04)
 number of electron      90.0000000 magnetization      10.0000000
 augmentation part       90.0000000 magnetization      10.0000000

 Free energy of the ion-electron system (eV)
  ---------------------------------------------------
  alpha Z        PSCENC =       285.34744303
  Ewald energy   TEWEN  =     52242.30517405
  -Hartree energ DENC   =    -63295.47531794
  -exchange      EXHF   =         0.00000000
  -V(xc)+E(xc)   XCENC  =       372.51993570
  PAW double counting   =      9828.36862813   -10674.97285505
  entropy T*S    EENTRO =        -0.00182662
  eigenvalues    EBANDS =       885.42884927
  atomic energy  EATOM  =     11152.61838693
  Solvation  Ediel_sol  =         0.00000000
  ---------------------------------------------------
  free energy    TOTEN  =       796.13841751 eV

  energy without entropy =      796.14024413  energy(sigma->0) =      796.13902638


--------------------------------------------------------------------------------------------------------




--------------------------------------- Iteration      1(   2)  ---------------------------------------


     EDDAV:  cpu time      0.2740: real time      0.2768
       DOS:  cpu time      0.0009: real time      0.0009
    --------------------------------------------
      LOOP:  cpu time      0.2749: real time      0.2777

 eigenvalue-minimisations  :   960
 total energy-change (2. order) :-0.7231032E+03  (-0.6917837E+03)
 number of electron      90.0000000 magnetization      10.0000000
 augmentation part       90.0000000 magnetization      10.0000000

 Free energy of the ion-electron system (eV)
  ---------------------------------------------------
  alpha Z        PSCENC =       285.34744303
  Ewald energy   TEWEN  =     52242.30517405
  -Hartree energ DENC   =    -63295.47531794
  -exchange      EXHF   =         0.00000000
  -V(xc)+E(xc)   XCENC  =       372.51993570
  PAW double counting   =      9828.36862813   -10674.97285505
  entropy T*S    EENTRO =         0.00308644
  eigenvalues    EBANDS =       162.32073192
  atomic energy  EATOM  =     11152.61838693
  Solvation  Ediel_sol  =         0.00000000
  ---------------------------------------------------
  free energy    TOTEN  =        73.03521322 eV

  energy without entropy =       73.03212678  energy(sigma->0) =       73.03418441


--------------------------------------------------------------------------------------------------------




--------------------------------------- Iteration      1(   3)  ---------------------------------------


     EDDAV:  cpu time      0.2789: real time      0.2814
       DOS:  cpu time      0.0009: real time      0.0009
    --------------------------------------------
      LOOP:  cpu time      0.2798: real time      0.2822

 eigenvalue-minimisations  :   996
 total energy-change (2. order) :-0.1058975E+03  (-0.9964391E+02)
 number of electron      90.0000000 magnetization      10.0000000
 augmentation part       90.0000000 magnetization      10.0000000

 Free energy of the ion-electron system (eV)
  ---------------------------------------------------
  alpha Z        PSCENC =       285.34744303
  Ewald energy   TEWEN  =     52242.30517405
  -Hartree energ DENC   =    -63295.47531794
  -exchange      EXHF   =         0.00000000
  -V(xc)+E(xc)   XCENC  =       372.51993570
  PAW double counting   =      9828.36862813   -10674.97285505
  entropy T*S    EENTRO =         0.02359258
  eigenvalues    EBANDS =        56.40274487
  atomic energy  EATOM  =     11152.61838693
  Solvation  Ediel_sol  =         0.00000000
  ---------------------------------------------------
  free energy    TOTEN  =       -32.86226769 eV

  energy without entropy =      -32.88586027  energy(sigma->0) =      -32.87013188


--------------------------------------------------------------------------------------------------------




--------------------------------------- Iteration      1(   4)  ---------------------------------------


     EDDAV:  cpu time      0.2970: real time      0.2997
       DOS:  cpu time      0.0009: real time      0.0009
    --------------------------------------------
      LOOP:  cpu time      0.2979: real time      0.3006

 eigenvalue-minimisations  :  1076
 total energy-change (2. order) :-0.4535101E+01  (-0.4497492E+01)
 number of electron      90.0000000 magnetization      10.0000000
 augmentation part       90.0000000 magnetization      10.0000000

 Free energy of the ion-electron system (eV)
  ---------------------------------------------------
  alpha Z        PSCENC =       285.34744303
  Ewald energy   TEWEN  =     52242.30517405
  -Hartree energ DENC   =    -63295.47531794
  -exchange      EXHF   =         0.00000000
  -V(xc)+E(xc)   XCENC  =       372.51993570
  PAW double counting   =      9828.36862813   -10674.97285505
  entropy T*S    EENTRO =         0.03178029
  eigenvalues    EBANDS =        51.85945623
  atomic energy  EATOM  =     11152.61838693
  Solvation  Ediel_sol  =         0.00000000
  ---------------------------------------------------
  free energy    TOTEN  =       -37.39736861 eV

  energy without entropy =      -37.42914890  energy(sigma->0) =      -37.40796204


--------------------------------------------------------------------------------------------------------




--------------------------------------- Iteration      1(   5)  ---------------------------------------


     EDDAV:  cpu time      0.3168: real time      0.3200
       DOS:  cpu time      0.0009: real time      0.0009
    CHARGE:  cpu time      0.0581: real time      0.0584
    MIXING:  cpu time      0.0013: real time      0.0013
    --------------------------------------------
      LOOP:  cpu time      0.3771: real time      0.3806

 eigenvalue-minimisations  :  1108
 total energy-change (2. order) :-0.1004658E+00  (-0.1003761E+00)
 number of electron      89.9999974 magnetization       9.3945400
 augmentation part       52.1713996 magnetization       9.0311556

 Broyden mixing:
  rms(total) = 0.27627E+01    rms(broyden)= 0.27626E+01
  rms(prec ) = 0.28279E+01
  weight for this iteration     100.00

 Free energy of the ion-electron system (eV)
  ---------------------------------------------------
  alpha Z        PSCENC =       285.34744303
  Ewald energy   TEWEN  =     52242.30517405
  -Hartree energ DENC   =    -63295.47531794
  -exchange      EXHF   =         0.00000000
  -V(xc)+E(xc)   XCENC  =       372.51993570
  PAW double counting   =      9828.36862813   -10674.97285505
  entropy T*S    EENTRO =         0.03184364
  eigenvalues    EBANDS =        51.75892710
  atomic energy  EATOM  =     11152.61838693
  Solvation  Ediel_sol  =         0.00000000
  ---------------------------------------------------
  free energy    TOTEN  =       -37.49783441 eV

  energy without entropy =      -37.52967804  energy(sigma->0) =      -37.50844895


--------------------------------------------------------------------------------------------------------




--------------------------------------- Iteration      1(   6)  ---------------------------------------


    POTLOK:  cpu time      0.0209: real time      0.0212
    SETDIJ:  cpu time      0.0068: real time      0.0069
     EDDAV:  cpu time      0.3382: real time      0.3409
       DOS:  cpu time      0.0013: real time      0.0013
    CHARGE:  cpu time      0.0562: real time      0.0564
    MIXING:  cpu time      0.0006: real time      0.0006
    --------------------------------------------
      LOOP:  cpu time      0.4240: real time      0.4274

 eigenvalue-minimisations  :  1280
 total energy-change (2. order) : 0.3125899E+01  (-0.1074202E+02)
 number of electron      89.9999993 magnetization       9.1481192
 augmentation part       56.7814338 magnetization       6.9280720

 Broyden mixing:
  rms(total) = 0.20288E+01    rms(broyden)= 0.20285E+01
  rms(prec ) = 0.29825E+01
  weight for this iteration     100.00

 eigenvalues of (default mixing * dielectric matrix)
  average eigenvalue GAMMA=   0.7088
  0.7088

 Free energy of the ion-electron system (eV)
  ---------------------------------------------------
  alpha Z        PSCENC =       285.34744303
  Ewald energy   TEWEN  =     52242.30517405
  -Hartree energ DENC   =    -63106.36857645
  -exchange      EXHF   =         0.00000000
  -V(xc)+E(xc)   XCENC  =       365.12323728
  PAW double counting   =     10013.54828191   -10818.14290255
  entropy T*S    EENTRO =        -0.03709589
  eigenvalues    EBANDS =      -168.76588338
  atomic energy  EATOM  =     11152.61838693
  Solvation  Ediel_sol  =         0.00000000
  ---------------------------------------------------
  free energy    TOTEN  =       -34.37193506 eV

  energy without entropy =      -34.33483917  energy(sigma->0) =      -34.35956977


--------------------------------------------------------------------------------------------------------




--------------------------------------- Iteration      1(   7)  ---------------------------------------


    POTLOK:  cpu time      0.0193: real time      0.0195
    SETDIJ:  cpu time      0.0059: real time      0.0059
     EDDAV:  cpu time      0.3698: real time      0.3732
       DOS:  cpu time      0.0009: real time      0.0009
    CHARGE:  cpu time      0.0555: real time      0.0557
    MIXING:  cpu time      0.0006: real time      0.0006
    --------------------------------------------
      LOOP:  cpu time      0.4520: real time      0.4559

 eigenvalue-minimisations  :  1408
 total energy-change (2. order) :-0.6042128E+02  (-0.3051689E+02)
 number of electron      89.9999972 magnetization       9.0073612
 augmentation part       50.6284650 magnetization       5.6879533

 Broyden mixing:
  rms(total) = 0.63160E+01    rms(broyden)= 0.63158E+01
  rms(prec ) = 0.11441E+02
  weight for this iteration     100.00

 eigenvalues of (default mixing * dielectric matrix)
  average eigenvalue GAMMA=   0.4175
  0.7582  0.0769

 Free energy of the ion-electron system (eV)
  ---------------------------------------------------
  alpha Z        PSCENC =       285.34744303
  Ewald energy   TEWEN  =     52242.30517405
  -Hartree energ DENC   =    -63211.08626103
  -exchange      EXHF   =         0.00000000
  -V(xc)+E(xc)   XCENC  =       365.90327482
  PAW double counting   =     10122.07815431   -10944.74952846
  entropy T*S    EENTRO =         0.00809844
  eigenvalues    EBANDS =      -107.21795428
  atomic energy  EATOM  =     11152.61838693
  Solvation  Ediel_sol  =         0.00000000
  ---------------------------------------------------
  free energy    TOTEN  =       -94.79321218 eV

  energy without entropy =      -94.80131062  energy(sigma->0) =      -94.79591166


--------------------------------------------------------------------------------------------------------




--------------------------------------- Iteration      1(   8)  ---------------------------------------


    POTLOK:  cpu time      0.0193: real time      0.0196
    SETDIJ:  cpu time      0.0059: real time      0.0060
     EDDAV:  cpu time      0.4128: real time      0.4160
       DOS:  cpu time      0.0009: real time      0.0009
    CHARGE:  cpu time      0.0539: real time      0.0542
    MIXING:  cpu time      0.0006: real time      0.0006
    --------------------------------------------
      LOOP:  cpu time      0.4934: real time      0.4972

 eigenvalue-minimisations  :  1624
 total energy-change (2. order) : 0.5461881E+02  (-0.2140610E+02)
 number of electron      89.9999980 magnetization       8.8200562
 augmentation part       56.0688394 magnetization       6.7281165

 Broyden mixing:
  rms(total) = 0.21986E+01    rms(broyden)= 0.21981E+01
  rms(prec ) = 0.27691E+01
  weight for this iteration     100.00

 eigenvalues of (default mixing * dielectric matrix)
  average eigenvalue GAMMA=   0.3966
  0.8173  0.2939  0.0785

 Free energy of the ion-electron system (eV)
  ---------------------------------------------------
  alpha Z        PSCENC =       285.34744303
  Ewald energy   TEWEN  =     52242.30517405
  -Hartree energ DENC   =    -63191.49414246
  -exchange      EXHF   =         0.00000000
  -V(xc)+E(xc)   XCENC  =       365.32149882
  PAW double counting   =     10141.71193040   -10970.20902025
  entropy T*S    EENTRO =        -0.05182233
  eigenvalues    EBANDS =       -65.72384979
  atomic energy  EATOM  =     11152.61838693
  Solvation  Ediel_sol  =         0.00000000
  ---------------------------------------------------
  free energy    TOTEN  =       -40.17440159 eV

  energy without entropy =      -40.12257926  energy(sigma->0) =      -40.15712748


--------------------------------------------------------------------------------------------------------




--------------------------------------- Iteration      1(   9)  ---------------------------------------


    POTLOK:  cpu time      0.0192: real time      0.0194
    SETDIJ:  cpu time      0.0058: real time      0.0058
     EDDAV:  cpu time      0.4014: real time      0.4046
       DOS:  cpu time      0.0009: real time      0.0009
    CHARGE:  cpu time      0.0528: real time      0.0531
    MIXING:  cpu time      0.0007: real time      0.0007
    --------------------------------------------
      LOOP:  cpu time      0.4808: real time      0.4846

 eigenvalue-minimisations  :  1564
 total energy-change (2. order) : 0.6970255E+01  (-0.4957937E+01)
 number of electron      89.9999964 magnetization       8.6941526
 augmentation part       57.0950229 magnetization       7.3513757

 Broyden mixing:
  rms(total) = 0.16754E+01    rms(broyden)= 0.16751E+01
  rms(prec ) = 0.18766E+01
  weight for this iteration     100.00

 eigenvalues of (default mixing * dielectric matrix)
  average eigenvalue GAMMA=   0.3553
  0.8433  0.0823  0.2479  0.2479

 Free energy of the ion-electron system (eV)
  ---------------------------------------------------
  alpha Z        PSCENC =       285.34744303
  Ewald energy   TEWEN  =     52242.30517405
  -Hartree energ DENC   =    -63059.41432226
  -exchange      EXHF   =         0.00000000
  -V(xc)+E(xc)   XCENC  =       365.40553727
  PAW double counting   =     10197.81687413   -11035.67437338
  entropy T*S    EENTRO =        -0.02622274
  eigenvalues    EBANDS =      -181.58264321
  atomic energy  EATOM  =     11152.61838693
  Solvation  Ediel_sol  =         0.00000000
  ---------------------------------------------------
  free energy    TOTEN  =       -33.20414618 eV

  energy without entropy =      -33.17792344  energy(sigma->0) =      -33.19540527


--------------------------------------------------------------------------------------------------------




--------------------------------------- Iteration      1(  10)  ---------------------------------------


    POTLOK:  cpu time      0.0193: real time      0.0202
    SETDIJ:  cpu time      0.0058: real time      0.0058
     EDDAV:  cpu time      0.3784: real time      0.3814
       DOS:  cpu time      0.0008: real time      0.0008
    CHARGE:  cpu time      0.0567: real time      0.0569
    MIXING:  cpu time      0.0010: real time      0.0010
    --------------------------------------------
      LOOP:  cpu time      0.4619: real time      0.4662

 eigenvalue-minimisations  :  1428
 total energy-change (2. order) : 0.2153935E+01  (-0.1744308E+01)
 number of electron      89.9999972 magnetization       8.5904351
 augmentation part       57.3248124 magnetization       7.2585251

 Broyden mixing:
  rms(total) = 0.11771E+01    rms(broyden)= 0.11769E+01
  rms(prec ) = 0.12194E+01
  weight for this iteration     100.00

 eigenvalues of (default mixing * dielectric matrix)
  average eigenvalue GAMMA=   0.3545
  0.8747  0.2983  0.2983  0.0813  0.2201

 Free energy of the ion-electron system (eV)
  ---------------------------------------------------
  alpha Z        PSCENC =       285.34744303
  Ewald energy   TEWEN  =     52242.30517405
  -Hartree energ DENC   =    -63089.01125243
  -exchange      EXHF   =         0.00000000
  -V(xc)+E(xc)   XCENC  =       366.04029370
  PAW double counting   =     10240.75154102   -11084.33438343
  entropy T*S    EENTRO =        -0.00949813
  eigenvalues    EBANDS =      -144.75791555
  atomic energy  EATOM  =     11152.61838693
  Solvation  Ediel_sol  =         0.00000000
  ---------------------------------------------------
  free energy    TOTEN  =       -31.05021080 eV

  energy without entropy =      -31.04071267  energy(sigma->0) =      -31.04704475


--------------------------------------------------------------------------------------------------------




--------------------------------------- Iteration      1(  11)  ---------------------------------------


    POTLOK:  cpu time      0.0201: real time      0.0204
    SETDIJ:  cpu time      0.0061: real time      0.0061
     EDDAV:  cpu time      0.3373: real time      0.3400
       DOS:  cpu time      0.0009: real time      0.0009
    CHARGE:  cpu time      0.0522: real time      0.0525
    MIXING:  cpu time      0.0008: real time      0.0008
    --------------------------------------------
      LOOP:  cpu time      0.4174: real time      0.4207

 eigenvalue-minimisations  :  1284
 total energy-change (2. order) : 0.4530864E+00  (-0.1655563E+00)
 number of electron      89.9999974 magnetization       8.1769627
 augmentation part       56.9949651 magnetization       6.7689135

 Broyden mixing:
  rms(total) = 0.10106E+01    rms(broyden)= 0.10106E+01
  rms(prec ) = 0.10630E+01
  weight for this iteration     100.00

 eigenvalues of (default mixing * dielectric matrix)
  average eigenvalue GAMMA=   0.4672
  0.9465  0.6247  0.6247  0.0817  0.2920  0.2336

 Free energy of the ion-electron system (eV)
  ---------------------------------------------------
  alpha Z        PSCENC =       285.34744303
  Ewald energy   TEWEN  =     52242.30517405
  -Hartree energ DENC   =    -63112.25195751
  -exchange      EXHF   =         0.00000000
  -V(xc)+E(xc)   XCENC  =       366.49285912
  PAW double counting   =     10273.84104297   -11121.45384636
  entropy T*S    EENTRO =        -0.00830863
  eigenvalues    EBANDS =      -117.48791801
  atomic energy  EATOM  =     11152.61838693
  Solvation  Ediel_sol  =         0.00000000
  ---------------------------------------------------
  free energy    TOTEN  =       -30.59712440 eV

  energy without entropy =      -30.58881577  energy(sigma->0) =      -30.59435486


--------------------------------------------------------------------------------------------------------




--------------------------------------- Iteration      1(  12)  ---------------------------------------


    POTLOK:  cpu time      0.0191: real time      0.0193
    SETDIJ:  cpu time      0.0058: real time      0.0059
     EDDAV:  cpu time      0.3056: real time      0.3078
       DOS:  cpu time      0.0009: real time      0.0009
    CHARGE:  cpu time      0.0538: real time      0.0541
    MIXING:  cpu time      0.0009: real time      0.0009
    --------------------------------------------
      LOOP:  cpu time      0.3860: real time      0.3888

 eigenvalue-minimisations  :  1132
 total energy-change (2. order) : 0.7001975E+00  (-0.1426854E+00)
 number of electron      89.9999975 magnetization       7.1757912
 augmentation part       56.4639362 magnetization       5.6585426

 Broyden mixing:
  rms(total) = 0.81986E+00    rms(broyden)= 0.81985E+00
  rms(prec ) = 0.87746E+00
  weight for this iteration     100.00

 eigenvalues of (default mixing * dielectric matrix)
  average eigenvalue GAMMA=   0.5621
  1.3806  0.7021  0.7021  0.0817  0.4219  0.4219  0.2243

 Free energy of the ion-electron system (eV)
  ---------------------------------------------------
  alpha Z        PSCENC =       285.34744303
  Ewald energy   TEWEN  =     52242.30517405
  -Hartree energ DENC   =    -63148.94413543
  -exchange      EXHF   =         0.00000000
  -V(xc)+E(xc)   XCENC  =       367.38239680
  PAW double counting   =     10359.45546864   -11214.59454925
  entropy T*S    EENTRO =        -0.01113319
  eigenvalues    EBANDS =       -73.45597844
  atomic energy  EATOM  =     11152.61838693
  Solvation  Ediel_sol  =         0.00000000
  ---------------------------------------------------
  free energy    TOTEN  =       -29.89692686 eV

  energy without entropy =      -29.88579367  energy(sigma->0) =      -29.89321580


--------------------------------------------------------------------------------------------------------




--------------------------------------- Iteration      1(  13)  ---------------------------------------


    POTLOK:  cpu time      0.0191: real time      0.0194
    SETDIJ:  cpu time      0.0058: real time      0.0058
     EDDAV:  cpu time      0.3531: real time      0.3558
       DOS:  cpu time      0.0009: real time      0.0009
    CHARGE:  cpu time      0.0526: real time      0.0532
    MIXING:  cpu time      0.0009: real time      0.0009
    --------------------------------------------
      LOOP:  cpu time      0.4325: real time      0.4361

 eigenvalue-minimisations  :  1344
 total energy-change (2. order) : 0.2563259E+00  (-0.1486236E+00)
 number of electron      89.9999979 magnetization       5.9587333
 augmentation part       56.1536529 magnetization       4.3940724

 Broyden mixing:
  rms(total) = 0.64265E+00    rms(broyden)= 0.64262E+00
  rms(prec ) = 0.70927E+00
  weight for this iteration     100.00

 eigenvalues of (default mixing * dielectric matrix)
  average eigenvalue GAMMA=   0.6658
  1.3431  1.3431  0.7687  0.7687  0.0817  0.4169  0.3787  0.2257

 Free energy of the ion-electron system (eV)
  ---------------------------------------------------
  alpha Z        PSCENC =       285.34744303
  Ewald energy   TEWEN  =     52242.30517405
  -Hartree energ DENC   =    -63175.18973803
  -exchange      EXHF   =         0.00000000
  -V(xc)+E(xc)   XCENC  =       367.90654964
  PAW double counting   =     10521.40739589   -11385.18061387
  entropy T*S    EENTRO =        -0.01348306
  eigenvalues    EBANDS =       -38.84171558
  atomic energy  EATOM  =     11152.61838693
  Solvation  Ediel_sol  =         0.00000000
  ---------------------------------------------------
  free energy    TOTEN  =       -29.64060099 eV

  energy without entropy =      -29.62711794  energy(sigma->0) =      -29.63610664


--------------------------------------------------------------------------------------------------------




--------------------------------------- Iteration      1(  14)  ---------------------------------------


    POTLOK:  cpu time      0.0190: real time      0.0193
    SETDIJ:  cpu time      0.0059: real time      0.0059
     EDDAV:  cpu time      0.3858: real time      0.3886
       DOS:  cpu time      0.0009: real time      0.0009
    CHARGE:  cpu time      0.0537: real time      0.0539
    MIXING:  cpu time      0.0010: real time      0.0010
    --------------------------------------------
      LOOP:  cpu time      0.4663: real time      0.4697

 eigenvalue-minimisations  :  1504
 total energy-change (2. order) :-0.2156600E+01  (-0.1834185E+00)
 number of electron      89.9999977 magnetization       4.4690477
 augmentation part       56.3233961 magnetization       3.2010236

 Broyden mixing:
  rms(total) = 0.51405E+00    rms(broyden)= 0.51403E+00
  rms(prec ) = 0.55138E+00
  weight for this iteration     100.00

 eigenvalues of (default mixing * dielectric matrix)
  average eigenvalue GAMMA=   0.8415
  3.0523  1.2025  0.7744  0.7744  0.6794  0.0817  0.3918  0.3918  0.2254

 Free energy of the ion-electron system (eV)
  ---------------------------------------------------
  alpha Z        PSCENC =       285.34744303
  Ewald energy   TEWEN  =     52242.30517405
  -Hartree energ DENC   =    -63170.82516140
  -exchange      EXHF   =         0.00000000
  -V(xc)+E(xc)   XCENC  =       366.00422291
  PAW double counting   =     10609.84268324   -11475.24533242
  entropy T*S    EENTRO =        -0.01046193
  eigenvalues    EBANDS =       -41.83415530
  atomic energy  EATOM  =     11152.61838693
  Solvation  Ediel_sol  =         0.00000000
  ---------------------------------------------------
  free energy    TOTEN  =       -31.79720088 eV

  energy without entropy =      -31.78673895  energy(sigma->0) =      -31.79371357


--------------------------------------------------------------------------------------------------------




--------------------------------------- Iteration      1(  15)  ---------------------------------------


    POTLOK:  cpu time      0.0190: real time      0.0193
    SETDIJ:  cpu time      0.0058: real time      0.0058
     EDDAV:  cpu time      0.3966: real time      0.3996
       DOS:  cpu time      0.0009: real time      0.0009
    CHARGE:  cpu time      0.0552: real time      0.0555
    MIXING:  cpu time      0.0011: real time      0.0012
    --------------------------------------------
      LOOP:  cpu time      0.4786: real time      0.4822

 eigenvalue-minimisations  :  1552
 total energy-change (2. order) :-0.1509315E+01  (-0.1590778E+00)
 number of electron      89.9999975 magnetization       3.4027041
 augmentation part       56.5143392 magnetization       2.3642515

 Broyden mixing:
  rms(total) = 0.44036E+00    rms(broyden)= 0.44032E+00
  rms(prec ) = 0.45763E+00
  weight for this iteration     100.00

 eigenvalues of (default mixing * dielectric matrix)
  average eigenvalue GAMMA=   1.0071
  4.1684  1.7617  0.7742  0.7742  0.7538  0.7538  0.0817  0.3891  0.3891  0.2254

 Free energy of the ion-electron system (eV)
  ---------------------------------------------------
  alpha Z        PSCENC =       285.34744303
  Ewald energy   TEWEN  =     52242.30517405
  -Hartree energ DENC   =    -63164.20323632
  -exchange      EXHF   =         0.00000000
  -V(xc)+E(xc)   XCENC  =       364.85792153
  PAW double counting   =     10677.49478854   -11543.47992068
  entropy T*S    EENTRO =        -0.01759602
  eigenvalues    EBANDS =       -48.22947737
  atomic energy  EATOM  =     11152.61838693
  Solvation  Ediel_sol  =         0.00000000
  ---------------------------------------------------
  free energy    TOTEN  =       -33.30651630 eV

  energy without entropy =      -33.28892029  energy(sigma->0) =      -33.30065096


--------------------------------------------------------------------------------------------------------




--------------------------------------- Iteration      1(  16)  ---------------------------------------


    POTLOK:  cpu time      0.0190: real time      0.0193
    SETDIJ:  cpu time      0.0058: real time      0.0058
     EDDAV:  cpu time      0.3575: real time      0.3605
       DOS:  cpu time      0.0009: real time      0.0009
    CHARGE:  cpu time      0.0555: real time      0.0557
    MIXING:  cpu time      0.0012: real time      0.0012
    --------------------------------------------
      LOOP:  cpu time      0.4398: real time      0.4433

 eigenvalue-minimisations  :  1380
 total energy-change (2. order) :-0.1471496E+01  (-0.1613826E+00)
 number of electron      89.9999975 magnetization       2.2079638
 augmentation part       56.5378815 magnetization       1.4703034

 Broyden mixing:
  rms(total) = 0.39082E+00    rms(broyden)= 0.39081E+00
  rms(prec ) = 0.40883E+00
  weight for this iteration     100.00

 eigenvalues of (default mixing * dielectric matrix)
  average eigenvalue GAMMA=   1.2555
  6.8242  2.0290  0.8323  0.8323  0.7983  0.7983  0.0817  0.2254  0.3883  0.3883
  0.6122

 Free energy of the ion-electron system (eV)
  ---------------------------------------------------
  alpha Z        PSCENC =       285.34744303
  Ewald energy   TEWEN  =     52242.30517405
  -Hartree energ DENC   =    -63182.86483305
  -exchange      EXHF   =         0.00000000
  -V(xc)+E(xc)   XCENC  =       364.02437519
  PAW double counting   =     10637.91528401   -11500.43146984
  entropy T*S    EENTRO =        -0.01969824
  eigenvalues    EBANDS =       -33.67267439
  atomic energy  EATOM  =     11152.61838693
  Solvation  Ediel_sol  =         0.00000000
  ---------------------------------------------------
  free energy    TOTEN  =       -34.77801232 eV

  energy without entropy =      -34.75831408  energy(sigma->0) =      -34.77144624


--------------------------------------------------------------------------------------------------------




--------------------------------------- Iteration      1(  17)  ---------------------------------------


    POTLOK:  cpu time      0.0189: real time      0.0192
    SETDIJ:  cpu time      0.0058: real time      0.0058
     EDDAV:  cpu time      0.3563: real time      0.3595
       DOS:  cpu time      0.0009: real time      0.0009
    CHARGE:  cpu time      0.0558: real time      0.0560
    MIXING:  cpu time      0.0015: real time      0.0015
    --------------------------------------------
      LOOP:  cpu time      0.4392: real time      0.4429

 eigenvalue-minimisations  :  1304
 total energy-change (2. order) :-0.5684713E+00  (-0.8106033E-01)
 number of electron      89.9999975 magnetization       1.3798195
 augmentation part       56.3073935 magnetization       0.7570725

 Broyden mixing:
  rms(total) = 0.19955E+00    rms(broyden)= 0.19954E+00
  rms(prec ) = 0.21291E+00
  weight for this iteration     100.00

 eigenvalues of (default mixing * dielectric matrix)
  average eigenvalue GAMMA=   1.4632
  9.5413  1.8263  1.1140  1.1140  0.7906  0.7906  0.0817  0.7110  0.2254  0.3879
  0.3879  0.5880

 Free energy of the ion-electron system (eV)
  ---------------------------------------------------
  alpha Z        PSCENC =       285.34744303
  Ewald energy   TEWEN  =     52242.30517405
  -Hartree energ DENC   =    -63210.11736668
  -exchange      EXHF   =         0.00000000
  -V(xc)+E(xc)   XCENC  =       364.13511028
  PAW double counting   =     10615.37395020   -11477.34281625
  entropy T*S    EENTRO =        -0.01329357
  eigenvalues    EBANDS =        -7.65307160
  atomic energy  EATOM  =     11152.61838693
  Solvation  Ediel_sol  =         0.00000000
  ---------------------------------------------------
  free energy    TOTEN  =       -35.34648362 eV

  energy without entropy =      -35.33319005  energy(sigma->0) =      -35.34205243


--------------------------------------------------------------------------------------------------------




--------------------------------------- Iteration      1(  18)  ---------------------------------------


    POTLOK:  cpu time      0.0200: real time      0.0203
    SETDIJ:  cpu time      0.0061: real time      0.0061
     EDDAV:  cpu time      0.3325: real time      0.3360
       DOS:  cpu time      0.0009: real time      0.0009
    CHARGE:  cpu time      0.0523: real time      0.0526
    MIXING:  cpu time      0.0013: real time      0.0013
    --------------------------------------------
      LOOP:  cpu time      0.4131: real time      0.4171

 eigenvalue-minimisations  :  1252
 total energy-change (2. order) :-0.4775826E+00  (-0.5070373E-01)
 number of electron      89.9999977 magnetization       1.1505722
 augmentation part       56.1019756 magnetization       0.6751506

 Broyden mixing:
  rms(total) = 0.12539E+00    rms(broyden)= 0.12538E+00
  rms(prec ) = 0.13633E+00
  weight for this iteration     100.00

 eigenvalues of (default mixing * dielectric matrix)
  average eigenvalue GAMMA=   1.6121
 11.8082  2.1868  1.1672  0.8064  0.8064  0.0817  0.9688  0.7868  0.7868  0.2254
  0.3883  0.3883  0.5560

 Free energy of the ion-electron system (eV)
  ---------------------------------------------------
  alpha Z        PSCENC =       285.34744303
  Ewald energy   TEWEN  =     52242.30517405
  -Hartree energ DENC   =    -63220.57941226
  -exchange      EXHF   =         0.00000000
  -V(xc)+E(xc)   XCENC  =       364.19038468
  PAW double counting   =     10602.83953863   -11465.64760117
  entropy T*S    EENTRO =        -0.00875192
  eigenvalues    EBANDS =         3.11077178
  atomic energy  EATOM  =     11152.61838693
  Solvation  Ediel_sol  =         0.00000000
  ---------------------------------------------------
  free energy    TOTEN  =       -35.82406624 eV

  energy without entropy =      -35.81531432  energy(sigma->0) =      -35.82114893


--------------------------------------------------------------------------------------------------------




--------------------------------------- Iteration      1(  19)  ---------------------------------------


    POTLOK:  cpu time      0.0189: real time      0.0192
    SETDIJ:  cpu time      0.0059: real time      0.0059
     EDDAV:  cpu time      0.3491: real time      0.3518
       DOS:  cpu time      0.0009: real time      0.0009
    CHARGE:  cpu time      0.0534: real time      0.0537
    MIXING:  cpu time      0.0014: real time      0.0014
    --------------------------------------------
      LOOP:  cpu time      0.4297: real time      0.4329

 eigenvalue-minimisations  :  1340
 total energy-change (2. order) :-0.2366793E+00  (-0.1923436E-01)
 number of electron      89.9999977 magnetization       0.9977436
 augmentation part       56.1173247 magnetization       0.5966411

 Broyden mixing:
  rms(total) = 0.95277E-01    rms(broyden)= 0.95266E-01
  rms(prec ) = 0.10428E+00
  weight for this iteration     100.00

 eigenvalues of (default mixing * dielectric matrix)
  average eigenvalue GAMMA=   1.5929
 12.1074  2.3827  1.0300  1.0300  1.0663  0.7772  0.7772  0.0817  0.8411  0.2254
  0.3881  0.3881  0.6030  0.6030

 Free energy of the ion-electron system (eV)
  ---------------------------------------------------
  alpha Z        PSCENC =       285.34744303
  Ewald energy   TEWEN  =     52242.30517405
  -Hartree energ DENC   =    -63217.18786572
  -exchange      EXHF   =         0.00000000
  -V(xc)+E(xc)   XCENC  =       363.93752555
  PAW double counting   =     10583.98349407   -11445.98800028
  entropy T*S    EENTRO =        -0.01106226
  eigenvalues    EBANDS =        -1.06584093
  atomic energy  EATOM  =     11152.61838693
  Solvation  Ediel_sol  =         0.00000000
  ---------------------------------------------------
  free energy    TOTEN  =       -36.06074555 eV

  energy without entropy =      -36.04968330  energy(sigma->0) =      -36.05705814


--------------------------------------------------------------------------------------------------------




--------------------------------------- Iteration      1(  20)  ---------------------------------------


    POTLOK:  cpu time      0.0190: real time      0.0193
    SETDIJ:  cpu time      0.0058: real time      0.0058
     EDDAV:  cpu time      0.3261: real time      0.3288
       DOS:  cpu time      0.0009: real time      0.0009
    CHARGE:  cpu time      0.0553: real time      0.0556
    MIXING:  cpu time      0.0015: real time      0.0015
    --------------------------------------------
      LOOP:  cpu time      0.4087: real time      0.4120

 eigenvalue-minimisations  :  1232
 total energy-change (2. order) :-0.1775344E+00  (-0.1136471E-01)
 number of electron      89.9999976 magnetization       0.7912061
 augmentation part       56.1735423 magnetization       0.4460485

 Broyden mixing:
  rms(total) = 0.78678E-01    rms(broyden)= 0.78665E-01
  rms(prec ) = 0.81204E-01
  weight for this iteration     100.00

 eigenvalues of (default mixing * dielectric matrix)
  average eigenvalue GAMMA=   1.6597
 12.7609  2.6981  1.8061  1.1436  1.1436  0.7863  0.7863  0.0817  0.7766  0.7766
  0.2254  0.3882  0.3882  0.6004  0.5330

 Free energy of the ion-electron system (eV)
  ---------------------------------------------------
  alpha Z        PSCENC =       285.34744303
  Ewald energy   TEWEN  =     52242.30517405
  -Hartree energ DENC   =    -63210.10952713
  -exchange      EXHF   =         0.00000000
  -V(xc)+E(xc)   XCENC  =       363.68336913
  PAW double counting   =     10570.67718131   -11432.06947169
  entropy T*S    EENTRO =        -0.01576192
  eigenvalues    EBANDS =        -8.67507362
  atomic energy  EATOM  =     11152.61838693
  Solvation  Ediel_sol  =         0.00000000
  ---------------------------------------------------
  free energy    TOTEN  =       -36.23827992 eV

  energy without entropy =      -36.22251800  energy(sigma->0) =      -36.23302595


--------------------------------------------------------------------------------------------------------




--------------------------------------- Iteration      1(  21)  ---------------------------------------


    POTLOK:  cpu time      0.0189: real time      0.0191
    SETDIJ:  cpu time      0.0057: real time      0.0058
     EDDAV:  cpu time      0.3598: real time      0.3626
       DOS:  cpu time      0.0009: real time      0.0009
    CHARGE:  cpu time      0.0553: real time      0.0555
    MIXING:  cpu time      0.0016: real time      0.0016
    --------------------------------------------
      LOOP:  cpu time      0.4423: real time      0.4455

 eigenvalue-minimisations  :  1380
 total energy-change (2. order) :-0.1121429E+00  (-0.7301100E-02)
 number of electron      89.9999976 magnetization       0.6464613
 augmentation part       56.2070102 magnetization       0.3648778

 Broyden mixing:
  rms(total) = 0.61643E-01    rms(broyden)= 0.61628E-01
  rms(prec ) = 0.63863E-01
  weight for this iteration     100.00

 eigenvalues of (default mixing * dielectric matrix)
  average eigenvalue GAMMA=   1.6807
 13.2812  3.3300  2.0536  1.0834  1.0834  0.0817  0.7830  0.7830  0.2254  0.7826
  0.7826  0.3881  0.3881  0.6674  0.6674  0.5100

 Free energy of the ion-electron system (eV)
  ---------------------------------------------------
  alpha Z        PSCENC =       285.34744303
  Ewald energy   TEWEN  =     52242.30517405
  -Hartree energ DENC   =    -63203.09059294
  -exchange      EXHF   =         0.00000000
  -V(xc)+E(xc)   XCENC  =       363.55289435
  PAW double counting   =     10562.59862804   -11423.92815315
  entropy T*S    EENTRO =        -0.02081036
  eigenvalues    EBANDS =       -15.73339280
  atomic energy  EATOM  =     11152.61838693
  Solvation  Ediel_sol  =         0.00000000
  ---------------------------------------------------
  free energy    TOTEN  =       -36.35042285 eV

  energy without entropy =      -36.32961249  energy(sigma->0) =      -36.34348606


--------------------------------------------------------------------------------------------------------




--------------------------------------- Iteration      1(  22)  ---------------------------------------


    POTLOK:  cpu time      0.0189: real time      0.0192
    SETDIJ:  cpu time      0.0059: real time      0.0060
     EDDAV:  cpu time      0.3125: real time      0.3149
       DOS:  cpu time      0.0010: real time      0.0010
    CHARGE:  cpu time      0.0567: real time      0.0570
    MIXING:  cpu time      0.0017: real time      0.0017
    --------------------------------------------
      LOOP:  cpu time      0.3967: real time      0.3997

 eigenvalue-minimisations  :  1168
 total energy-change (2. order) :-0.5141141E-01  (-0.4034218E-02)
 number of electron      89.9999976 magnetization       0.4549845
 augmentation part       56.1874948 magnetization       0.2145028

 Broyden mixing:
  rms(total) = 0.51252E-01    rms(broyden)= 0.51244E-01
  rms(prec ) = 0.51995E-01
  weight for this iteration     100.00

 eigenvalues of (default mixing * dielectric matrix)
  average eigenvalue GAMMA=   1.7537
 13.9307  4.1008  2.1203  1.5076  1.0866  1.0866  0.7816  0.7816  0.9110  0.0817
  0.7009  0.7009  0.2254  0.5670  0.3881  0.3881  0.4534

 Free energy of the ion-electron system (eV)
  ---------------------------------------------------
  alpha Z        PSCENC =       285.34744303
  Ewald energy   TEWEN  =     52242.30517405
  -Hartree energ DENC   =    -63202.61755951
  -exchange      EXHF   =         0.00000000
  -V(xc)+E(xc)   XCENC  =       363.55957885
  PAW double counting   =     10562.85539986   -11424.48307424
  entropy T*S    EENTRO =        -0.02267086
  eigenvalues    EBANDS =       -15.96451237
  atomic energy  EATOM  =     11152.61838693
  Solvation  Ediel_sol  =         0.00000000
  ---------------------------------------------------
  free energy    TOTEN  =       -36.40183427 eV

  energy without entropy =      -36.37916341  energy(sigma->0) =      -36.39427731


--------------------------------------------------------------------------------------------------------




--------------------------------------- Iteration      1(  23)  ---------------------------------------


    POTLOK:  cpu time      0.0189: real time      0.0192
    SETDIJ:  cpu time      0.0058: real time      0.0058
     EDDAV:  cpu time      0.3206: real time      0.3237
       DOS:  cpu time      0.0010: real time      0.0010
    CHARGE:  cpu time      0.0579: real time      0.0582
    MIXING:  cpu time      0.0018: real time      0.0018
    --------------------------------------------
      LOOP:  cpu time      0.4060: real time      0.4096

 eigenvalue-minimisations  :  1208
 total energy-change (2. order) :-0.6793865E-01  (-0.3886256E-02)
 number of electron      89.9999976 magnetization       0.3366087
 augmentation part       56.1551963 magnetization       0.1425436

 Broyden mixing:
  rms(total) = 0.36435E-01    rms(broyden)= 0.36424E-01
  rms(prec ) = 0.38219E-01
  weight for this iteration     100.00

 eigenvalues of (default mixing * dielectric matrix)
  average eigenvalue GAMMA=   1.8274
 14.4159  5.1930  2.2310  1.9403  1.0994  1.0994  0.0817  0.7817  0.7817  0.9013
  0.9013  0.2254  0.7218  0.7218  0.3881  0.3881  0.5631  0.4572

 Free energy of the ion-electron system (eV)
  ---------------------------------------------------
  alpha Z        PSCENC =       285.34744303
  Ewald energy   TEWEN  =     52242.30517405
  -Hartree energ DENC   =    -63201.22732743
  -exchange      EXHF   =         0.00000000
  -V(xc)+E(xc)   XCENC  =       363.56179779
  PAW double counting   =     10569.36449752   -11431.55097506
  entropy T*S    EENTRO =        -0.02381358
  eigenvalues    EBANDS =       -16.86495616
  atomic energy  EATOM  =     11152.61838693
  Solvation  Ediel_sol  =         0.00000000
  ---------------------------------------------------
  free energy    TOTEN  =       -36.46977291 eV

  energy without entropy =      -36.44595933  energy(sigma->0) =      -36.46183505


--------------------------------------------------------------------------------------------------------




--------------------------------------- Iteration      1(  24)  ---------------------------------------


    POTLOK:  cpu time      0.0189: real time      0.0192
    SETDIJ:  cpu time      0.0058: real time      0.0058
     EDDAV:  cpu time      0.3017: real time      0.3042
       DOS:  cpu time      0.0009: real time      0.0009
    CHARGE:  cpu time      0.0551: real time      0.0553
    MIXING:  cpu time      0.0019: real time      0.0019
    --------------------------------------------
      LOOP:  cpu time      0.3844: real time      0.3873

 eigenvalue-minimisations  :  1120
 total energy-change (2. order) :-0.2933403E+00  (-0.2574518E-02)
 number of electron      89.9999976 magnetization       0.2370883
 augmentation part       56.1972253 magnetization       0.0889562

 Broyden mixing:
  rms(total) = 0.33558E-01    rms(broyden)= 0.33546E-01
  rms(prec ) = 0.35259E-01
  weight for this iteration     100.00

 eigenvalues of (default mixing * dielectric matrix)
  average eigenvalue GAMMA=   1.9338
 15.1356  6.5234  2.8376  2.0368  1.0766  1.0766  1.1383  1.1383  0.7809  0.7809
  0.0817  0.2254  0.7228  0.7228  0.3881  0.3881  0.6645  0.5642  0.4596

 Free energy of the ion-electron system (eV)
  ---------------------------------------------------
  alpha Z        PSCENC =       285.34744303
  Ewald energy   TEWEN  =     52242.30517405
  -Hartree energ DENC   =    -63195.64097343
  -exchange      EXHF   =         0.00000000
  -V(xc)+E(xc)   XCENC  =       363.20533578
  PAW double counting   =     10572.11339104   -11434.15729008
  entropy T*S    EENTRO =        -0.02392892
  eigenvalues    EBANDS =       -22.53065166
  atomic energy  EATOM  =     11152.61838693
  Solvation  Ediel_sol  =         0.00000000
  ---------------------------------------------------
  free energy    TOTEN  =       -36.76311325 eV

  energy without entropy =      -36.73918434  energy(sigma->0) =      -36.75513695


--------------------------------------------------------------------------------------------------------




--------------------------------------- Iteration      1(  25)  ---------------------------------------


    POTLOK:  cpu time      0.0188: real time      0.0191
    SETDIJ:  cpu time      0.0057: real time      0.0058
     EDDAV:  cpu time      0.3235: real time      0.3262
       DOS:  cpu time      0.0010: real time      0.0010
    CHARGE:  cpu time      0.0552: real time      0.0555
    MIXING:  cpu time      0.0021: real time      0.0021
    --------------------------------------------
      LOOP:  cpu time      0.4063: real time      0.4096

 eigenvalue-minimisations  :  1224
 total energy-change (2. order) :-0.1722505E+00  (-0.1309477E-02)
 number of electron      89.9999976 magnetization       0.1653227
 augmentation part       56.1838303 magnetization       0.0360574

 Broyden mixing:
  rms(total) = 0.23301E-01    rms(broyden)= 0.23291E-01
  rms(prec ) = 0.25611E-01
  weight for this iteration     100.00

 eigenvalues of (default mixing * dielectric matrix)
  average eigenvalue GAMMA=   2.0284
 16.0333  7.8268  3.3252  1.8241  1.7882  1.1078  1.1078  0.0817  0.7818  0.7818
  0.9248  0.9248  0.2254  0.3881  0.3881  0.6954  0.6954  0.6532  0.5557  0.4585

 Free energy of the ion-electron system (eV)
  ---------------------------------------------------
  alpha Z        PSCENC =       285.34744303
  Ewald energy   TEWEN  =     52242.30517405
  -Hartree energ DENC   =    -63196.75712212
  -exchange      EXHF   =         0.00000000
  -V(xc)+E(xc)   XCENC  =       363.06262714
  PAW double counting   =     10576.12187606   -11438.24185661
  entropy T*S    EENTRO =        -0.02380778
  eigenvalues    EBANDS =       -21.36808441
  atomic energy  EATOM  =     11152.61838693
  Solvation  Ediel_sol  =         0.00000000
  ---------------------------------------------------
  free energy    TOTEN  =       -36.93536372 eV

  energy without entropy =      -36.91155594  energy(sigma->0) =      -36.92742779


--------------------------------------------------------------------------------------------------------




--------------------------------------- Iteration      1(  26)  ---------------------------------------


[...]
      2      -3.6850      1.00000
      3      -3.3954      1.00000
      4      -2.9869      1.00000
      5      -2.5525      1.00000
      6      -2.1675      1.00000
      7      -1.8385      1.00000
      8      -1.6606      1.00000
      9      -1.5873      1.00000
     10      -1.4869      1.00000
     11      -1.4232      1.00000
     12      -1.2052      1.00000
     13      -1.0153      1.00000
     14      -0.8659      1.00000
     15      -0.6920      1.00000
     16      -0.6745      1.00000
     17      -0.5393      1.00000
     18      -0.4761      1.00000
     19      -0.4207      1.00000
     20      -0.3308      1.00000
     21      -0.3250      1.00000
     22      -0.2354      1.00000
     23      -0.1178      1.00000
     24      -0.0883      1.00000
     25       0.0605      1.00000
     26       0.1646      1.00000
     27       0.2769      1.00000
     28       0.3683      1.00000
     29       0.4285      1.00000
     30       0.5255      1.00000
     31       0.5373      1.00000
     32       0.6109      1.00000
     33       0.6314      1.00000
     34       0.6832      1.00000
     35       0.7097      1.00000
     36       0.7613      1.00000
     37       0.7913      1.00000
     38       0.8003      1.00000
     39       0.9005      1.00000
     40       0.9207      1.00000
     41       1.0470      1.00000
     42       1.1702      1.00000
     43       1.1734      1.00000
     44       1.1895      1.00000
     45       1.3493      1.00000
     46       1.9774      0.78525
     47       3.0883     -0.00000
     48       4.4415     -0.00000
     49       5.9296     -0.00000
     50       7.1300     -0.00000
     51       8.4236      0.00000
     52       9.0636      0.00000
     53       9.4648      0.00000
     54       9.8910      0.00000
     55      10.1455      0.00000
     56      10.8241      0.00000
     57      10.9629      0.00000
     58      11.5251      0.00000
     59      11.8522      0.00000
     60      12.0922      0.00000

 k-point     4 :      -0.3333    0.3333    0.0000
  band No.  band energies     occupation 
      1      -2.5398      1.00000
      2      -1.5791      1.00000
      3      -1.5686      1.00000
      4      -1.5652      1.00000
      5      -1.5007      1.00000
      6      -1.4614      1.00000
      7      -1.4444      1.00000
      8      -1.4137      1.00000
      9      -1.4087      1.00000
     10      -1.3953      1.00000
     11      -1.3901      1.00000
     12      -1.3557      1.00000
     13      -1.2583      1.00000
     14      -1.1547      1.00000
     15      -1.1165      1.00000
     16      -1.0371      1.00000
     17      -0.7411      1.00000
     18      -0.6972      1.00000
     19      -0.6927      1.00000
     20      -0.6254      1.00000
     21      -0.4710      1.00000
     22      -0.3697      1.00000
     23       0.0123      1.00000
     24       0.0910      1.00000
     25       0.2120      1.00000
     26       0.2272      1.00000
     27       0.3002      1.00000
     28       0.3012      1.00000
     29       0.3306      1.00000
     30       0.3393      1.00000
     31       0.3514      1.00000
     32       0.6124      1.00000
     33       0.7039      1.00000
     34       0.8201      1.00000
     35       0.8306      1.00000
     36       0.8529      1.00000
     37       0.9264      1.00000
     38       0.9704      1.00000
     39       0.9768      1.00000
     40       1.0463      1.00000
     41       1.1194      1.00000
     42       5.7444     -0.00000
     43       5.7490     -0.00000
     44       5.7719     -0.00000
     45       5.9191     -0.00000
     46       5.9421     -0.00000
     47       6.1832     -0.00000
     48       6.3303     -0.00000
     49       6.8752     -0.00000
     50       7.0789     -0.00000
     51       7.6511      0.00000
     52       7.6622      0.00000
     53       7.7856      0.00000
     54       8.2007      0.00000
     55       8.2212      0.00000
     56       8.7576      0.00000
     57       9.1904      0.00000
     58       9.3142      0.00000
     59      10.4576      0.00000
     60      11.0089      0.00000


--------------------------------------------------------------------------------------------------------


 soft charge-density along one line, spin component           1
         0         1         2         3         4         5         6         7         8         9
 total charge-density along one line
 
 soft charge-density along one line, spin component           2
         0         1         2         3         4         5         6         7         8         9
 total charge-density along one line
 
 pseudopotential strength for first ion, spin component:           1
 -6.028  -0.000   0.000  -0.004   0.000  -2.359   0.000  -0.000
 -0.000  -6.081   0.000   0.000  -0.004   0.000  -2.323  -0.000
  0.000   0.000  -6.106  -0.000   0.000  -0.000  -0.000  -2.305
 -0.004   0.000  -0.000  -6.081  -0.000   0.003  -0.000   0.000
  0.000  -0.004   0.000  -0.000  -6.028  -0.000   0.003  -0.000
 -2.359   0.000  -0.000   0.003  -0.000   8.640  -0.000   0.000
  0.000  -2.323  -0.000  -0.000   0.003  -0.000   8.618   0.000
 -0.000  -0.000  -2.305   0.000  -0.000   0.000   0.000   8.605
  0.003  -0.000   0.000  -2.323   0.000  -0.002  -0.000  -0.000
 -0.000   0.003  -0.000   0.000  -2.359   0.000  -0.002   0.000
  0.000  -0.000   0.003   0.000   0.000   0.000   0.000   0.001
  0.000  -0.000   0.005   0.000   0.000   0.000   0.000   0.003
  0.000  -0.013   0.000  -0.000   0.000   0.000   0.012  -0.000
 -0.000  -0.000  -0.011  -0.000   0.000  -0.000   0.000   0.010
  0.000  -0.000  -0.000  -0.013   0.000   0.000  -0.000  -0.000
  0.000  -0.014   0.000   0.000   0.000   0.000   0.014  -0.000
  0.000  -0.000  -0.012   0.000   0.000  -0.000   0.000   0.011
  0.000   0.000  -0.000  -0.014   0.000   0.000  -0.000  -0.000
 pseudopotential strength for first ion, spin component:           2
 -6.028  -0.000   0.000  -0.004   0.000  -2.359   0.000  -0.000
 -0.000  -6.081   0.000   0.000  -0.004   0.000  -2.323  -0.000
  0.000   0.000  -6.106  -0.000   0.000  -0.000  -0.000  -2.305
 -0.004   0.000  -0.000  -6.081  -0.000   0.003  -0.000   0.000
  0.000  -0.004   0.000  -0.000  -6.028  -0.000   0.003  -0.000
 -2.359   0.000  -0.000   0.003  -0.000   8.640  -0.000   0.000
  0.000  -2.323  -0.000  -0.000   0.003  -0.000   8.618   0.000
 -0.000  -0.000  -2.305   0.000  -0.000   0.000   0.000   8.605
  0.003  -0.000   0.000  -2.323   0.000  -0.002  -0.000  -0.000
 -0.000   0.003  -0.000   0.000  -2.359   0.000  -0.002   0.000
  0.000  -0.000   0.003   0.000   0.000   0.000   0.000   0.001
  0.000  -0.000   0.005   0.000   0.000   0.000   0.000   0.003
  0.000  -0.013   0.000  -0.000   0.000   0.000   0.012  -0.000
 -0.000  -0.000  -0.011  -0.000   0.000  -0.000   0.000   0.010
  0.000  -0.000  -0.000  -0.013   0.000   0.000  -0.000  -0.000
  0.000  -0.014   0.000   0.000   0.000   0.000   0.014  -0.000
  0.000  -0.000  -0.012   0.000   0.000  -0.000   0.000   0.011
  0.000   0.000  -0.000  -0.014   0.000   0.000  -0.000  -0.000
 total augmentation occupancy for first ion, spin component:           1
  1.932   0.000  -0.000  -0.004   0.000  -0.016  -0.000   0.000   0.005  -0.000   0.000  -0.000  -0.000  -0.000   0.006   0.000
  0.000   1.928   0.000   0.000  -0.004  -0.000  -0.024  -0.000  -0.000   0.005   0.000  -0.000   0.007   0.000   0.000  -0.013
 -0.000   0.000   1.915   0.000   0.000   0.000  -0.000  -0.018  -0.000   0.000  -0.066   0.028   0.000   0.076  -0.000  -0.000
 -0.004   0.000   0.000   1.928  -0.000   0.005  -0.000  -0.000  -0.024   0.000   0.000  -0.000   0.000   0.000   0.007  -0.000
  0.000  -0.004   0.000  -0.000   1.932  -0.000   0.005   0.000   0.000  -0.016   0.000  -0.000   0.006   0.000   0.000  -0.001
 -0.016  -0.000   0.000   0.005  -0.000   0.013  -0.000  -0.000   0.000   0.000   0.000  -0.000  -0.000  -0.000   0.004   0.000
 -0.000  -0.024  -0.000  -0.000   0.005  -0.000   0.010   0.000   0.000   0.000  -0.000  -0.000   0.019   0.000   0.000  -0.001
  0.000  -0.000  -0.018  -0.000   0.000  -0.000   0.000   0.012  -0.000   0.000  -0.022   0.001  -0.000   0.021  -0.000   0.000
  0.005  -0.000  -0.000  -0.024   0.000   0.000   0.000  -0.000   0.010   0.000  -0.000  -0.000   0.000   0.000   0.019  -0.000
 -0.000   0.005   0.000   0.000  -0.016   0.000   0.000   0.000   0.000   0.013  -0.000  -0.000   0.004   0.000   0.000  -0.000
  0.000   0.000  -0.066   0.000   0.000   0.000  -0.000  -0.022  -0.000  -0.000   1.752  -0.149   0.000   0.175   0.000  -0.000
 -0.000  -0.000   0.028  -0.000  -0.000  -0.000  -0.000   0.001  -0.000  -0.000  -0.149   0.018  -0.000  -0.025  -0.000  -0.000
 -0.000   0.007   0.000   0.000   0.006  -0.000   0.019  -0.000   0.000   0.004   0.000  -0.000   0.234  -0.000   0.000  -0.015
 -0.000   0.000   0.076   0.000   0.000  -0.000   0.000   0.021   0.000   0.000   0.175  -0.025  -0.000   0.113  -0.000   0.000
  0.006   0.000  -0.000   0.007   0.000   0.004   0.000  -0.000   0.019   0.000   0.000  -0.000   0.000  -0.000   0.234  -0.000
  0.000  -0.013  -0.000  -0.000  -0.001   0.000  -0.001   0.000  -0.000  -0.000  -0.000  -0.000  -0.015   0.000  -0.000   0.001
  0.000   0.000  -0.020   0.000   0.000   0.000  -0.000  -0.001  -0.000  -0.000  -0.023   0.003   0.000  -0.009   0.000  -0.000
 -0.001  -0.000   0.000  -0.013  -0.000  -0.000  -0.000   0.000  -0.001  -0.000  -0.000  -0.000  -0.000   0.000  -0.015   0.000
 total augmentation occupancy for first ion, spin component:           2
  0.000  -0.000  -0.000   0.000   0.000   0.000  -0.000  -0.000   0.000   0.000  -0.000  -0.000   0.000   0.000  -0.000   0.000
 -0.000  -0.000   0.000  -0.000   0.000  -0.000   0.000   0.000   0.000   0.000  -0.000   0.000  -0.000   0.000  -0.000  -0.000
 -0.000   0.000   0.000   0.000  -0.000  -0.000   0.000   0.000  -0.000  -0.000   0.000   0.000  -0.000  -0.000   0.000  -0.000
  0.000  -0.000   0.000  -0.000   0.000   0.000   0.000   0.000   0.000   0.000  -0.000   0.000  -0.000   0.000  -0.000  -0.000
  0.000   0.000  -0.000   0.000  -0.000   0.000   0.000  -0.000   0.000   0.000   0.000  -0.000  -0.000   0.000  -0.000  -0.000
  0.000  -0.000  -0.000   0.000   0.000   0.000  -0.000  -0.000  -0.000  -0.000   0.000   0.000  -0.000  -0.000   0.000   0.000
 -0.000   0.000   0.000   0.000   0.000  -0.000  -0.000   0.000  -0.000  -0.000  -0.000  -0.000  -0.000   0.000  -0.000   0.000
 -0.000   0.000   0.000   0.000  -0.000  -0.000   0.000   0.000   0.000   0.000  -0.000  -0.000   0.000   0.000  -0.000   0.000
  0.000   0.000  -0.000   0.000   0.000  -0.000  -0.000   0.000  -0.000  -0.000  -0.000  -0.000  -0.000   0.000  -0.000   0.000
  0.000   0.000  -0.000   0.000   0.000  -0.000  -0.000   0.000  -0.000   0.000  -0.000   0.000   0.000   0.000   0.000  -0.000
 -0.000  -0.000   0.000  -0.000   0.000   0.000  -0.000  -0.000  -0.000  -0.000   0.000  -0.000  -0.000  -0.000  -0.000  -0.000
 -0.000   0.000   0.000   0.000  -0.000   0.000  -0.000  -0.000  -0.000   0.000  -0.000   0.000   0.000  -0.000   0.000   0.000
  0.000  -0.000  -0.000  -0.000  -0.000  -0.000  -0.000   0.000  -0.000   0.000  -0.000   0.000   0.000   0.000   0.000  -0.000
  0.000   0.000  -0.000   0.000   0.000  -0.000   0.000   0.000   0.000   0.000  -0.000  -0.000   0.000   0.000   0.000   0.000
 -0.000  -0.000   0.000  -0.000  -0.000   0.000  -0.000  -0.000  -0.000   0.000  -0.000   0.000   0.000   0.000   0.000  -0.000
  0.000  -0.000  -0.000  -0.000  -0.000   0.000   0.000   0.000   0.000  -0.000  -0.000   0.000  -0.000   0.000  -0.000   0.000
  0.000  -0.000  -0.000  -0.000   0.000   0.000  -0.000  -0.000  -0.000  -0.000   0.000   0.000   0.000  -0.000   0.000  -0.000
 -0.000  -0.000   0.000  -0.000  -0.000  -0.000   0.000   0.000   0.000  -0.000  -0.000   0.000  -0.000   0.000  -0.000   0.000


------------------------ aborting loop because EDIFF is reached ----------------------------------------


    CHARGE:  cpu time      0.0553: real time      0.0555
    FORLOC:  cpu time      0.0010: real time      0.0011
    FORNL :  cpu time      0.1221: real time      0.1226
    STRESS:  cpu time      0.1365: real time      0.1370
    FORCOR:  cpu time      0.0185: real time      0.0186
    FORHAR:  cpu time      0.0029: real time      0.0029
    MIXING:  cpu time      0.0004: real time      0.0004
    OFIELD:  cpu time      0.0000: real time      0.0000

 ---------------------------------------------------------------------------------------------

         DFTD3 V3.0 Rev 1        
 Edisp (eV)   -3.67470

 E6    (eV) :    -1.5337
 E8    (eV) :    -2.1410
 % E8        : 58.26
    FORVDW:  cpu time      0.0724: real time      0.0726

  FORCE on cell =-STRESS in cart. coord.  units (eV):
  Direction    XX          YY          ZZ          XY          YZ          ZX
  --------------------------------------------------------------------------------------
  Alpha Z   285.34744   285.34744   285.34744
  Ewald   59159.65315 59154.48770-65039.53735    -0.00000    -0.03852    -0.00000
  Hartree 62395.67289 62393.06326-60575.41300     0.00000     0.03790    -0.00000
  E(xc)    -521.00220  -521.01960  -521.08455    -0.00013    -0.00154     0.00000
  Local  ************************124546.50510     0.00403    -0.05531    -0.00001
  n-local  -174.71794  -174.70150  -180.02051     4.01000     0.00914     1.32288
  augment   759.76789   759.81288   753.57582    -0.00385     0.00280    -0.00001
  Kinetic   742.42861   742.69011   734.06256   -15.22671     0.04972     2.58799
  Fock        0.00000     0.00000     0.00000     0.00000     0.00000     0.00000
  vdW        -4.33809    -4.39416    -3.77478     0.00000    -0.00014     0.00000
  -------------------------------------------------------------------------------------
  Total      -4.43349    -4.46242    -0.33926    -0.00000     0.00405     0.00000
  in kB     -41.95832   -42.23208    -3.21075    -0.00000     0.03836     0.00000
  external pressure =      -29.13 kB  Pullay stress =        0.00 kB


 VOLUME and BASIS-vectors are now :
 -----------------------------------------------------------------------------
  energy-cutoff  :      400.00
  volume of cell :      169.29
      direct lattice vectors                 reciprocal lattice vectors
     2.566797733  0.000000000  0.000000000     0.389590495 -0.224930177  0.000000000
     1.283398867  2.222912043  0.000000000     0.000000000  0.449860355  0.000000000
     0.000000000  0.000000000 29.670471191     0.000000000  0.000000000  0.033703543

  length of vectors
     2.566797733  2.566797733 29.670471191     0.449860355  0.449860355  0.033703543


 FORCES acting on ions
    electron-ion (+dipol)            ewald-force                    non-local-force                 convergence-correction
 -----------------------------------------------------------------------------------------------
   -.318E-05 0.509E-02 0.607E+04   0.104E-07 -.718E-02 -.607E+04   0.482E-13 0.214E-02 -.360E+01   -.107E-08 0.270E-04 -.949E-02
   0.173E-05 -.457E-02 0.437E+04   -.263E-07 0.535E-02 -.437E+04   -.195E-13 -.865E-03 0.220E+00   0.211E-07 -.449E-04 -.182E+00
   -.107E-04 0.125E-01 0.267E+04   0.254E-07 -.130E-01 -.267E+04   0.109E-13 0.484E-03 0.733E-01   -.161E-07 -.141E-04 -.326E+00
   0.115E-05 -.234E-01 0.982E+03   0.530E-09 0.246E-01 -.981E+03   -.257E-13 -.114E-02 -.773E+00   -.365E-07 -.568E-05 -.357E+00
   0.425E-05 0.229E-01 -.726E+03   -.256E-07 -.243E-01 0.726E+03   0.312E-13 0.139E-02 0.796E+00   -.310E-07 0.178E-04 -.333E+00
   -.192E-05 -.279E-01 -.242E+04   0.255E-07 0.289E-01 0.242E+04   -.242E-13 -.108E-02 -.649E-01   -.295E-09 0.527E-05 -.267E+00
   0.137E-05 0.282E-01 -.412E+04   0.796E-09 -.281E-01 0.412E+04   -.290E-15 -.133E-04 0.230E-01   0.229E-07 -.646E-04 -.102E+00
   0.797E-05 0.350E-02 -.583E+04   -.113E-07 0.207E-02 0.583E+04   -.120E-12 -.535E-02 0.454E+01   -.891E-08 -.525E-04 0.538E-01
   -.147E-07 -.134E+00 -.508E+03   0.575E-09 0.169E+00 0.503E+03   -.791E-12 -.352E-01 0.474E+01   -.585E-09 -.189E-05 0.185E-01
   -.893E-07 0.123E+00 -.489E+03   0.641E-10 -.157E+00 0.494E+03   0.789E-12 0.351E-01 -.482E+01   -.421E-09 -.260E-05 0.202E-01
 -----------------------------------------------------------------------------------------------
   0.620E-06 0.528E-02 0.373E+00   0.219E-12 -.563E-13 0.284E-11   -.103E-12 -.456E-02 0.113E+01   -.509E-07 -.136E-03 -.148E+01
 
 
 POSITION                                       TOTAL-FORCE (eV/Angst)
 -----------------------------------------------------------------------------------
      0.00000      0.00027      0.02685         0.000000      0.000017      0.005459
      1.28340      0.74098      2.02344        -0.000000     -0.000178     -0.017719
      2.56680      1.48188      4.04557        -0.000000     -0.000097     -0.009415
     -0.00000     -0.00065      6.07807        -0.000000     -0.000014     -0.003454
      1.28340      0.74069      8.08952        -0.000000     -0.000038      0.005799
      2.56680      1.48108     10.11938        -0.000000     -0.000055     -0.000191
     -0.00000     -0.00031     12.13694        -0.000000     -0.000115     -0.020021
      1.28340      0.74039     14.12751        -0.000000     -0.000029      0.008509
      2.56680      0.74493     16.23295         0.000000      0.000533      0.029709
      2.56680      0.73949     16.99368        -0.000000     -0.000023      0.001324
 -----------------------------------------------------------------------------------
    total drift:                                0.000001      0.000585      0.021532


--------------------------------------------------------------------------------------------------------



  FREE ENERGIE OF THE ION-ELECTRON SYSTEM (eV)
  ---------------------------------------------------
  free  energy   TOTEN  =       -40.87924503 eV

  energy  without entropy=      -40.85258320  energy(sigma->0) =      -40.87035775
 
 d Force = 0.3790561E-05[-0.276E-08, 0.758E-05]  d Energy = 0.8350996E-05-0.456E-05
 d Force = 0.7927509E-02[ 0.792E-02, 0.793E-02]  d Ewald  = 0.7927509E-02 0.728E-10


--------------------------------------------------------------------------------------------------------


    POTLOK:  cpu time      0.0255: real time      0.0258


--------------------------------------------------------------------------------------------------------


 stress matrix after NEB project (eV)
     -4.43349     -0.00000      0.00000
     -0.00000     -4.46242      0.00405
      0.00000      0.00405     -0.33926
  FORCES: max atom, RMS     0.029713    0.013550
  FORCE total and by dimension    0.042848    0.029709
  Stress total and by dimension    6.299536    4.462418


--------------------------------------------------------------------------------------------------------


  
 reached required accuracy - stopping structural energy minimisation
     LOOP+:  cpu time      0.9178: real time      0.9551
    4ORBIT:  cpu time      0.0000: real time      0.0000

 total amount of memory used by VASP MPI-rank0    34706. kBytes
=======================================================================

   base      :      30000. kBytes
   nonl-proj :        813. kBytes
   fftplans  :        716. kBytes
   grid      :       1856. kBytes
   one-center:         62. kBytes
   wavefun   :       1259. kBytes
 
  
  
 General timing and accounting informations for this job:
 ========================================================
  
                  Total CPU time used (sec):      134.771
                            User time (sec):      133.984
                          System time (sec):        0.788
                         Elapsed time (sec):      138.969
  
                   Maximum memory used (kb):      233196.
                   Average memory used (kb):          N/A
  
                          Minor page faults:       259745
                          Major page faults:         6534
                 Voluntary context switches:         4162
