<?xml version="1.0" encoding="ISO-8859-1"?>
<modeling>
 <generator>
  <i name="program" type="string">vasp </i>
  <i name="version" type="string">6.3.2  </i>
  <i name="subversion" type="string">27Jun22 (build Aug 17 2022 15:43:34) complex                          parallel </i>
  <i name="platform" type="string">tv2STDVTST </i>
  <i name="date" type="string">2025 02 04 </i>
  <i name="time" type="string">14:05:28 </i>
 </generator>
 <incar>
  <i type="int" name="ISTART">     0</i>
  <i type="string" name="PREC">Normal</i>
  <i type="int" name="ISPIN">     2</i>
  <i type="int" name="ICHARG">     2</i>
  <i type="int" name="IBRION">     2</i>
  <i name="EDIFF">      0.00020000</i>
  <i name="EDIFFG">     -0.03000000</i>
  <i type="int" name="NSW">   800</i>
  <i type="int" name="ISIF">     2</i>
  <i type="int" name="ISYM">     1</i>
  <i name="ENCUT">    400.00000000</i>
  <i name="POTIM">      0.50000000</i>
  <i type="logical" name="LREAL"> F  </i>
  <i type="int" name="ISMEAR">     1</i>
  <i name="SIGMA">      0.20000000</i>
  <i type="logical" name="LWAVE"> F  </i>
  <i type="logical" name="LCHARG"> F  </i>
  <i type="string" name="GGA">PE</i>
  <i type="int" name="IVDW">    11</i>
 </incar>
 <primitive_cell>
  <structure name="primitive_cell" >
   <crystal>
    <varray name="basis" >
     <v>       2.56679773       0.00000000       0.00000000 </v>
     <v>       1.28339887       2.22291204       0.00000000 </v>
     <v>       0.00000000       0.00000000      29.67047119 </v>
    </varray>
    <i name="volume">    169.29275369 </i>
    <varray name="rec_basis" >
     <v>       0.38959050      -0.22493018       0.00000000 </v>
     <v>       0.00000000       0.44986035       0.00000000 </v>
     <v>       0.00000000       0.00000000       0.03370354 </v>
    </varray>
   </crystal>
   <varray name="positions" >
    <v>       0.00000000       0.00000000       0.00000000 </v>
    <v>       0.33333333       0.33333333       0.07063526 </v>
    <v>       0.66666667       0.66666667       0.13908594 </v>
    <v>       0.00000000       0.00000000       0.20816512 </v>
    <v>       0.33333333       0.33333333       0.27656240 </v>
    <v>       0.66666667       0.66666667       0.34556034 </v>
    <v>       0.00000000       0.00000000       0.41400593 </v>
    <v>       0.33333333       0.33333333       0.48139269 </v>
    <v>       0.83333333       0.33333333       0.53425930 </v>
    <v>       0.83333333       0.33333333       0.55940215 </v>
   </varray>
  </structure>
  <varray name="primitive_index" >
   <v type="int" >        1 </v>
   <v type="int" >        2 </v>
   <v type="int" >        3 </v>
   <v type="int" >        4 </v>
   <v type="int" >        5 </v>
   <v type="int" >        6 </v>
   <v type="int" >        7 </v>
   <v type="int" >        8 </v>
   <v type="int" >        9 </v>
   <v type="int" >       10 </v>
  </varray>
 </primitive_cell>
 <kpoints>
  <generation param="Monkhorst-Pack">
   <v type="int" name="divisions">       3        3        1 </v>
   <v name="usershift">      0.00000000       0.00000000       0.00000000 </v>
   <v name="genvec1">      0.33333333       0.00000000       0.00000000 </v>
   <v name="genvec2">      0.00000000       0.33333333       0.00000000 </v>
   <v name="genvec3">      0.00000000       0.00000000       1.00000000 </v>
   <v name="shift">      0.00000000       0.00000000       0.00000000 </v>
  </generation>
  <varray name="kpointlist" >
   <v>       0.00000000       0.00000000       0.00000000 </v>
   <v>       0.33333333       0.00000000       0.00000000 </v>
   <v>       0.00000000       0.33333333       0.00000000 </v>
   <v>      -0.33333333       0.33333333       0.00000000 </v>
  </varray>
  <varray name="weights" >
   <v>       0.11111111 </v>
   <v>       0.44444444 </v>
   <v>       0.22222222 </v>
   <v>       0.22222222 </v>
  </varray>
 </kpoints>
 <parameters>
  <separator name="general" >
   <i type="string" name="SYSTEM">unknown system</i>
   <i type="logical" name="LCOMPAT"> F  </i>
  </separator>
  <separator name="electronic" >
   <i type="string" name="PREC">normal</i>
   <i name="ENMAX">    400.00000000</i>
   <i name="ENAUG">    586.98000000</i>
   <i name="EDIFF">      0.00020000</i>
   <i type="int" name="IALGO">    38</i>
   <i type="int" name="IWAVPR">    11</i>
   <i type="int" name="NBANDS">    60</i>
   <i type="int" name="NBANDSLOW">    -1</i>
   <i type="int" name="NBANDSHIGH">    -1</i>
   <i name="NELECT">     90.00000000</i>
   <i type="int" name="TURBO">     0</i>
   <i type="int" name="IRESTART">     0</i>
   <i type="int" name="NREBOOT">     0</i>
   <i type="int" name="NMIN">     0</i>
   <i name="EREF">      0.00000000</i>
   <separator name="electronic smearing" >
    <i type="int" name="ISMEAR">     1</i>
    <i name="SIGMA">      0.20000000</i>
    <i name="KSPACING">      0.50000000</i>
    <i type="logical" name="KGAMMA"> T  </i>
    <i type="logical" name="KBLOWUP"> T  </i>
   </separator>
   <separator name="electronic projectors" >
    <i type="logical" name="LREAL"> F  </i>
    <v name="ROPT">      0.00000000      0.00000000</v>
    <i type="int" name="LMAXPAW">  -100</i>
    <i type="int" name="LMAXMIX">     2</i>
    <i type="logical" name="NLSPLINE"> F  </i>
   </separator>
   <separator name="electronic startup" >
    <i type="int" name="ISTART">     0</i>
    <i type="int" name="ICHARG">     2</i>
    <i type="int" name="INIWAV">     1</i>
   </separator>
   <separator name="electronic spin" >
    <i type="int" name="ISPIN">     2</i>
    <i type="logical" name="LNONCOLLINEAR"> F  </i>
    <v name="MAGMOM">      1.00000000      1.00000000      1.00000000      1.00000000      1.00000000      1.00000000      1.00000000      1.00000000      1.00000000      1.00000000</v>
    <i name="NUPDOWN">     -1.00000000</i>
    <i type="logical" name="LSORBIT"> F  </i>
    <v name="SAXIS">      0.00000000      0.00000000      1.00000000</v>
    <i type="logical" name="LSPIRAL"> F  </i>
    <v name="QSPIRAL">      0.00000000      0.00000000      0.00000000</v>
    <i type="logical" name="LZEROZ"> F  </i>
   </separator>
   <separator name="electronic exchange-correlation" >
    <i type="logical" name="LASPH"> F  </i>
    <i type="logical" name="LMETAGGA"> F  </i>
   </separator>
   <separator name="electronic convergence" >
    <i type="int" name="NELM">    60</i>
    <i type="int" name="NELMDL">    -5</i>
    <i type="int" name="NELMIN">     2</i>
    <i name="ENINI">    400.00000000</i>
    <separator name="electronic convergence detail" >
     <i type="logical" name="LDIAG"> T  </i>
     <i type="logical" name="LSUBROT"> F  </i>
     <i name="WEIMIN">      0.00100000</i>
     <i name="EBREAK">      0.00000083</i>
     <i name="DEPER">      0.30000000</i>
     <i type="int" name="NRMM">     4</i>
     <i name="TIME">      0.40000000</i>
    </separator>
   </separator>
   <separator name="electronic mixer" >
    <i name="AMIX">      0.40000000</i>
    <i name="BMIX">      1.00000000</i>
    <i name="AMIN">      0.10000000</i>
    <i name="AMIX_MAG">      1.60000000</i>
    <i name="BMIX_MAG">      1.00000000</i>
    <separator name="electronic mixer details" >
     <i type="int" name="IMIX">     4</i>
     <i type="logical" name="MIXFIRST"> F  </i>
     <i type="int" name="MAXMIX">   -45</i>
     <i name="WC">    100.00000000</i>
     <i type="int" name="INIMIX">     1</i>
     <i type="int" name="MIXPRE">     1</i>
     <i type="int" name="MREMOVE">     5</i>
    </separator>
   </separator>
   <separator name="electronic dipolcorrection" >
    <i type="logical" name="LDIPOL"> F  </i>
    <i type="logical" name="LMONO"> F  </i>
    <i type="int" name="IDIPOL">     0</i>
    <i name="EPSILON">      1.00000000</i>
    <v name="DIPOL">   -100.00000000   -100.00000000   -100.00000000</v>
    <i name="EFIELD">      0.00000000</i>
   </separator>
  </separator>
  <separator name="grids" >
   <i type="int" name="NGX">    14</i>
   <i type="int" name="NGY">    14</i>
   <i type="int" name="NGZ">   150</i>
   <i type="int" name="NGXF">    28</i>
   <i type="int" name="NGYF">    28</i>
   <i type="int" name="NGZF">   300</i>
   <i type="logical" name="ADDGRID"> F  </i>
  </separator>
  <separator name="ionic" >
   <i type="int" name="NSW">   800</i>
   <i type="int" name="IBRION">     2</i>
   <i type="int" name="MDALGO">     0</i>
   <i type="int" name="ISIF">     2</i>
   <i name="PSTRESS">      0.00000000</i>
   <i name="EDIFFG">     -0.03000000</i>
   <i type="int" name="NFREE">     1</i>
   <i name="POTIM">      0.50000000</i>
   <i name="SMASS">     -3.00000000</i>
   <i name="SCALEE">      1.00000000</i>
  </separator>
  <separator name="ionic md" >
   <i name="TEBEG">      0.00010000</i>
   <i name="TEEND">      0.00010000</i>
   <i type="int" name="NBLOCK">     1</i>
   <i type="int" name="KBLOCK">   800</i>
   <i type="int" name="NPACO">   256</i>
   <i name="APACO">     10.00000000</i>
  </separator>
  <separator name="symmetry" >
   <i type="int" name="ISYM">     1</i>
   <i name="SYMPREC">      0.00001000</i>
  </separator>
  <separator name="dos" >
   <i type="int" name="LORBIT">     0</i>
   <v name="RWIGS">     -1.00000000     -1.00000000</v>
   <i type="int" name="NEDOS">   301</i>
   <i name="EMIN">     10.00000000</i>
   <i name="EMAX">    -10.00000000</i>
   <i name="EFERMI">      0.00000000</i>
  </separator>
  <separator name="writing" >
   <i type="int" name="NWRITE">     2</i>
   <i type="logical" name="LWAVE"> F  </i>
   <i type="logical" name="LDOWNSAMPLE"> F  </i>
   <i type="logical" name="LCHARG"> F  </i>
   <i type="logical" name="LPARD"> F  </i>
   <i type="logical" name="LVTOT"> F  </i>
   <i type="logical" name="LVHAR"> F  </i>
   <i type="logical" name="LELF"> F  </i>
   <i type="logical" name="LOPTICS"> F  </i>
   <v name="STM">      0.00000000      0.00000000      0.00000000      0.00000000      0.00000000      0.00000000      0.00000000</v>
  </separator>
  <separator name="performance" >
   <i type="int" name="NPAR">     4</i>
   <i type="int" name="NSIM">     4</i>
   <i type="int" name="NBLK">    -1</i>
   <i type="logical" name="LPLANE"> T  </i>
   <i type="logical" name="LSCALAPACK"> T  </i>
   <i type="logical" name="LSCAAWARE"> F  </i>
   <i type="logical" name="LSCALU"> F  </i>
   <i type="logical" name="LASYNC"> F  </i>
   <i type="logical" name="LORBITALREAL"> F  </i>
  </separator>
  <separator name="miscellaneous" >
   <i type="int" name="IDIOT">     3</i>
   <i type="int" name="PHON_NSTRUCT">    -1</i>
   <i type="logical" name="LMUSIC"> F  </i>
   <v name="POMASS">     63.54600000      1.00000000</v>
   <v name="DARWINR">      0.00000000      0.00000000</v>
   <v name="DARWINV">      1.00000000      1.00000000</v>
   <i type="logical" name="LCORR"> T  </i>
  </separator>
  <i type="logical" name="GGA_COMPAT"> T  </i>
  <i type="logical" name="LBERRY"> F  </i>
  <i type="int" name="ICORELEVEL">     0</i>
  <i type="logical" name="LDAU"> F  </i>
  <i type="int" name="I_CONSTRAINED_M">     0</i>
  <separator name="electronic exchange-correlation" >
   <i type="string" name="GGA">PE</i>
   <i type="int" name="VOSKOWN">     0</i>
   <i type="logical" name="LHFCALC"> F  </i>
   <i type="string" name="PRECFOCK"></i>
   <i type="logical" name="LSYMGRAD"> F  </i>
   <i type="logical" name="LHFONE"> F  </i>
   <i type="logical" name="LRHFCALC"> F  </i>
   <i type="logical" name="LTHOMAS"> F  </i>
   <i type="logical" name="LMODELHF"> F  </i>
   <i type="logical" name="LFOCKACE"> F  </i>
   <i name="ENCUT4O">     -1.00000000</i>
   <i type="int" name="EXXOEP">     0</i>
   <i type="int" name="FOURORBIT">     0</i>
   <i name="AEXX">      0.00000000</i>
   <i name="HFALPHA">      0.00000000</i>
   <i name="MCALPHA">      0.00000000</i>
   <i name="ALDAX">      1.00000000</i>
   <i name="AGGAX">      1.00000000</i>
   <i name="ALDAC">      1.00000000</i>
   <i name="AGGAC">      1.00000000</i>
   <i type="int" name="NKREDX">     1</i>
   <i type="int" name="NKREDY">     1</i>
   <i type="int" name="NKREDZ">     1</i>
   <i type="logical" name="SHIFTRED"> F  </i>
   <i type="logical" name="ODDONLY"> F  </i>
   <i type="logical" name="EVENONLY"> F  </i>
   <i type="int" name="LMAXFOCK">     0</i>
   <i type="int" name="NMAXFOCKAE">     0</i>
   <i type="logical" name="LFOCKAEDFT"> F  </i>
   <i name="HFSCREEN">      0.00000000</i>
   <i name="HFSCREENC">      0.00000000</i>
   <i type="int" name="NBANDSGWLOW">     0</i>
  </separator>
  <separator name="vdW DFT" >
   <i type="logical" name="LUSE_VDW"> F  </i>
   <i name="Zab_VDW">     -0.84910000</i>
   <i name="PARAM1">      0.12340000</i>
   <i name="PARAM2">      1.00000000</i>
   <i name="PARAM3">      0.00000000</i>
  </separator>
  <separator name="model GW" >
   <i type="int" name="MODEL_GW">     0</i>
   <i name="MODEL_EPS0">     10.15756522</i>
   <i name="MODEL_ALPHA">      1.00000000</i>
  </separator>
  <separator name="linear response parameters" >
   <i type="logical" name="LEPSILON"> F  </i>
   <i type="logical" name="LRPA"> F  </i>
   <i type="logical" name="LNABLA"> F  </i>
   <i type="logical" name="LVEL"> F  </i>
   <i name="CSHIFT">      0.10000000</i>
   <i name="OMEGAMAX">     -1.00000000</i>
   <i name="DEG_THRESHOLD">      0.00200000</i>
   <i name="RTIME">     -0.10000000</i>
   <i name="WPLASMAI">      0.00000000</i>
   <v name="DFIELD">      0.00000000      0.00000000      0.00000000</v>
   <v name="WPLASMA">      0.00000000      0.00000000      0.00000000      0.00000000      0.00000000      0.00000000      0.00000000      0.00000000      0.00000000</v>
  </separator>
  <separator name="orbital magnetization" >
   <i type="logical" name="NUCIND"> F  </i>
   <v name="MAGPOS">      0.00000000      0.00000000      0.00000000</v>
   <i type="logical" name="LNICSALL"> T  </i>
   <i type="logical" name="ORBITALMAG"> F  </i>
   <i type="logical" name="LMAGBLOCH"> F  </i>
   <i type="logical" name="LCHIMAG"> F  </i>
   <i type="logical" name="LGAUGE"> T  </i>
   <i type="int" name="MAGATOM">     0</i>
   <v name="MAGDIPOL">      0.00000000      0.00000000      0.00000000</v>
   <v name="AVECCONST">      0.00000000      0.00000000      0.00000000</v>
  </separator>
  <separator name="response functions" >
   <i type="logical" name="LFINITE_TEMPERATURE"> F  </i>
   <i type="logical" name="LADDER"> F  </i>
   <i type="logical" name="LRPAFORCE"> F  </i>
   <i type="logical" name="LFXC"> F  </i>
   <i type="logical" name="LHARTREE"> T  </i>
   <i type="int" name="IBSE">     0</i>
   <v type="int" name="KPOINT">    -1     0     0     0</v>
   <i type="logical" name="LTCTC"> F  </i>
   <i type="logical" name="LTCTE"> F  </i>
   <i type="logical" name="LTETE"> F  </i>
   <i type="logical" name="LTRIPLET"> F  </i>
   <i type="logical" name="LFXCEPS"> F  </i>
   <i type="logical" name="LFXHEG"> F  </i>
   <i type="int" name="NATURALO">     2</i>
   <i type="logical" name="LHOLEGF"> F  </i>
   <i type="logical" name="L2ORDER"> F  </i>
   <i type="logical" name="LDMP1"> F  </i>
   <i type="logical" name="LMP2LT"> F  </i>
   <i type="logical" name="LSMP2LT"> F  </i>
   <i type="logical" name="LGWLF"> F  </i>
   <i name="ENCUTGW">     -2.00000000</i>
   <i name="ENCUTGWSOFT">     -2.00000000</i>
   <i name="ENCUTLF">     -1.00000000</i>
   <i type="logical" name="LESF_SPLINES"> F  </i>
   <i type="int" name="LMAXMP2">    -1</i>
   <i name="SCISSOR">      0.00000000</i>
   <i type="int" name="NOMEGA">     0</i>
   <i type="int" name="NOMEGAR">     0</i>
   <i type="int" name="NBANDSGW">    -1</i>
   <i type="int" name="NBANDSO">    -1</i>
   <i type="int" name="NBANDSV">    -1</i>
   <i type="int" name="NELMGW">     1</i>
   <i type="int" name="NELMHF">     1</i>
   <i type="int" name="DIM">     3</i>
   <i type="int" name="IESPILON">     4</i>
   <i type="int" name="ANTIRES">     0</i>
   <i name="OMEGAMAX">    -30.00000000</i>
   <i name="OMEGAMIN">    -30.00000000</i>
   <i name="OMEGATL">   -200.00000000</i>
   <i type="int" name="OMEGAGRID">     0</i>
   <i name="CSHIFT">     -0.10000000</i>
   <i type="logical" name="LSELFENERGY"> F  </i>
   <i type="logical" name="LSPECTRAL"> F  </i>
   <i type="logical" name="LSPECTRALGW"> F  </i>
   <i type="logical" name="LSINGLES"> F  </i>
   <i type="logical" name="LFERMIGW"> F  </i>
   <i type="logical" name="ODDONLYGW"> F  </i>
   <i type="logical" name="EVENONLYGW"> F  </i>
   <i type="int" name="NKREDLFX">     1</i>
   <i type="int" name="NKREDLFY">     1</i>
   <i type="int" name="NKREDLFZ">     1</i>
   <i type="int" name="MAXMEM">  2800</i>
   <i type="int" name="TELESCOPE">     0</i>
   <i type="int" name="NTAUPAR">    -1</i>
   <i type="int" name="NOMEGAPAR">    -1</i>
   <i name="DAMP_NEWTON">      0.80000001</i>
   <i name="LAMBDA">      1.00000000</i>
  </separator>
  <separator name="External order field" >
   <i name="OFIELD_KAPPA">      0.00000000</i>
   <v name="OFIELD_K">      0.00000000      0.00000000      0.00000000</v>
   <i name="OFIELD_Q6_NEAR">      0.00000000</i>
   <i name="OFIELD_Q6_FAR">      0.00000000</i>
   <i name="OFIELD_A">      0.00000000</i>
  </separator>
  <separator name="optional k-points parameters" >
   <i type="int" name="KPOINTS_OPT_MODE">     1</i>
   <i type="logical" name="LKPOINTS_OPT"> F  </i>
  </separator>
 </parameters>
 <atominfo>
  <atoms>      10 </atoms>
  <types>       2 </types>
  <array name="atoms" >
   <dimension dim="1">ion</dimension>
   <field type="string">element</field>
   <field type="int">atomtype</field>
   <set>
    <rc><c>Cu</c><c>   1</c></rc>
    <rc><c>Cu</c><c>   1</c></rc>
    <rc><c>Cu</c><c>   1</c></rc>
    <rc><c>Cu</c><c>   1</c></rc>
    <rc><c>Cu</c><c>   1</c></rc>
    <rc><c>Cu</c><c>   1</c></rc>
    <rc><c>Cu</c><c>   1</c></rc>
    <rc><c>Cu</c><c>   1</c></rc>
    <rc><c>H </c><c>   2</c></rc>
    <rc><c>H </c><c>   2</c></rc>
   </set>
  </array>
  <array name="atomtypes" >
   <dimension dim="1">type</dimension>
   <field type="int">atomspertype</field>
   <field type="string">element</field>
   <field>mass</field>
   <field>valence</field>
   <field type="string">pseudopotential</field>
   <set>
    <rc><c>   8</c><c>Cu</c><c>     63.54600000</c><c>     11.00000000</c><c>  PAW_PBE Cu 22Jun2005                  </c></rc>
    <rc><c>   2</c><c>H </c><c>      1.00000000</c><c>      1.00000000</c><c>  PAW_PBE H 15Jun2001                   </c></rc>
   </set>
  </array>
 </atominfo>
 <structure name="initialpos" >
  <crystal>
   <varray name="basis" >
    <v>       2.56679773       0.00000000       0.00000000 </v>
    <v>       1.28339887       2.22291204       0.00000000 </v>
    <v>       0.00000000       0.00000000      29.67047119 </v>
   </varray>
   <i name="volume">    169.29275369 </i>
   <varray name="rec_basis" >
    <v>       0.38959050      -0.22493018       0.00000000 </v>
    <v>       0.00000000       0.44986035       0.00000000 </v>
    <v>       0.00000000       0.00000000       0.03370354 </v>
   </varray>
  </crystal>
  <varray name="positions" >
   <v>       0.00000000       0.00000000       0.00000000 </v>
   <v>       0.33333333       0.33333333       0.07063526 </v>
   <v>       0.66666667       0.66666667       0.13908594 </v>
   <v>       0.00000000       0.00000000       0.20816512 </v>
   <v>       0.33333333       0.33333333       0.27656240 </v>
   <v>       0.66666667       0.66666667       0.34556034 </v>
   <v>       0.00000000       0.00000000       0.41400593 </v>
   <v>       0.33333333       0.33333333       0.48139269 </v>
   <v>       0.83333333       0.33333333       0.53425930 </v>
   <v>       0.83333333       0.33333333       0.55940215 </v>
  </varray>
 </structure>
 <calculation>
  <scstep>
   <time name="dav">    0.28    0.29</time>
   <time name="total">    0.32    0.32</time>
   <energy>
    <i name="alphaZ">    285.34744303 </i>
    <i name="ewald">  52242.30517405 </i>
    <i name="hartreedc"> -63295.47531794 </i>
    <i name="XCdc">    372.51993570 </i>
    <i name="pawpsdc">   9828.36862813 </i>
    <i name="pawaedc"> -10674.97285505 </i>
    <i name="eentropy">     -0.00182662 </i>
    <i name="bandstr">    885.42884927 </i>
    <i name="atom">  11152.61838693 </i>
    <i name="e_fr_energy">    796.13841751 </i>
    <i name="e_wo_entrp">    796.14024413 </i>
    <i name="e_0_energy">    796.13902638 </i>
   </energy>
  </scstep>
  <scstep>
   <time name="dav">    0.27    0.28</time>
   <time name="total">    0.27    0.28</time>
   <energy>
    <i name="e_fr_energy">     73.03521322 </i>
    <i name="e_wo_entrp">     73.03212678 </i>
    <i name="e_0_energy">     73.03418441 </i>
   </energy>
  </scstep>
  <scstep>
   <time name="dav">    0.28    0.28</time>
   <time name="total">    0.28    0.28</time>
   <energy>
    <i name="e_fr_energy">    -32.86226769 </i>
    <i name="e_wo_entrp">    -32.88586027 </i>
    <i name="e_0_energy">    -32.87013188 </i>
   </energy>
  </scstep>
  <scstep>
   <time name="dav">    0.30    0.30</time>
   <time name="total">    0.30    0.30</time>
   <energy>
    <i name="e_fr_energy">    -37.39736861 </i>
    <i name="e_wo_entrp">    -37.42914890 </i>
    <i name="e_0_energy">    -37.40796204 </i>
   </energy>
  </scstep>
  <scstep>
   <time name="dav">    0.32    0.32</time>
   <time name="total">    0.38    0.38</time>
   <energy>
    <i name="e_fr_energy">    -37.49783441 </i>
    <i name="e_wo_entrp">    -37.52967804 </i>
    <i name="e_0_energy">    -37.50844895 </i>
   </energy>
  </scstep>
  <scstep>
   <time name="dav">    0.34    0.34</time>
   <time name="total">    0.42    0.43</time>
   <energy>
    <i name="e_fr_energy">    -34.37193506 </i>
    <i name="e_wo_entrp">    -34.33483917 </i>
    <i name="e_0_energy">    -34.35956977 </i>
   </energy>
  </scstep>
  <scstep>
   <time name="dav">    0.37    0.37</time>
   <time name="total">    0.45    0.46</time>
   <energy>
    <i name="e_fr_energy">    -94.79321218 </i>
    <i name="e_wo_entrp">    -94.80131062 </i>
    <i name="e_0_energy">    -94.79591166 </i>
   </energy>
  </scstep>
  <scstep>
   <time name="dav">    0.41    0.42</time>
   <time name="total">    0.49    0.50</time>
   <energy>
    <i name="e_fr_energy">    -40.17440159 </i>
    <i name="e_wo_entrp">    -40.12257926 </i>
    <i name="e_0_energy">    -40.15712748 </i>
   </energy>
  </scstep>
  <scstep>
   <time name="dav">    0.40    0.40</time>
   <time name="total">    0.48    0.48</time>
   <energy>
    <i name="e_fr_energy">    -33.20414618 </i>
    <i name="e_wo_entrp">    -33.17792344 </i>
    <i name="e_0_energy">    -33.19540527 </i>
   </energy>
  </scstep>
  <scstep>
   <time name="dav">    0.38    0.38</time>
   <time name="total">    0.46    0.47</time>
   <energy>
    <i name="e_fr_energy">    -31.05021080 </i>
    <i name="e_wo_entrp">    -31.04071267 </i>
    <i name="e_0_energy">    -31.04704475 </i>
   </energy>
  </scstep>
  <scstep>
   <time name="dav">    0.34    0.34</time>
   <time name="total">    0.42    0.42</time>
   <energy>
    <i name="e_fr_energy">    -30.59712440 </i>
    <i name="e_wo_entrp">    -30.58881577 </i>
    <i name="e_0_energy">    -30.59435486 </i>
   </energy>
  </scstep>
  <scstep>
   <time name="dav">    0.31    0.31</time>
   <time name="total">    0.39    0.39</time>
   <energy>
    <i name="e_fr_energy">    -29.89692686 </i>
    <i name="e_wo_entrp">    -29.88579367 </i>
    <i name="e_0_energy">    -29.89321580 </i>
   </energy>
  </scstep>
  <scstep>
   <time name="dav">    0.35    0.36</time>
   <time name="total">    0.43    0.44</time>
   <energy>
    <i name="e_fr_energy">    -29.64060099 </i>
    <i name="e_wo_entrp">    -29.62711794 </i>
    <i name="e_0_energy">    -29.63610664 </i>
   </energy>
  </scstep>
  <scstep>
   <time name="dav">    0.39    0.39</time>
   <time name="total">    0.47    0.47</time>
   <energy>
    <i name="e_fr_energy">    -31.79720088 </i>
    <i name="e_wo_entrp">    -31.78673895 </i>
    <i name="e_0_energy">    -31.79371357 </i>
   </energy>
  </scstep>
  <scstep>
   <time name="dav">    0.40    0.40</time>
   <time name="total">    0.48    0.48</time>
   <energy>
    <i name="e_fr_energy">    -33.30651630 </i>
    <i name="e_wo_entrp">    -33.28892029 </i>
    <i name="e_0_energy">    -33.30065096 </i>
   </energy>
  </scstep>
  <scstep>
   <time name="dav">    0.36    0.36</time>
   <time name="total">    0.44    0.44</time>
   <energy>
    <i name="e_fr_energy">    -34.77801232 </i>
    <i name="e_wo_entrp">    -34.75831408 </i>
    <i name="e_0_energy">    -34.77144624 </i>
   </energy>
  </scstep>
  <scstep>
   <time name="dav">    0.36    0.36</time>
   <time name="total">    0.44    0.44</time>
   <energy>
    <i name="e_fr_energy">    -35.34648362 </i>
    <i name="e_wo_entrp">    -35.33319005 </i>
    <i name="e_0_energy">    -35.34205243 </i>
   </energy>
  </scstep>
  <scstep>
   <time name="dav">    0.33    0.34</time>
   <time name="total">    0.41    0.42</time>
   <energy>
    <i name="e_fr_energy">    -35.82406624 </i>
    <i name="e_wo_entrp">    -35.81531432 </i>
    <i name="e_0_energy">    -35.82114893 </i>
   </energy>
  </scstep>
  <scstep>
   <time name="dav">    0.35    0.35</time>
   <time name="total">    0.43    0.43</time>
   <energy>
    <i name="e_fr_energy">    -36.06074555 </i>
    <i name="e_wo_entrp">    -36.04968330 </i>
    <i name="e_0_energy">    -36.05705814 </i>
   </energy>
  </scstep>
  <scstep>
   <time name="dav">    0.33    0.33</time>
   <time name="total">    0.41    0.41</time>
   <energy>
    <i name="e_fr_energy">    -36.23827992 </i>
    <i name="e_wo_entrp">    -36.22251800 </i>
    <i name="e_0_energy">    -36.23302595 </i>
   </energy>
  </scstep>
  <scstep>
   <time name="dav">    0.36    0.36</time>
   <time name="total">    0.44    0.45</time>
   <energy>
    <i name="e_fr_energy">    -36.35042285 </i>
    <i name="e_wo_entrp">    -36.32961249 </i>
    <i name="e_0_energy">    -36.34348606 </i>
   </energy>
  </scstep>
  <scstep>
   <time name="dav">    0.31    0.31</time>
   <time name="total">    0.40    0.40</time>
   <energy>
    <i name="e_fr_energy">    -36.40183427 </i>
    <i name="e_wo_entrp">    -36.37916341 </i>
    <i name="e_0_energy">    -36.39427731 </i>
   </energy>
  </scstep>
  <scstep>
   <time name="dav">    0.32    0.32</time>
   <time name="total">    0.41    0.41</time>
   <energy>
    <i name="e_fr_energy">    -36.46977291 </i>
    <i name="e_wo_entrp">    -36.44595933 </i>
    <i name="e_0_energy">    -36.46183505 </i>
   </energy>
  </scstep>
  <scstep>
   <time name="dav">    0.30    0.30</time>
   <time name="total">    0.38    0.39</time>
   <energy>
    <i name="e_fr_energy">    -36.76311325 </i>
    <i name="e_wo_entrp">    -36.73918434 </i>
    <i name="e_0_energy">    -36.75513695 </i>
   </energy>
  </scstep>
  <scstep>
   <time name="dav">    0.32    0.33</time>
   <time name="total">    0.41    0.41</time>
   <energy>
    <i name="e_fr_energy">    -36.93536372 </i>
    <i name="e_wo_entrp">    -36.91155594 </i>
    <i name="e_0_energy">    -36.92742779 </i>
   </energy>
  </scstep>
  <scstep>
   <time name="dav">    0.35    0.36</time>
   <time name="total">    0.44    0.44</time>
   <energy>
    <i name="e_fr_energy">    -36.99005836 </i>
    <i name="e_wo_entrp">    -36.96744998 </i>
    <i name="e_0_energy">    -36.98252224 </i>
   </energy>
  </scstep>
  <scstep>
   <time name="dav">    0.32    0.32</time>
   <time name="total">    0.41    0.41</time>
   <energy>
    <i name="e_fr_energy">    -37.00748153 </i>
    <i name="e_wo_entrp">    -36.98440132 </i>
    <i name="e_0_energy">    -36.99978813 </i>
   </energy>
  </scstep>
  <scstep>
   <time name="dav">    0.29    0.30</time>
   <time name="total">    0.38    0.38</time>
   <energy>
    <i name="e_fr_energy">    -37.01185954 </i>
    <i name="e_wo_entrp">    -36.98792134 </i>
    <i name="e_0_energy">    -37.00388014 </i>
   </energy>
  </scstep>
  <scstep>
   <time name="dav">    0.28    0.28</time>
   <time name="total">    0.36    0.37</time>
   <energy>
    <i name="e_fr_energy">    -37.01583174 </i>
    <i name="e_wo_entrp">    -36.99133223 </i>
    <i name="e_0_energy">    -37.00766523 </i>
   </energy>
  </scstep>
  <scstep>
   <time name="dav">    0.25    0.26</time>
   <time name="total">    0.34    0.34</time>
   <energy>
    <i name="e_fr_energy">    -37.01773550 </i>
    <i name="e_wo_entrp">    -36.99253738 </i>
    <i name="e_0_energy">    -37.00933612 </i>
   </energy>
  </scstep>
  <scstep>
   <time name="dav">    0.25    0.26</time>
   <time name="total">    0.34    0.34</time>
   <energy>
    <i name="e_fr_energy">    -37.01842408 </i>
    <i name="e_wo_entrp">    -36.99310290 </i>
    <i name="e_0_energy">    -37.00998369 </i>
   </energy>
  </scstep>
  <scstep>
   <time name="dav">    0.24    0.24</time>
   <time name="total">    0.32    0.32</time>
   <energy>
    <i name="e_fr_energy">    -37.01966593 </i>
    <i name="e_wo_entrp">    -36.99439730 </i>
    <i name="e_0_energy">    -37.01124305 </i>
   </energy>
  </scstep>
  <scstep>
   <time name="dav">    0.22    0.22</time>
   <time name="total">    0.30    0.31</time>
   <energy>
    <i name="e_fr_energy">    -37.02071355 </i>
    <i name="e_wo_entrp">    -36.99524855 </i>
    <i name="e_0_energy">    -37.01222522 </i>
   </energy>
  </scstep>
  <scstep>
   <time name="dav">    0.22    0.22</time>
   <time name="total">    0.30    0.31</time>
   <energy>
    <i name="e_fr_energy">    -37.02171959 </i>
    <i name="e_wo_entrp">    -36.99644982 </i>
    <i name="e_0_energy">    -37.01329633 </i>
   </energy>
  </scstep>
  <scstep>
   <time name="dav">    0.21    0.21</time>
   <time name="total">    0.29    0.30</time>
   <energy>
    <i name="e_fr_energy">    -37.02218881 </i>
    <i name="e_wo_entrp">    -36.99682548 </i>
    <i name="e_0_energy">    -37.01373436 </i>
   </energy>
  </scstep>
  <scstep>
   <time name="dav">    0.21    0.21</time>
   <time name="total">    0.29    0.29</time>
   <energy>
    <i name="e_fr_energy">    -37.02251009 </i>
    <i name="e_wo_entrp">    -36.99714838 </i>
    <i name="e_0_energy">    -37.01405619 </i>
   </energy>
  </scstep>
  <scstep>
   <time name="dav">    0.21    0.21</time>
   <time name="total">    0.23    0.24</time>
   <energy>
    <i name="alphaZ">    285.34744303 </i>
    <i name="ewald">  52242.30517405 </i>
    <i name="hartreedc"> -63193.91604812 </i>
    <i name="XCdc">    363.02996959 </i>
    <i name="pawpsdc">  10574.45781033 </i>
    <i name="pawaedc"> -11436.56643876 </i>
    <i name="eentropy">     -0.02526916 </i>
    <i name="bandstr">    -24.27359466 </i>
    <i name="atom">  11152.61838693 </i>
    <i name="e_fr_energy">    -37.02256676 </i>
    <i name="e_wo_entrp">    -36.99729760 </i>
    <i name="e_0_energy">    -37.01414371 </i>
   </energy>
  </scstep>
  <structure>
   <crystal>
    <varray name="basis" >
     <v>       2.56679773       0.00000000       0.00000000 </v>
     <v>       1.28339887       2.22291204       0.00000000 </v>
     <v>       0.00000000       0.00000000      29.67047119 </v>
    </varray>
    <i name="volume">    169.29275369 </i>
    <varray name="rec_basis" >
     <v>       0.38959050      -0.22493018       0.00000000 </v>
     <v>       0.00000000       0.44986035       0.00000000 </v>
     <v>       0.00000000       0.00000000       0.03370354 </v>
    </varray>
   </crystal>
   <varray name="positions" >
    <v>       0.00000000       0.00000000       0.00000000 </v>
    <v>       0.33333333       0.33333333       0.07063526 </v>
    <v>       0.66666667       0.66666667       0.13908594 </v>
    <v>       0.00000000       0.00000000       0.20816512 </v>
    <v>       0.33333333       0.33333333       0.27656240 </v>
    <v>       0.66666667       0.66666667       0.34556034 </v>
    <v>       0.00000000       0.00000000       0.41400593 </v>
    <v>       0.33333333       0.33333333       0.48139269 </v>
    <v>       0.83333333       0.33333333       0.53425930 </v>
    <v>       0.83333333       0.33333333       0.55940215 </v>
   </varray>
  </structure>
  <varray name="forces" >
   <v>       0.00000000       0.00026164       0.47156628 </v>
   <v>      -0.00000000      -0.00034375      -0.39818032 </v>
   <v>       0.00000000       0.00039338       0.00892386 </v>
   <v>      -0.00000000      -0.00092368      -0.00239073 </v>
   <v>       0.00000000       0.00193065      -0.02127317 </v>
   <v>      -0.00000000      -0.00319023      -0.02197138 </v>
   <v>      -0.00000000      -0.00098535      -0.09175024 </v>
   <v>       0.00000000       0.00213328      -0.60216148 </v>
   <v>       0.00000000       0.00194045      -0.63552426 </v>
   <v>      -0.00000000      -0.00121639       1.29276145 </v>
  </varray>
  <varray name="stress" >
   <v>     -45.48300010      -0.00000000       0.00000000 </v>
   <v>      -0.00000000     -45.29087981       0.07070993 </v>
   <v>       0.00000000       0.07071568      -2.01495846 </v>
  </varray>
  <energy>
   <i name="e_fr_energy">    -40.69901059 </i>
   <i name="e_wo_entrp">    -40.67374143 </i>
   <i name="e_0_energy">    -40.69058754 </i>
  </energy>
  <time name="totalsc">   14.68   14.82</time>
 </calculation>
 <calculation>
  <scstep>
   <time name="dav">    0.28    0.28</time>
   <time name="total">    0.37    0.37</time>
   <energy>
    <i name="alphaZ">    285.34744303 </i>
    <i name="ewald">  52468.07897290 </i>
    <i name="hartreedc"> -63420.68419368 </i>
    <i name="XCdc">    363.00983920 </i>
    <i name="pawpsdc">  10574.43539919 </i>
    <i name="pawaedc"> -11436.54186958 </i>
    <i name="eentropy">     -0.02915883 </i>
    <i name="bandstr">    -23.24697982 </i>
    <i name="atom">  11152.61838693 </i>
    <i name="e_fr_energy">    -37.01216066 </i>
    <i name="e_wo_entrp">    -36.98300183 </i>
    <i name="e_0_energy">    -37.00244105 </i>
   </energy>
  </scstep>
  <scstep>
   <time name="dav">    0.41    0.42</time>
   <time name="total">    0.50    0.50</time>
   <energy>
    <i name="e_fr_energy">    -37.04264161 </i>
    <i name="e_wo_entrp">    -37.01021994 </i>
    <i name="e_0_energy">    -37.03183439 </i>
   </energy>
  </scstep>
  <scstep>
   <time name="dav">    0.43    0.43</time>
   <time name="total">    0.51    0.52</time>
   <energy>
    <i name="e_fr_energy">    -37.03702376 </i>
    <i name="e_wo_entrp">    -37.01234395 </i>
    <i name="e_0_energy">    -37.02879716 </i>
   </energy>
  </scstep>
  <scstep>
   <time name="dav">    0.41    0.42</time>
   <time name="total">    0.50    0.50</time>
   <energy>
    <i name="e_fr_energy">    -37.02410026 </i>
    <i name="e_wo_entrp">    -36.99518921 </i>
    <i name="e_0_energy">    -37.01446324 </i>
   </energy>
  </scstep>
  <scstep>
   <time name="dav">    0.35    0.36</time>
   <time name="total">    0.43    0.44</time>
   <energy>
    <i name="e_fr_energy">    -37.02580775 </i>
    <i name="e_wo_entrp">    -37.00298334 </i>
    <i name="e_0_energy">    -37.01819961 </i>
   </energy>
  </scstep>
  <scstep>
   <time name="dav">    0.39    0.39</time>
   <time name="total">    0.47    0.47</time>
   <energy>
    <i name="e_fr_energy">    -37.02259153 </i>
    <i name="e_wo_entrp">    -36.99520464 </i>
    <i name="e_0_energy">    -37.01346257 </i>
   </energy>
  </scstep>
  <scstep>
   <time name="dav">    0.35    0.35</time>
   <time name="total">    0.43    0.43</time>
   <energy>
    <i name="e_fr_energy">    -37.02277734 </i>
    <i name="e_wo_entrp">    -36.99659504 </i>
    <i name="e_0_energy">    -37.01404991 </i>
   </energy>
  </scstep>
  <scstep>
   <time name="dav">    0.24    0.24</time>
   <time name="total">    0.27    0.27</time>
   <energy>
    <i name="alphaZ">    285.34744303 </i>
    <i name="ewald">  52468.07897290 </i>
    <i name="hartreedc"> -63412.33429667 </i>
    <i name="XCdc">    362.88186499 </i>
    <i name="pawpsdc">  10576.88220777 </i>
    <i name="pawaedc"> -11439.10761308 </i>
    <i name="eentropy">     -0.02651300 </i>
    <i name="bandstr">    -31.36327301 </i>
    <i name="atom">  11152.61838693 </i>
    <i name="e_fr_energy">    -37.02282014 </i>
    <i name="e_wo_entrp">    -36.99630714 </i>
    <i name="e_0_energy">    -37.01398247 </i>
   </energy>
  </scstep>
  <structure>
   <crystal>
    <varray name="basis" >
     <v>       2.56679773       0.00000000       0.00000000 </v>
     <v>       1.28339887       2.22291204       0.00000000 </v>
     <v>       0.00000000       0.00000000      29.67047119 </v>
    </varray>
    <i name="volume">    169.29275369 </i>
    <varray name="rec_basis" >
     <v>       0.38959050      -0.22493018       0.00000000 </v>
     <v>       0.00000000       0.44986035       0.00000000 </v>
     <v>       0.00000000       0.00000000       0.03370354 </v>
    </varray>
   </crystal>
   <varray name="positions" >
    <v>      -0.00000284       0.00000568       0.00076674 </v>
    <v>       0.33333706       0.33332587       0.06998784 </v>
    <v>       0.66666240       0.66667520       0.13910045 </v>
    <v>       0.00001002      -0.00002005       0.20816123 </v>
    <v>       0.33331238       0.33337523       0.27652781 </v>
    <v>       0.66670128       0.66659743       0.34552461 </v>
    <v>       0.00001069      -0.00002138       0.41385675 </v>
    <v>       0.33331018       0.33337963       0.48041361 </v>
    <v>       0.83331228       0.33337545       0.53322597 </v>
    <v>       0.83334653       0.33330693       0.56150411 </v>
   </varray>
  </structure>
  <varray name="forces" >
   <v>       0.00000000       0.00041677       0.30518791 </v>
   <v>      -0.00000000      -0.00049546      -0.14278293 </v>
   <v>       0.00000000       0.00037447      -0.07222680 </v>
   <v>      -0.00000000      -0.00078953      -0.00899672 </v>
   <v>       0.00000000       0.00137623      -0.01436665 </v>
   <v>      -0.00000000      -0.00296292      -0.04916273 </v>
   <v>      -0.00000000      -0.00029920      -0.20729129 </v>
   <v>       0.00000000       0.00095040      -0.28472695 </v>
   <v>       0.00000000       0.00239960       1.00209248 </v>
   <v>      -0.00000000      -0.00097036      -0.52772632 </v>
  </varray>
  <varray name="stress" >
   <v>     -44.22578832      -0.00000000       0.00000000 </v>
   <v>      -0.00000000     -43.56491208       0.06620019 </v>
   <v>       0.00000000       0.06620510     -11.66599378 </v>
  </varray>
  <energy>
   <i name="e_fr_energy">    -40.72399836 </i>
   <i name="e_wo_entrp">    -40.69748536 </i>
   <i name="e_0_energy">    -40.71516069 </i>
  </energy>
  <time name="totalsc">    3.95    4.09</time>
 </calculation>
 <calculation>
  <scstep>
   <time name="dav">    0.28    0.28</time>
   <time name="total">    0.36    0.36</time>
   <energy>
    <i name="alphaZ">    285.34744303 </i>
    <i name="ewald">  52374.16352323 </i>
    <i name="hartreedc"> -63318.27497961 </i>
    <i name="XCdc">    362.89009566 </i>
    <i name="pawpsdc">  10577.01253790 </i>
    <i name="pawaedc"> -11439.24288430 </i>
    <i name="eentropy">     -0.02601261 </i>
    <i name="bandstr">    -31.53631243 </i>
    <i name="atom">  11152.61838693 </i>
    <i name="e_fr_energy">    -37.04820220 </i>
    <i name="e_wo_entrp">    -37.02218959 </i>
    <i name="e_0_energy">    -37.03953133 </i>
   </energy>
  </scstep>
  <scstep>
   <time name="dav">    0.39    0.40</time>
   <time name="total">    0.48    0.48</time>
   <energy>
    <i name="e_fr_energy">    -37.05207963 </i>
    <i name="e_wo_entrp">    -37.02789452 </i>
    <i name="e_0_energy">    -37.04401792 </i>
   </energy>
  </scstep>
  <scstep>
   <time name="dav">    0.43    0.43</time>
   <time name="total">    0.51    0.51</time>
   <energy>
    <i name="e_fr_energy">    -37.05228797 </i>
    <i name="e_wo_entrp">    -37.02375957 </i>
    <i name="e_0_energy">    -37.04277851 </i>
   </energy>
  </scstep>
  <scstep>
   <time name="dav">    0.33    0.33</time>
   <time name="total">    0.41    0.41</time>
   <energy>
    <i name="e_fr_energy">    -37.05110648 </i>
    <i name="e_wo_entrp">    -37.02694105 </i>
    <i name="e_0_energy">    -37.04305134 </i>
   </energy>
  </scstep>
  <scstep>
   <time name="dav">    0.26    0.26</time>
   <time name="total">    0.34    0.35</time>
   <energy>
    <i name="e_fr_energy">    -37.05078521 </i>
    <i name="e_wo_entrp">    -37.02388842 </i>
    <i name="e_0_energy">    -37.04181961 </i>
   </energy>
  </scstep>
  <scstep>
   <time name="dav">    0.24    0.24</time>
   <time name="total">    0.32    0.33</time>
   <energy>
    <i name="e_fr_energy">    -37.05054865 </i>
    <i name="e_wo_entrp">    -37.02484816 </i>
    <i name="e_0_energy">    -37.04198182 </i>
   </energy>
  </scstep>
  <scstep>
   <time name="dav">    0.21    0.22</time>
   <time name="total">    0.24    0.24</time>
   <energy>
    <i name="alphaZ">    285.34744303 </i>
    <i name="ewald">  52374.16352323 </i>
    <i name="hartreedc"> -63321.37923234 </i>
    <i name="XCdc">    362.93907542 </i>
    <i name="pawpsdc">  10575.80818984 </i>
    <i name="pawaedc"> -11437.99184483 </i>
    <i name="eentropy">     -0.02591353 </i>
    <i name="bandstr">    -28.53019160 </i>
    <i name="atom">  11152.61838693 </i>
    <i name="e_fr_energy">    -37.05056386 </i>
    <i name="e_wo_entrp">    -37.02465033 </i>
    <i name="e_0_energy">    -37.04192602 </i>
   </energy>
  </scstep>
  <structure>
   <crystal>
    <varray name="basis" >
     <v>       2.56679773       0.00000000       0.00000000 </v>
     <v>       1.28339887       2.22291204       0.00000000 </v>
     <v>       0.00000000       0.00000000      29.67047119 </v>
    </varray>
    <i name="volume">    169.29275369 </i>
    <varray name="rec_basis" >
     <v>       0.38959050      -0.22493018       0.00000000 </v>
     <v>       0.00000000       0.44986035       0.00000000 </v>
     <v>       0.00000000       0.00000000       0.03370354 </v>
    </varray>
   </crystal>
   <varray name="positions" >
    <v>      -0.00000166       0.00000332       0.00044883 </v>
    <v>       0.33333552       0.33332897       0.07025628 </v>
    <v>       0.66666417       0.66667166       0.13909443 </v>
    <v>       0.00000587      -0.00001173       0.20816284 </v>
    <v>       0.33332107       0.33335786       0.27654215 </v>
    <v>       0.66668693       0.66662614       0.34553943 </v>
    <v>       0.00000626      -0.00001252       0.41391861 </v>
    <v>       0.33331978       0.33336043       0.48081956 </v>
    <v>       0.83332101       0.33335798       0.53365442 </v>
    <v>       0.83334106       0.33331788       0.56063258 </v>
   </varray>
  </structure>
  <varray name="forces" >
   <v>       0.00000000       0.00017663       0.36339987 </v>
   <v>      -0.00000000      -0.00025214      -0.24937921 </v>
   <v>       0.00000000       0.00037139      -0.03969985 </v>
   <v>      -0.00000000      -0.00121053      -0.00611796 </v>
   <v>       0.00000000       0.00177106      -0.01610544 </v>
   <v>      -0.00000000      -0.00302314      -0.03221470 </v>
   <v>      -0.00000000      -0.00067290      -0.15635910 </v>
   <v>       0.00000000       0.00180892      -0.40542798 </v>
   <v>       0.00000000       0.00219702       0.65093635 </v>
   <v>      -0.00000000      -0.00116631      -0.10903198 </v>
  </varray>
  <varray name="stress" >
   <v>     -45.78103310      -0.00000000       0.00000000 </v>
   <v>      -0.00000000     -45.26687956       0.06370221 </v>
   <v>       0.00000000       0.06370843     -11.09683175 </v>
  </varray>
  <energy>
   <i name="e_fr_energy">    -40.73486036 </i>
   <i name="e_wo_entrp">    -40.70894684 </i>
   <i name="e_0_energy">    -40.72622252 </i>
  </energy>
  <time name="totalsc">    3.13    3.20</time>
 </calculation>
 <calculation>
  <scstep>
   <time name="dav">    0.29    0.30</time>
   <time name="total">    0.38    0.38</time>
   <energy>
    <i name="alphaZ">    285.34744303 </i>
    <i name="ewald">  52602.38378027 </i>
    <i name="hartreedc"> -63549.33167209 </i>
    <i name="XCdc">    362.98771613 </i>
    <i name="pawpsdc">  10575.80272753 </i>
    <i name="pawaedc"> -11437.98488178 </i>
    <i name="eentropy">     -0.02491223 </i>
    <i name="bandstr">    -28.86125153 </i>
    <i name="atom">  11152.61838693 </i>
    <i name="e_fr_energy">    -37.06266375 </i>
    <i name="e_wo_entrp">    -37.03775152 </i>
    <i name="e_0_energy">    -37.05435967 </i>
   </energy>
  </scstep>
  <scstep>
   <time name="dav">    0.40    0.42</time>
   <time name="total">    0.48    0.50</time>
   <energy>
    <i name="e_fr_energy">    -37.08332957 </i>
    <i name="e_wo_entrp">    -37.05172192 </i>
    <i name="e_0_energy">    -37.07279369 </i>
   </energy>
  </scstep>
  <scstep>
   <time name="dav">    0.41    0.41</time>
   <time name="total">    0.49    0.50</time>
   <energy>
    <i name="e_fr_energy">    -37.07903363 </i>
    <i name="e_wo_entrp">    -37.05528565 </i>
    <i name="e_0_energy">    -37.07111764 </i>
   </energy>
  </scstep>
  <scstep>
   <time name="dav">    0.37    0.38</time>
   <time name="total">    0.46    0.46</time>
   <energy>
    <i name="e_fr_energy">    -37.07794125 </i>
    <i name="e_wo_entrp">    -37.05226058 </i>
    <i name="e_0_energy">    -37.06938102 </i>
   </energy>
  </scstep>
  <scstep>
   <time name="dav">    0.30    0.30</time>
   <time name="total">    0.38    0.38</time>
   <energy>
    <i name="e_fr_energy">    -37.07796145 </i>
    <i name="e_wo_entrp">    -37.05114059 </i>
    <i name="e_0_energy">    -37.06902116 </i>
   </energy>
  </scstep>
  <scstep>
   <time name="dav">    0.32    0.32</time>
   <time name="total">    0.40    0.40</time>
   <energy>
    <i name="e_fr_energy">    -37.07771099 </i>
    <i name="e_wo_entrp">    -37.05174790 </i>
    <i name="e_0_energy">    -37.06905662 </i>
   </energy>
  </scstep>
  <scstep>
   <time name="dav">    0.25    0.25</time>
   <time name="total">    0.27    0.27</time>
   <energy>
    <i name="alphaZ">    285.34744303 </i>
    <i name="ewald">  52602.38378027 </i>
    <i name="hartreedc"> -63549.09710467 </i>
    <i name="XCdc">    362.98607200 </i>
    <i name="pawpsdc">  10584.16932652 </i>
    <i name="pawaedc"> -11446.49340461 </i>
    <i name="eentropy">     -0.02594382 </i>
    <i name="bandstr">    -28.96616052 </i>
    <i name="atom">  11152.61838693 </i>
    <i name="e_fr_energy">    -37.07760486 </i>
    <i name="e_wo_entrp">    -37.05166105 </i>
    <i name="e_0_energy">    -37.06895693 </i>
   </energy>
  </scstep>
  <structure>
   <crystal>
    <varray name="basis" >
     <v>       2.56679773       0.00000000       0.00000000 </v>
     <v>       1.28339887       2.22291204       0.00000000 </v>
     <v>       0.00000000       0.00000000      29.67047119 </v>
    </varray>
    <i name="volume">    169.29275369 </i>
    <varray name="rec_basis" >
     <v>       0.38959050      -0.22493018       0.00000000 </v>
     <v>       0.00000000       0.44986035       0.00000000 </v>
     <v>       0.00000000       0.00000000       0.03370354 </v>
    </varray>
   </crystal>
   <varray name="positions" >
    <v>      -0.00000420       0.00000840       0.00120114 </v>
    <v>       0.33333905       0.33332190       0.06970674 </v>
    <v>       0.66665930       0.66668140       0.13903922 </v>
    <v>       0.00002066      -0.00004133       0.20815265 </v>
    <v>       0.33329770       0.33340461       0.27650864 </v>
    <v>       0.66672652       0.66654697       0.34548159 </v>
    <v>       0.00001589      -0.00003178       0.41364451 </v>
    <v>       0.33329543       0.33340914       0.47994631 </v>
    <v>       0.83329337       0.33341327       0.53434144 </v>
    <v>       0.83335629       0.33328742       0.56104689 </v>
   </varray>
  </structure>
  <varray name="forces" >
   <v>       0.00000000       0.00092197       0.20763155 </v>
   <v>      -0.00000000      -0.00036279      -0.01936331 </v>
   <v>       0.00000000       0.00054387      -0.08689107 </v>
   <v>      -0.00000000      -0.00046782      -0.01475778 </v>
   <v>       0.00000000       0.00151286      -0.01918903 </v>
   <v>      -0.00000000      -0.00232896      -0.07228085 </v>
   <v>      -0.00000000      -0.00080951      -0.22971167 </v>
   <v>      -0.00000000      -0.00018649      -0.25353236 </v>
   <v>       0.00000000       0.00201739       0.53625579 </v>
   <v>      -0.00000000      -0.00084053      -0.04816128 </v>
  </varray>
  <varray name="stress" >
   <v>     -45.00489793      -0.00000000       0.00000000 </v>
   <v>      -0.00000000     -44.54905353       0.06480253 </v>
   <v>       0.00000000       0.06480787      -6.92846924 </v>
  </varray>
  <energy>
   <i name="e_fr_energy">    -40.76478334 </i>
   <i name="e_wo_entrp">    -40.73883953 </i>
   <i name="e_0_energy">    -40.75613541 </i>
  </energy>
  <time name="totalsc">    3.33    3.45</time>
 </calculation>
 <calculation>
  <scstep>
   <time name="dav">    0.28    0.28</time>
   <time name="total">    0.36    0.37</time>
   <energy>
    <i name="alphaZ">    285.34744303 </i>
    <i name="ewald">  53063.21157964 </i>
    <i name="hartreedc"> -64009.14994096 </i>
    <i name="XCdc">    363.10452926 </i>
    <i name="pawpsdc">  10584.34273673 </i>
    <i name="pawaedc"> -11446.67013316 </i>
    <i name="eentropy">     -0.02367700 </i>
    <i name="bandstr">    -29.80700036 </i>
    <i name="atom">  11152.61838693 </i>
    <i name="e_fr_energy">    -37.02607590 </i>
    <i name="e_wo_entrp">    -37.00239889 </i>
    <i name="e_0_energy">    -37.01818356 </i>
   </energy>
  </scstep>
  <scstep>
   <time name="dav">    0.39    0.40</time>
   <time name="total">    0.47    0.48</time>
   <energy>
    <i name="e_fr_energy">    -37.11336748 </i>
    <i name="e_wo_entrp">    -37.07861258 </i>
    <i name="e_0_energy">    -37.10178252 </i>
   </energy>
  </scstep>
  <scstep>
   <time name="dav">    0.41    0.41</time>
   <time name="total">    0.49    0.50</time>
   <energy>
    <i name="e_fr_energy">    -37.09791827 </i>
    <i name="e_wo_entrp">    -37.07637499 </i>
    <i name="e_0_energy">    -37.09073717 </i>
   </energy>
  </scstep>
  <scstep>
   <time name="dav">    0.40    0.40</time>
   <time name="total">    0.48    0.48</time>
   <energy>
    <i name="e_fr_energy">    -37.09229488 </i>
    <i name="e_wo_entrp">    -37.06777337 </i>
    <i name="e_0_energy">    -37.08412104 </i>
   </energy>
  </scstep>
  <scstep>
   <time name="dav">    0.38    0.38</time>
   <time name="total">    0.46    0.46</time>
   <energy>
    <i name="e_fr_energy">    -37.09245013 </i>
    <i name="e_wo_entrp">    -37.06555399 </i>
    <i name="e_0_energy">    -37.08348475 </i>
   </energy>
  </scstep>
  <scstep>
   <time name="dav">    0.35    0.35</time>
   <time name="total">    0.43    0.43</time>
   <energy>
    <i name="e_fr_energy">    -37.09117786 </i>
    <i name="e_wo_entrp">    -37.06482407 </i>
    <i name="e_0_energy">    -37.08239327 </i>
   </energy>
  </scstep>
  <scstep>
   <time name="dav">    0.41    0.41</time>
   <time name="total">    0.49    0.49</time>
   <energy>
    <i name="e_fr_energy">    -37.09087292 </i>
    <i name="e_wo_entrp">    -37.06481222 </i>
    <i name="e_0_energy">    -37.08218602 </i>
   </energy>
  </scstep>
  <scstep>
   <time name="dav">    0.27    0.27</time>
   <time name="total">    0.29    0.30</time>
   <energy>
    <i name="alphaZ">    285.34744303 </i>
    <i name="ewald">  53063.21157964 </i>
    <i name="hartreedc"> -64008.62186547 </i>
    <i name="XCdc">    363.09233055 </i>
    <i name="pawpsdc">  10604.49395469 </i>
    <i name="pawaedc"> -11467.16032260 </i>
    <i name="eentropy">     -0.02539889 </i>
    <i name="bandstr">    -30.04695403 </i>
    <i name="atom">  11152.61838693 </i>
    <i name="e_fr_energy">    -37.09084615 </i>
    <i name="e_wo_entrp">    -37.06544726 </i>
    <i name="e_0_energy">    -37.08237985 </i>
   </energy>
  </scstep>
  <structure>
   <crystal>
    <varray name="basis" >
     <v>       2.56679773       0.00000000       0.00000000 </v>
     <v>       1.28339887       2.22291204       0.00000000 </v>
     <v>       0.00000000       0.00000000      29.67047119 </v>
    </varray>
    <i name="volume">    169.29275369 </i>
    <varray name="rec_basis" >
     <v>       0.38959050      -0.22493018       0.00000000 </v>
     <v>       0.00000000       0.44986035       0.00000000 </v>
     <v>       0.00000000       0.00000000       0.03370354 </v>
    </varray>
   </crystal>
   <varray name="positions" >
    <v>      -0.00000927       0.00001855       0.00270628 </v>
    <v>       0.33334612       0.33330776       0.06860728 </v>
    <v>       0.66664956       0.66670088       0.13892875 </v>
    <v>       0.00005027      -0.00010054       0.20813226 </v>
    <v>       0.33325093       0.33349814       0.27644160 </v>
    <v>       0.66680572       0.66638857       0.34536586 </v>
    <v>       0.00003516      -0.00007032       0.41309614 </v>
    <v>       0.33324670       0.33350660       0.47819920 </v>
    <v>       0.83323806       0.33352388       0.53571596 </v>
    <v>       0.83338676       0.33322649       0.56187580 </v>
   </varray>
  </structure>
  <varray name="forces" >
   <v>       0.00000000       0.00036639      -0.20854325 </v>
   <v>      -0.00000000      -0.00100815       0.50109972 </v>
   <v>       0.00000000       0.00032017      -0.18544668 </v>
   <v>      -0.00000000      -0.00003562      -0.04121552 </v>
   <v>       0.00000000       0.00027434      -0.02830088 </v>
   <v>      -0.00000000      -0.00105482      -0.12879516 </v>
   <v>       0.00000000       0.00009057      -0.35446146 </v>
   <v>      -0.00000000      -0.00020594       0.08379158 </v>
   <v>       0.00000000       0.00177051       0.23774500 </v>
   <v>      -0.00000000      -0.00051745       0.12412666 </v>
  </varray>
  <varray name="stress" >
   <v>     -42.01122160      -0.00000000       0.00000000 </v>
   <v>      -0.00000000     -41.67713484       0.05245061 </v>
   <v>       0.00000000       0.05245663       3.73130768 </v>
  </varray>
  <energy>
   <i name="e_fr_energy">    -40.78378741 </i>
   <i name="e_wo_entrp">    -40.75838852 </i>
   <i name="e_0_energy">    -40.77532111 </i>
  </energy>
  <time name="totalsc">    3.94    4.02</time>
 </calculation>
 <calculation>
  <scstep>
   <time name="dav">    0.28    0.29</time>
   <time name="total">    0.36    0.37</time>
   <energy>
    <i name="alphaZ">    285.34744303 </i>
    <i name="ewald">  52981.09976572 </i>
    <i name="hartreedc"> -63926.93364060 </i>
    <i name="XCdc">    363.07031285 </i>
    <i name="pawpsdc">  10604.50614337 </i>
    <i name="pawaedc"> -11467.16492983 </i>
    <i name="eentropy">     -0.02619595 </i>
    <i name="bandstr">    -29.60829261 </i>
    <i name="atom">  11152.61838693 </i>
    <i name="e_fr_energy">    -37.09100710 </i>
    <i name="e_wo_entrp">    -37.06481115 </i>
    <i name="e_0_energy">    -37.08227512 </i>
   </energy>
  </scstep>
  <scstep>
   <time name="dav">    0.41    0.41</time>
   <time name="total">    0.49    0.49</time>
   <energy>
    <i name="e_fr_energy">    -37.09340494 </i>
    <i name="e_wo_entrp">    -37.06982681 </i>
    <i name="e_0_energy">    -37.08554556 </i>
   </energy>
  </scstep>
  <scstep>
   <time name="dav">    0.36    0.36</time>
   <time name="total">    0.44    0.45</time>
   <energy>
    <i name="e_fr_energy">    -37.09286691 </i>
    <i name="e_wo_entrp">    -37.06696804 </i>
    <i name="e_0_energy">    -37.08423395 </i>
   </energy>
  </scstep>
  <scstep>
   <time name="dav">    0.25    0.25</time>
   <time name="total">    0.28    0.28</time>
   <energy>
    <i name="alphaZ">    285.34744303 </i>
    <i name="ewald">  52981.09976572 </i>
    <i name="hartreedc"> -63927.13371754 </i>
    <i name="XCdc">    363.06864151 </i>
    <i name="pawpsdc">  10602.51447686 </i>
    <i name="pawaedc"> -11465.12010465 </i>
    <i name="eentropy">     -0.02562887 </i>
    <i name="bandstr">    -29.46210265 </i>
    <i name="atom">  11152.61838693 </i>
    <i name="e_fr_energy">    -37.09283967 </i>
    <i name="e_wo_entrp">    -37.06721079 </i>
    <i name="e_0_energy">    -37.08429671 </i>
   </energy>
  </scstep>
  <structure>
   <crystal>
    <varray name="basis" >
     <v>       2.56679773       0.00000000       0.00000000 </v>
     <v>       1.28339887       2.22291204       0.00000000 </v>
     <v>       0.00000000       0.00000000      29.67047119 </v>
    </varray>
    <i name="volume">    169.29275369 </i>
    <varray name="rec_basis" >
     <v>       0.38959050      -0.22493018       0.00000000 </v>
     <v>       0.00000000       0.44986035       0.00000000 </v>
     <v>       0.00000000       0.00000000       0.03370354 </v>
    </varray>
   </crystal>
   <varray name="positions" >
    <v>      -0.00000837       0.00001675       0.00243942 </v>
    <v>       0.33334486       0.33331027       0.06880221 </v>
    <v>       0.66665129       0.66669742       0.13894833 </v>
    <v>       0.00004502      -0.00009004       0.20813588 </v>
    <v>       0.33325922       0.33348156       0.27645349 </v>
    <v>       0.66679167       0.66641665       0.34538638 </v>
    <v>       0.00003174      -0.00006348       0.41319336 </v>
    <v>       0.33325534       0.33348932       0.47850895 </v>
    <v>       0.83324787       0.33350427       0.53547227 </v>
    <v>       0.83338136       0.33323729       0.56172884 </v>
   </varray>
  </structure>
  <varray name="forces" >
   <v>       0.00000000       0.00044766      -0.14541153 </v>
   <v>      -0.00000000      -0.00059750       0.41394926 </v>
   <v>       0.00000000       0.00033279      -0.16663445 </v>
   <v>      -0.00000000      -0.00054745      -0.03286826 </v>
   <v>       0.00000000       0.00063178      -0.02393235 </v>
   <v>      -0.00000000      -0.00128065      -0.11876646 </v>
   <v>       0.00000000       0.00015570      -0.32878663 </v>
   <v>      -0.00000000      -0.00004919       0.02756503 </v>
   <v>       0.00000000       0.00164904       0.28878130 </v>
   <v>      -0.00000000      -0.00074219       0.08610409 </v>
  </varray>
  <varray name="stress" >
   <v>     -40.36816310      -0.00000000       0.00000000 </v>
   <v>      -0.00000000     -40.00083410       0.04300588 </v>
   <v>       0.00000000       0.04301045       3.75931587 </v>
  </varray>
  <energy>
   <i name="e_fr_energy">    -40.78476369 </i>
   <i name="e_wo_entrp">    -40.75913482 </i>
   <i name="e_0_energy">    -40.77622073 </i>
  </energy>
  <time name="totalsc">    2.05    2.11</time>
 </calculation>
 <calculation>
  <scstep>
   <time name="dav">    0.28    0.28</time>
   <time name="total">    0.36    0.36</time>
   <energy>
    <i name="alphaZ">    285.34744303 </i>
    <i name="ewald">  53217.09877730 </i>
    <i name="hartreedc"> -64162.67507645 </i>
    <i name="XCdc">    363.07987459 </i>
    <i name="pawpsdc">  10601.68503806 </i>
    <i name="pawaedc"> -11464.26529640 </i>
    <i name="eentropy">     -0.02511523 </i>
    <i name="bandstr">    -29.95918267 </i>
    <i name="atom">  11152.61838693 </i>
    <i name="e_fr_energy">    -37.09515084 </i>
    <i name="e_wo_entrp">    -37.07003562 </i>
    <i name="e_0_energy">    -37.08677910 </i>
   </energy>
  </scstep>
  <scstep>
   <time name="dav">    0.35    0.35</time>
   <time name="total">    0.43    0.43</time>
   <energy>
    <i name="e_fr_energy">    -37.10953962 </i>
    <i name="e_wo_entrp">    -37.08391787 </i>
    <i name="e_0_energy">    -37.10099904 </i>
   </energy>
  </scstep>
  <scstep>
   <time name="dav">    0.33    0.34</time>
   <time name="total">    0.41    0.41</time>
   <energy>
    <i name="e_fr_energy">    -37.10938282 </i>
    <i name="e_wo_entrp">    -37.08527675 </i>
    <i name="e_0_energy">    -37.10134747 </i>
   </energy>
  </scstep>
  <scstep>
   <time name="dav">    0.28    0.28</time>
   <time name="total">    0.36    0.36</time>
   <energy>
    <i name="e_fr_energy">    -37.10934210 </i>
    <i name="e_wo_entrp">    -37.08277288 </i>
    <i name="e_0_energy">    -37.10048569 </i>
   </energy>
  </scstep>
  <scstep>
   <time name="dav">    0.24    0.24</time>
   <time name="total">    0.32    0.32</time>
   <energy>
    <i name="e_fr_energy">    -37.10878286 </i>
    <i name="e_wo_entrp">    -37.08457270 </i>
    <i name="e_0_energy">    -37.10071280 </i>
   </energy>
  </scstep>
  <scstep>
   <time name="dav">    0.28    0.28</time>
   <time name="total">    0.35    0.36</time>
   <energy>
    <i name="e_fr_energy">    -37.10856405 </i>
    <i name="e_wo_entrp">    -37.08281378 </i>
    <i name="e_0_energy">    -37.09998063 </i>
   </energy>
  </scstep>
  <scstep>
   <time name="dav">    0.24    0.24</time>
   <time name="total">    0.27    0.27</time>
   <energy>
    <i name="alphaZ">    285.34744303 </i>
    <i name="ewald">  53217.09877730 </i>
    <i name="hartreedc"> -64162.41469977 </i>
    <i name="XCdc">    363.10076250 </i>
    <i name="pawpsdc">  10603.39068919 </i>
    <i name="pawaedc"> -11466.01795903 </i>
    <i name="eentropy">     -0.02505122 </i>
    <i name="bandstr">    -30.20691261 </i>
    <i name="atom">  11152.61838693 </i>
    <i name="e_fr_energy">    -37.10856370 </i>
    <i name="e_wo_entrp">    -37.08351247 </i>
    <i name="e_0_energy">    -37.10021329 </i>
   </energy>
  </scstep>
  <structure>
   <crystal>
    <varray name="basis" >
     <v>       2.56679773       0.00000000       0.00000000 </v>
     <v>       1.28339887       2.22291204       0.00000000 </v>
     <v>       0.00000000       0.00000000      29.67047119 </v>
    </varray>
    <i name="volume">    169.29275369 </i>
    <varray name="rec_basis" >
     <v>       0.38959050      -0.22493018       0.00000000 </v>
     <v>       0.00000000       0.44986035       0.00000000 </v>
     <v>       0.00000000       0.00000000       0.03370354 </v>
    </varray>
   </crystal>
   <varray name="positions" >
    <v>      -0.00001578       0.00003156       0.00259169 </v>
    <v>       0.33335484       0.33329033       0.06930089 </v>
    <v>       0.66664404       0.66671193       0.13858574 </v>
    <v>       0.00006093      -0.00012185       0.20806477 </v>
    <v>       0.33323718       0.33352564       0.27638643 </v>
    <v>       0.66683179       0.66633642       0.34511712 </v>
    <v>       0.00003532      -0.00007064       0.41238123 </v>
    <v>       0.33324173       0.33351654       0.47805230 </v>
    <v>       0.83320987       0.33358026       0.53644688 </v>
    <v>       0.83340009       0.33319982       0.56214208 </v>
   </varray>
  </structure>
  <varray name="forces" >
   <v>       0.00000000       0.00025807      -0.09226111 </v>
   <v>      -0.00000000      -0.00062752       0.21359931 </v>
   <v>      -0.00000000      -0.00004452      -0.01416677 </v>
   <v>      -0.00000000      -0.00025255      -0.06787007 </v>
   <v>      -0.00000000      -0.00030464      -0.05891207 </v>
   <v>      -0.00000000      -0.00041921      -0.16553081 </v>
   <v>       0.00000000       0.00110316      -0.14768608 </v>
   <v>      -0.00000000      -0.00029097      -0.00804826 </v>
   <v>       0.00000000       0.00163520      -0.09694016 </v>
   <v>      -0.00000000      -0.00105702       0.43781603 </v>
  </varray>
  <varray name="stress" >
   <v>     -39.79721326      -0.00000000       0.00000000 </v>
   <v>      -0.00000000     -39.57951425       0.02391283 </v>
   <v>       0.00000000       0.02391754       7.58209641 </v>
  </varray>
  <energy>
   <i name="e_fr_energy">    -40.80380724 </i>
   <i name="e_wo_entrp">    -40.77875602 </i>
   <i name="e_0_energy">    -40.79545683 </i>
  </energy>
  <time name="totalsc">    2.97    3.08</time>
 </calculation>
 <calculation>
  <scstep>
   <time name="dav">    0.28    0.28</time>
   <time name="total">    0.36    0.36</time>
   <energy>
    <i name="alphaZ">    285.34744303 </i>
    <i name="ewald">  53324.18730207 </i>
    <i name="hartreedc"> -64269.69211577 </i>
    <i name="XCdc">    363.10960105 </i>
    <i name="pawpsdc">  10603.45354509 </i>
    <i name="pawaedc"> -11466.09171819 </i>
    <i name="eentropy">     -0.02504926 </i>
    <i name="bandstr">    -30.01573428 </i>
    <i name="atom">  11152.61838693 </i>
    <i name="e_fr_energy">    -37.10833933 </i>
    <i name="e_wo_entrp">    -37.08329007 </i>
    <i name="e_0_energy">    -37.09998957 </i>
   </energy>
  </scstep>
  <scstep>
   <time name="dav">    0.35    0.35</time>
   <time name="total">    0.43    0.43</time>
   <energy>
    <i name="e_fr_energy">    -37.11117248 </i>
    <i name="e_wo_entrp">    -37.08647318 </i>
    <i name="e_0_energy">    -37.10293938 </i>
   </energy>
  </scstep>
  <scstep>
   <time name="dav">    0.27    0.27</time>
   <time name="total">    0.29    0.30</time>
   <energy>
    <i name="alphaZ">    285.34744303 </i>
    <i name="ewald">  53324.18730207 </i>
    <i name="hartreedc"> -64269.55475904 </i>
    <i name="XCdc">    363.11286430 </i>
    <i name="pawpsdc">  10603.97129576 </i>
    <i name="pawaedc"> -11466.59740092 </i>
    <i name="eentropy">     -0.02506908 </i>
    <i name="bandstr">    -30.17116327 </i>
    <i name="atom">  11152.61838693 </i>
    <i name="e_fr_energy">    -37.11110021 </i>
    <i name="e_wo_entrp">    -37.08603114 </i>
    <i name="e_0_energy">    -37.10274385 </i>
   </energy>
  </scstep>
  <structure>
   <crystal>
    <varray name="basis" >
     <v>       2.56679773       0.00000000       0.00000000 </v>
     <v>       1.28339887       2.22291204       0.00000000 </v>
     <v>       0.00000000       0.00000000      29.67047119 </v>
    </varray>
    <i name="volume">    169.29275369 </i>
    <varray name="rec_basis" >
     <v>       0.38959050      -0.22493018       0.00000000 </v>
     <v>       0.00000000       0.44986035       0.00000000 </v>
     <v>       0.00000000       0.00000000       0.03370354 </v>
    </varray>
   </crystal>
   <varray name="positions" >
    <v>      -0.00001913       0.00003826       0.00266055 </v>
    <v>       0.33335935       0.33328131       0.06952641 </v>
    <v>       0.66664076       0.66671848       0.13842177 </v>
    <v>       0.00006812      -0.00013624       0.20803261 </v>
    <v>       0.33322721       0.33354558       0.27635611 </v>
    <v>       0.66684993       0.66630014       0.34499536 </v>
    <v>       0.00003694      -0.00007388       0.41201397 </v>
    <v>       0.33323558       0.33352884       0.47784579 </v>
    <v>       0.83319269       0.33361463       0.53688761 </v>
    <v>       0.83340856       0.33318288       0.56232895 </v>
   </varray>
  </structure>
  <varray name="forces" >
   <v>       0.00000000       0.00013823      -0.06287648 </v>
   <v>      -0.00000000      -0.00026826       0.15377486 </v>
   <v>      -0.00000000      -0.00001065       0.04447856 </v>
   <v>      -0.00000000      -0.00008724      -0.08576451 </v>
   <v>      -0.00000000      -0.00039048      -0.07879435 </v>
   <v>      -0.00000000      -0.00044656      -0.20120048 </v>
   <v>       0.00000000       0.00074568      -0.08622777 </v>
   <v>      -0.00000000      -0.00030692      -0.02819475 </v>
   <v>       0.00000000       0.00179926      -0.28315565 </v>
   <v>      -0.00000000      -0.00117305       0.62796058 </v>
  </varray>
  <varray name="stress" >
   <v>     -40.74871748      -0.00000000       0.00000000 </v>
   <v>      -0.00000000     -40.64093004       0.03019247 </v>
   <v>       0.00000000       0.03019669       7.84347986 </v>
  </varray>
  <energy>
   <i name="e_fr_energy">    -40.80806071 </i>
   <i name="e_wo_entrp">    -40.78299163 </i>
   <i name="e_0_energy">    -40.79970435 </i>
  </energy>
  <time name="totalsc">    1.54    1.63</time>
 </calculation>
 <calculation>
  <scstep>
   <time name="dav">    0.28    0.28</time>
   <time name="total">    0.36    0.36</time>
   <energy>
    <i name="alphaZ">    285.34744303 </i>
    <i name="ewald">  53473.35288250 </i>
    <i name="hartreedc"> -64418.52168093 </i>
    <i name="XCdc">    363.09607387 </i>
    <i name="pawpsdc">  10604.11376602 </i>
    <i name="pawaedc"> -11466.72421130 </i>
    <i name="eentropy">     -0.02533275 </i>
    <i name="bandstr">    -30.37292099 </i>
    <i name="atom">  11152.61838693 </i>
    <i name="e_fr_energy">    -37.11559361 </i>
    <i name="e_wo_entrp">    -37.09026086 </i>
    <i name="e_0_energy">    -37.10714936 </i>
   </energy>
  </scstep>
  <scstep>
   <time name="dav">    0.35    0.35</time>
   <time name="total">    0.43    0.43</time>
   <energy>
    <i name="e_fr_energy">    -37.12082875 </i>
    <i name="e_wo_entrp">    -37.09554026 </i>
    <i name="e_0_energy">    -37.11239925 </i>
   </energy>
  </scstep>
  <scstep>
   <time name="dav">    0.31    0.32</time>
   <time name="total">    0.39    0.39</time>
   <energy>
    <i name="e_fr_energy">    -37.12079444 </i>
    <i name="e_wo_entrp">    -37.09660155 </i>
    <i name="e_0_energy">    -37.11273014 </i>
   </energy>
  </scstep>
  <scstep>
   <time name="dav">    0.24    0.24</time>
   <time name="total">    0.32    0.32</time>
   <energy>
    <i name="e_fr_energy">    -37.12076330 </i>
    <i name="e_wo_entrp">    -37.09430742 </i>
    <i name="e_0_energy">    -37.11194467 </i>
   </energy>
  </scstep>
  <scstep>
   <time name="dav">    0.23    0.24</time>
   <time name="total">    0.31    0.31</time>
   <energy>
    <i name="e_fr_energy">    -37.12030809 </i>
    <i name="e_wo_entrp">    -37.09638265 </i>
    <i name="e_0_energy">    -37.11233294 </i>
   </energy>
  </scstep>
  <scstep>
   <time name="dav">    0.23    0.23</time>
   <time name="total">    0.25    0.25</time>
   <energy>
    <i name="alphaZ">    285.34744303 </i>
    <i name="ewald">  53473.35288250 </i>
    <i name="hartreedc"> -64417.73490369 </i>
    <i name="XCdc">    363.08023325 </i>
    <i name="pawpsdc">  10604.37602802 </i>
    <i name="pawaedc"> -11467.02400685 </i>
    <i name="eentropy">     -0.02547803 </i>
    <i name="bandstr">    -31.11080830 </i>
    <i name="atom">  11152.61838693 </i>
    <i name="e_fr_energy">    -37.12022313 </i>
    <i name="e_wo_entrp">    -37.09474511 </i>
    <i name="e_0_energy">    -37.11173046 </i>
   </energy>
  </scstep>
  <structure>
   <crystal>
    <varray name="basis" >
     <v>       2.56679773       0.00000000       0.00000000 </v>
     <v>       1.28339887       2.22291204       0.00000000 </v>
     <v>       0.00000000       0.00000000      29.67047119 </v>
    </varray>
    <i name="volume">    169.29275369 </i>
    <varray name="rec_basis" >
     <v>       0.38959050      -0.22493018       0.00000000 </v>
     <v>       0.00000000       0.44986035       0.00000000 </v>
     <v>       0.00000000       0.00000000       0.03370354 </v>
    </varray>
   </crystal>
   <varray name="positions" >
    <v>      -0.00002362       0.00004725       0.00267901 </v>
    <v>       0.33336589       0.33326822       0.06991169 </v>
    <v>       0.66663724       0.66672552       0.13828277 </v>
    <v>       0.00007650      -0.00015301       0.20792002 </v>
    <v>       0.33321867       0.33356265       0.27625182 </v>
    <v>       0.66687245       0.66625511       0.34468061 </v>
    <v>       0.00003421      -0.00006843       0.41153481 </v>
    <v>       0.33323070       0.33353859       0.47759468 </v>
    <v>       0.83316307       0.33367386       0.53711349 </v>
    <v>       0.83342489       0.33315022       0.56310023 </v>
   </varray>
  </structure>
  <varray name="forces" >
   <v>       0.00000000       0.00038061       0.00695534 </v>
   <v>      -0.00000000      -0.00033444       0.00390278 </v>
   <v>      -0.00000000      -0.00004493       0.12973691 </v>
   <v>       0.00000000       0.00015907      -0.08015882 </v>
   <v>      -0.00000000      -0.00052059      -0.11011541 </v>
   <v>      -0.00000000      -0.00003045      -0.19329577 </v>
   <v>      -0.00000000      -0.00022500      -0.01749289 </v>
   <v>      -0.00000000      -0.00041107      -0.02431262 </v>
   <v>       0.00000000       0.00135872       0.13185481 </v>
   <v>      -0.00000000      -0.00033193       0.15292568 </v>
  </varray>
  <varray name="stress" >
   <v>     -42.48840657      -0.00000000       0.00000000 </v>
   <v>      -0.00000000     -42.27657886       0.02157782 </v>
   <v>       0.00000000       0.02158130       2.36133543 </v>
  </varray>
  <energy>
   <i name="e_fr_energy">    -40.82083409 </i>
   <i name="e_wo_entrp">    -40.79535606 </i>
   <i name="e_0_energy">    -40.81234141 </i>
  </energy>
  <time name="totalsc">    2.52    2.65</time>
 </calculation>
 <calculation>
  <scstep>
   <time name="dav">    0.28    0.28</time>
   <time name="total">    0.36    0.36</time>
   <energy>
    <i name="alphaZ">    285.34744303 </i>
    <i name="ewald">  53564.02307216 </i>
    <i name="hartreedc"> -64508.15381262 </i>
    <i name="XCdc">    363.07028886 </i>
    <i name="pawpsdc">  10604.33054426 </i>
    <i name="pawaedc"> -11466.97553827 </i>
    <i name="eentropy">     -0.02572027 </i>
    <i name="bandstr">    -31.35314897 </i>
    <i name="atom">  11152.61838693 </i>
    <i name="e_fr_energy">    -37.11848488 </i>
    <i name="e_wo_entrp">    -37.09276462 </i>
    <i name="e_0_energy">    -37.10991146 </i>
   </energy>
  </scstep>
  <scstep>
   <time name="dav">    0.38    0.38</time>
   <time name="total">    0.46    0.46</time>
   <energy>
    <i name="e_fr_energy">    -37.12065898 </i>
    <i name="e_wo_entrp">    -37.09675913 </i>
    <i name="e_0_energy">    -37.11269236 </i>
   </energy>
  </scstep>
  <scstep>
   <time name="dav">    0.32    0.33</time>
   <time name="total">    0.40    0.41</time>
   <energy>
    <i name="e_fr_energy">    -37.12064189 </i>
    <i name="e_wo_entrp">    -37.09456409 </i>
    <i name="e_0_energy">    -37.11194929 </i>
   </energy>
  </scstep>
  <scstep>
   <time name="dav">    0.22    0.23</time>
   <time name="total">    0.30    0.31</time>
   <energy>
    <i name="e_fr_energy">    -37.12047386 </i>
    <i name="e_wo_entrp">    -37.09543175 </i>
    <i name="e_0_energy">    -37.11212649 </i>
   </energy>
  </scstep>
  <scstep>
   <time name="dav">    0.23    0.23</time>
   <time name="total">    0.26    0.26</time>
   <energy>
    <i name="alphaZ">    285.34744303 </i>
    <i name="ewald">  53564.02307216 </i>
    <i name="hartreedc"> -64506.77452435 </i>
    <i name="XCdc">    363.05879614 </i>
    <i name="pawpsdc">  10604.01719268 </i>
    <i name="pawaedc"> -11466.65244744 </i>
    <i name="eentropy">     -0.02482318 </i>
    <i name="bandstr">    -32.73355797 </i>
    <i name="atom">  11152.61838693 </i>
    <i name="e_fr_energy">    -37.12046201 </i>
    <i name="e_wo_entrp">    -37.09563883 </i>
    <i name="e_0_energy">    -37.11218762 </i>
   </energy>
  </scstep>
  <structure>
   <crystal>
    <varray name="basis" >
     <v>       2.56679773       0.00000000       0.00000000 </v>
     <v>       1.28339887       2.22291204       0.00000000 </v>
     <v>       0.00000000       0.00000000      29.67047119 </v>
    </varray>
    <i name="volume">    169.29275369 </i>
    <varray name="rec_basis" >
     <v>       0.38959050      -0.22493018       0.00000000 </v>
     <v>       0.00000000       0.44986035       0.00000000 </v>
     <v>       0.00000000       0.00000000       0.03370354 </v>
    </varray>
   </crystal>
   <varray name="positions" >
    <v>      -0.00002635       0.00005270       0.00269020 </v>
    <v>       0.33336986       0.33326029       0.07014527 </v>
    <v>       0.66663510       0.66672979       0.13819850 </v>
    <v>       0.00008159      -0.00016317       0.20785177 </v>
    <v>       0.33321350       0.33357301       0.27618860 </v>
    <v>       0.66688609       0.66622781       0.34448980 </v>
    <v>       0.00003256      -0.00006512       0.41124432 </v>
    <v>       0.33322775       0.33354450       0.47744245 </v>
    <v>       0.83314511       0.33370978       0.53725042 </v>
    <v>       0.83343479       0.33313043       0.56356781 </v>
   </varray>
  </structure>
  <varray name="forces" >
   <v>       0.00000000       0.00034134       0.03555687 </v>
   <v>       0.00000000       0.00043072      -0.05642088 </v>
   <v>      -0.00000000      -0.00021715       0.16086017 </v>
   <v>       0.00000000       0.00018299      -0.08207347 </v>
   <v>      -0.00000000      -0.00086929      -0.12135804 </v>
   <v>      -0.00000000      -0.00004699      -0.19046967 </v>
   <v>      -0.00000000      -0.00041526       0.02483137 </v>
   <v>      -0.00000000      -0.00059182      -0.03034710 </v>
   <v>       0.00000000       0.00102972       0.35861509 </v>
   <v>       0.00000000       0.00015575      -0.09919435 </v>
  </varray>
  <varray name="stress" >
   <v>     -37.28752188      -0.00000000       0.00000000 </v>
   <v>      -0.00000000     -37.07254976       0.03121120 </v>
   <v>       0.00000000       0.03121600       6.56521042 </v>
  </varray>
  <energy>
   <i name="e_fr_energy">    -40.82368846 </i>
   <i name="e_wo_entrp">    -40.79886527 </i>
   <i name="e_0_energy">    -40.81541406 </i>
  </energy>
  <time name="totalsc">    2.25    2.34</time>
 </calculation>
 <calculation>
  <scstep>
   <time name="dav">    0.28    0.28</time>
   <time name="total">    0.36    0.36</time>
   <energy>
    <i name="alphaZ">    285.34744303 </i>
    <i name="ewald">  53689.14820551 </i>
    <i name="hartreedc"> -64632.44789219 </i>
    <i name="XCdc">    363.05736970 </i>
    <i name="pawpsdc">  10604.18535606 </i>
    <i name="pawaedc"> -11466.83378940 </i>
    <i name="eentropy">     -0.02581530 </i>
    <i name="bandstr">    -32.17236579 </i>
    <i name="atom">  11152.61838693 </i>
    <i name="e_fr_energy">    -37.12310144 </i>
    <i name="e_wo_entrp">    -37.09728614 </i>
    <i name="e_0_energy">    -37.11449634 </i>
   </energy>
  </scstep>
  <scstep>
   <time name="dav">    0.37    0.37</time>
   <time name="total">    0.45    0.45</time>
   <energy>
    <i name="e_fr_energy">    -37.12688987 </i>
    <i name="e_wo_entrp">    -37.10295173 </i>
    <i name="e_0_energy">    -37.11891049 </i>
   </energy>
  </scstep>
  <scstep>
   <time name="dav">    0.31    0.31</time>
   <time name="total">    0.39    0.39</time>
   <energy>
    <i name="e_fr_energy">    -37.12680278 </i>
    <i name="e_wo_entrp">    -37.10098934 </i>
    <i name="e_0_energy">    -37.11819830 </i>
   </energy>
  </scstep>
  <scstep>
   <time name="dav">    0.23    0.23</time>
   <time name="total">    0.25    0.25</time>
   <energy>
    <i name="alphaZ">    285.34744303 </i>
    <i name="ewald">  53689.14820551 </i>
    <i name="hartreedc"> -64631.48630738 </i>
    <i name="XCdc">    363.05650007 </i>
    <i name="pawpsdc">  10604.42835257 </i>
    <i name="pawaedc"> -11467.05220870 </i>
    <i name="eentropy">     -0.02482905 </i>
    <i name="bandstr">    -33.16225399 </i>
    <i name="atom">  11152.61838693 </i>
    <i name="e_fr_energy">    -37.12671100 </i>
    <i name="e_wo_entrp">    -37.10188195 </i>
    <i name="e_0_energy">    -37.11843465 </i>
   </energy>
  </scstep>
  <structure>
   <crystal>
    <varray name="basis" >
     <v>       2.56679773       0.00000000       0.00000000 </v>
     <v>       1.28339887       2.22291204       0.00000000 </v>
     <v>       0.00000000       0.00000000      29.67047119 </v>
    </varray>
    <i name="volume">    169.29275369 </i>
    <varray name="rec_basis" >
     <v>       0.38959050      -0.22493018       0.00000000 </v>
     <v>       0.00000000       0.44986035       0.00000000 </v>
     <v>       0.00000000       0.00000000       0.03370354 </v>
    </varray>
   </crystal>
   <varray name="positions" >
    <v>      -0.00003170       0.00006339       0.00273870 </v>
    <v>       0.33337138       0.33325724       0.07034900 </v>
    <v>       0.66663419       0.66673162       0.13826726 </v>
    <v>       0.00008603      -0.00017205       0.20769244 </v>
[...]
       <r>    11.2258     1.3389    57.6653 </r>
       <r>    11.3159     0.1019    57.6745 </r>
       <r>    11.4061    -0.0299    57.6718 </r>
       <r>    11.4963     0.8107    57.7449 </r>
       <r>    11.5865     2.2334    57.9464 </r>
       <r>    11.6767     3.5343    58.2652 </r>
       <r>    11.7669     3.7928    58.6073 </r>
       <r>    11.8571     2.7768    58.8577 </r>
       <r>    11.9473     1.4329    58.9870 </r>
       <r>    12.0375     0.9664    59.0741 </r>
       <r>    12.1277     1.5681    59.2156 </r>
       <r>    12.2179     2.2345    59.4171 </r>
       <r>    12.3081     1.9429    59.5923 </r>
       <r>    12.3983     0.9075    59.6742 </r>
       <r>    12.4885     0.1075    59.6839 </r>
       <r>    12.5787    -0.1082    59.6741 </r>
       <r>    12.6689    -0.0635    59.6684 </r>
       <r>    12.7591    -0.0166    59.6669 </r>
       <r>    12.8493    -0.0037    59.6666 </r>
       <r>    12.9395    -0.0083    59.6658 </r>
       <r>    13.0297    -0.0291    59.6632 </r>
       <r>    13.1198    -0.0422    59.6594 </r>
       <r>    13.2100     0.0762    59.6663 </r>
       <r>    13.3002     0.4473    59.7066 </r>
       <r>    13.3904     0.8414    59.7825 </r>
       <r>    13.4806     0.8116    59.8557 </r>
       <r>    13.5708     0.3955    59.8914 </r>
       <r>    13.6610     0.0505    59.8959 </r>
       <r>    13.7512    -0.0440    59.8919 </r>
       <r>    13.8414    -0.0260    59.8896 </r>
       <r>    13.9316    -0.0067    59.8890 </r>
       <r>    14.0218    -0.0010    59.8889 </r>
       <r>    14.1120    -0.0001    59.8889 </r>
       <r>    14.2022    -0.0000    59.8889 </r>
       <r>    14.2924    -0.0000    59.8889 </r>
       <r>    14.3826    -0.0000    59.8889 </r>
       <r>    14.4728    -0.0000    59.8889 </r>
       <r>    14.5630    -0.0000    59.8889 </r>
       <r>    14.6532    -0.0000    59.8889 </r>
       <r>    14.7434    -0.0000    59.8889 </r>
       <r>    14.8336    -0.0000    59.8889 </r>
       <r>    14.9238    -0.0000    59.8889 </r>
       <r>    15.0139    -0.0000    59.8889 </r>
       <r>    15.1041    -0.0000    59.8889 </r>
       <r>    15.1943    -0.0000    59.8889 </r>
       <r>    15.2845    -0.0000    59.8889 </r>
       <r>    15.3747    -0.0000    59.8889 </r>
       <r>    15.4649    -0.0000    59.8889 </r>
       <r>    15.5551    -0.0000    59.8889 </r>
       <r>    15.6453    -0.0001    59.8889 </r>
       <r>    15.7355    -0.0007    59.8888 </r>
       <r>    15.8257    -0.0046    59.8884 </r>
       <r>    15.9159    -0.0162    59.8869 </r>
       <r>    16.0061    -0.0217    59.8850 </r>
       <r>    16.0963     0.0485    59.8894 </r>
       <r>    16.1865     0.2509    59.9120 </r>
       <r>    16.2767     0.4417    59.9518 </r>
       <r>    16.3669     0.3936    59.9873 </r>
       <r>    16.4571     0.1687    60.0026 </r>
       <r>    16.5473     0.0093    60.0034 </r>
       <r>    16.6375    -0.0235    60.0013 </r>
       <r>    16.7277    -0.0112    60.0003 </r>
       <r>    16.8178    -0.0025    60.0000 </r>
       <r>    16.9080    -0.0003    60.0000 </r>
       <r>    16.9982    -0.0000    60.0000 </r>
       <r>    17.0884    -0.0000    60.0000 </r>
       <r>    17.1786    -0.0000    60.0000 </r>
       <r>    17.2688    -0.0000    60.0000 </r>
       <r>    17.3590    -0.0000    60.0000 </r>
       <r>    17.4492    -0.0000    60.0000 </r>
       <r>    17.5394    -0.0000    60.0000 </r>
       <r>    17.6296     0.0000    60.0000 </r>
       <r>    17.7198     0.0000    60.0000 </r>
       <r>    17.8100     0.0000    60.0000 </r>
       <r>    17.9002     0.0000    60.0000 </r>
       <r>    17.9904     0.0000    60.0000 </r>
       <r>    18.0806     0.0000    60.0000 </r>
       <r>    18.1708     0.0000    60.0000 </r>
       <r>    18.2610     0.0000    60.0000 </r>
      </set>
      <set comment="spin 2">
       <r>    -8.7976     0.0000     0.0000 </r>
       <r>    -8.7074     0.0000     0.0000 </r>
       <r>    -8.6172     0.0000     0.0000 </r>
       <r>    -8.5270     0.0000     0.0000 </r>
       <r>    -8.4368    -0.0000    -0.0000 </r>
       <r>    -8.3466    -0.0000    -0.0000 </r>
       <r>    -8.2564    -0.0000    -0.0000 </r>
       <r>    -8.1662    -0.0000    -0.0000 </r>
       <r>    -8.0760    -0.0000    -0.0000 </r>
       <r>    -7.9858    -0.0000    -0.0000 </r>
       <r>    -7.8956    -0.0000    -0.0000 </r>
       <r>    -7.8054    -0.0000    -0.0000 </r>
       <r>    -7.7152    -0.0000    -0.0000 </r>
       <r>    -7.6250    -0.0000    -0.0000 </r>
       <r>    -7.5348    -0.0000    -0.0000 </r>
       <r>    -7.4446    -0.0000    -0.0000 </r>
       <r>    -7.3544    -0.0003    -0.0000 </r>
       <r>    -7.2643    -0.0025    -0.0003 </r>
       <r>    -7.1741    -0.0112    -0.0013 </r>
       <r>    -7.0839    -0.0235    -0.0034 </r>
       <r>    -6.9937     0.0091    -0.0026 </r>
       <r>    -6.9035     0.1668     0.0125 </r>
       <r>    -6.8133     0.3839     0.0471 </r>
       <r>    -6.7231     0.4187     0.0849 </r>
       <r>    -6.6329     0.2513     0.1075 </r>
       <r>    -6.5427     0.1920     0.1248 </r>
       <r>    -6.4525     0.3434     0.1558 </r>
       <r>    -6.3623     0.4121     0.1930 </r>
       <r>    -6.2721     0.2656     0.2169 </r>
       <r>    -6.1819     0.1856     0.2337 </r>
       <r>    -6.0917     0.3304     0.2635 </r>
       <r>    -6.0015     0.4328     0.3025 </r>
       <r>    -5.9113     0.2807     0.3278 </r>
       <r>    -5.8211     0.0607     0.3333 </r>
       <r>    -5.7309     0.0391     0.3368 </r>
       <r>    -5.6407     0.2434     0.3588 </r>
       <r>    -5.5505     0.4396     0.3984 </r>
       <r>    -5.4603     0.3836     0.4330 </r>
       <r>    -5.3702     0.1577     0.4473 </r>
       <r>    -5.2800     0.0048     0.4477 </r>
       <r>    -5.1898    -0.0262     0.4453 </r>
       <r>    -5.0996    -0.0227     0.4433 </r>
       <r>    -5.0094    -0.0260     0.4409 </r>
       <r>    -4.9192     0.0155     0.4423 </r>
       <r>    -4.8290     0.1849     0.4590 </r>
       <r>    -4.7388     0.4057     0.4956 </r>
       <r>    -4.6486     0.4341     0.5348 </r>
       <r>    -4.5584     0.2315     0.5557 </r>
       <r>    -4.4682     0.0226     0.5577 </r>
       <r>    -4.3780    -0.0931     0.5493 </r>
       <r>    -4.2878    -0.1566     0.5352 </r>
       <r>    -4.1976     0.0627     0.5408 </r>
       <r>    -4.1074     1.0039     0.6314 </r>
       <r>    -4.0172     2.2601     0.8352 </r>
       <r>    -3.9270     2.6006     1.0698 </r>
       <r>    -3.8368     2.1900     1.2673 </r>
       <r>    -3.7466     2.3721     1.4813 </r>
       <r>    -3.6564     2.7920     1.7331 </r>
       <r>    -3.5663     2.4570     1.9547 </r>
       <r>    -3.4761     2.2178     2.1547 </r>
       <r>    -3.3859     2.5291     2.3828 </r>
       <r>    -3.2957     2.0946     2.5718 </r>
       <r>    -3.2055     0.9541     2.6578 </r>
       <r>    -3.1153     0.9255     2.7413 </r>
       <r>    -3.0251     2.3040     2.9491 </r>
       <r>    -2.9349     3.0172     3.2212 </r>
       <r>    -2.8447     1.8680     3.3897 </r>
       <r>    -2.7545     0.5831     3.4423 </r>
       <r>    -2.6643     1.3062     3.5601 </r>
       <r>    -2.5741     3.4738     3.8735 </r>
       <r>    -2.4839     4.2688     4.2585 </r>
       <r>    -2.3937     2.7329     4.5050 </r>
       <r>    -2.3035     1.3473     4.6265 </r>
       <r>    -2.2133     1.7712     4.7862 </r>
       <r>    -2.1231     2.3998     5.0027 </r>
       <r>    -2.0329     1.8319     5.1679 </r>
       <r>    -1.9427     1.3026     5.2854 </r>
       <r>    -1.8525     1.9324     5.4597 </r>
       <r>    -1.7623     3.3646     5.7632 </r>
       <r>    -1.6722     6.0376     6.3077 </r>
       <r>    -1.5820    10.4067     7.2464 </r>
       <r>    -1.4918    14.3484     8.5405 </r>
       <r>    -1.4016    14.6924     9.8657 </r>
       <r>    -1.3114    11.2576    10.8811 </r>
       <r>    -1.2212     7.5660    11.5635 </r>
       <r>    -1.1310     6.0805    12.1119 </r>
       <r>    -1.0408     5.7432    12.6299 </r>
       <r>    -0.9506     5.1602    13.0954 </r>
       <r>    -0.8604     4.9721    13.5438 </r>
       <r>    -0.7702     6.6877    14.1470 </r>
       <r>    -0.6800     9.9080    15.0407 </r>
       <r>    -0.5898    12.7636    16.1919 </r>
       <r>    -0.4996    15.1585    17.5591 </r>
       <r>    -0.4094    17.2513    19.1151 </r>
       <r>    -0.3192    17.0067    20.6490 </r>
       <r>    -0.2290    13.7213    21.8866 </r>
       <r>    -0.1388    10.1146    22.7989 </r>
       <r>    -0.0486     8.5134    23.5668 </r>
       <r>     0.0416     8.7405    24.3551 </r>
       <r>     0.1317    10.0469    25.2613 </r>
       <r>     0.2219    12.1716    26.3591 </r>
       <r>     0.3121    14.4607    27.6634 </r>
       <r>     0.4023    15.4694    29.0587 </r>
       <r>     0.4925    15.5205    30.4585 </r>
       <r>     0.5827    16.9970    31.9916 </r>
       <r>     0.6729    20.1152    33.8059 </r>
       <r>     0.7631    22.2804    35.8155 </r>
       <r>     0.8533    21.3654    37.7425 </r>
       <r>     0.9435    17.8287    39.3506 </r>
       <r>     1.0337    14.5587    40.6637 </r>
       <r>     1.1239    13.5476    41.8856 </r>
       <r>     1.2141    12.7264    43.0335 </r>
       <r>     1.3043     9.4547    43.8863 </r>
       <r>     1.3945     4.9527    44.3330 </r>
       <r>     1.4847     1.6301    44.4800 </r>
       <r>     1.5749     0.0376    44.4834 </r>
       <r>     1.6651    -0.4013    44.4472 </r>
       <r>     1.7553    -0.2309    44.4264 </r>
       <r>     1.8455     0.6108    44.4815 </r>
       <r>     1.9357     2.0727    44.6684 </r>
       <r>     2.0258     2.9490    44.9344 </r>
       <r>     2.1160     2.2814    45.1402 </r>
       <r>     2.2062     0.9627    45.2270 </r>
       <r>     2.2964     0.2807    45.2523 </r>
       <r>     2.3866     0.2983    45.2792 </r>
       <r>     2.4768     0.3751    45.3130 </r>
       <r>     2.5670     0.2208    45.3330 </r>
       <r>     2.6572     0.0103    45.3339 </r>
       <r>     2.7474    -0.1276    45.3224 </r>
       <r>     2.8376    -0.1353    45.3102 </r>
       <r>     2.9278     0.3674    45.3433 </r>
       <r>     3.0180     1.6372    45.4910 </r>
       <r>     3.1082     2.6939    45.7340 </r>
       <r>     3.1984     2.2591    45.9377 </r>
       <r>     3.2886     0.8916    46.0181 </r>
       <r>     3.3788     0.0118    46.0192 </r>
       <r>     3.4690    -0.1381    46.0068 </r>
       <r>     3.5592    -0.0603    46.0013 </r>
       <r>     3.6494    -0.0129    46.0002 </r>
       <r>     3.7396    -0.0017    46.0000 </r>
       <r>     3.8297    -0.0006    46.0000 </r>
       <r>     3.9199    -0.0051    45.9995 </r>
       <r>     4.0101    -0.0311    45.9967 </r>
       <r>     4.1003    -0.1041    45.9873 </r>
       <r>     4.1905    -0.1209    45.9764 </r>
       <r>     4.2807     0.3618    46.0090 </r>
       <r>     4.3709     1.6222    46.1553 </r>
       <r>     4.4611     2.6897    46.3979 </r>
       <r>     4.5513     2.2719    46.6028 </r>
       <r>     4.6415     0.9056    46.6845 </r>
       <r>     4.7317     0.0166    46.6860 </r>
       <r>     4.8219    -0.1385    46.6735 </r>
       <r>     4.9121    -0.0611    46.6680 </r>
       <r>     5.0023    -0.0132    46.6668 </r>
       <r>     5.0925    -0.0018    46.6667 </r>
       <r>     5.1827    -0.0016    46.6665 </r>
       <r>     5.2729    -0.0117    46.6655 </r>
       <r>     5.3631    -0.0579    46.6602 </r>
       <r>     5.4533    -0.1563    46.6462 </r>
       <r>     5.5435    -0.1231    46.6350 </r>
       <r>     5.6337     0.5479    46.6845 </r>
       <r>     5.7238     2.1658    46.8798 </r>
       <r>     5.8140     4.2700    47.2649 </r>
       <r>     5.9042     5.7691    47.7853 </r>
       <r>     5.9944     5.3851    48.2710 </r>
       <r>     6.0846     3.2931    48.5680 </r>
       <r>     6.1748     1.5576    48.7085 </r>
       <r>     6.2650     1.1573    48.8129 </r>
       <r>     6.3552     1.1374    48.9155 </r>
       <r>     6.4454     0.8111    48.9886 </r>
       <r>     6.5356     0.4681    49.0309 </r>
       <r>     6.6258     0.3663    49.0639 </r>
       <r>     6.7160     0.3880    49.0989 </r>
       <r>     6.8062     0.5215    49.1459 </r>
       <r>     6.8964     0.8149    49.2194 </r>
       <r>     6.9866     1.4306    49.3485 </r>
       <r>     7.0768     2.5923    49.5823 </r>
       <r>     7.1670     3.4587    49.8942 </r>
       <r>     7.2572     2.8425    50.1506 </r>
       <r>     7.3474     1.3489    50.2723 </r>
       <r>     7.4376     0.4163    50.3098 </r>
       <r>     7.5278     0.5424    50.3587 </r>
       <r>     7.6179     1.4568    50.4901 </r>
       <r>     7.7081     2.2687    50.6948 </r>
       <r>     7.7983     2.0732    50.8818 </r>
       <r>     7.8885     1.0660    50.9779 </r>
       <r>     7.9787     0.2120    50.9970 </r>
       <r>     8.0689     0.2256    51.0174 </r>
       <r>     8.1591     1.0567    51.1127 </r>
       <r>     8.2493     1.9542    51.2889 </r>
       <r>     8.3395     2.4831    51.5129 </r>
       <r>     8.4297     2.8681    51.7716 </r>
       <r>     8.5199     2.7910    52.0233 </r>
       <r>     8.6101     1.9178    52.1963 </r>
       <r>     8.7003     1.1094    52.2964 </r>
       <r>     8.7905     1.0156    52.3880 </r>
       <r>     8.8807     1.3576    52.5104 </r>
       <r>     8.9709     2.0689    52.6970 </r>
       <r>     9.0611     2.8347    52.9527 </r>
       <r>     9.1513     2.9021    53.2145 </r>
       <r>     9.2415     2.6745    53.4557 </r>
       <r>     9.3317     3.0109    53.7273 </r>
       <r>     9.4218     3.2489    54.0203 </r>
       <r>     9.5120     2.3800    54.2350 </r>
       <r>     9.6022     1.1618    54.3398 </r>
       <r>     9.6924     1.0553    54.4349 </r>
       <r>     9.7826     1.8734    54.6039 </r>
       <r>     9.8728     2.1614    54.7989 </r>
       <r>     9.9630     1.6403    54.9468 </r>
       <r>    10.0532     1.5715    55.0885 </r>
       <r>    10.1434     2.2957    55.2956 </r>
       <r>    10.2336     2.4228    55.5141 </r>
       <r>    10.3238     1.6442    55.6624 </r>
       <r>    10.4140     1.5212    55.7996 </r>
       <r>    10.5042     2.3392    56.0106 </r>
       <r>    10.5944     2.5550    56.2411 </r>
       <r>    10.6846     1.7592    56.3997 </r>
       <r>    10.7748     1.2469    56.5122 </r>
       <r>    10.8650     1.8210    56.6764 </r>
       <r>    10.9552     2.9899    56.9461 </r>
       <r>    11.0454     3.6607    57.2763 </r>
       <r>    11.1356     2.9730    57.5444 </r>
       <r>    11.2258     1.3398    57.6653 </r>
       <r>    11.3159     0.1024    57.6745 </r>
       <r>    11.4061    -0.0300    57.6718 </r>
       <r>    11.4963     0.8103    57.7449 </r>
       <r>    11.5865     2.2327    57.9463 </r>
       <r>    11.6767     3.5334    58.2650 </r>
       <r>    11.7669     3.7925    58.6070 </r>
       <r>    11.8571     2.7775    58.8576 </r>
       <r>    11.9473     1.4337    58.9869 </r>
       <r>    12.0375     0.9663    59.0740 </r>
       <r>    12.1277     1.5673    59.2154 </r>
       <r>    12.2179     2.2341    59.4169 </r>
       <r>    12.3081     1.9437    59.5922 </r>
       <r>    12.3983     0.9085    59.6741 </r>
       <r>    12.4885     0.1080    59.6839 </r>
       <r>    12.5787    -0.1082    59.6741 </r>
       <r>    12.6689    -0.0635    59.6684 </r>
       <r>    12.7591    -0.0166    59.6669 </r>
       <r>    12.8493    -0.0037    59.6666 </r>
       <r>    12.9395    -0.0083    59.6658 </r>
       <r>    13.0297    -0.0291    59.6632 </r>
       <r>    13.1198    -0.0423    59.6594 </r>
       <r>    13.2100     0.0759    59.6662 </r>
       <r>    13.3002     0.4468    59.7065 </r>
       <r>    13.3904     0.8412    59.7824 </r>
       <r>    13.4806     0.8119    59.8556 </r>
       <r>    13.5708     0.3960    59.8913 </r>
       <r>    13.6610     0.0507    59.8959 </r>
       <r>    13.7512    -0.0440    59.8919 </r>
       <r>    13.8414    -0.0260    59.8896 </r>
       <r>    13.9316    -0.0067    59.8890 </r>
       <r>    14.0218    -0.0010    59.8889 </r>
       <r>    14.1120    -0.0001    59.8889 </r>
       <r>    14.2022    -0.0000    59.8889 </r>
       <r>    14.2924    -0.0000    59.8889 </r>
       <r>    14.3826    -0.0000    59.8889 </r>
       <r>    14.4728    -0.0000    59.8889 </r>
       <r>    14.5630    -0.0000    59.8889 </r>
       <r>    14.6532    -0.0000    59.8889 </r>
       <r>    14.7434    -0.0000    59.8889 </r>
       <r>    14.8336    -0.0000    59.8889 </r>
       <r>    14.9238    -0.0000    59.8889 </r>
       <r>    15.0139    -0.0000    59.8889 </r>
       <r>    15.1041    -0.0000    59.8889 </r>
       <r>    15.1943    -0.0000    59.8889 </r>
       <r>    15.2845    -0.0000    59.8889 </r>
       <r>    15.3747    -0.0000    59.8889 </r>
       <r>    15.4649    -0.0000    59.8889 </r>
       <r>    15.5551    -0.0000    59.8889 </r>
       <r>    15.6453    -0.0001    59.8889 </r>
       <r>    15.7355    -0.0007    59.8888 </r>
       <r>    15.8257    -0.0046    59.8884 </r>
       <r>    15.9159    -0.0162    59.8869 </r>
       <r>    16.0061    -0.0217    59.8850 </r>
       <r>    16.0963     0.0484    59.8894 </r>
       <r>    16.1865     0.2507    59.9120 </r>
       <r>    16.2767     0.4416    59.9518 </r>
       <r>    16.3669     0.3938    59.9873 </r>
       <r>    16.4571     0.1689    60.0026 </r>
       <r>    16.5473     0.0093    60.0034 </r>
       <r>    16.6375    -0.0235    60.0013 </r>
       <r>    16.7277    -0.0112    60.0003 </r>
       <r>    16.8178    -0.0025    60.0000 </r>
       <r>    16.9080    -0.0003    60.0000 </r>
       <r>    16.9982    -0.0000    60.0000 </r>
       <r>    17.0884    -0.0000    60.0000 </r>
       <r>    17.1786    -0.0000    60.0000 </r>
       <r>    17.2688    -0.0000    60.0000 </r>
       <r>    17.3590    -0.0000    60.0000 </r>
       <r>    17.4492    -0.0000    60.0000 </r>
       <r>    17.5394    -0.0000    60.0000 </r>
       <r>    17.6296     0.0000    60.0000 </r>
       <r>    17.7198     0.0000    60.0000 </r>
       <r>    17.8100     0.0000    60.0000 </r>
       <r>    17.9002     0.0000    60.0000 </r>
       <r>    17.9904     0.0000    60.0000 </r>
       <r>    18.0806     0.0000    60.0000 </r>
       <r>    18.1708     0.0000    60.0000 </r>
       <r>    18.2610     0.0000    60.0000 </r>
      </set>
     </set>
    </array>
   </total>
  </dos>
 </calculation>
 <structure name="finalpos" >
  <crystal>
   <varray name="basis" >
    <v>       2.56679773       0.00000000       0.00000000 </v>
    <v>       1.28339887       2.22291204       0.00000000 </v>
    <v>       0.00000000       0.00000000      29.67047119 </v>
   </varray>
   <i name="volume">    169.29275369 </i>
   <varray name="rec_basis" >
    <v>       0.38959050      -0.22493018       0.00000000 </v>
    <v>       0.00000000       0.44986035       0.00000000 </v>
    <v>       0.00000000       0.00000000       0.03370354 </v>
   </varray>
  </crystal>
  <varray name="positions" >
   <v>      -0.00006005       0.00012011       0.00090485 </v>
   <v>       0.33333192       0.33333616       0.06819696 </v>
   <v>       0.66668050       0.66663900       0.13635006 </v>
   <v>       0.00014725      -0.00029449       0.20485252 </v>
   <v>       0.33339693       0.33320613       0.27264562 </v>
   <v>       0.66686082       0.66627835       0.34105897 </v>
   <v>       0.00006979      -0.00013958       0.40905804 </v>
   <v>       0.33346362       0.33307276       0.47614713 </v>
   <v>       0.83244305       0.33511390       0.54710789 </v>
   <v>       0.83366617       0.33266765       0.57274709 </v>
  </varray>
 </structure>
</modeling>
