unknown system                          
           1
     2.566798    0.000000    0.000000
     1.283399    2.222912    0.000000
     0.000000    0.000000   29.670471
   Cu   H 
     8     2
Direct configuration=     1
   0.00000000  0.00000000  0.00000000
   0.33333333  0.33333333  0.07063526
   0.66666667  0.66666667  0.13908594
   0.00000000  0.00000000  0.20816512
   0.33333333  0.33333333  0.27656240
   0.66666667  0.66666667  0.34556034
   0.00000000  0.00000000  0.41400593
   0.33333333  0.33333333  0.48139269
   0.83333333  0.33333333  0.53425930
   0.83333333  0.33333333  0.55940215
Direct configuration=     2
  -0.00000284  0.00000568  0.00076674
   0.33333706  0.33332587  0.06998784
   0.66666240  0.66667520  0.13910045
   0.00001002 -0.00002005  0.20816123
   0.33331238  0.33337523  0.27652781
   0.66670128  0.66659743  0.34552461
   0.00001069 -0.00002138  0.41385675
   0.33331018  0.33337963  0.48041361
   0.83331228  0.33337545  0.53322597
   0.83334653  0.33330693  0.56150411
Direct configuration=     3
  -0.00000166  0.00000332  0.00044883
   0.33333552  0.33332897  0.07025628
   0.66666417  0.66667166  0.13909443
   0.00000587 -0.00001173  0.20816284
   0.33332107  0.33335786  0.27654215
   0.66668693  0.66662614  0.34553943
   0.00000626 -0.00001252  0.41391861
   0.33331978  0.33336043  0.48081956
   0.83332101  0.33335798  0.53365442
   0.83334106  0.33331788  0.56063258
Direct configuration=     4
  -0.00000420  0.00000840  0.00120114
   0.33333905  0.33332190  0.06970674
   0.66665930  0.66668140  0.13903922
   0.00002066 -0.00004133  0.20815265
   0.33329770  0.33340461  0.27650864
   0.66672652  0.66654697  0.34548159
   0.00001589 -0.00003178  0.41364451
   0.33329543  0.33340914  0.47994631
   0.83329337  0.33341327  0.53434144
   0.83335629  0.33328742  0.56104689
Direct configuration=     5
  -0.00000927  0.00001855  0.00270628
   0.33334612  0.33330776  0.06860728
   0.66664956  0.66670088  0.13892875
   0.00005027 -0.00010054  0.20813226
   0.33325093  0.33349814  0.27644160
   0.66680572  0.66638857  0.34536586
   0.00003516 -0.00007032  0.41309614
   0.33324670  0.33350660  0.47819920
   0.83323806  0.33352388  0.53571596
   0.83338676  0.33322649  0.56187580
Direct configuration=     6
  -0.00000837  0.00001675  0.00243942
   0.33334486  0.33331027  0.06880221
   0.66665129  0.66669742  0.13894833
   0.00004502 -0.00009004  0.20813588
   0.33325922  0.33348156  0.27645349
   0.66679167  0.66641665  0.34538638
   0.00003174 -0.00006348  0.41319336
   0.33325534  0.33348932  0.47850895
   0.83324787  0.33350427  0.53547227
   0.83338136  0.33323729  0.56172884
Direct configuration=     7
  -0.00001578  0.00003156  0.00259169
   0.33335484  0.33329033  0.06930089
   0.66664404  0.66671193  0.13858574
   0.00006093 -0.00012185  0.20806477
   0.33323718  0.33352564  0.27638643
   0.66683179  0.66633642  0.34511712
   0.00003532 -0.00007064  0.41238123
   0.33324173  0.33351654  0.47805230
   0.83320987  0.33358026  0.53644688
   0.83340009  0.33319982  0.56214208
Direct configuration=     8
  -0.00001913  0.00003826  0.00266055
   0.33335935  0.33328131  0.06952641
   0.66664076  0.66671848  0.13842177
   0.00006812 -0.00013624  0.20803261
   0.33322721  0.33354558  0.27635611
   0.66684993  0.66630014  0.34499536
   0.00003694 -0.00007388  0.41201397
   0.33323558  0.33352884  0.47784579
   0.83319269  0.33361463  0.53688761
   0.83340856  0.33318288  0.56232895
Direct configuration=     9
  -0.00002362  0.00004725  0.00267901
   0.33336589  0.33326822  0.06991169
   0.66663724  0.66672552  0.13828277
   0.00007650 -0.00015301  0.20792002
   0.33321867  0.33356265  0.27625182
   0.66687245  0.66625511  0.34468061
   0.00003421 -0.00006843  0.41153481
   0.33323070  0.33353859  0.47759468
   0.83316307  0.33367386  0.53711349
   0.83342489  0.33315022  0.56310023
Direct configuration=    10
  -0.00002635  0.00005270  0.00269020
   0.33336986  0.33326029  0.07014527
   0.66663510  0.66672979  0.13819850
   0.00008159 -0.00016317  0.20785177
   0.33321350  0.33357301  0.27618860
   0.66688609  0.66622781  0.34448980
   0.00003256 -0.00006512  0.41124432
   0.33322775  0.33354450  0.47744245
   0.83314511  0.33370978  0.53725042
   0.83343479  0.33313043  0.56356781
Direct configuration=    11
  -0.00003170  0.00006339  0.00273870
   0.33337138  0.33325724  0.07034900
   0.66663419  0.66673162  0.13826726
   0.00008603 -0.00017205  0.20769244
   0.33321359  0.33357282  0.27599511
   0.66690166  0.66619669  0.34408384
   0.00003352 -0.00006705  0.41094504
   0.33322845  0.33354311  0.47724171
   0.83311810  0.33376380  0.53776647
   0.83344479  0.33311043  0.56398957
Direct configuration=    12
  -0.00004774  0.00009548  0.00288421
   0.33337594  0.33324812  0.07096019
   0.66663144  0.66673711  0.13847357
   0.00009935 -0.00019870  0.20721444
   0.33321387  0.33357226  0.27541463
   0.66694834  0.66610332  0.34286595
   0.00003641 -0.00007281  0.41004719
   0.33323054  0.33353891  0.47663948
   0.83303706  0.33392588  0.53931461
   0.83347479  0.33305042  0.56525486
Direct configuration=    13
  -0.00007983  0.00015967  0.00317521
   0.33338506  0.33322988  0.07218257
   0.66662595  0.66674809  0.13888617
   0.00012599 -0.00025198  0.20625844
   0.33321443  0.33357114  0.27425368
   0.66704170  0.66591659  0.34043018
   0.00004217 -0.00008434  0.40825151
   0.33323474  0.33353053  0.47543503
   0.83287499  0.33425002  0.54241089
   0.83353480  0.33293040  0.56778543
Direct configuration=    14
  -0.00006021  0.00012043  0.00299730
   0.33337948  0.33324103  0.07143523
   0.66662931  0.66674138  0.13863391
   0.00010970 -0.00021941  0.20684292
   0.33321409  0.33357182  0.27496346
   0.66698462  0.66603075  0.34191936
   0.00003865 -0.00007729  0.40934936
   0.33323217  0.33353565  0.47617141
   0.83297408  0.33405185  0.54051789
   0.83349811  0.33300377  0.56623829
Direct configuration=    15
  -0.00006925  0.00013849  0.00332590
   0.33338136  0.33323728  0.07128625
   0.66663350  0.66673301  0.13885714
   0.00011076 -0.00022152  0.20670362
   0.33323175  0.33353650  0.27427192
   0.66699098  0.66601804  0.34150158
   0.00003976 -0.00007953  0.40894597
   0.33324116  0.33351768  0.47579237
   0.83292389  0.33415221  0.54128983
   0.83351608  0.33296784  0.56709455
Direct configuration=    16
  -0.00007950  0.00015901  0.00369903
   0.33338349  0.33323301  0.07111709
   0.66663825  0.66672350  0.13911062
   0.00011196 -0.00022391  0.20654544
   0.33325181  0.33349638  0.27348667
   0.66699820  0.66600360  0.34102718
   0.00004103 -0.00008207  0.40848793
   0.33325137  0.33349727  0.47536197
   0.83286691  0.33426617  0.54216636
   0.83353649  0.33292703  0.56806683
Direct configuration=    17
  -0.00008088  0.00016176  0.00385520
   0.33337833  0.33324334  0.07098216
   0.66664659  0.66670682  0.13890152
   0.00010629 -0.00021257  0.20650630
   0.33328032  0.33343936  0.27327184
   0.66697400  0.66605199  0.34097416
   0.00004569 -0.00009138  0.40841165
   0.33326367  0.33347267  0.47521587
   0.83284847  0.33430306  0.54274322
   0.83353752  0.33292495  0.56820721
Direct configuration=    18
  -0.00008046  0.00016093  0.00380777
   0.33337990  0.33324020  0.07102314
   0.66664406  0.66671188  0.13896503
   0.00010801 -0.00021602  0.20651819
   0.33327166  0.33345668  0.27333709
   0.66698135  0.66603729  0.34099027
   0.00004428 -0.00008855  0.40843482
   0.33325993  0.33348014  0.47526024
   0.83285407  0.33429186  0.54256802
   0.83353721  0.33292558  0.56816458
Direct configuration=    19
  -0.00008277  0.00016555  0.00391821
   0.33337342  0.33325316  0.07088036
   0.66665500  0.66668999  0.13860944
   0.00009948 -0.00019896  0.20644270
   0.33330766  0.33338467  0.27326254
   0.66694337  0.66611326  0.34102621
   0.00004934 -0.00009867  0.40843610
   0.33327993  0.33344014  0.47515606
   0.83283085  0.33433830  0.54283089
   0.83354373  0.33291253  0.56850661
Direct configuration=    20
  -0.00008388  0.00016777  0.00397131
   0.33337030  0.33325939  0.07081172
   0.66666026  0.66667947  0.13843851
   0.00009538 -0.00019076  0.20640641
   0.33332497  0.33335006  0.27322671
   0.66692511  0.66614978  0.34104349
   0.00005177 -0.00010353  0.40843671
   0.33328954  0.33342092  0.47510598
   0.83281968  0.33436063  0.54295726
   0.83354687  0.33290626  0.56867103
Direct configuration=    21
  -0.00008611  0.00017221  0.00407749
   0.33336407  0.33327185  0.07067444
   0.66667079  0.66665843  0.13809663
   0.00008718 -0.00017435  0.20633384
   0.33335959  0.33328083  0.27315504
   0.66688859  0.66622282  0.34107805
   0.00005663 -0.00011326  0.40843794
   0.33330877  0.33338247  0.47500581
   0.83279735  0.33440529  0.54321000
   0.83355314  0.33289371  0.56899987
Direct configuration=    22
  -0.00008513  0.00017026  0.00403083
   0.33336681  0.33326638  0.07073477
   0.66666616  0.66666767  0.13824686
   0.00009078 -0.00018156  0.20636573
   0.33334438  0.33331125  0.27318653
   0.66690464  0.66619073  0.34106286
   0.00005449 -0.00010899  0.40843740
   0.33330032  0.33339936  0.47504983
   0.83280717  0.33438567  0.54309894
   0.83355039  0.33289923  0.56885537
Direct configuration=    23
  -0.00007979  0.00015958  0.00395029
   0.33334740  0.33330520  0.07056505
   0.66667578  0.66664844  0.13794132
   0.00008200 -0.00016400  0.20606213
   0.33339754  0.33320493  0.27325748
   0.66684204  0.66631592  0.34111118
   0.00006396 -0.00012792  0.40846345
   0.33333519  0.33332962  0.47503830
   0.83278014  0.33443973  0.54352422
   0.83355575  0.33288850  0.56915571
Direct configuration=    24
  -0.00007855  0.00015710  0.00393162
   0.33334290  0.33331420  0.07052571
   0.66667801  0.66664398  0.13787048
   0.00007997 -0.00015993  0.20599174
   0.33340986  0.33318028  0.27327394
   0.66682753  0.66634495  0.34112238
   0.00006615 -0.00013231  0.40846949
   0.33334327  0.33331345  0.47503562
   0.83277387  0.33445226  0.54362282
   0.83355700  0.33288601  0.56922534
Direct configuration=    25
  -0.00007437  0.00014873  0.00363504
   0.33333780  0.33332440  0.07043040
   0.66667910  0.66664180  0.13783195
   0.00008374 -0.00016748  0.20576289
   0.33342135  0.33315729  0.27329528
   0.66682172  0.66635656  0.34110036
   0.00006306 -0.00012612  0.40847244
   0.33335128  0.33329744  0.47514160
   0.83274812  0.33450377  0.54379996
   0.83356820  0.33286360  0.56959920
Direct configuration=    26
  -0.00007304  0.00014608  0.00354101
   0.33333618  0.33332764  0.07040018
   0.66667944  0.66664111  0.13781974
   0.00008493 -0.00016987  0.20569034
   0.33342500  0.33315001  0.27330205
   0.66681988  0.66636024  0.34109337
   0.00006208 -0.00012416  0.40847338
   0.33335382  0.33329236  0.47517520
   0.83273995  0.33452010  0.54385612
   0.83357175  0.33285649  0.56971773
Direct configuration=    27
  -0.00007196  0.00014392  0.00338441
   0.33333447  0.33333107  0.07034024
   0.66667938  0.66664125  0.13780733
   0.00008785 -0.00017570  0.20561771
   0.33342504  0.33314993  0.27327952
   0.66682149  0.66635701  0.34108974
   0.00006136 -0.00012271  0.40848604
   0.33335803  0.33328395  0.47522965
   0.83272942  0.33454116  0.54400637
   0.83357493  0.33285013  0.56982813
Direct configuration=    28
  -0.00006941  0.00013881  0.00301404
   0.33333041  0.33333918  0.07019847
   0.66667922  0.66664156  0.13777799
   0.00009474 -0.00018948  0.20544595
   0.33342513  0.33314974  0.27322623
   0.66682531  0.66634938  0.34108113
   0.00005965 -0.00011929  0.40851597
   0.33336797  0.33326405  0.47535841
   0.83270452  0.33459096  0.54436171
   0.83358245  0.33283509  0.57008921
Direct configuration=    29
  -0.00006430  0.00012859  0.00227332
   0.33332230  0.33335540  0.06991494
   0.66667890  0.66664220  0.13771930
   0.00010853 -0.00021706  0.20510244
   0.33342532  0.33314937  0.27311966
   0.66683294  0.66633411  0.34106393
   0.00005623 -0.00011246  0.40857584
   0.33338787  0.33322426  0.47561594
   0.83265471  0.33469058  0.54507239
   0.83359750  0.33280501  0.57061138
Direct configuration=    30
  -0.00006321  0.00012641  0.00208656
   0.33332069  0.33335863  0.06979610
   0.66667877  0.66664246  0.13766115
   0.00011258 -0.00022517  0.20506211
   0.33342350  0.33315299  0.27305966
   0.66683579  0.66632843  0.34106104
   0.00005533 -0.00011066  0.40861512
   0.33339479  0.33321042  0.47568715
   0.83263877  0.33472246  0.54524634
   0.83360299  0.33279401  0.57079391
Direct configuration=    31
  -0.00006248  0.00012496  0.00196164
   0.33331961  0.33336079  0.06971662
   0.66667868  0.66664263  0.13762226
   0.00011529 -0.00023059  0.20503514
   0.33342229  0.33315542  0.27301953
   0.66683769  0.66632462  0.34105911
   0.00005472 -0.00010945  0.40864139
   0.33339942  0.33320117  0.47573478
   0.83262811  0.33474379  0.54536269
   0.83360667  0.33278666  0.57091599
Direct configuration=    32
  -0.00006102  0.00012204  0.00171181
   0.33331745  0.33336510  0.06955765
   0.66667851  0.66664299  0.13754448
   0.00012072 -0.00024143  0.20498119
   0.33341986  0.33316027  0.27293927
   0.66684149  0.66631702  0.34105525
   0.00005352 -0.00010703  0.40869392
   0.33340867  0.33318265  0.47583003
   0.83260678  0.33478644  0.54559538
   0.83361402  0.33277195  0.57116016
Direct configuration=    33
  -0.00005810  0.00011621  0.00121216
   0.33331313  0.33337374  0.06923971
   0.66667816  0.66664369  0.13738891
   0.00013156 -0.00026312  0.20487329
   0.33341501  0.33316998  0.27277876
   0.66684910  0.66630181  0.34104752
   0.00005110 -0.00010221  0.40879899
   0.33342718  0.33314563  0.47602055
   0.83256413  0.33487174  0.54606076
   0.83362873  0.33274254  0.57164849
Direct configuration=    34
  -0.00005227  0.00010454  0.00021284
   0.33330450  0.33339101  0.06860384
   0.66667745  0.66664510  0.13707777
   0.00015325 -0.00030650  0.20465749
   0.33340531  0.33318938  0.27245772
   0.66686431  0.66627139  0.34103206
   0.00004628 -0.00009255  0.40900914
   0.33346421  0.33307159  0.47640157
   0.83247883  0.33504233  0.54699153
   0.83365814  0.33268371  0.57262516
Direct configuration=    35
  -0.00005521  0.00011043  0.00071719
   0.33330885  0.33338229  0.06892476
   0.66667781  0.66664439  0.13723480
   0.00014230 -0.00028461  0.20476640
   0.33341021  0.33317959  0.27261975
   0.66685663  0.66628674  0.34103986
   0.00004871 -0.00009742  0.40890308
   0.33344552  0.33310896  0.47620927
   0.83252188  0.33495623  0.54652178
   0.83364330  0.33271340  0.57213224
Direct configuration=    36
  -0.00005374  0.00010749  0.00046502
   0.33330668  0.33338665  0.06876430
   0.66667763  0.66664474  0.13715629
   0.00014778 -0.00029555  0.20471194
   0.33340776  0.33318449  0.27253874
   0.66686047  0.66627906  0.34103596
   0.00004749 -0.00009499  0.40895611
   0.33345486  0.33309027  0.47630542
   0.83250036  0.33499928  0.54675665
   0.83365072  0.33269856  0.57237870
Direct configuration=    37
  -0.00005467  0.00010935  0.00062445
   0.33330805  0.33338389  0.06886575
   0.66667774  0.66664452  0.13720593
   0.00014432 -0.00028863  0.20474637
   0.33340931  0.33318139  0.27258995
   0.66685804  0.66628392  0.34103842
   0.00004826 -0.00009653  0.40892258
   0.33344896  0.33310209  0.47624463
   0.83251397  0.33497207  0.54660815
   0.83364603  0.33270794  0.57222288
Direct configuration=    38
  -0.00005444  0.00010887  0.00066346
   0.33330997  0.33338005  0.06871272
   0.66667734  0.66664532  0.13703238
   0.00014531 -0.00029062  0.20483023
   0.33340678  0.33318644  0.27256773
   0.66685899  0.66628202  0.34102506
   0.00005036 -0.00010073  0.40897975
   0.33345279  0.33309442  0.47623527
   0.83250291  0.33499417  0.54668795
   0.83364998  0.33270005  0.57233458
Direct configuration=    39
  -0.00005400  0.00010800  0.00073582
   0.33331354  0.33337293  0.06842887
   0.66667659  0.66664682  0.13671049
   0.00014716 -0.00029432  0.20498578
   0.33340210  0.33319580  0.27252650
   0.66686075  0.66627851  0.34100028
   0.00005425 -0.00010851  0.40908578
   0.33345990  0.33308020  0.47621791
   0.83248241  0.33503518  0.54683595
   0.83365730  0.33268540  0.57254177
Direct configuration=    40
  -0.00005389  0.00010777  0.00075439
   0.33331445  0.33337110  0.06835600
   0.66667640  0.66664721  0.13662784
   0.00014763 -0.00029527  0.20502571
   0.33340090  0.33319820  0.27251591
   0.66686120  0.66627761  0.34099392
   0.00005525 -0.00011051  0.40911300
   0.33346173  0.33307655  0.47621345
   0.83247715  0.33504570  0.54687395
   0.83365918  0.33268164  0.57259496
Direct configuration=    41
  -0.00005486  0.00010973  0.00082262
   0.33331880  0.33336239  0.06827957
   0.66667748  0.66664503  0.13652797
   0.00014775 -0.00029550  0.20498775
   0.33340024  0.33319952  0.27257900
   0.66686113  0.66627774  0.34101727
   0.00005785 -0.00011570  0.40906120
   0.33346004  0.33307992  0.47621373
   0.83247296  0.33505408  0.54700971
   0.83365860  0.33268279  0.57257032
Direct configuration=    42
  -0.00005508  0.00011016  0.00083768
   0.33331977  0.33336047  0.06826270
   0.66667772  0.66664455  0.13650592
   0.00014778 -0.00029555  0.20497936
   0.33340009  0.33319981  0.27259293
   0.66686111  0.66627777  0.34102242
   0.00005843 -0.00011685  0.40904976
   0.33345967  0.33308066  0.47621379
   0.83247203  0.33505593  0.54703968
   0.83365848  0.33268305  0.57256488
Direct configuration=    43
  -0.00005721  0.00011442  0.00090808
   0.33332567  0.33334865  0.06818579
   0.66667905  0.66664189  0.13639873
   0.00014739 -0.00029477  0.20491535
   0.33339907  0.33320187  0.27266527
   0.66686106  0.66627787  0.34105031
   0.00006239 -0.00012478  0.40902625
   0.33345971  0.33308058  0.47619599
   0.83246072  0.33507855  0.54708213
   0.83366214  0.33267571  0.57264122
Direct configuration=    44
  -0.00005813  0.00011626  0.00093836
   0.33332821  0.33334357  0.06815272
   0.66667963  0.66664075  0.13635264
   0.00014722 -0.00029444  0.20488782
   0.33339863  0.33320275  0.27269637
   0.66686104  0.66627792  0.34106230
   0.00006409 -0.00012819  0.40901615
   0.33345973  0.33308054  0.47618834
   0.83245586  0.33508828  0.54710039
   0.83366372  0.33267256  0.57267405
Direct configuration=    45
  -0.00005775  0.00011550  0.00092585
   0.33332716  0.33334567  0.06816638
   0.66667939  0.66664122  0.13637167
   0.00014729 -0.00029458  0.20489919
   0.33339881  0.33320238  0.27268352
   0.66686105  0.66627790  0.34105735
   0.00006339 -0.00012678  0.40902032
   0.33345972  0.33308056  0.47619150
   0.83245787  0.33508426  0.54709285
   0.83366307  0.33267386  0.57266049
Direct configuration=    46
  -0.00005804  0.00011608  0.00093550
   0.33332797  0.33334405  0.06815583
   0.66667957  0.66664085  0.13635698
   0.00014723 -0.00029447  0.20489041
   0.33339867  0.33320266  0.27269344
   0.66686104  0.66627792  0.34106117
   0.00006393 -0.00012787  0.40901710
   0.33345973  0.33308054  0.47618906
   0.83245632  0.33508736  0.54709867
   0.83366357  0.33267286  0.57267096
Direct configuration=    47
  -0.00005808  0.00011615  0.00093663
   0.33332807  0.33334386  0.06815460
   0.66667959  0.66664081  0.13635526
   0.00014723 -0.00029446  0.20488938
   0.33339865  0.33320270  0.27269460
   0.66686104  0.66627792  0.34106162
   0.00006400 -0.00012799  0.40901672
   0.33345973  0.33308054  0.47618877
   0.83245614  0.33508772  0.54709935
   0.83366363  0.33267274  0.57267218
Direct configuration=    48
  -0.00005805  0.00011609  0.00093565
   0.33332799  0.33334403  0.06815568
   0.66667958  0.66664085  0.13635676
   0.00014723 -0.00029447  0.20489028
   0.33339867  0.33320267  0.27269359
   0.66686104  0.66627792  0.34106123
   0.00006394 -0.00012788  0.40901705
   0.33345973  0.33308054  0.47618902
   0.83245630  0.33508741  0.54709876
   0.83366358  0.33267284  0.57267111
Direct configuration=    49
  -0.00005806  0.00011612  0.00093614
   0.33332803  0.33334395  0.06815514
   0.66667958  0.66664083  0.13635601
   0.00014723 -0.00029446  0.20488983
   0.33339866  0.33320268  0.27269409
   0.66686104  0.66627792  0.34106143
   0.00006397 -0.00012794  0.40901689
   0.33345973  0.33308054  0.47618890
   0.83245622  0.33508756  0.54709905
   0.83366360  0.33267279  0.57267165
Direct configuration=    50
  -0.00005805  0.00011610  0.00093583
   0.33332800  0.33334400  0.06815548
   0.66667958  0.66664084  0.13635648
   0.00014723 -0.00029447  0.20489011
   0.33339866  0.33320267  0.27269378
   0.66686104  0.66627792  0.34106130
   0.00006395 -0.00012790  0.40901699
   0.33345973  0.33308054  0.47618898
   0.83245627  0.33508746  0.54709887
   0.83366359  0.33267282  0.57267131
Direct configuration=    51
  -0.00005806  0.00011611  0.00093598
   0.33332801  0.33334397  0.06815532
   0.66667958  0.66664084  0.13635626
   0.00014723 -0.00029446  0.20488998
   0.33339866  0.33320268  0.27269393
   0.66686104  0.66627792  0.34106136
   0.00006396 -0.00012792  0.40901694
   0.33345973  0.33308054  0.47618894
   0.83245624  0.33508751  0.54709895
   0.83366360  0.33267281  0.57267147
Direct configuration=    52
  -0.00005845  0.00011690  0.00091397
   0.33332936  0.33334129  0.06818254
   0.66667983  0.66664035  0.13636089
   0.00014721 -0.00029443  0.20488088
   0.33339809  0.33320381  0.27266612
   0.66686095  0.66627811  0.34105691
   0.00006567 -0.00013133  0.40903590
   0.33346132  0.33307737  0.47617293
   0.83245009  0.33509983  0.54707026
   0.83366594  0.33266811  0.57272874
Direct configuration=    53
  -0.00005834  0.00011668  0.00092002
   0.33332899  0.33334203  0.06817505
   0.66667976  0.66664048  0.13635962
   0.00014722 -0.00029444  0.20488338
   0.33339825  0.33320350  0.27267377
   0.66686097  0.66627805  0.34105813
   0.00006520 -0.00013039  0.40903068
   0.33346088  0.33307824  0.47617733
   0.83245178  0.33509644  0.54707815
   0.83366530  0.33266940  0.57271298
Direct configuration=    54
  -0.00005843  0.00011685  0.00091530
   0.33332927  0.33334145  0.06818090
   0.66667981  0.66664038  0.13636061
   0.00014722 -0.00029443  0.20488143
   0.33339813  0.33320374  0.27266780
   0.66686095  0.66627809  0.34105718
   0.00006556 -0.00013113  0.40903475
   0.33346122  0.33307756  0.47617390
   0.83245046  0.33509908  0.54707199
   0.83366580  0.33266840  0.57272528
Direct configuration=    55
  -0.00005838  0.00011677  0.00091766
   0.33332913  0.33334174  0.06817797
   0.66667979  0.66664043  0.13636011
   0.00014722 -0.00029444  0.20488241
   0.33339819  0.33320362  0.27267078
   0.66686096  0.66627807  0.34105766
   0.00006538 -0.00013076  0.40903272
   0.33346105  0.33307790  0.47617561
   0.83245112  0.33509776  0.54707507
   0.83366555  0.33266890  0.57271913
Direct configuration=    56
  -0.00005840  0.00011681  0.00091655
   0.33332920  0.33334160  0.06817935
   0.66667980  0.66664040  0.13636035
   0.00014722 -0.00029443  0.20488194
   0.33339816  0.33320368  0.27266937
   0.66686096  0.66627808  0.34105743
   0.00006547 -0.00013093  0.40903368
   0.33346113  0.33307774  0.47617480
   0.83245081  0.33509839  0.54707362
   0.83366567  0.33266866  0.57272203
Direct configuration=    57
  -0.00005840  0.00011680  0.00091671
   0.33332919  0.33334162  0.06817915
   0.66667980  0.66664041  0.13636031
   0.00014722 -0.00029443  0.20488201
   0.33339816  0.33320367  0.27266958
   0.66686096  0.66627808  0.34105746
   0.00006545 -0.00013091  0.40903354
   0.33346112  0.33307776  0.47617492
   0.83245085  0.33509829  0.54707383
   0.83366565  0.33266870  0.57272161
Direct configuration=    58
  -0.00005971  0.00011942  0.00090730
   0.33333135  0.33333729  0.06819328
   0.66668036  0.66663929  0.13635218
   0.00014724 -0.00029448  0.20485862
   0.33339719  0.33320562  0.27265057
   0.66686085  0.66627830  0.34105866
   0.00006889 -0.00013779  0.40905297
   0.33346310  0.33307380  0.47615288
   0.83244466  0.33511068  0.54710085
   0.83366607  0.33266787  0.57274182
Direct configuration=    59
  -0.00006014  0.00012027  0.00090424
   0.33333206  0.33333589  0.06819787
   0.66668054  0.66663892  0.13634954
   0.00014725 -0.00029450  0.20485102
   0.33339687  0.33320626  0.27264440
   0.66686082  0.66627837  0.34105904
   0.00007001 -0.00014002  0.40905929
   0.33346375  0.33307251  0.47614572
   0.83244265  0.33511470  0.54710963
   0.83366620  0.33266760  0.57274839
Direct configuration=    60
  -0.00005984  0.00011968  0.00090639
   0.33333156  0.33333687  0.06819464
   0.66668041  0.66663918  0.13635140
   0.00014724 -0.00029449  0.20485636
   0.33339709  0.33320581  0.27264874
   0.66686084  0.66627832  0.34105877
   0.00006923 -0.00013845  0.40905485
   0.33346329  0.33307341  0.47615075
   0.83244406  0.33511187  0.54710346
   0.83366611  0.33266779  0.57274377
Direct configuration=    61
  -0.00006010  0.00012021  0.00090448
   0.33333200  0.33333599  0.06819752
   0.66668052  0.66663895  0.13634974
   0.00014725 -0.00029450  0.20485160
   0.33339690  0.33320621  0.27264487
   0.66686082  0.66627836  0.34105901
   0.00006992 -0.00013985  0.40905880
   0.33346370  0.33307261  0.47614627
   0.83244280  0.33511439  0.54710895
   0.83366619  0.33266762  0.57274788
Direct configuration=    62
  -0.00005997  0.00011994  0.00090543
   0.33333178  0.33333643  0.06819608
   0.66668047  0.66663907  0.13635057
   0.00014725 -0.00029449  0.20485398
   0.33339699  0.33320601  0.27264680
   0.66686083  0.66627834  0.34105889
   0.00006957 -0.00013915  0.40905683
   0.33346349  0.33307301  0.47614851
   0.83244343  0.33511313  0.54710621
   0.83366615  0.33266770  0.57274583
Direct configuration=    63
  -0.00006005  0.00012011  0.00090485
   0.33333192  0.33333616  0.06819696
   0.66668050  0.66663900  0.13635006
   0.00014725 -0.00029449  0.20485252
   0.33339693  0.33320613  0.27264562
   0.66686082  0.66627835  0.34105897
   0.00006979 -0.00013958  0.40905804
   0.33346362  0.33307276  0.47614713
   0.83244305  0.33511390  0.54710789
   0.83366617  0.33266765  0.57274709
