<?xml version="1.0" encoding="ISO-8859-1"?>
<modeling>
 <generator>
  <i name="program" type="string">vasp </i>
  <i name="version" type="string">6.3.2  </i>
  <i name="subversion" type="string">27Jun22 (build Aug 17 2022 15:43:34) complex                          parallel </i>
  <i name="platform" type="string">tv2STDVTST </i>
  <i name="date" type="string">2025 01 21 </i>
  <i name="time" type="string">22:12:47 </i>
 </generator>
 <incar>
  <i type="int" name="ISTART">     0</i>
  <i type="string" name="PREC">Normal</i>
  <i type="int" name="ISPIN">     2</i>
  <i type="int" name="ICHARG">     2</i>
  <i type="int" name="IBRION">     2</i>
  <i name="EDIFF">      0.00020000</i>
  <i name="EDIFFG">     -0.03000000</i>
  <i type="int" name="NSW">   800</i>
  <i type="int" name="ISIF">     2</i>
  <i type="int" name="ISYM">     1</i>
  <i name="ENCUT">    400.00000000</i>
  <i name="POTIM">      0.50000000</i>
  <i type="logical" name="LREAL"> F  </i>
  <i type="int" name="ISMEAR">     1</i>
  <i name="SIGMA">      0.20000000</i>
  <i type="logical" name="LWAVE"> F  </i>
  <i type="logical" name="LCHARG"> F  </i>
  <i type="string" name="GGA">PE</i>
  <i type="int" name="IDIPOL">     3</i>
  <i type="int" name="IVDW">    11</i>
 </incar>
 <primitive_cell>
  <structure name="primitive_cell" >
   <crystal>
    <varray name="basis" >
     <v>       1.81500006      -1.81500006       0.00000000 </v>
     <v>       1.81500006       1.81500006       0.00000000 </v>
     <v>       0.00000000       0.00000000      25.89000000 </v>
    </varray>
    <i name="volume">    170.57498121 </i>
    <varray name="rec_basis" >
     <v>       0.27548209      -0.27548209       0.00000000 </v>
     <v>       0.27548209       0.27548209       0.00000000 </v>
     <v>       0.00000000       0.00000000       0.03862495 </v>
    </varray>
   </crystal>
   <varray name="positions" >
    <v>       0.00000000       0.00000000       0.00000000 </v>
    <v>       0.50000000       0.50000000       0.07010429 </v>
    <v>       0.00000000       0.00000000       0.14020858 </v>
    <v>       0.50000000       0.50000000       0.21031287 </v>
    <v>       0.00000000       0.00000000       0.28041715 </v>
    <v>       0.50000000       0.50000000       0.35052144 </v>
    <v>       0.00000000       0.00000000       0.42062573 </v>
   </varray>
  </structure>
  <varray name="primitive_index" >
   <v type="int" >        1 </v>
   <v type="int" >       19 </v>
   <v type="int" >       37 </v>
   <v type="int" >       55 </v>
   <v type="int" >       73 </v>
   <v type="int" >       91 </v>
   <v type="int" >      109 </v>
  </varray>
 </primitive_cell>
 <kpoints>
  <generation param="Monkhorst-Pack">
   <v type="int" name="divisions">       3        3        1 </v>
   <v name="usershift">      0.00000000       0.00000000       0.00000000 </v>
   <v name="genvec1">      0.33333333       0.00000000       0.00000000 </v>
   <v name="genvec2">      0.00000000       0.33333333       0.00000000 </v>
   <v name="genvec3">      0.00000000       0.00000000       1.00000000 </v>
   <v name="shift">      0.00000000       0.00000000       0.00000000 </v>
  </generation>
  <varray name="kpointlist" >
   <v>       0.00000000       0.00000000       0.00000000 </v>
   <v>       0.33333333       0.00000000       0.00000000 </v>
   <v>       0.33333333       0.33333333       0.00000000 </v>
  </varray>
  <varray name="weights" >
   <v>       0.11111111 </v>
   <v>       0.44444444 </v>
   <v>       0.44444444 </v>
  </varray>
 </kpoints>
 <parameters>
  <separator name="general" >
   <i type="string" name="SYSTEM">unknown system</i>
   <i type="logical" name="LCOMPAT"> F  </i>
  </separator>
  <separator name="electronic" >
   <i type="string" name="PREC">normal</i>
   <i name="ENMAX">    400.00000000</i>
   <i name="ENAUG">    586.98000000</i>
   <i name="EDIFF">      0.00020000</i>
   <i type="int" name="IALGO">    38</i>
   <i type="int" name="IWAVPR">    11</i>
   <i type="int" name="NBANDS">   896</i>
   <i type="int" name="NBANDSLOW">    -1</i>
   <i type="int" name="NBANDSHIGH">    -1</i>
   <i name="NELECT">   1386.00000000</i>
   <i type="int" name="TURBO">     0</i>
   <i type="int" name="IRESTART">     0</i>
   <i type="int" name="NREBOOT">     0</i>
   <i type="int" name="NMIN">     0</i>
   <i name="EREF">      0.00000000</i>
   <separator name="electronic smearing" >
    <i type="int" name="ISMEAR">     1</i>
    <i name="SIGMA">      0.20000000</i>
    <i name="KSPACING">      0.50000000</i>
    <i type="logical" name="KGAMMA"> T  </i>
    <i type="logical" name="KBLOWUP"> T  </i>
   </separator>
   <separator name="electronic projectors" >
    <i type="logical" name="LREAL"> F  </i>
    <v name="ROPT">      0.00000000</v>
    <i type="int" name="LMAXPAW">  -100</i>
    <i type="int" name="LMAXMIX">     2</i>
    <i type="logical" name="NLSPLINE"> F  </i>
   </separator>
   <separator name="electronic startup" >
    <i type="int" name="ISTART">     0</i>
    <i type="int" name="ICHARG">     2</i>
    <i type="int" name="INIWAV">     1</i>
   </separator>
   <separator name="electronic spin" >
    <i type="int" name="ISPIN">     2</i>
    <i type="logical" name="LNONCOLLINEAR"> F  </i>
    <v name="MAGMOM">      1.00000000      1.00000000      1.00000000      1.00000000      1.00000000      1.00000000      1.00000000      1.00000000      1.00000000      1.00000000      1.00000000      1.00000000      1.00000000      1.00000000      1.00000000      1.00000000      1.00000000      1.00000000      1.00000000      1.00000000
      1.00000000      1.00000000      1.00000000      1.00000000      1.00000000      1.00000000      1.00000000      1.00000000      1.00000000      1.00000000      1.00000000      1.00000000      1.00000000      1.00000000      1.00000000      1.00000000      1.00000000      1.00000000      1.00000000      1.00000000
      1.00000000      1.00000000      1.00000000      1.00000000      1.00000000      1.00000000      1.00000000      1.00000000      1.00000000      1.00000000      1.00000000      1.00000000      1.00000000      1.00000000      1.00000000      1.00000000      1.00000000      1.00000000      1.00000000      1.00000000
      1.00000000      1.00000000      1.00000000      1.00000000      1.00000000      1.00000000      1.00000000      1.00000000      1.00000000      1.00000000      1.00000000      1.00000000      1.00000000      1.00000000      1.00000000      1.00000000      1.00000000      1.00000000      1.00000000      1.00000000
      1.00000000      1.00000000      1.00000000      1.00000000      1.00000000      1.00000000      1.00000000      1.00000000      1.00000000      1.00000000      1.00000000      1.00000000      1.00000000      1.00000000      1.00000000      1.00000000      1.00000000      1.00000000      1.00000000      1.00000000
      1.00000000      1.00000000      1.00000000      1.00000000      1.00000000      1.00000000      1.00000000      1.00000000      1.00000000      1.00000000      1.00000000      1.00000000      1.00000000      1.00000000      1.00000000      1.00000000      1.00000000      1.00000000      1.00000000      1.00000000
      1.00000000      1.00000000      1.00000000      1.00000000      1.00000000      1.00000000</v>
    <i name="NUPDOWN">     -1.00000000</i>
    <i type="logical" name="LSORBIT"> F  </i>
    <v name="SAXIS">      0.00000000      0.00000000      1.00000000</v>
    <i type="logical" name="LSPIRAL"> F  </i>
    <v name="QSPIRAL">      0.00000000      0.00000000      0.00000000</v>
    <i type="logical" name="LZEROZ"> F  </i>
   </separator>
   <separator name="electronic exchange-correlation" >
    <i type="logical" name="LASPH"> F  </i>
    <i type="logical" name="LMETAGGA"> F  </i>
   </separator>
   <separator name="electronic convergence" >
    <i type="int" name="NELM">    60</i>
    <i type="int" name="NELMDL">    -5</i>
    <i type="int" name="NELMIN">     2</i>
    <i name="ENINI">    400.00000000</i>
    <separator name="electronic convergence detail" >
     <i type="logical" name="LDIAG"> T  </i>
     <i type="logical" name="LSUBROT"> F  </i>
     <i name="WEIMIN">      0.00100000</i>
     <i name="EBREAK">      0.00000006</i>
     <i name="DEPER">      0.30000000</i>
     <i type="int" name="NRMM">     4</i>
     <i name="TIME">      0.40000000</i>
    </separator>
   </separator>
   <separator name="electronic mixer" >
    <i name="AMIX">      0.40000000</i>
    <i name="BMIX">      1.00000000</i>
    <i name="AMIN">      0.10000000</i>
    <i name="AMIX_MAG">      1.60000000</i>
    <i name="BMIX_MAG">      1.00000000</i>
    <separator name="electronic mixer details" >
     <i type="int" name="IMIX">     4</i>
     <i type="logical" name="MIXFIRST"> F  </i>
     <i type="int" name="MAXMIX">   -45</i>
     <i name="WC">    100.00000000</i>
     <i type="int" name="INIMIX">     1</i>
     <i type="int" name="MIXPRE">     1</i>
     <i type="int" name="MREMOVE">     5</i>
    </separator>
   </separator>
   <separator name="electronic dipolcorrection" >
    <i type="logical" name="LDIPOL"> F  </i>
    <i type="logical" name="LMONO"> F  </i>
    <i type="int" name="IDIPOL">     3</i>
    <i name="EPSILON">      1.00000000</i>
    <v name="DIPOL">   -100.00000000   -100.00000000   -100.00000000</v>
    <i name="EFIELD">      0.00000000</i>
   </separator>
  </separator>
  <separator name="grids" >
   <i type="int" name="NGX">    54</i>
   <i type="int" name="NGY">    54</i>
   <i type="int" name="NGZ">   128</i>
   <i type="int" name="NGXF">   108</i>
   <i type="int" name="NGYF">   108</i>
   <i type="int" name="NGZF">   256</i>
   <i type="logical" name="ADDGRID"> F  </i>
  </separator>
  <separator name="ionic" >
   <i type="int" name="NSW">   800</i>
   <i type="int" name="IBRION">     2</i>
   <i type="int" name="MDALGO">     0</i>
   <i type="int" name="ISIF">     2</i>
   <i name="PSTRESS">      0.00000000</i>
   <i name="EDIFFG">     -0.03000000</i>
   <i type="int" name="NFREE">     1</i>
   <i name="POTIM">      0.50000000</i>
   <i name="SMASS">     -3.00000000</i>
   <i name="SCALEE">      1.00000000</i>
  </separator>
  <separator name="ionic md" >
   <i name="TEBEG">      0.00010000</i>
   <i name="TEEND">      0.00010000</i>
   <i type="int" name="NBLOCK">     1</i>
   <i type="int" name="KBLOCK">   800</i>
   <i type="int" name="NPACO">   256</i>
   <i name="APACO">     10.00000000</i>
  </separator>
  <separator name="symmetry" >
   <i type="int" name="ISYM">     1</i>
   <i name="SYMPREC">      0.00001000</i>
  </separator>
  <separator name="dos" >
   <i type="int" name="LORBIT">     0</i>
   <v name="RWIGS">     -1.00000000</v>
   <i type="int" name="NEDOS">   301</i>
   <i name="EMIN">     10.00000000</i>
   <i name="EMAX">    -10.00000000</i>
   <i name="EFERMI">      0.00000000</i>
  </separator>
  <separator name="writing" >
   <i type="int" name="NWRITE">     2</i>
   <i type="logical" name="LWAVE"> F  </i>
   <i type="logical" name="LDOWNSAMPLE"> F  </i>
   <i type="logical" name="LCHARG"> F  </i>
   <i type="logical" name="LPARD"> F  </i>
   <i type="logical" name="LVTOT"> F  </i>
   <i type="logical" name="LVHAR"> F  </i>
   <i type="logical" name="LELF"> F  </i>
   <i type="logical" name="LOPTICS"> F  </i>
   <v name="STM">      0.00000000      0.00000000      0.00000000      0.00000000      0.00000000      0.00000000      0.00000000</v>
  </separator>
  <separator name="performance" >
   <i type="int" name="NPAR">     4</i>
   <i type="int" name="NSIM">     4</i>
   <i type="int" name="NBLK">    -1</i>
   <i type="logical" name="LPLANE"> T  </i>
   <i type="logical" name="LSCALAPACK"> T  </i>
   <i type="logical" name="LSCAAWARE"> F  </i>
   <i type="logical" name="LSCALU"> F  </i>
   <i type="logical" name="LASYNC"> F  </i>
   <i type="logical" name="LORBITALREAL"> F  </i>
  </separator>
  <separator name="miscellaneous" >
   <i type="int" name="IDIOT">     3</i>
   <i type="int" name="PHON_NSTRUCT">    -1</i>
   <i type="logical" name="LMUSIC"> F  </i>
   <v name="POMASS">     63.54600000</v>
   <v name="DARWINR">      0.00000000</v>
   <v name="DARWINV">      1.00000000</v>
   <i type="logical" name="LCORR"> T  </i>
  </separator>
  <i type="logical" name="GGA_COMPAT"> T  </i>
  <i type="logical" name="LBERRY"> F  </i>
  <i type="int" name="ICORELEVEL">     0</i>
  <i type="logical" name="LDAU"> F  </i>
  <i type="int" name="I_CONSTRAINED_M">     0</i>
  <separator name="electronic exchange-correlation" >
   <i type="string" name="GGA">PE</i>
   <i type="int" name="VOSKOWN">     0</i>
   <i type="logical" name="LHFCALC"> F  </i>
   <i type="string" name="PRECFOCK"></i>
   <i type="logical" name="LSYMGRAD"> F  </i>
   <i type="logical" name="LHFONE"> F  </i>
   <i type="logical" name="LRHFCALC"> F  </i>
   <i type="logical" name="LTHOMAS"> F  </i>
   <i type="logical" name="LMODELHF"> F  </i>
   <i type="logical" name="LFOCKACE"> F  </i>
   <i name="ENCUT4O">     -1.00000000</i>
   <i type="int" name="EXXOEP">     0</i>
   <i type="int" name="FOURORBIT">     0</i>
   <i name="AEXX">      0.00000000</i>
   <i name="HFALPHA">      0.00000000</i>
   <i name="MCALPHA">      0.00000000</i>
   <i name="ALDAX">      1.00000000</i>
   <i name="AGGAX">      1.00000000</i>
   <i name="ALDAC">      1.00000000</i>
   <i name="AGGAC">      1.00000000</i>
   <i type="int" name="NKREDX">     1</i>
   <i type="int" name="NKREDY">     1</i>
   <i type="int" name="NKREDZ">     1</i>
   <i type="logical" name="SHIFTRED"> F  </i>
   <i type="logical" name="ODDONLY"> F  </i>
   <i type="logical" name="EVENONLY"> F  </i>
   <i type="int" name="LMAXFOCK">     0</i>
   <i type="int" name="NMAXFOCKAE">     0</i>
   <i type="logical" name="LFOCKAEDFT"> F  </i>
   <i name="HFSCREEN">      0.00000000</i>
   <i name="HFSCREENC">      0.00000000</i>
   <i type="int" name="NBANDSGWLOW">     0</i>
  </separator>
  <separator name="vdW DFT" >
   <i type="logical" name="LUSE_VDW"> F  </i>
   <i name="Zab_VDW">     -0.84910000</i>
   <i name="PARAM1">      0.12340000</i>
   <i name="PARAM2">      1.00000000</i>
   <i name="PARAM3">      0.00000000</i>
  </separator>
  <separator name="model GW" >
   <i type="int" name="MODEL_GW">     0</i>
   <i name="MODEL_EPS0">     14.62071268</i>
   <i name="MODEL_ALPHA">      1.00000000</i>
  </separator>
  <separator name="linear response parameters" >
   <i type="logical" name="LEPSILON"> F  </i>
   <i type="logical" name="LRPA"> F  </i>
   <i type="logical" name="LNABLA"> F  </i>
   <i type="logical" name="LVEL"> F  </i>
   <i name="CSHIFT">      0.10000000</i>
   <i name="OMEGAMAX">     -1.00000000</i>
   <i name="DEG_THRESHOLD">      0.00200000</i>
   <i name="RTIME">     -0.10000000</i>
   <i name="WPLASMAI">      0.00000000</i>
   <v name="DFIELD">      0.00000000      0.00000000      0.00000000</v>
   <v name="WPLASMA">      0.00000000      0.00000000      0.00000000      0.00000000      0.00000000      0.00000000      0.00000000      0.00000000      0.00000000</v>
  </separator>
  <separator name="orbital magnetization" >
   <i type="logical" name="NUCIND"> F  </i>
   <v name="MAGPOS">      0.00000000      0.00000000      0.00000000</v>
   <i type="logical" name="LNICSALL"> T  </i>
   <i type="logical" name="ORBITALMAG"> F  </i>
   <i type="logical" name="LMAGBLOCH"> F  </i>
   <i type="logical" name="LCHIMAG"> F  </i>
   <i type="logical" name="LGAUGE"> T  </i>
   <i type="int" name="MAGATOM">     0</i>
   <v name="MAGDIPOL">      0.00000000      0.00000000      0.00000000</v>
   <v name="AVECCONST">      0.00000000      0.00000000      0.00000000</v>
  </separator>
  <separator name="response functions" >
   <i type="logical" name="LFINITE_TEMPERATURE"> F  </i>
   <i type="logical" name="LADDER"> F  </i>
   <i type="logical" name="LRPAFORCE"> F  </i>
   <i type="logical" name="LFXC"> F  </i>
   <i type="logical" name="LHARTREE"> T  </i>
   <i type="int" name="IBSE">     0</i>
   <v type="int" name="KPOINT">    -1     0     0     0</v>
   <i type="logical" name="LTCTC"> F  </i>
   <i type="logical" name="LTCTE"> F  </i>
   <i type="logical" name="LTETE"> F  </i>
   <i type="logical" name="LTRIPLET"> F  </i>
   <i type="logical" name="LFXCEPS"> F  </i>
   <i type="logical" name="LFXHEG"> F  </i>
   <i type="int" name="NATURALO">     2</i>
   <i type="logical" name="LHOLEGF"> F  </i>
   <i type="logical" name="L2ORDER"> F  </i>
   <i type="logical" name="LDMP1"> F  </i>
   <i type="logical" name="LMP2LT"> F  </i>
   <i type="logical" name="LSMP2LT"> F  </i>
   <i type="logical" name="LGWLF"> F  </i>
   <i name="ENCUTGW">     -2.00000000</i>
   <i name="ENCUTGWSOFT">     -2.00000000</i>
   <i name="ENCUTLF">     -1.00000000</i>
   <i type="logical" name="LESF_SPLINES"> F  </i>
   <i type="int" name="LMAXMP2">    -1</i>
   <i name="SCISSOR">      0.00000000</i>
   <i type="int" name="NOMEGA">     0</i>
   <i type="int" name="NOMEGAR">     0</i>
   <i type="int" name="NBANDSGW">    -1</i>
   <i type="int" name="NBANDSO">    -1</i>
   <i type="int" name="NBANDSV">    -1</i>
   <i type="int" name="NELMGW">     1</i>
   <i type="int" name="NELMHF">     1</i>
   <i type="int" name="DIM">     3</i>
   <i type="int" name="IESPILON">     4</i>
   <i type="int" name="ANTIRES">     0</i>
   <i name="OMEGAMAX">    -30.00000000</i>
   <i name="OMEGAMIN">    -30.00000000</i>
   <i name="OMEGATL">   -200.00000000</i>
   <i type="int" name="OMEGAGRID">     0</i>
   <i name="CSHIFT">     -0.10000000</i>
   <i type="logical" name="LSELFENERGY"> F  </i>
   <i type="logical" name="LSPECTRAL"> F  </i>
   <i type="logical" name="LSPECTRALGW"> F  </i>
   <i type="logical" name="LSINGLES"> F  </i>
   <i type="logical" name="LFERMIGW"> F  </i>
   <i type="logical" name="ODDONLYGW"> F  </i>
   <i type="logical" name="EVENONLYGW"> F  </i>
   <i type="int" name="NKREDLFX">     1</i>
   <i type="int" name="NKREDLFY">     1</i>
   <i type="int" name="NKREDLFZ">     1</i>
   <i type="int" name="MAXMEM">  2800</i>
   <i type="int" name="TELESCOPE">     0</i>
   <i type="int" name="NTAUPAR">    -1</i>
   <i type="int" name="NOMEGAPAR">    -1</i>
   <i name="DAMP_NEWTON">      0.80000001</i>
   <i name="LAMBDA">      1.00000000</i>
  </separator>
  <separator name="External order field" >
   <i name="OFIELD_KAPPA">      0.00000000</i>
   <v name="OFIELD_K">      0.00000000      0.00000000      0.00000000</v>
   <i name="OFIELD_Q6_NEAR">      0.00000000</i>
   <i name="OFIELD_Q6_FAR">      0.00000000</i>
   <i name="OFIELD_A">      0.00000000</i>
  </separator>
  <separator name="optional k-points parameters" >
   <i type="int" name="KPOINTS_OPT_MODE">     1</i>
   <i type="logical" name="LKPOINTS_OPT"> F  </i>
  </separator>
 </parameters>
 <atominfo>
  <atoms>     126 </atoms>
  <types>       1 </types>
  <array name="atoms" >
   <dimension dim="1">ion</dimension>
   <field type="string">element</field>
   <field type="int">atomtype</field>
   <set>
    <rc><c>Cu</c><c>   1</c></rc>
    <rc><c>Cu</c><c>   1</c></rc>
    <rc><c>Cu</c><c>   1</c></rc>
    <rc><c>Cu</c><c>   1</c></rc>
    <rc><c>Cu</c><c>   1</c></rc>
    <rc><c>Cu</c><c>   1</c></rc>
    <rc><c>Cu</c><c>   1</c></rc>
    <rc><c>Cu</c><c>   1</c></rc>
    <rc><c>Cu</c><c>   1</c></rc>
    <rc><c>Cu</c><c>   1</c></rc>
    <rc><c>Cu</c><c>   1</c></rc>
    <rc><c>Cu</c><c>   1</c></rc>
    <rc><c>Cu</c><c>   1</c></rc>
    <rc><c>Cu</c><c>   1</c></rc>
    <rc><c>Cu</c><c>   1</c></rc>
    <rc><c>Cu</c><c>   1</c></rc>
    <rc><c>Cu</c><c>   1</c></rc>
    <rc><c>Cu</c><c>   1</c></rc>
    <rc><c>Cu</c><c>   1</c></rc>
    <rc><c>Cu</c><c>   1</c></rc>
    <rc><c>Cu</c><c>   1</c></rc>
    <rc><c>Cu</c><c>   1</c></rc>
    <rc><c>Cu</c><c>   1</c></rc>
    <rc><c>Cu</c><c>   1</c></rc>
    <rc><c>Cu</c><c>   1</c></rc>
    <rc><c>Cu</c><c>   1</c></rc>
    <rc><c>Cu</c><c>   1</c></rc>
    <rc><c>Cu</c><c>   1</c></rc>
    <rc><c>Cu</c><c>   1</c></rc>
    <rc><c>Cu</c><c>   1</c></rc>
    <rc><c>Cu</c><c>   1</c></rc>
    <rc><c>Cu</c><c>   1</c></rc>
    <rc><c>Cu</c><c>   1</c></rc>
    <rc><c>Cu</c><c>   1</c></rc>
    <rc><c>Cu</c><c>   1</c></rc>
    <rc><c>Cu</c><c>   1</c></rc>
    <rc><c>Cu</c><c>   1</c></rc>
    <rc><c>Cu</c><c>   1</c></rc>
    <rc><c>Cu</c><c>   1</c></rc>
    <rc><c>Cu</c><c>   1</c></rc>
    <rc><c>Cu</c><c>   1</c></rc>
    <rc><c>Cu</c><c>   1</c></rc>
    <rc><c>Cu</c><c>   1</c></rc>
    <rc><c>Cu</c><c>   1</c></rc>
    <rc><c>Cu</c><c>   1</c></rc>
    <rc><c>Cu</c><c>   1</c></rc>
    <rc><c>Cu</c><c>   1</c></rc>
    <rc><c>Cu</c><c>   1</c></rc>
    <rc><c>Cu</c><c>   1</c></rc>
    <rc><c>Cu</c><c>   1</c></rc>
    <rc><c>Cu</c><c>   1</c></rc>
    <rc><c>Cu</c><c>   1</c></rc>
    <rc><c>Cu</c><c>   1</c></rc>
    <rc><c>Cu</c><c>   1</c></rc>
    <rc><c>Cu</c><c>   1</c></rc>
    <rc><c>Cu</c><c>   1</c></rc>
    <rc><c>Cu</c><c>   1</c></rc>
    <rc><c>Cu</c><c>   1</c></rc>
    <rc><c>Cu</c><c>   1</c></rc>
    <rc><c>Cu</c><c>   1</c></rc>
    <rc><c>Cu</c><c>   1</c></rc>
    <rc><c>Cu</c><c>   1</c></rc>
    <rc><c>Cu</c><c>   1</c></rc>
    <rc><c>Cu</c><c>   1</c></rc>
    <rc><c>Cu</c><c>   1</c></rc>
    <rc><c>Cu</c><c>   1</c></rc>
    <rc><c>Cu</c><c>   1</c></rc>
    <rc><c>Cu</c><c>   1</c></rc>
    <rc><c>Cu</c><c>   1</c></rc>
    <rc><c>Cu</c><c>   1</c></rc>
    <rc><c>Cu</c><c>   1</c></rc>
    <rc><c>Cu</c><c>   1</c></rc>
    <rc><c>Cu</c><c>   1</c></rc>
    <rc><c>Cu</c><c>   1</c></rc>
    <rc><c>Cu</c><c>   1</c></rc>
    <rc><c>Cu</c><c>   1</c></rc>
    <rc><c>Cu</c><c>   1</c></rc>
    <rc><c>Cu</c><c>   1</c></rc>
    <rc><c>Cu</c><c>   1</c></rc>
    <rc><c>Cu</c><c>   1</c></rc>
    <rc><c>Cu</c><c>   1</c></rc>
    <rc><c>Cu</c><c>   1</c></rc>
    <rc><c>Cu</c><c>   1</c></rc>
    <rc><c>Cu</c><c>   1</c></rc>
    <rc><c>Cu</c><c>   1</c></rc>
    <rc><c>Cu</c><c>   1</c></rc>
    <rc><c>Cu</c><c>   1</c></rc>
    <rc><c>Cu</c><c>   1</c></rc>
    <rc><c>Cu</c><c>   1</c></rc>
    <rc><c>Cu</c><c>   1</c></rc>
    <rc><c>Cu</c><c>   1</c></rc>
    <rc><c>Cu</c><c>   1</c></rc>
    <rc><c>Cu</c><c>   1</c></rc>
    <rc><c>Cu</c><c>   1</c></rc>
    <rc><c>Cu</c><c>   1</c></rc>
    <rc><c>Cu</c><c>   1</c></rc>
    <rc><c>Cu</c><c>   1</c></rc>
    <rc><c>Cu</c><c>   1</c></rc>
    <rc><c>Cu</c><c>   1</c></rc>
    <rc><c>Cu</c><c>   1</c></rc>
    <rc><c>Cu</c><c>   1</c></rc>
    <rc><c>Cu</c><c>   1</c></rc>
    <rc><c>Cu</c><c>   1</c></rc>
    <rc><c>Cu</c><c>   1</c></rc>
    <rc><c>Cu</c><c>   1</c></rc>
    <rc><c>Cu</c><c>   1</c></rc>
    <rc><c>Cu</c><c>   1</c></rc>
    <rc><c>Cu</c><c>   1</c></rc>
    <rc><c>Cu</c><c>   1</c></rc>
    <rc><c>Cu</c><c>   1</c></rc>
    <rc><c>Cu</c><c>   1</c></rc>
    <rc><c>Cu</c><c>   1</c></rc>
    <rc><c>Cu</c><c>   1</c></rc>
    <rc><c>Cu</c><c>   1</c></rc>
    <rc><c>Cu</c><c>   1</c></rc>
    <rc><c>Cu</c><c>   1</c></rc>
    <rc><c>Cu</c><c>   1</c></rc>
    <rc><c>Cu</c><c>   1</c></rc>
    <rc><c>Cu</c><c>   1</c></rc>
    <rc><c>Cu</c><c>   1</c></rc>
    <rc><c>Cu</c><c>   1</c></rc>
    <rc><c>Cu</c><c>   1</c></rc>
    <rc><c>Cu</c><c>   1</c></rc>
    <rc><c>Cu</c><c>   1</c></rc>
    <rc><c>Cu</c><c>   1</c></rc>
    <rc><c>Cu</c><c>   1</c></rc>
   </set>
  </array>
  <array name="atomtypes" >
   <dimension dim="1">type</dimension>
   <field type="int">atomspertype</field>
   <field type="string">element</field>
   <field>mass</field>
   <field>valence</field>
   <field type="string">pseudopotential</field>
   <set>
    <rc><c> 126</c><c>Cu</c><c>     63.54600000</c><c>     11.00000000</c><c>  PAW_PBE Cu 22Jun2005                  </c></rc>
   </set>
  </array>
 </atominfo>
 <structure name="initialpos" >
  <crystal>
   <varray name="basis" >
    <v>      10.89000034       0.00000000       0.00000000 </v>
    <v>       0.00000000      10.89000034       0.00000000 </v>
    <v>       0.00000000       0.00000000      25.89000000 </v>
   </varray>
   <i name="volume">   3070.34966258 </i>
   <varray name="rec_basis" >
    <v>       0.09182736       0.00000000       0.00000000 </v>
    <v>       0.00000000       0.09182736       0.00000000 </v>
    <v>       0.00000000       0.00000000       0.03862495 </v>
   </varray>
  </crystal>
  <varray name="positions" >
   <v>       0.00000000       0.00000000       0.00000000 </v>
   <v>       0.00000000       0.33333333       0.00000000 </v>
   <v>       0.00000000       0.66666667       0.00000000 </v>
   <v>       0.33333333       0.00000000       0.00000000 </v>
   <v>       0.33333333       0.33333333       0.00000000 </v>
   <v>       0.33333333       0.66666667       0.00000000 </v>
   <v>       0.66666667       0.00000000       0.00000000 </v>
   <v>       0.66666667       0.33333333       0.00000000 </v>
   <v>       0.66666667       0.66666667       0.00000000 </v>
   <v>       0.16666667       0.16666667       0.00000000 </v>
   <v>       0.16666667       0.50000000       0.00000000 </v>
   <v>       0.16666667       0.83333333       0.00000000 </v>
   <v>       0.50000000       0.16666667       0.00000000 </v>
   <v>       0.50000000       0.50000000       0.00000000 </v>
   <v>       0.50000000       0.83333333       0.00000000 </v>
   <v>       0.83333333       0.16666667       0.00000000 </v>
   <v>       0.83333333       0.50000000       0.00000000 </v>
   <v>       0.83333333       0.83333333       0.00000000 </v>
   <v>       0.00000000       0.16666667       0.07010429 </v>
   <v>       0.00000000       0.50000000       0.07010429 </v>
   <v>       0.00000000       0.83333333       0.07010429 </v>
   <v>       0.33333333       0.16666667       0.07010429 </v>
   <v>       0.33333333       0.50000000       0.07010429 </v>
   <v>       0.33333333       0.83333333       0.07010429 </v>
   <v>       0.66666667       0.16666667       0.07010429 </v>
   <v>       0.66666667       0.50000000       0.07010429 </v>
   <v>       0.66666667       0.83333333       0.07010429 </v>
   <v>       0.16666667       0.00000000       0.07010429 </v>
   <v>       0.16666667       0.33333333       0.07010429 </v>
   <v>       0.16666667       0.66666667       0.07010429 </v>
   <v>       0.50000000       0.00000000       0.07010429 </v>
   <v>       0.50000000       0.33333333       0.07010429 </v>
   <v>       0.50000000       0.66666667       0.07010429 </v>
   <v>       0.83333333       0.00000000       0.07010429 </v>
   <v>       0.83333333       0.33333333       0.07010429 </v>
   <v>       0.83333333       0.66666667       0.07010429 </v>
   <v>       0.00000000       0.00000000       0.14020858 </v>
   <v>       0.00000000       0.33333333       0.14020858 </v>
   <v>       0.00000000       0.66666667       0.14020858 </v>
   <v>       0.33333333       0.00000000       0.14020858 </v>
   <v>       0.33333333       0.33333333       0.14020858 </v>
   <v>       0.33333333       0.66666667       0.14020858 </v>
   <v>       0.66666667       0.00000000       0.14020858 </v>
   <v>       0.66666667       0.33333333       0.14020858 </v>
   <v>       0.66666667       0.66666667       0.14020858 </v>
   <v>       0.16666667       0.16666667       0.14020858 </v>
   <v>       0.16666667       0.50000000       0.14020858 </v>
   <v>       0.16666667       0.83333333       0.14020858 </v>
   <v>       0.50000000       0.16666667       0.14020858 </v>
   <v>       0.50000000       0.50000000       0.14020858 </v>
   <v>       0.50000000       0.83333333       0.14020858 </v>
   <v>       0.83333333       0.16666667       0.14020858 </v>
   <v>       0.83333333       0.50000000       0.14020858 </v>
   <v>       0.83333333       0.83333333       0.14020858 </v>
   <v>       0.00000000       0.16666667       0.21031287 </v>
   <v>       0.00000000       0.50000000       0.21031287 </v>
   <v>       0.00000000       0.83333333       0.21031287 </v>
   <v>       0.33333333       0.16666667       0.21031287 </v>
   <v>       0.33333333       0.50000000       0.21031287 </v>
   <v>       0.33333333       0.83333333       0.21031287 </v>
   <v>       0.66666667       0.16666667       0.21031287 </v>
   <v>       0.66666667       0.50000000       0.21031287 </v>
   <v>       0.66666667       0.83333333       0.21031287 </v>
   <v>       0.16666667       0.00000000       0.21031287 </v>
   <v>       0.16666667       0.33333333       0.21031287 </v>
   <v>       0.16666667       0.66666667       0.21031287 </v>
   <v>       0.50000000       0.00000000       0.21031287 </v>
   <v>       0.50000000       0.33333333       0.21031287 </v>
   <v>       0.50000000       0.66666667       0.21031287 </v>
   <v>       0.83333333       0.00000000       0.21031287 </v>
   <v>       0.83333333       0.33333333       0.21031287 </v>
   <v>       0.83333333       0.66666667       0.21031287 </v>
   <v>       0.00000000       0.00000000       0.28041715 </v>
   <v>       0.00000000       0.33333333       0.28041715 </v>
   <v>       0.00000000       0.66666667       0.28041715 </v>
   <v>       0.33333333       0.00000000       0.28041715 </v>
   <v>       0.33333333       0.33333333       0.28041715 </v>
   <v>       0.33333333       0.66666667       0.28041715 </v>
   <v>       0.66666667       0.00000000       0.28041715 </v>
   <v>       0.66666667       0.33333333       0.28041715 </v>
   <v>       0.66666667       0.66666667       0.28041715 </v>
   <v>       0.16666667       0.16666667       0.28041715 </v>
   <v>       0.16666667       0.50000000       0.28041715 </v>
   <v>       0.16666667       0.83333333       0.28041715 </v>
   <v>       0.50000000       0.16666667       0.28041715 </v>
   <v>       0.50000000       0.50000000       0.28041715 </v>
   <v>       0.50000000       0.83333333       0.28041715 </v>
   <v>       0.83333333       0.16666667       0.28041715 </v>
   <v>       0.83333333       0.50000000       0.28041715 </v>
   <v>       0.83333333       0.83333333       0.28041715 </v>
   <v>       0.00000000       0.16666667       0.35052144 </v>
   <v>       0.00000000       0.50000000       0.35052144 </v>
   <v>       0.00000000       0.83333333       0.35052144 </v>
   <v>       0.33333333       0.16666667       0.35052144 </v>
   <v>       0.33333333       0.50000000       0.35052144 </v>
   <v>       0.33333333       0.83333333       0.35052144 </v>
   <v>       0.66666667       0.16666667       0.35052144 </v>
   <v>       0.66666667       0.50000000       0.35052144 </v>
   <v>       0.66666667       0.83333333       0.35052144 </v>
   <v>       0.16666667       0.00000000       0.35052144 </v>
   <v>       0.16666667       0.33333333       0.35052144 </v>
   <v>       0.16666667       0.66666667       0.35052144 </v>
   <v>       0.50000000       0.00000000       0.35052144 </v>
   <v>       0.50000000       0.33333333       0.35052144 </v>
   <v>       0.50000000       0.66666667       0.35052144 </v>
   <v>       0.83333333       0.00000000       0.35052144 </v>
   <v>       0.83333333       0.33333333       0.35052144 </v>
   <v>       0.83333333       0.66666667       0.35052144 </v>
   <v>       0.00000000       0.00000000       0.42062573 </v>
   <v>       0.00000000       0.33333333       0.42062573 </v>
   <v>       0.00000000       0.66666667       0.42062573 </v>
   <v>       0.33333333       0.00000000       0.42062573 </v>
   <v>       0.33333333       0.33333333       0.42062573 </v>
   <v>       0.33333333       0.66666667       0.42062573 </v>
   <v>       0.66666667       0.00000000       0.42062573 </v>
   <v>       0.66666667       0.33333333       0.42062573 </v>
   <v>       0.66666667       0.66666667       0.42062573 </v>
   <v>       0.16666667       0.16666667       0.42062573 </v>
   <v>       0.16666667       0.50000000       0.42062573 </v>
   <v>       0.16666667       0.83333333       0.42062573 </v>
   <v>       0.50000000       0.16666667       0.42062573 </v>
   <v>       0.50000000       0.50000000       0.42062573 </v>
   <v>       0.50000000       0.83333333       0.42062573 </v>
   <v>       0.83333333       0.16666667       0.42062573 </v>
   <v>       0.83333333       0.50000000       0.42062573 </v>
   <v>       0.83333333       0.83333333       0.42062573 </v>
  </varray>
  <varray name="selective"  type="logical" >
   <v type="logical" >  F  F  F </v>
   <v type="logical" >  F  F  F </v>
   <v type="logical" >  F  F  F </v>
   <v type="logical" >  F  F  F </v>
   <v type="logical" >  F  F  F </v>
   <v type="logical" >  F  F  F </v>
   <v type="logical" >  F  F  F </v>
   <v type="logical" >  F  F  F </v>
   <v type="logical" >  F  F  F </v>
   <v type="logical" >  F  F  F </v>
   <v type="logical" >  F  F  F </v>
   <v type="logical" >  F  F  F </v>
   <v type="logical" >  F  F  F </v>
   <v type="logical" >  F  F  F </v>
   <v type="logical" >  F  F  F </v>
   <v type="logical" >  F  F  F </v>
   <v type="logical" >  F  F  F </v>
   <v type="logical" >  F  F  F </v>
   <v type="logical" >  F  F  F </v>
   <v type="logical" >  F  F  F </v>
   <v type="logical" >  F  F  F </v>
   <v type="logical" >  F  F  F </v>
   <v type="logical" >  F  F  F </v>
   <v type="logical" >  F  F  F </v>
   <v type="logical" >  F  F  F </v>
   <v type="logical" >  F  F  F </v>
   <v type="logical" >  F  F  F </v>
   <v type="logical" >  F  F  F </v>
   <v type="logical" >  F  F  F </v>
   <v type="logical" >  F  F  F </v>
   <v type="logical" >  F  F  F </v>
   <v type="logical" >  F  F  F </v>
   <v type="logical" >  F  F  F </v>
   <v type="logical" >  F  F  F </v>
   <v type="logical" >  F  F  F </v>
   <v type="logical" >  F  F  F </v>
   <v type="logical" >  T  T  T </v>
   <v type="logical" >  T  T  T </v>
   <v type="logical" >  T  T  T </v>
   <v type="logical" >  T  T  T </v>
   <v type="logical" >  T  T  T </v>
   <v type="logical" >  T  T  T </v>
   <v type="logical" >  T  T  T </v>
   <v type="logical" >  T  T  T </v>
   <v type="logical" >  T  T  T </v>
   <v type="logical" >  T  T  T </v>
   <v type="logical" >  T  T  T </v>
   <v type="logical" >  T  T  T </v>
   <v type="logical" >  T  T  T </v>
   <v type="logical" >  T  T  T </v>
   <v type="logical" >  T  T  T </v>
   <v type="logical" >  T  T  T </v>
   <v type="logical" >  T  T  T </v>
   <v type="logical" >  T  T  T </v>
   <v type="logical" >  T  T  T </v>
   <v type="logical" >  T  T  T </v>
   <v type="logical" >  T  T  T </v>
   <v type="logical" >  T  T  T </v>
   <v type="logical" >  T  T  T </v>
   <v type="logical" >  T  T  T </v>
   <v type="logical" >  T  T  T </v>
   <v type="logical" >  T  T  T </v>
   <v type="logical" >  T  T  T </v>
   <v type="logical" >  T  T  T </v>
   <v type="logical" >  T  T  T </v>
   <v type="logical" >  T  T  T </v>
   <v type="logical" >  T  T  T </v>
   <v type="logical" >  T  T  T </v>
   <v type="logical" >  T  T  T </v>
   <v type="logical" >  T  T  T </v>
   <v type="logical" >  T  T  T </v>
   <v type="logical" >  T  T  T </v>
   <v type="logical" >  T  T  T </v>
   <v type="logical" >  T  T  T </v>
   <v type="logical" >  T  T  T </v>
   <v type="logical" >  T  T  T </v>
   <v type="logical" >  T  T  T </v>
   <v type="logical" >  T  T  T </v>
   <v type="logical" >  T  T  T </v>
   <v type="logical" >  T  T  T </v>
   <v type="logical" >  T  T  T </v>
   <v type="logical" >  T  T  T </v>
   <v type="logical" >  T  T  T </v>
   <v type="logical" >  T  T  T </v>
   <v type="logical" >  T  T  T </v>
   <v type="logical" >  T  T  T </v>
   <v type="logical" >  T  T  T </v>
   <v type="logical" >  T  T  T </v>
   <v type="logical" >  T  T  T </v>
   <v type="logical" >  T  T  T </v>
   <v type="logical" >  T  T  T </v>
   <v type="logical" >  T  T  T </v>
   <v type="logical" >  T  T  T </v>
   <v type="logical" >  T  T  T </v>
   <v type="logical" >  T  T  T </v>
   <v type="logical" >  T  T  T </v>
   <v type="logical" >  T  T  T </v>
   <v type="logical" >  T  T  T </v>
   <v type="logical" >  T  T  T </v>
   <v type="logical" >  T  T  T </v>
   <v type="logical" >  T  T  T </v>
   <v type="logical" >  T  T  T </v>
   <v type="logical" >  T  T  T </v>
   <v type="logical" >  T  T  T </v>
   <v type="logical" >  T  T  T </v>
   <v type="logical" >  T  T  T </v>
   <v type="logical" >  T  T  T </v>
   <v type="logical" >  T  T  T </v>
   <v type="logical" >  T  T  T </v>
   <v type="logical" >  T  T  T </v>
   <v type="logical" >  T  T  T </v>
   <v type="logical" >  T  T  T </v>
   <v type="logical" >  T  T  T </v>
   <v type="logical" >  T  T  T </v>
   <v type="logical" >  T  T  T </v>
   <v type="logical" >  T  T  T </v>
   <v type="logical" >  T  T  T </v>
   <v type="logical" >  T  T  T </v>
   <v type="logical" >  T  T  T </v>
   <v type="logical" >  T  T  T </v>
   <v type="logical" >  T  T  T </v>
   <v type="logical" >  T  T  T </v>
   <v type="logical" >  T  T  T </v>
   <v type="logical" >  T  T  T </v>
   <v type="logical" >  T  T  T </v>
   <v type="logical" >  T  T  T </v>
  </varray>
  <nose>
   <v>      -3.00000000       0.00000000       0.00010000       0.00010000 </v>
  </nose>
 </structure>
 <calculation>
  <scstep>
   <time name="dav">  399.77  404.04</time>
   <time name="total">  400.06  404.32</time>
   <energy>
    <i name="alphaZ">   3781.51194208 </i>
    <i name="ewald"> 698053.21489621 </i>
    <i name="hartreedc">-869441.21727907 </i>
    <i name="XCdc">   5756.80087226 </i>
    <i name="pawpsdc"> 154740.28450217 </i>
    <i name="pawaedc">-168074.03737215 </i>
    <i name="eentropy">      0.01273237 </i>
    <i name="bandstr">  13226.46475750 </i>
    <i name="atom"> 175260.66266517 </i>
    <i name="e_fr_energy">  13303.69771654 </i>
    <i name="e_wo_entrp">  13303.68498417 </i>
    <i name="e_0_energy">  13303.69347241 </i>
   </energy>
  </scstep>
  <scstep>
   <time name="dav">  393.91  398.32</time>
   <time name="total">  393.92  398.33</time>
   <energy>
    <i name="e_fr_energy">   1833.50454790 </i>
    <i name="e_wo_entrp">   1833.50894905 </i>
    <i name="e_0_energy">   1833.50601495 </i>
   </energy>
  </scstep>
  <scstep>
   <time name="dav">  398.75  403.22</time>
   <time name="total">  398.76  403.23</time>
   <energy>
    <i name="e_fr_energy">   -352.61414600 </i>
    <i name="e_wo_entrp">   -352.66790802 </i>
    <i name="e_0_energy">   -352.63206667 </i>
   </energy>
  </scstep>
  <scstep>
   <time name="dav">  428.56  433.10</time>
   <time name="total">  428.57  433.11</time>
   <energy>
    <i name="e_fr_energy">   -527.10534762 </i>
    <i name="e_wo_entrp">   -527.14682052 </i>
    <i name="e_0_energy">   -527.11917192 </i>
   </energy>
  </scstep>
  <scstep>
   <time name="dav">  430.75  434.99</time>
   <time name="total">  434.69  438.95</time>
   <energy>
    <i name="e_fr_energy">   -531.69013871 </i>
    <i name="e_wo_entrp">   -531.73694939 </i>
    <i name="e_0_energy">   -531.70574227 </i>
   </energy>
  </scstep>
  <scstep>
   <time name="dav">  425.64  430.68</time>
   <time name="total">  429.66  434.73</time>
   <energy>
    <i name="e_fr_energy">   -441.75386299 </i>
    <i name="e_wo_entrp">   -441.68490707 </i>
    <i name="e_0_energy">   -441.73087768 </i>
   </energy>
  </scstep>
  <scstep>
   <time name="dav">  422.00  426.03</time>
   <time name="total">  426.19  430.25</time>
   <energy>
    <i name="e_fr_energy">   -380.91382503 </i>
    <i name="e_wo_entrp">   -380.96642817 </i>
    <i name="e_0_energy">   -380.93135941 </i>
   </energy>
  </scstep>
  <scstep>
   <time name="dav">  445.51  450.64</time>
   <time name="total">  450.27  455.63</time>
   <energy>
    <i name="e_fr_energy">   -375.46957857 </i>
    <i name="e_wo_entrp">   -375.57156506 </i>
    <i name="e_0_energy">   -375.50357406 </i>
   </energy>
  </scstep>
  <scstep>
   <time name="dav">  518.36  523.55</time>
   <time name="total">  522.53  527.75</time>
   <energy>
    <i name="e_fr_energy">   -366.57864054 </i>
    <i name="e_wo_entrp">   -366.61618912 </i>
    <i name="e_0_energy">   -366.59115673 </i>
   </energy>
  </scstep>
  <scstep>
   <time name="dav">  548.26  554.42</time>
   <time name="total">  552.38  558.57</time>
   <energy>
    <i name="e_fr_energy">   -367.61103849 </i>
    <i name="e_wo_entrp">   -367.61928044 </i>
    <i name="e_0_energy">   -367.61378581 </i>
   </energy>
  </scstep>
  <scstep>
   <time name="dav">  449.59  454.83</time>
   <time name="total">  453.96  459.26</time>
   <energy>
    <i name="e_fr_energy">   -373.33702430 </i>
    <i name="e_wo_entrp">   -373.35251278 </i>
    <i name="e_0_energy">   -373.34218712 </i>
   </energy>
  </scstep>
  <scstep>
   <time name="dav">  487.68  492.32</time>
   <time name="total">  492.31  497.04</time>
   <energy>
    <i name="e_fr_energy">   -382.95506864 </i>
    <i name="e_wo_entrp">   -382.96143823 </i>
    <i name="e_0_energy">   -382.95719184 </i>
   </energy>
  </scstep>
  <scstep>
   <time name="dav">  471.53  476.85</time>
   <time name="total">  475.78  481.13</time>
   <energy>
    <i name="e_fr_energy">   -400.12046955 </i>
    <i name="e_wo_entrp">   -400.05643008 </i>
    <i name="e_0_energy">   -400.09912306 </i>
   </energy>
  </scstep>
  <scstep>
   <time name="dav">  485.79  490.50</time>
   <time name="total">  490.02  494.76</time>
   <energy>
    <i name="e_fr_energy">   -408.92967008 </i>
    <i name="e_wo_entrp">   -408.87010581 </i>
    <i name="e_0_energy">   -408.90981532 </i>
   </energy>
  </scstep>
  <scstep>
   <time name="dav">  501.71  506.99</time>
   <time name="total">  505.90  511.21</time>
   <energy>
    <i name="e_fr_energy">   -423.48056379 </i>
    <i name="e_wo_entrp">   -423.43447229 </i>
    <i name="e_0_energy">   -423.46519996 </i>
   </energy>
  </scstep>
  <scstep>
   <time name="dav">  440.58  445.27</time>
   <time name="total">  444.81  449.52</time>
   <energy>
    <i name="e_fr_energy">   -428.91055745 </i>
    <i name="e_wo_entrp">   -428.86303134 </i>
    <i name="e_0_energy">   -428.89471542 </i>
   </energy>
  </scstep>
  <scstep>
   <time name="dav">  443.47  448.10</time>
   <time name="total">  447.63  452.29</time>
   <energy>
    <i name="e_fr_energy">   -431.62379202 </i>
    <i name="e_wo_entrp">   -431.55597482 </i>
    <i name="e_0_energy">   -431.60118629 </i>
   </energy>
  </scstep>
  <scstep>
   <time name="dav">  419.80  424.18</time>
   <time name="total">  424.04  428.45</time>
   <energy>
    <i name="e_fr_energy">   -434.74344943 </i>
    <i name="e_wo_entrp">   -434.63711060 </i>
    <i name="e_0_energy">   -434.70800315 </i>
   </energy>
  </scstep>
  <scstep>
   <time name="dav">  522.14  527.57</time>
   <time name="total">  526.35  531.81</time>
   <energy>
    <i name="e_fr_energy">   -436.94815879 </i>
    <i name="e_wo_entrp">   -436.79918358 </i>
    <i name="e_0_energy">   -436.89850038 </i>
   </energy>
  </scstep>
  <scstep>
   <time name="dav">  466.06  471.13</time>
   <time name="total">  470.34  475.44</time>
   <energy>
    <i name="e_fr_energy">   -439.52330577 </i>
    <i name="e_wo_entrp">   -439.35922776 </i>
    <i name="e_0_energy">   -439.46861310 </i>
   </energy>
  </scstep>
  <scstep>
   <time name="dav">  485.24  490.06</time>
   <time name="total">  489.99  495.13</time>
   <energy>
    <i name="e_fr_energy">   -441.16709444 </i>
    <i name="e_wo_entrp">   -440.98824945 </i>
    <i name="e_0_energy">   -441.10747944 </i>
   </energy>
  </scstep>
  <scstep>
   <time name="dav">  487.25  491.39</time>
   <time name="total">  491.48  495.66</time>
   <energy>
    <i name="e_fr_energy">   -442.86923353 </i>
    <i name="e_wo_entrp">   -442.68151705 </i>
    <i name="e_0_energy">   -442.80666137 </i>
   </energy>
  </scstep>
  <scstep>
   <time name="dav">  461.67  465.60</time>
   <time name="total">  465.91  469.87</time>
   <energy>
    <i name="e_fr_energy">   -444.80460879 </i>
    <i name="e_wo_entrp">   -444.61696772 </i>
    <i name="e_0_energy">   -444.74206177 </i>
   </energy>
  </scstep>
  <scstep>
   <time name="dav">  451.89  455.88</time>
   <time name="total">  456.12  460.14</time>
   <energy>
    <i name="e_fr_energy">   -445.77641320 </i>
    <i name="e_wo_entrp">   -445.59007445 </i>
    <i name="e_0_energy">   -445.71430028 </i>
   </energy>
  </scstep>
  <scstep>
   <time name="dav">  450.18  454.05</time>
   <time name="total">  454.48  458.37</time>
   <energy>
    <i name="e_fr_energy">   -447.09566759 </i>
    <i name="e_wo_entrp">   -446.90852998 </i>
    <i name="e_0_energy">   -447.03328838 </i>
   </energy>
  </scstep>
  <scstep>
   <time name="dav">  465.29  469.38</time>
   <time name="total">  469.50  473.63</time>
   <energy>
    <i name="e_fr_energy">   -447.83711253 </i>
    <i name="e_wo_entrp">   -447.64768252 </i>
    <i name="e_0_energy">   -447.77396919 </i>
   </energy>
  </scstep>
  <scstep>
   <time name="dav">  507.97  512.34</time>
   <time name="total">  512.19  516.60</time>
   <energy>
    <i name="e_fr_energy">   -448.01443462 </i>
    <i name="e_wo_entrp">   -447.82688432 </i>
    <i name="e_0_energy">   -447.95191785 </i>
   </energy>
  </scstep>
  <scstep>
   <time name="dav">  499.66  504.22</time>
   <time name="total">  504.41  509.02</time>
   <energy>
    <i name="e_fr_energy">   -448.07294728 </i>
    <i name="e_wo_entrp">   -447.88475915 </i>
    <i name="e_0_energy">   -448.01021790 </i>
   </energy>
  </scstep>
  <scstep>
   <time name="dav">  430.90  434.75</time>
   <time name="total">  435.34  439.23</time>
   <energy>
    <i name="e_fr_energy">   -448.09358156 </i>
    <i name="e_wo_entrp">   -447.90581386 </i>
    <i name="e_0_energy">   -448.03099232 </i>
   </energy>
  </scstep>
  <scstep>
   <time name="dav">  308.29  311.07</time>
   <time name="total">  312.77  315.60</time>
   <energy>
    <i name="e_fr_energy">   -448.09536684 </i>
    <i name="e_wo_entrp">   -447.90735869 </i>
    <i name="e_0_energy">   -448.03269746 </i>
   </energy>
  </scstep>
  <scstep>
   <time name="dav">  294.48  297.07</time>
   <time name="total">  298.71  301.33</time>
   <energy>
    <i name="e_fr_energy">   -448.09584997 </i>
    <i name="e_wo_entrp">   -447.90778563 </i>
    <i name="e_0_energy">   -448.03316186 </i>
   </energy>
  </scstep>
  <scstep>
   <time name="dav">  290.38  292.86</time>
   <time name="total">  295.44  297.97</time>
   <energy>
    <i name="e_fr_energy">   -448.09616516 </i>
    <i name="e_wo_entrp">   -447.90826027 </i>
    <i name="e_0_energy">   -448.03353020 </i>
   </energy>
  </scstep>
  <scstep>
   <time name="dav">  292.04  294.62</time>
   <time name="total">  292.31  294.89</time>
   <energy>
    <i name="alphaZ">   3781.51194208 </i>
    <i name="ewald"> 698053.21489621 </i>
    <i name="hartreedc">-867564.85098917 </i>
    <i name="XCdc">   5613.19242128 </i>
    <i name="pawpsdc"> 164201.18736297 </i>
    <i name="pawaedc">-177760.83091001 </i>
    <i name="eentropy">     -0.18795541 </i>
    <i name="bandstr">  -2031.99577846 </i>
    <i name="atom"> 175260.66266517 </i>
    <i name="e_fr_energy">   -448.09634533 </i>
    <i name="e_wo_entrp">   -447.90838992 </i>
    <i name="e_0_energy">   -448.03369352 </i>
   </energy>
  </scstep>
  <dipole>
   <v name="dipole">      0.00000000       0.00000000      -0.03556551 </v>
   <i name="Tr[quadrupol]"> -28901.43795900 </i>
   <i name="Echarged">      0.00000000 </i>
   <i name="Edipol_quadrupol">      0.00000000 </i>
   <i name="Eion">      0.00000000 </i>
  </dipole>
  <structure>
   <crystal>
    <varray name="basis" >
     <v>      10.89000034       0.00000000       0.00000000 </v>
     <v>       0.00000000      10.89000034       0.00000000 </v>
     <v>       0.00000000       0.00000000      25.89000000 </v>
    </varray>
    <i name="volume">   3070.34966258 </i>
    <varray name="rec_basis" >
     <v>       0.09182736       0.00000000       0.00000000 </v>
     <v>       0.00000000       0.09182736       0.00000000 </v>
     <v>       0.00000000       0.00000000       0.03862495 </v>
    </varray>
   </crystal>
   <varray name="positions" >
    <v>       0.00000000       0.00000000       0.00000000 </v>
    <v>       0.00000000       0.33333333       0.00000000 </v>
    <v>       0.00000000       0.66666667       0.00000000 </v>
    <v>       0.33333333       0.00000000       0.00000000 </v>
    <v>       0.33333333       0.33333333       0.00000000 </v>
    <v>       0.33333333       0.66666667       0.00000000 </v>
    <v>       0.66666667       0.00000000       0.00000000 </v>
    <v>       0.66666667       0.33333333       0.00000000 </v>
    <v>       0.66666667       0.66666667       0.00000000 </v>
    <v>       0.16666667       0.16666667       0.00000000 </v>
    <v>       0.16666667       0.50000000       0.00000000 </v>
    <v>       0.16666667       0.83333333       0.00000000 </v>
    <v>       0.50000000       0.16666667       0.00000000 </v>
    <v>       0.50000000       0.50000000       0.00000000 </v>
    <v>       0.50000000       0.83333333       0.00000000 </v>
    <v>       0.83333333       0.16666667       0.00000000 </v>
    <v>       0.83333333       0.50000000       0.00000000 </v>
    <v>       0.83333333       0.83333333       0.00000000 </v>
    <v>       0.00000000       0.16666667       0.07010429 </v>
    <v>       0.00000000       0.50000000       0.07010429 </v>
    <v>       0.00000000       0.83333333       0.07010429 </v>
    <v>       0.33333333       0.16666667       0.07010429 </v>
    <v>       0.33333333       0.50000000       0.07010429 </v>
    <v>       0.33333333       0.83333333       0.07010429 </v>
    <v>       0.66666667       0.16666667       0.07010429 </v>
    <v>       0.66666667       0.50000000       0.07010429 </v>
    <v>       0.66666667       0.83333333       0.07010429 </v>
    <v>       0.16666667       0.00000000       0.07010429 </v>
    <v>       0.16666667       0.33333333       0.07010429 </v>
    <v>       0.16666667       0.66666667       0.07010429 </v>
    <v>       0.50000000       0.00000000       0.07010429 </v>
    <v>       0.50000000       0.33333333       0.07010429 </v>
    <v>       0.50000000       0.66666667       0.07010429 </v>
    <v>       0.83333333       0.00000000       0.07010429 </v>
    <v>       0.83333333       0.33333333       0.07010429 </v>
    <v>       0.83333333       0.66666667       0.07010429 </v>
    <v>       0.00000000       0.00000000       0.14020858 </v>
    <v>       0.00000000       0.33333333       0.14020858 </v>
    <v>       0.00000000       0.66666667       0.14020858 </v>
    <v>       0.33333333       0.00000000       0.14020858 </v>
    <v>       0.33333333       0.33333333       0.14020858 </v>
    <v>       0.33333333       0.66666667       0.14020858 </v>
    <v>       0.66666667       0.00000000       0.14020858 </v>
    <v>       0.66666667       0.33333333       0.14020858 </v>
    <v>       0.66666667       0.66666667       0.14020858 </v>
    <v>       0.16666667       0.16666667       0.14020858 </v>
    <v>       0.16666667       0.50000000       0.14020858 </v>
    <v>       0.16666667       0.83333333       0.14020858 </v>
    <v>       0.50000000       0.16666667       0.14020858 </v>
    <v>       0.50000000       0.50000000       0.14020858 </v>
    <v>       0.50000000       0.83333333       0.14020858 </v>
    <v>       0.83333333       0.16666667       0.14020858 </v>
    <v>       0.83333333       0.50000000       0.14020858 </v>
    <v>       0.83333333       0.83333333       0.14020858 </v>
    <v>       0.00000000       0.16666667       0.21031287 </v>
    <v>       0.00000000       0.50000000       0.21031287 </v>
    <v>       0.00000000       0.83333333       0.21031287 </v>
    <v>       0.33333333       0.16666667       0.21031287 </v>
    <v>       0.33333333       0.50000000       0.21031287 </v>
    <v>       0.33333333       0.83333333       0.21031287 </v>
    <v>       0.66666667       0.16666667       0.21031287 </v>
    <v>       0.66666667       0.50000000       0.21031287 </v>
    <v>       0.66666667       0.83333333       0.21031287 </v>
    <v>       0.16666667       0.00000000       0.21031287 </v>
    <v>       0.16666667       0.33333333       0.21031287 </v>
    <v>       0.16666667       0.66666667       0.21031287 </v>
    <v>       0.50000000       0.00000000       0.21031287 </v>
    <v>       0.50000000       0.33333333       0.21031287 </v>
    <v>       0.50000000       0.66666667       0.21031287 </v>
    <v>       0.83333333       0.00000000       0.21031287 </v>
    <v>       0.83333333       0.33333333       0.21031287 </v>
    <v>       0.83333333       0.66666667       0.21031287 </v>
    <v>       0.00000000       0.00000000       0.28041715 </v>
    <v>       0.00000000       0.33333333       0.28041715 </v>
    <v>       0.00000000       0.66666667       0.28041715 </v>
    <v>       0.33333333       0.00000000       0.28041715 </v>
    <v>       0.33333333       0.33333333       0.28041715 </v>
    <v>       0.33333333       0.66666667       0.28041715 </v>
    <v>       0.66666667       0.00000000       0.28041715 </v>
    <v>       0.66666667       0.33333333       0.28041715 </v>
    <v>       0.66666667       0.66666667       0.28041715 </v>
    <v>       0.16666667       0.16666667       0.28041715 </v>
    <v>       0.16666667       0.50000000       0.28041715 </v>
    <v>       0.16666667       0.83333333       0.28041715 </v>
    <v>       0.50000000       0.16666667       0.28041715 </v>
    <v>       0.50000000       0.50000000       0.28041715 </v>
    <v>       0.50000000       0.83333333       0.28041715 </v>
    <v>       0.83333333       0.16666667       0.28041715 </v>
    <v>       0.83333333       0.50000000       0.28041715 </v>
    <v>       0.83333333       0.83333333       0.28041715 </v>
    <v>       0.00000000       0.16666667       0.35052144 </v>
    <v>       0.00000000       0.50000000       0.35052144 </v>
    <v>       0.00000000       0.83333333       0.35052144 </v>
    <v>       0.33333333       0.16666667       0.35052144 </v>
    <v>       0.33333333       0.50000000       0.35052144 </v>
    <v>       0.33333333       0.83333333       0.35052144 </v>
    <v>       0.66666667       0.16666667       0.35052144 </v>
    <v>       0.66666667       0.50000000       0.35052144 </v>
    <v>       0.66666667       0.83333333       0.35052144 </v>
    <v>       0.16666667       0.00000000       0.35052144 </v>
    <v>       0.16666667       0.33333333       0.35052144 </v>
    <v>       0.16666667       0.66666667       0.35052144 </v>
    <v>       0.50000000       0.00000000       0.35052144 </v>
    <v>       0.50000000       0.33333333       0.35052144 </v>
    <v>       0.50000000       0.66666667       0.35052144 </v>
    <v>       0.83333333       0.00000000       0.35052144 </v>
    <v>       0.83333333       0.33333333       0.35052144 </v>
    <v>       0.83333333       0.66666667       0.35052144 </v>
    <v>       0.00000000       0.00000000       0.42062573 </v>
    <v>       0.00000000       0.33333333       0.42062573 </v>
    <v>       0.00000000       0.66666667       0.42062573 </v>
    <v>       0.33333333       0.00000000       0.42062573 </v>
    <v>       0.33333333       0.33333333       0.42062573 </v>
    <v>       0.33333333       0.66666667       0.42062573 </v>
    <v>       0.66666667       0.00000000       0.42062573 </v>
    <v>       0.66666667       0.33333333       0.42062573 </v>
    <v>       0.66666667       0.66666667       0.42062573 </v>
    <v>       0.16666667       0.16666667       0.42062573 </v>
    <v>       0.16666667       0.50000000       0.42062573 </v>
    <v>       0.16666667       0.83333333       0.42062573 </v>
    <v>       0.50000000       0.16666667       0.42062573 </v>
    <v>       0.50000000       0.50000000       0.42062573 </v>
    <v>       0.50000000       0.83333333       0.42062573 </v>
    <v>       0.83333333       0.16666667       0.42062573 </v>
    <v>       0.83333333       0.50000000       0.42062573 </v>
    <v>       0.83333333       0.83333333       0.42062573 </v>
   </varray>
  </structure>
  <varray name="forces" >
   <v>      -0.00000000       0.00000000       0.32327336 </v>
   <v>       0.00000000      -0.00000000       0.32327336 </v>
   <v>       0.00000000      -0.00000000       0.32327336 </v>
   <v>      -0.00000000      -0.00000000       0.32327336 </v>
   <v>       0.00000000      -0.00000000       0.32327336 </v>
   <v>      -0.00000000       0.00000000       0.32327336 </v>
   <v>       0.00000000       0.00000000       0.32327336 </v>
   <v>       0.00000000      -0.00000000       0.32327336 </v>
   <v>       0.00000000       0.00000000       0.32327336 </v>
   <v>       0.00000000       0.00000000       0.32327336 </v>
   <v>      -0.00000000       0.00000000       0.32327336 </v>
   <v>      -0.00000000      -0.00000000       0.32327336 </v>
   <v>       0.00000000       0.00000000       0.32327336 </v>
   <v>       0.00000000      -0.00000000       0.32327336 </v>
   <v>      -0.00000000       0.00000000       0.32327336 </v>
   <v>       0.00000000       0.00000000       0.32327336 </v>
   <v>      -0.00000000      -0.00000000       0.32327336 </v>
   <v>       0.00000000       0.00000000       0.32327336 </v>
   <v>      -0.00000000       0.00000000      -0.08401004 </v>
   <v>      -0.00000000       0.00000000      -0.08401004 </v>
   <v>      -0.00000000      -0.00000000      -0.08401004 </v>
   <v>       0.00000000      -0.00000000      -0.08401004 </v>
   <v>      -0.00000000      -0.00000000      -0.08401004 </v>
   <v>      -0.00000000       0.00000000      -0.08401004 </v>
   <v>      -0.00000000      -0.00000000      -0.08401004 </v>
   <v>       0.00000000      -0.00000000      -0.08401004 </v>
   <v>      -0.00000000       0.00000000      -0.08401004 </v>
   <v>      -0.00000000      -0.00000000      -0.08401004 </v>
   <v>      -0.00000000      -0.00000000      -0.08401004 </v>
   <v>      -0.00000000       0.00000000      -0.08401004 </v>
   <v>       0.00000000      -0.00000000      -0.08401004 </v>
   <v>       0.00000000      -0.00000000      -0.08401004 </v>
   <v>       0.00000000       0.00000000      -0.08401004 </v>
   <v>      -0.00000000       0.00000000      -0.08401004 </v>
   <v>      -0.00000000      -0.00000000      -0.08401004 </v>
   <v>      -0.00000000      -0.00000000      -0.08401004 </v>
   <v>      -0.00000000      -0.00000000       0.03697302 </v>
   <v>       0.00000000      -0.00000000       0.03697302 </v>
   <v>       0.00000000      -0.00000000       0.03697302 </v>
   <v>       0.00000000      -0.00000000       0.03697302 </v>
   <v>       0.00000000      -0.00000000       0.03697302 </v>
   <v>       0.00000000       0.00000000       0.03697302 </v>
   <v>       0.00000000      -0.00000000       0.03697302 </v>
   <v>       0.00000000      -0.00000000       0.03697302 </v>
   <v>       0.00000000      -0.00000000       0.03697302 </v>
   <v>       0.00000000       0.00000000       0.03697302 </v>
   <v>       0.00000000       0.00000000       0.03697302 </v>
   <v>       0.00000000      -0.00000000       0.03697302 </v>
   <v>      -0.00000000      -0.00000000       0.03697302 </v>
   <v>       0.00000000       0.00000000       0.03697302 </v>
   <v>      -0.00000000      -0.00000000       0.03697302 </v>
   <v>       0.00000000       0.00000000       0.03697302 </v>
   <v>       0.00000000       0.00000000       0.03697302 </v>
   <v>       0.00000000      -0.00000000       0.03697302 </v>
   <v>       0.00000000      -0.00000000       0.00200133 </v>
   <v>      -0.00000000       0.00000000       0.00200133 </v>
   <v>       0.00000000       0.00000000       0.00200133 </v>
   <v>       0.00000000       0.00000000       0.00200133 </v>
   <v>       0.00000000      -0.00000000       0.00200133 </v>
   <v>      -0.00000000      -0.00000000       0.00200133 </v>
   <v>      -0.00000000       0.00000000       0.00200133 </v>
   <v>      -0.00000000       0.00000000       0.00200133 </v>
   <v>       0.00000000      -0.00000000       0.00200133 </v>
   <v>      -0.00000000       0.00000000       0.00200133 </v>
   <v>       0.00000000       0.00000000       0.00200133 </v>
   <v>       0.00000000      -0.00000000       0.00200133 </v>
   <v>      -0.00000000       0.00000000       0.00200133 </v>
   <v>      -0.00000000       0.00000000       0.00200133 </v>
   <v>      -0.00000000      -0.00000000       0.00200133 </v>
   <v>       0.00000000      -0.00000000       0.00200133 </v>
   <v>      -0.00000000       0.00000000       0.00200133 </v>
   <v>      -0.00000000       0.00000000       0.00200133 </v>
   <v>      -0.00000000       0.00000000      -0.03449862 </v>
   <v>      -0.00000000      -0.00000000      -0.03449862 </v>
   <v>       0.00000000       0.00000000      -0.03449862 </v>
   <v>      -0.00000000      -0.00000000      -0.03449862 </v>
   <v>      -0.00000000      -0.00000000      -0.03449862 </v>
   <v>       0.00000000       0.00000000      -0.03449862 </v>
   <v>      -0.00000000       0.00000000      -0.03449862 </v>
   <v>      -0.00000000      -0.00000000      -0.03449862 </v>
   <v>       0.00000000       0.00000000      -0.03449862 </v>
   <v>      -0.00000000      -0.00000000      -0.03449862 </v>
   <v>      -0.00000000       0.00000000      -0.03449862 </v>
   <v>       0.00000000       0.00000000      -0.03449862 </v>
   <v>      -0.00000000      -0.00000000      -0.03449862 </v>
   <v>       0.00000000      -0.00000000      -0.03449862 </v>
   <v>      -0.00000000       0.00000000      -0.03449862 </v>
   <v>      -0.00000000      -0.00000000      -0.03449862 </v>
   <v>      -0.00000000       0.00000000      -0.03449862 </v>
   <v>      -0.00000000       0.00000000      -0.03449862 </v>
   <v>      -0.00000000      -0.00000000       0.08455277 </v>
   <v>      -0.00000000       0.00000000       0.08455277 </v>
   <v>      -0.00000000      -0.00000000       0.08455277 </v>
   <v>       0.00000000       0.00000000       0.08455277 </v>
   <v>      -0.00000000      -0.00000000       0.08455277 </v>
   <v>      -0.00000000       0.00000000       0.08455277 </v>
   <v>      -0.00000000       0.00000000       0.08455277 </v>
   <v>      -0.00000000       0.00000000       0.08455277 </v>
   <v>      -0.00000000      -0.00000000       0.08455277 </v>
   <v>      -0.00000000      -0.00000000       0.08455277 </v>
   <v>      -0.00000000      -0.00000000       0.08455277 </v>
   <v>      -0.00000000      -0.00000000       0.08455277 </v>
   <v>      -0.00000000      -0.00000000       0.08455277 </v>
   <v>       0.00000000      -0.00000000       0.08455277 </v>
   <v>      -0.00000000      -0.00000000       0.08455277 </v>
   <v>       0.00000000      -0.00000000       0.08455277 </v>
   <v>      -0.00000000       0.00000000       0.08455277 </v>
   <v>       0.00000000       0.00000000       0.08455277 </v>
   <v>       0.00000000       0.00000000      -0.32829181 </v>
   <v>       0.00000000       0.00000000      -0.32829181 </v>
   <v>       0.00000000      -0.00000000      -0.32829181 </v>
   <v>      -0.00000000       0.00000000      -0.32829181 </v>
   <v>      -0.00000000       0.00000000      -0.32829181 </v>
   <v>       0.00000000       0.00000000      -0.32829181 </v>
   <v>       0.00000000      -0.00000000      -0.32829181 </v>
   <v>       0.00000000       0.00000000      -0.32829181 </v>
   <v>      -0.00000000      -0.00000000      -0.32829181 </v>
   <v>       0.00000000       0.00000000      -0.32829181 </v>
   <v>       0.00000000      -0.00000000      -0.32829181 </v>
   <v>       0.00000000      -0.00000000      -0.32829181 </v>
   <v>      -0.00000000       0.00000000      -0.32829181 </v>
   <v>      -0.00000000       0.00000000      -0.32829181 </v>
   <v>      -0.00000000      -0.00000000      -0.32829181 </v>
   <v>      -0.00000000      -0.00000000      -0.32829181 </v>
   <v>       0.00000000       0.00000000      -0.32829181 </v>
   <v>       0.00000000      -0.00000000      -0.32829181 </v>
  </varray>
  <varray name="stress" >
   <v>     -46.76800545       0.00000000       0.00000000 </v>
   <v>       0.00000000     -46.76800545       0.00000000 </v>
   <v>       0.00000000       0.00000000     -34.84958228 </v>
  </varray>
  <energy>
   <i name="e_fr_energy">   -497.85110625 </i>
   <i name="e_wo_entrp">   -497.66315084 </i>
   <i name="e_0_energy">   -497.78845445 </i>
  </energy>
  <time name="totalsc">15559.9415714.36</time>
 </calculation>
 <calculation>
  <scstep>
   <time name="dav">  434.67  438.83</time>
   <time name="total">  438.98  443.16</time>
   <energy>
    <i name="alphaZ">   3781.51194208 </i>
    <i name="ewald"> 699340.17329696 </i>
    <i name="hartreedc">-868848.09975800 </i>
    <i name="XCdc">   5613.65193947 </i>
    <i name="pawpsdc"> 164200.47470892 </i>
    <i name="pawaedc">-177760.07141219 </i>
    <i name="eentropy">     -0.19166770 </i>
    <i name="bandstr">  -2036.21290310 </i>
    <i name="atom"> 175260.66266517 </i>
    <i name="e_fr_energy">   -448.10118838 </i>
    <i name="e_wo_entrp">   -447.90952068 </i>
    <i name="e_0_energy">   -448.03729915 </i>
   </energy>
  </scstep>
  <scstep>
   <time name="dav">  564.90  570.02</time>
   <time name="total">  569.07  574.22</time>
   <energy>
    <i name="e_fr_energy">   -448.15254966 </i>
    <i name="e_wo_entrp">   -447.95976063 </i>
    <i name="e_0_energy">   -448.08828665 </i>
   </energy>
  </scstep>
  <scstep>
   <time name="dav">  424.79  428.49</time>
   <time name="total">  429.19  432.92</time>
   <energy>
    <i name="e_fr_energy">   -448.14962446 </i>
    <i name="e_wo_entrp">   -447.95921367 </i>
    <i name="e_0_energy">   -448.08615419 </i>
   </energy>
  </scstep>
  <scstep>
   <time name="dav">  458.89  463.06</time>
   <time name="total">  463.05  467.24</time>
   <energy>
    <i name="e_fr_energy">   -448.14932874 </i>
    <i name="e_wo_entrp">   -447.95832476 </i>
    <i name="e_0_energy">   -448.08566075 </i>
   </energy>
  </scstep>
  <scstep>
   <time name="dav">  431.83  435.59</time>
   <time name="total">  436.16  439.94</time>
   <energy>
    <i name="e_fr_energy">   -448.14914596 </i>
    <i name="e_wo_entrp">   -447.95737651 </i>
    <i name="e_0_energy">   -448.08522281 </i>
   </energy>
  </scstep>
  <scstep>
   <time name="dav">  445.66  449.56</time>
   <time name="total">  449.86  453.79</time>
   <energy>
    <i name="e_fr_energy">   -448.14863402 </i>
    <i name="e_wo_entrp">   -447.95813918 </i>
    <i name="e_0_energy">   -448.08513574 </i>
   </energy>
  </scstep>
  <scstep>
   <time name="dav">  475.74  480.18</time>
   <time name="total">  480.08  484.55</time>
   <energy>
    <i name="e_fr_energy">   -448.14843206 </i>
    <i name="e_wo_entrp">   -447.95634624 </i>
    <i name="e_0_energy">   -448.08440345 </i>
   </energy>
  </scstep>
  <scstep>
   <time name="dav">  323.14  326.02</time>
   <time name="total">  323.42  326.31</time>
   <energy>
    <i name="alphaZ">   3781.51194208 </i>
    <i name="ewald"> 699340.17329696 </i>
    <i name="hartreedc">-868846.09942739 </i>
    <i name="XCdc">   5613.49129201 </i>
    <i name="pawpsdc"> 164252.12869684 </i>
    <i name="pawaedc">-177812.89713202 </i>
    <i name="eentropy">     -0.19158481 </i>
    <i name="bandstr">  -2036.92805990 </i>
    <i name="atom"> 175260.66266517 </i>
    <i name="e_fr_energy">   -448.14831105 </i>
    <i name="e_wo_entrp">   -447.95672625 </i>
    <i name="e_0_energy">   -448.08444945 </i>
   </energy>
  </scstep>
  <dipole>
   <v name="dipole">      0.00000000       0.00000000      -0.02097090 </v>
   <i name="Tr[quadrupol]"> -28901.36872938 </i>
   <i name="Echarged">      0.00000000 </i>
   <i name="Edipol_quadrupol">      0.00000000 </i>
   <i name="Eion">      0.00000000 </i>
  </dipole>
  <structure>
   <crystal>
    <varray name="basis" >
     <v>      10.89000034       0.00000000       0.00000000 </v>
     <v>       0.00000000      10.89000034       0.00000000 </v>
     <v>       0.00000000       0.00000000      25.89000000 </v>
    </varray>
    <i name="volume">   3070.34966258 </i>
    <varray name="rec_basis" >
     <v>       0.09182736       0.00000000       0.00000000 </v>
     <v>       0.00000000       0.09182736       0.00000000 </v>
     <v>       0.00000000       0.00000000       0.03862495 </v>
    </varray>
   </crystal>
   <varray name="positions" >
    <v>       0.00000000       0.00000000       0.00000000 </v>
    <v>       0.00000000       0.33333333       0.00000000 </v>
    <v>       0.00000000       0.66666667       0.00000000 </v>
    <v>       0.33333333       0.00000000       0.00000000 </v>
    <v>       0.33333333       0.33333333       0.00000000 </v>
    <v>       0.33333333       0.66666667       0.00000000 </v>
    <v>       0.66666667       0.00000000       0.00000000 </v>
    <v>       0.66666667       0.33333333       0.00000000 </v>
    <v>       0.66666667       0.66666667       0.00000000 </v>
    <v>       0.16666667       0.16666667       0.00000000 </v>
    <v>       0.16666667       0.50000000       0.00000000 </v>
    <v>       0.16666667       0.83333333       0.00000000 </v>
    <v>       0.50000000       0.16666667       0.00000000 </v>
    <v>       0.50000000       0.50000000       0.00000000 </v>
    <v>       0.50000000       0.83333333       0.00000000 </v>
    <v>       0.83333333       0.16666667       0.00000000 </v>
    <v>       0.83333333       0.50000000       0.00000000 </v>
    <v>       0.83333333       0.83333333       0.00000000 </v>
    <v>       0.00000000       0.16666667       0.07010429 </v>
    <v>       0.00000000       0.50000000       0.07010429 </v>
    <v>       0.00000000       0.83333333       0.07010429 </v>
    <v>       0.33333333       0.16666667       0.07010429 </v>
    <v>       0.33333333       0.50000000       0.07010429 </v>
    <v>       0.33333333       0.83333333       0.07010429 </v>
    <v>       0.66666667       0.16666667       0.07010429 </v>
    <v>       0.66666667       0.50000000       0.07010429 </v>
    <v>       0.66666667       0.83333333       0.07010429 </v>
    <v>       0.16666667       0.00000000       0.07010429 </v>
    <v>       0.16666667       0.33333333       0.07010429 </v>
    <v>       0.16666667       0.66666667       0.07010429 </v>
    <v>       0.50000000       0.00000000       0.07010429 </v>
    <v>       0.50000000       0.33333333       0.07010429 </v>
    <v>       0.50000000       0.66666667       0.07010429 </v>
    <v>       0.83333333       0.00000000       0.07010429 </v>
    <v>       0.83333333       0.33333333       0.07010429 </v>
    <v>       0.83333333       0.66666667       0.07010429 </v>
    <v>      -0.00000000      -0.00000000       0.14027747 </v>
    <v>       0.00000000       0.33333333       0.14027747 </v>
    <v>       0.00000000       0.66666667       0.14027747 </v>
    <v>       0.33333333      -0.00000000       0.14027747 </v>
    <v>       0.33333333       0.33333333       0.14027747 </v>
    <v>       0.33333333       0.66666667       0.14027747 </v>
    <v>       0.66666667      -0.00000000       0.14027747 </v>
    <v>       0.66666667       0.33333333       0.14027747 </v>
    <v>       0.66666667       0.66666667       0.14027747 </v>
    <v>       0.16666667       0.16666667       0.14027747 </v>
    <v>       0.16666667       0.50000000       0.14027747 </v>
    <v>       0.16666667       0.83333333       0.14027747 </v>
    <v>       0.50000000       0.16666667       0.14027747 </v>
    <v>       0.50000000       0.50000000       0.14027747 </v>
    <v>       0.50000000       0.83333333       0.14027747 </v>
    <v>       0.83333333       0.16666667       0.14027747 </v>
    <v>       0.83333333       0.50000000       0.14027747 </v>
    <v>       0.83333333       0.83333333       0.14027747 </v>
    <v>       0.00000000       0.16666667       0.21031659 </v>
    <v>      -0.00000000       0.50000000       0.21031659 </v>
    <v>       0.00000000       0.83333333       0.21031659 </v>
    <v>       0.33333333       0.16666667       0.21031659 </v>
    <v>       0.33333333       0.50000000       0.21031659 </v>
    <v>       0.33333333       0.83333333       0.21031659 </v>
    <v>       0.66666667       0.16666667       0.21031659 </v>
    <v>       0.66666667       0.50000000       0.21031659 </v>
    <v>       0.66666667       0.83333333       0.21031659 </v>
    <v>       0.16666667       0.00000000       0.21031659 </v>
    <v>       0.16666667       0.33333333       0.21031659 </v>
    <v>       0.16666667       0.66666667       0.21031659 </v>
    <v>       0.50000000       0.00000000       0.21031659 </v>
    <v>       0.50000000       0.33333333       0.21031659 </v>
    <v>       0.50000000       0.66666667       0.21031659 </v>
    <v>       0.83333333      -0.00000000       0.21031659 </v>
    <v>       0.83333333       0.33333333       0.21031659 </v>
    <v>       0.83333333       0.66666667       0.21031659 </v>
    <v>      -0.00000000       0.00000000       0.28035287 </v>
    <v>      -0.00000000       0.33333333       0.28035287 </v>
    <v>       0.00000000       0.66666667       0.28035287 </v>
    <v>       0.33333333      -0.00000000       0.28035287 </v>
    <v>       0.33333333       0.33333333       0.28035287 </v>
    <v>       0.33333333       0.66666667       0.28035287 </v>
    <v>       0.66666667       0.00000000       0.28035287 </v>
    <v>       0.66666667       0.33333333       0.28035287 </v>
    <v>       0.66666667       0.66666667       0.28035287 </v>
    <v>       0.16666667       0.16666667       0.28035287 </v>
    <v>       0.16666667       0.50000000       0.28035287 </v>
    <v>       0.16666667       0.83333333       0.28035287 </v>
    <v>       0.50000000       0.16666667       0.28035287 </v>
    <v>       0.50000000       0.50000000       0.28035287 </v>
    <v>       0.50000000       0.83333333       0.28035287 </v>
    <v>       0.83333333       0.16666667       0.28035287 </v>
    <v>       0.83333333       0.50000000       0.28035287 </v>
    <v>       0.83333333       0.83333333       0.28035287 </v>
    <v>      -0.00000000       0.16666667       0.35067899 </v>
    <v>      -0.00000000       0.50000000       0.35067899 </v>
    <v>      -0.00000000       0.83333333       0.35067899 </v>
    <v>       0.33333333       0.16666667       0.35067899 </v>
    <v>       0.33333333       0.50000000       0.35067899 </v>
    <v>       0.33333333       0.83333333       0.35067899 </v>
    <v>       0.66666667       0.16666667       0.35067899 </v>
    <v>       0.66666667       0.50000000       0.35067899 </v>
    <v>       0.66666667       0.83333333       0.35067899 </v>
    <v>       0.16666667      -0.00000000       0.35067899 </v>
    <v>       0.16666667       0.33333333       0.35067899 </v>
    <v>       0.16666667       0.66666667       0.35067899 </v>
    <v>       0.50000000      -0.00000000       0.35067899 </v>
    <v>       0.50000000       0.33333333       0.35067899 </v>
    <v>       0.50000000       0.66666667       0.35067899 </v>
    <v>       0.83333333      -0.00000000       0.35067899 </v>
    <v>       0.83333333       0.33333333       0.35067899 </v>
    <v>       0.83333333       0.66666667       0.35067899 </v>
    <v>       0.00000000       0.00000000       0.42001400 </v>
    <v>       0.00000000       0.33333333       0.42001400 </v>
    <v>       0.00000000       0.66666667       0.42001400 </v>
    <v>       0.33333333       0.00000000       0.42001400 </v>
    <v>       0.33333333       0.33333333       0.42001400 </v>
    <v>       0.33333333       0.66666667       0.42001400 </v>
    <v>       0.66666667      -0.00000000       0.42001400 </v>
    <v>       0.66666667       0.33333333       0.42001400 </v>
    <v>       0.66666667       0.66666667       0.42001400 </v>
    <v>       0.16666667       0.16666667       0.42001400 </v>
    <v>       0.16666667       0.50000000       0.42001400 </v>
    <v>       0.16666667       0.83333333       0.42001400 </v>
    <v>       0.50000000       0.16666667       0.42001400 </v>
    <v>       0.50000000       0.50000000       0.42001400 </v>
    <v>       0.50000000       0.83333333       0.42001400 </v>
    <v>       0.83333333       0.16666667       0.42001400 </v>
    <v>       0.83333333       0.50000000       0.42001400 </v>
    <v>       0.83333333       0.83333333       0.42001400 </v>
   </varray>
  </structure>
  <varray name="forces" >
   <v>       0.00000000       0.00000000       0.32633253 </v>
   <v>       0.00000000      -0.00000000       0.32633253 </v>
   <v>      -0.00000000       0.00000000       0.32633253 </v>
   <v>       0.00000000       0.00000000       0.32633253 </v>
   <v>       0.00000000      -0.00000000       0.32633253 </v>
   <v>       0.00000000       0.00000000       0.32633253 </v>
   <v>      -0.00000000       0.00000000       0.32633253 </v>
   <v>       0.00000000       0.00000000       0.32633253 </v>
   <v>       0.00000000      -0.00000000       0.32633253 </v>
   <v>       0.00000000       0.00000000       0.32633253 </v>
   <v>       0.00000000      -0.00000000       0.32633253 </v>
   <v>       0.00000000      -0.00000000       0.32633253 </v>
   <v>       0.00000000      -0.00000000       0.32633253 </v>
   <v>       0.00000000      -0.00000000       0.32633253 </v>
   <v>       0.00000000       0.00000000       0.32633253 </v>
   <v>       0.00000000       0.00000000       0.32633253 </v>
   <v>       0.00000000      -0.00000000       0.32633253 </v>
   <v>       0.00000000      -0.00000000       0.32633253 </v>
   <v>       0.00000000       0.00000000      -0.07650954 </v>
   <v>       0.00000000       0.00000000      -0.07650954 </v>
   <v>       0.00000000      -0.00000000      -0.07650954 </v>
   <v>      -0.00000000      -0.00000000      -0.07650954 </v>
   <v>       0.00000000       0.00000000      -0.07650954 </v>
   <v>       0.00000000       0.00000000      -0.07650954 </v>
   <v>       0.00000000       0.00000000      -0.07650954 </v>
   <v>      -0.00000000      -0.00000000      -0.07650954 </v>
   <v>      -0.00000000      -0.00000000      -0.07650954 </v>
   <v>       0.00000000      -0.00000000      -0.07650954 </v>
   <v>       0.00000000      -0.00000000      -0.07650954 </v>
   <v>       0.00000000       0.00000000      -0.07650954 </v>
   <v>      -0.00000000       0.00000000      -0.07650954 </v>
   <v>       0.00000000       0.00000000      -0.07650954 </v>
   <v>       0.00000000       0.00000000      -0.07650954 </v>
   <v>       0.00000000       0.00000000      -0.07650954 </v>
   <v>       0.00000000       0.00000000      -0.07650954 </v>
   <v>       0.00000000      -0.00000000      -0.07650954 </v>
   <v>      -0.00000000       0.00000000       0.02253221 </v>
   <v>      -0.00000000      -0.00000000       0.02253221 </v>
   <v>      -0.00000000       0.00000000       0.02253221 </v>
   <v>      -0.00000000       0.00000000       0.02253221 </v>
   <v>      -0.00000000      -0.00000000       0.02253221 </v>
   <v>      -0.00000000       0.00000000       0.02253221 </v>
   <v>       0.00000000      -0.00000000       0.02253221 </v>
   <v>       0.00000000      -0.00000000       0.02253221 </v>
   <v>       0.00000000       0.00000000       0.02253221 </v>
   <v>      -0.00000000      -0.00000000       0.02253221 </v>
   <v>      -0.00000000      -0.00000000       0.02253221 </v>
   <v>      -0.00000000       0.00000000       0.02253221 </v>
   <v>       0.00000000      -0.00000000       0.02253221 </v>
   <v>       0.00000000      -0.00000000       0.02253221 </v>
   <v>       0.00000000       0.00000000       0.02253221 </v>
   <v>      -0.00000000      -0.00000000       0.02253221 </v>
   <v>      -0.00000000      -0.00000000       0.02253221 </v>
   <v>       0.00000000       0.00000000       0.02253221 </v>
[...]
       <r>     2.6122    22.1919   715.1212 </r>
       <r>     2.6865    27.1693   717.1393 </r>
       <r>     2.7608    26.7846   719.1290 </r>
       <r>     2.8351    20.4318   720.6467 </r>
       <r>     2.9094    13.7972   721.6716 </r>
       <r>     2.9836    12.0632   722.5676 </r>
       <r>     3.0579    14.5844   723.6510 </r>
       <r>     3.1322    17.7006   724.9658 </r>
       <r>     3.2065    19.6240   726.4235 </r>
       <r>     3.2808    20.4670   727.9439 </r>
       <r>     3.3550    20.2367   729.4471 </r>
       <r>     3.4293    19.1441   730.8692 </r>
       <r>     3.5036    18.1489   732.2173 </r>
       <r>     3.5779    17.5520   733.5211 </r>
       <r>     3.6522    16.3100   734.7326 </r>
       <r>     3.7265    13.8195   735.7592 </r>
       <r>     3.8007    11.0436   736.5795 </r>
       <r>     3.8750     9.1691   737.2606 </r>
       <r>     3.9493     8.5225   737.8937 </r>
       <r>     4.0236     9.0643   738.5670 </r>
       <r>     4.0979    10.9536   739.3807 </r>
       <r>     4.1721    14.6095   740.4659 </r>
       <r>     4.2464    19.9127   741.9451 </r>
       <r>     4.3207    24.5602   743.7694 </r>
       <r>     4.3950    24.7395   745.6071 </r>
       <r>     4.4693    19.5794   747.0615 </r>
       <r>     4.5436    13.3459   748.0529 </r>
       <r>     4.6178    10.7839   748.8540 </r>
       <r>     4.6921    12.2551   749.7643 </r>
       <r>     4.7664    15.4532   750.9122 </r>
       <r>     4.8407    18.9191   752.3175 </r>
       <r>     4.9150    21.8227   753.9386 </r>
       <r>     4.9893    22.8840   755.6384 </r>
       <r>     5.0635    21.6129   757.2439 </r>
       <r>     5.1378    19.6631   758.7045 </r>
       <r>     5.2121    19.0789   760.1217 </r>
       <r>     5.2864    19.3682   761.5604 </r>
       <r>     5.3607    18.5065   762.9352 </r>
       <r>     5.4349    16.5920   764.1676 </r>
       <r>     5.5092    15.8116   765.3422 </r>
       <r>     5.5835    17.0859   766.6113 </r>
       <r>     5.6578    19.1949   768.0372 </r>
       <r>     5.7321    20.4139   769.5536 </r>
       <r>     5.8064    19.2766   770.9855 </r>
       <r>     5.8806    15.7294   772.1539 </r>
       <r>     5.9549    12.7340   773.0998 </r>
       <r>     6.0292    14.0313   774.1421 </r>
       <r>     6.1035    19.5142   775.5916 </r>
       <r>     6.1778    25.3397   777.4739 </r>
       <r>     6.2520    29.0564   779.6323 </r>
       <r>     6.3263    31.6058   781.9800 </r>
       <r>     6.4006    33.3310   784.4559 </r>
       <r>     6.4749    32.0415   786.8360 </r>
       <r>     6.5492    27.1549   788.8531 </r>
       <r>     6.6235    22.0636   790.4921 </r>
       <r>     6.6977    20.4662   792.0124 </r>
       <r>     6.7720    23.0228   793.7225 </r>
       <r>     6.8463    27.9425   795.7982 </r>
       <r>     6.9206    31.9595   798.1722 </r>
       <r>     6.9949    31.2159   800.4910 </r>
       <r>     7.0692    24.7338   802.3282 </r>
       <r>     7.1434    16.5919   803.5607 </r>
       <r>     7.2177    11.7308   804.4321 </r>
       <r>     7.2920    10.9568   805.2460 </r>
       <r>     7.3663    12.4686   806.1722 </r>
       <r>     7.4406    15.4989   807.3235 </r>
       <r>     7.5148    19.6234   808.7812 </r>
       <r>     7.5891    23.6599   810.5387 </r>
       <r>     7.6634    27.6509   812.5926 </r>
       <r>     7.7377    32.7419   815.0248 </r>
       <r>     7.8120    37.6709   817.8230 </r>
       <r>     7.8863    38.3651   820.6729 </r>
       <r>     7.9605    32.7983   823.1092 </r>
       <r>     8.0348    24.6995   824.9439 </r>
       <r>     8.1091    20.0331   826.4320 </r>
       <r>     8.1834    20.5124   827.9557 </r>
       <r>     8.2577    23.7413   829.7193 </r>
       <r>     8.3319    28.3515   831.8253 </r>
       <r>     8.4062    33.8820   834.3421 </r>
       <r>     8.4805    36.9620   837.0877 </r>
       <r>     8.5548    34.0097   839.6141 </r>
       <r>     8.6291    27.0684   841.6247 </r>
       <r>     8.7034    21.4927   843.2213 </r>
       <r>     8.7776    19.1256   844.6420 </r>
       <r>     8.8519    18.3301   846.0036 </r>
       <r>     8.9262    18.8922   847.4069 </r>
       <r>     9.0005    22.5104   849.0790 </r>
       <r>     9.0748    28.7407   851.2140 </r>
       <r>     9.1490    33.6417   853.7129 </r>
       <r>     9.2233    33.8123   856.2246 </r>
       <r>     9.2976    30.1903   858.4672 </r>
       <r>     9.3719    26.8087   860.4586 </r>
       <r>     9.4462    27.1784   862.4774 </r>
       <r>     9.5205    32.1228   864.8636 </r>
       <r>     9.5947    38.9748   867.7587 </r>
       <r>     9.6690    42.4745   870.9138 </r>
       <r>     9.7433    39.2549   873.8297 </r>
       <r>     9.8176    32.0844   876.2130 </r>
       <r>     9.8919    27.2263   878.2355 </r>
       <r>     9.9662    28.1186   880.3242 </r>
       <r>    10.0404    33.6144   882.8211 </r>
       <r>    10.1147    40.3885   885.8213 </r>
       <r>    10.1890    44.2939   889.1115 </r>
       <r>    10.2633    41.2396   892.1749 </r>
       <r>    10.3376    30.5367   894.4432 </r>
       <r>    10.4118    16.8067   895.6916 </r>
       <r>    10.4861     6.0221   896.1390 </r>
       <r>    10.5604     0.5446   896.1794 </r>
       <r>    10.6347    -0.9881   896.1060 </r>
       <r>    10.7090    -0.8393   896.0437 </r>
       <r>    10.7833    -0.4063   896.0135 </r>
       <r>    10.8575    -0.1389   896.0032 </r>
       <r>    10.9318    -0.0351   896.0006 </r>
       <r>    11.0061    -0.0066   896.0001 </r>
       <r>    11.0804    -0.0009   896.0000 </r>
       <r>    11.1547    -0.0001   896.0000 </r>
       <r>    11.2289    -0.0000   896.0000 </r>
       <r>    11.3032    -0.0000   896.0000 </r>
       <r>    11.3775    -0.0000   896.0000 </r>
       <r>    11.4518    -0.0000   896.0000 </r>
       <r>    11.5261    -0.0000   896.0000 </r>
       <r>    11.6004    -0.0000   896.0000 </r>
       <r>    11.6746    -0.0000   896.0000 </r>
       <r>    11.7489     0.0000   896.0000 </r>
       <r>    11.8232     0.0000   896.0000 </r>
       <r>    11.8975     0.0000   896.0000 </r>
       <r>    11.9718     0.0000   896.0000 </r>
       <r>    12.0461     0.0000   896.0000 </r>
       <r>    12.1203     0.0000   896.0000 </r>
       <r>    12.1946     0.0000   896.0000 </r>
       <r>    12.2689     0.0000   896.0000 </r>
       <r>    12.3432     0.0000   896.0000 </r>
       <r>    12.4175     0.0000   896.0000 </r>
      </set>
     </set>
    </array>
   </total>
  </dos>
 </calculation>
 <structure name="finalpos" >
  <crystal>
   <varray name="basis" >
    <v>      10.89000034       0.00000000       0.00000000 </v>
    <v>       0.00000000      10.89000034       0.00000000 </v>
    <v>       0.00000000       0.00000000      25.89000000 </v>
   </varray>
   <i name="volume">   3070.34966258 </i>
   <varray name="rec_basis" >
    <v>       0.09182736       0.00000000       0.00000000 </v>
    <v>       0.00000000       0.09182736       0.00000000 </v>
    <v>       0.00000000       0.00000000       0.03862495 </v>
   </varray>
  </crystal>
  <varray name="positions" >
   <v>       0.00000000       0.00000000       0.00000000 </v>
   <v>       0.00000000       0.33333333       0.00000000 </v>
   <v>       0.00000000       0.66666667       0.00000000 </v>
   <v>       0.33333333       0.00000000       0.00000000 </v>
   <v>       0.33333333       0.33333333       0.00000000 </v>
   <v>       0.33333333       0.66666667       0.00000000 </v>
   <v>       0.66666667       0.00000000       0.00000000 </v>
   <v>       0.66666667       0.33333333       0.00000000 </v>
   <v>       0.66666667       0.66666667       0.00000000 </v>
   <v>       0.16666667       0.16666667       0.00000000 </v>
   <v>       0.16666667       0.50000000       0.00000000 </v>
   <v>       0.16666667       0.83333333       0.00000000 </v>
   <v>       0.50000000       0.16666667       0.00000000 </v>
   <v>       0.50000000       0.50000000       0.00000000 </v>
   <v>       0.50000000       0.83333333       0.00000000 </v>
   <v>       0.83333333       0.16666667       0.00000000 </v>
   <v>       0.83333333       0.50000000       0.00000000 </v>
   <v>       0.83333333       0.83333333       0.00000000 </v>
   <v>       0.00000000       0.16666667       0.07010429 </v>
   <v>       0.00000000       0.50000000       0.07010429 </v>
   <v>       0.00000000       0.83333333       0.07010429 </v>
   <v>       0.33333333       0.16666667       0.07010429 </v>
   <v>       0.33333333       0.50000000       0.07010429 </v>
   <v>       0.33333333       0.83333333       0.07010429 </v>
   <v>       0.66666667       0.16666667       0.07010429 </v>
   <v>       0.66666667       0.50000000       0.07010429 </v>
   <v>       0.66666667       0.83333333       0.07010429 </v>
   <v>       0.16666667       0.00000000       0.07010429 </v>
   <v>       0.16666667       0.33333333       0.07010429 </v>
   <v>       0.16666667       0.66666667       0.07010429 </v>
   <v>       0.50000000       0.00000000       0.07010429 </v>
   <v>       0.50000000       0.33333333       0.07010429 </v>
   <v>       0.50000000       0.66666667       0.07010429 </v>
   <v>       0.83333333       0.00000000       0.07010429 </v>
   <v>       0.83333333       0.33333333       0.07010429 </v>
   <v>       0.83333333       0.66666667       0.07010429 </v>
   <v>      -0.00000000       0.00000000       0.13839880 </v>
   <v>       0.00000000       0.33333333       0.13839880 </v>
   <v>      -0.00000000       0.66666667       0.13839880 </v>
   <v>       0.33333333      -0.00000000       0.13839880 </v>
   <v>       0.33333333       0.33333333       0.13839880 </v>
   <v>       0.33333333       0.66666667       0.13839880 </v>
   <v>       0.66666667       0.00000000       0.13839880 </v>
   <v>       0.66666667       0.33333333       0.13839880 </v>
   <v>       0.66666667       0.66666667       0.13839880 </v>
   <v>       0.16666667       0.16666667       0.13839880 </v>
   <v>       0.16666667       0.50000000       0.13839880 </v>
   <v>       0.16666667       0.83333333       0.13839880 </v>
   <v>       0.50000000       0.16666667       0.13839880 </v>
   <v>       0.50000000       0.50000000       0.13839880 </v>
   <v>       0.50000000       0.83333333       0.13839880 </v>
   <v>       0.83333333       0.16666667       0.13839880 </v>
   <v>       0.83333333       0.50000000       0.13839880 </v>
   <v>       0.83333333       0.83333333       0.13839880 </v>
   <v>       0.00000000       0.16666667       0.20615990 </v>
   <v>       0.00000000       0.50000000       0.20615990 </v>
   <v>       0.00000000       0.83333333       0.20615990 </v>
   <v>       0.33333333       0.16666667       0.20615990 </v>
   <v>       0.33333333       0.50000000       0.20615990 </v>
   <v>       0.33333333       0.83333333       0.20615990 </v>
   <v>       0.66666667       0.16666667       0.20615990 </v>
   <v>       0.66666667       0.50000000       0.20615990 </v>
   <v>       0.66666667       0.83333333       0.20615990 </v>
   <v>       0.16666667       0.00000000       0.20615990 </v>
   <v>       0.16666667       0.33333333       0.20615990 </v>
   <v>       0.16666667       0.66666667       0.20615990 </v>
   <v>       0.50000000      -0.00000000       0.20615990 </v>
   <v>       0.50000000       0.33333333       0.20615990 </v>
   <v>       0.50000000       0.66666667       0.20615990 </v>
   <v>       0.83333333      -0.00000000       0.20615990 </v>
   <v>       0.83333333       0.33333333       0.20615990 </v>
   <v>       0.83333333       0.66666667       0.20615990 </v>
   <v>      -0.00000000       0.00000000       0.27366475 </v>
   <v>      -0.00000000       0.33333333       0.27366475 </v>
   <v>      -0.00000000       0.66666667       0.27366475 </v>
   <v>       0.33333333       0.00000000       0.27366475 </v>
   <v>       0.33333333       0.33333333       0.27366475 </v>
   <v>       0.33333333       0.66666667       0.27366475 </v>
   <v>       0.66666667       0.00000000       0.27366475 </v>
   <v>       0.66666667       0.33333333       0.27366475 </v>
   <v>       0.66666667       0.66666667       0.27366475 </v>
   <v>       0.16666667       0.16666667       0.27366475 </v>
   <v>       0.16666667       0.50000000       0.27366475 </v>
   <v>       0.16666667       0.83333333       0.27366475 </v>
   <v>       0.50000000       0.16666667       0.27366475 </v>
   <v>       0.50000000       0.50000000       0.27366475 </v>
   <v>       0.50000000       0.83333333       0.27366475 </v>
   <v>       0.83333333       0.16666667       0.27366475 </v>
   <v>       0.83333333       0.50000000       0.27366475 </v>
   <v>       0.83333333       0.83333333       0.27366475 </v>
   <v>      -0.00000000       0.16666667       0.34174268 </v>
   <v>      -0.00000000       0.50000000       0.34174268 </v>
   <v>      -0.00000000       0.83333333       0.34174268 </v>
   <v>       0.33333333       0.16666667       0.34174268 </v>
   <v>       0.33333333       0.50000000       0.34174268 </v>
   <v>       0.33333333       0.83333333       0.34174268 </v>
   <v>       0.66666667       0.16666667       0.34174268 </v>
   <v>       0.66666667       0.50000000       0.34174268 </v>
   <v>       0.66666667       0.83333333       0.34174268 </v>
   <v>       0.16666667      -0.00000000       0.34174268 </v>
   <v>       0.16666667       0.33333333       0.34174268 </v>
   <v>       0.16666667       0.66666667       0.34174268 </v>
   <v>       0.50000000      -0.00000000       0.34174268 </v>
   <v>       0.50000000       0.33333333       0.34174268 </v>
   <v>       0.50000000       0.66666667       0.34174268 </v>
   <v>       0.83333333      -0.00000000       0.34174268 </v>
   <v>       0.83333333       0.33333333       0.34174268 </v>
   <v>       0.83333333       0.66666667       0.34174268 </v>
   <v>       0.00000000       0.00000000       0.40869666 </v>
   <v>       0.00000000       0.33333333       0.40869666 </v>
   <v>      -0.00000000       0.66666667       0.40869666 </v>
   <v>       0.33333333       0.00000000       0.40869666 </v>
   <v>       0.33333333       0.33333333       0.40869666 </v>
   <v>       0.33333333       0.66666667       0.40869666 </v>
   <v>       0.66666667      -0.00000000       0.40869666 </v>
   <v>       0.66666667       0.33333333       0.40869666 </v>
   <v>       0.66666667       0.66666667       0.40869666 </v>
   <v>       0.16666667       0.16666667       0.40869666 </v>
   <v>       0.16666667       0.50000000       0.40869666 </v>
   <v>       0.16666667       0.83333333       0.40869666 </v>
   <v>       0.50000000       0.16666667       0.40869666 </v>
   <v>       0.50000000       0.50000000       0.40869666 </v>
   <v>       0.50000000       0.83333333       0.40869666 </v>
   <v>       0.83333333       0.16666667       0.40869666 </v>
   <v>       0.83333333       0.50000000       0.40869666 </v>
   <v>       0.83333333       0.83333333       0.40869666 </v>
  </varray>
  <varray name="selective"  type="logical" >
   <v type="logical" >  F  F  F </v>
   <v type="logical" >  F  F  F </v>
   <v type="logical" >  F  F  F </v>
   <v type="logical" >  F  F  F </v>
   <v type="logical" >  F  F  F </v>
   <v type="logical" >  F  F  F </v>
   <v type="logical" >  F  F  F </v>
   <v type="logical" >  F  F  F </v>
   <v type="logical" >  F  F  F </v>
   <v type="logical" >  F  F  F </v>
   <v type="logical" >  F  F  F </v>
   <v type="logical" >  F  F  F </v>
   <v type="logical" >  F  F  F </v>
   <v type="logical" >  F  F  F </v>
   <v type="logical" >  F  F  F </v>
   <v type="logical" >  F  F  F </v>
   <v type="logical" >  F  F  F </v>
   <v type="logical" >  F  F  F </v>
   <v type="logical" >  F  F  F </v>
   <v type="logical" >  F  F  F </v>
   <v type="logical" >  F  F  F </v>
   <v type="logical" >  F  F  F </v>
   <v type="logical" >  F  F  F </v>
   <v type="logical" >  F  F  F </v>
   <v type="logical" >  F  F  F </v>
   <v type="logical" >  F  F  F </v>
   <v type="logical" >  F  F  F </v>
   <v type="logical" >  F  F  F </v>
   <v type="logical" >  F  F  F </v>
   <v type="logical" >  F  F  F </v>
   <v type="logical" >  F  F  F </v>
   <v type="logical" >  F  F  F </v>
   <v type="logical" >  F  F  F </v>
   <v type="logical" >  F  F  F </v>
   <v type="logical" >  F  F  F </v>
   <v type="logical" >  F  F  F </v>
   <v type="logical" >  T  T  T </v>
   <v type="logical" >  T  T  T </v>
   <v type="logical" >  T  T  T </v>
   <v type="logical" >  T  T  T </v>
   <v type="logical" >  T  T  T </v>
   <v type="logical" >  T  T  T </v>
   <v type="logical" >  T  T  T </v>
   <v type="logical" >  T  T  T </v>
   <v type="logical" >  T  T  T </v>
   <v type="logical" >  T  T  T </v>
   <v type="logical" >  T  T  T </v>
   <v type="logical" >  T  T  T </v>
   <v type="logical" >  T  T  T </v>
   <v type="logical" >  T  T  T </v>
   <v type="logical" >  T  T  T </v>
   <v type="logical" >  T  T  T </v>
   <v type="logical" >  T  T  T </v>
   <v type="logical" >  T  T  T </v>
   <v type="logical" >  T  T  T </v>
   <v type="logical" >  T  T  T </v>
   <v type="logical" >  T  T  T </v>
   <v type="logical" >  T  T  T </v>
   <v type="logical" >  T  T  T </v>
   <v type="logical" >  T  T  T </v>
   <v type="logical" >  T  T  T </v>
   <v type="logical" >  T  T  T </v>
   <v type="logical" >  T  T  T </v>
   <v type="logical" >  T  T  T </v>
   <v type="logical" >  T  T  T </v>
   <v type="logical" >  T  T  T </v>
   <v type="logical" >  T  T  T </v>
   <v type="logical" >  T  T  T </v>
   <v type="logical" >  T  T  T </v>
   <v type="logical" >  T  T  T </v>
   <v type="logical" >  T  T  T </v>
   <v type="logical" >  T  T  T </v>
   <v type="logical" >  T  T  T </v>
   <v type="logical" >  T  T  T </v>
   <v type="logical" >  T  T  T </v>
   <v type="logical" >  T  T  T </v>
   <v type="logical" >  T  T  T </v>
   <v type="logical" >  T  T  T </v>
   <v type="logical" >  T  T  T </v>
   <v type="logical" >  T  T  T </v>
   <v type="logical" >  T  T  T </v>
   <v type="logical" >  T  T  T </v>
   <v type="logical" >  T  T  T </v>
   <v type="logical" >  T  T  T </v>
   <v type="logical" >  T  T  T </v>
   <v type="logical" >  T  T  T </v>
   <v type="logical" >  T  T  T </v>
   <v type="logical" >  T  T  T </v>
   <v type="logical" >  T  T  T </v>
   <v type="logical" >  T  T  T </v>
   <v type="logical" >  T  T  T </v>
   <v type="logical" >  T  T  T </v>
   <v type="logical" >  T  T  T </v>
   <v type="logical" >  T  T  T </v>
   <v type="logical" >  T  T  T </v>
   <v type="logical" >  T  T  T </v>
   <v type="logical" >  T  T  T </v>
   <v type="logical" >  T  T  T </v>
   <v type="logical" >  T  T  T </v>
   <v type="logical" >  T  T  T </v>
   <v type="logical" >  T  T  T </v>
   <v type="logical" >  T  T  T </v>
   <v type="logical" >  T  T  T </v>
   <v type="logical" >  T  T  T </v>
   <v type="logical" >  T  T  T </v>
   <v type="logical" >  T  T  T </v>
   <v type="logical" >  T  T  T </v>
   <v type="logical" >  T  T  T </v>
   <v type="logical" >  T  T  T </v>
   <v type="logical" >  T  T  T </v>
   <v type="logical" >  T  T  T </v>
   <v type="logical" >  T  T  T </v>
   <v type="logical" >  T  T  T </v>
   <v type="logical" >  T  T  T </v>
   <v type="logical" >  T  T  T </v>
   <v type="logical" >  T  T  T </v>
   <v type="logical" >  T  T  T </v>
   <v type="logical" >  T  T  T </v>
   <v type="logical" >  T  T  T </v>
   <v type="logical" >  T  T  T </v>
   <v type="logical" >  T  T  T </v>
   <v type="logical" >  T  T  T </v>
   <v type="logical" >  T  T  T </v>
   <v type="logical" >  T  T  T </v>
   <v type="logical" >  T  T  T </v>
   <v type="logical" >  T  T  T </v>
  </varray>
  <nose>
   <v>      -3.00000000       0.00000000       0.00010000       0.00010000 </v>
  </nose>
 </structure>
</modeling>
