  10  10   0   0
  0.2234684E+02  0.3630000E-09  0.2566798E-09  0.2398379E-08  0.5000000E-15
  1.000000000000000E-004
  CAR 
 unknown system                          
     11.91099500    -10.11536876  301      0.77306093      1.00000000
    -10.115  0.0000E+00  0.0000E+00  0.0000E+00  0.0000E+00
    -10.042  0.0000E+00  0.0000E+00  0.0000E+00  0.0000E+00
     -9.969  0.0000E+00  0.0000E+00  0.0000E+00  0.0000E+00
     -9.895  0.0000E+00  0.0000E+00  0.0000E+00  0.0000E+00
     -9.822  0.0000E+00  0.0000E+00  0.0000E+00  0.0000E+00
     -9.748 -0.4895E-31 -0.4895E-31 -0.3594E-32 -0.3594E-32
     -9.675 -0.1634E-28 -0.1634E-28 -0.1203E-29 -0.1203E-29
     -9.601 -0.4166E-26 -0.4166E-26 -0.3071E-27 -0.3071E-27
     -9.528 -0.8089E-24 -0.8089E-24 -0.5969E-25 -0.5969E-25
     -9.455 -0.1196E-21 -0.1196E-21 -0.8839E-23 -0.8839E-23
     -9.381 -0.1345E-19 -0.1345E-19 -0.9966E-21 -0.9966E-21
     -9.308 -0.1151E-17 -0.1151E-17 -0.8553E-19 -0.8553E-19
     -9.234 -0.7248E-16 -0.7248E-16 -0.5407E-17 -0.5407E-17
     -9.161 -0.3567E-14 -0.3567E-14 -0.2673E-15 -0.2673E-15
     -9.087 -0.1330E-12 -0.1330E-12 -0.1003E-13 -0.1003E-13
     -9.014 -0.3750E-11 -0.3750E-11 -0.2854E-12 -0.2854E-12
     -8.941 -0.7983E-10 -0.7983E-10 -0.6146E-11 -0.6146E-11
     -8.867 -0.1279E-08 -0.1279E-08 -0.1000E-09 -0.1000E-09
     -8.794 -0.1534E-07 -0.1534E-07 -0.1226E-08 -0.1226E-08
     -8.720 -0.1368E-06 -0.1368E-06 -0.1127E-07 -0.1127E-07
     -8.647 -0.8978E-06 -0.8978E-06 -0.7719E-07 -0.7719E-07
     -8.574 -0.4247E-05 -0.4247E-05 -0.3890E-06 -0.3890E-06
     -8.500 -0.1390E-04 -0.1390E-04 -0.1410E-05 -0.1410E-05
     -8.427 -0.2823E-04 -0.2823E-04 -0.3483E-05 -0.3483E-05
     -8.353 -0.1926E-04 -0.1926E-04 -0.4897E-05 -0.4897E-05
     -8.280  0.7512E-04  0.7512E-04  0.6186E-06  0.6186E-06
     -8.206  0.2857E-03  0.2857E-03  0.2159E-04  0.2159E-04
     -8.133  0.5113E-03  0.5113E-03  0.5913E-04  0.5913E-04
     -8.060  0.5684E-03  0.5684E-03  0.1009E-03  0.1009E-03
     -7.986  0.4037E-03  0.4037E-03  0.1305E-03  0.1305E-03
     -7.913  0.1642E-03  0.1642E-03  0.1426E-03  0.1426E-03
     -7.839  0.1137E-04  0.1137E-04  0.1434E-03  0.1434E-03
     -7.766 -0.3037E-04 -0.3037E-04  0.1412E-03  0.1412E-03
     -7.692 -0.2238E-04 -0.2238E-04  0.1395E-03  0.1395E-03
     -7.619 -0.1383E-04 -0.1383E-04  0.1385E-03  0.1385E-03
     -7.546 -0.1950E-04 -0.1950E-04  0.1371E-03  0.1371E-03
     -7.472 -0.3066E-04 -0.3066E-04  0.1348E-03  0.1348E-03
     -7.399 -0.7148E-05 -0.7148E-05  0.1343E-03  0.1343E-03
     -7.325  0.1135E-03  0.1135E-03  0.1426E-03  0.1426E-03
     -7.252  0.3299E-03  0.3299E-03  0.1669E-03  0.1669E-03
     -7.179  0.5016E-03  0.5016E-03  0.2037E-03  0.2037E-03
     -7.105  0.4865E-03  0.4865E-03  0.2394E-03  0.2394E-03
     -7.032  0.3897E-03  0.3897E-03  0.2680E-03  0.2680E-03
     -6.958  0.4969E-03  0.4969E-03  0.3045E-03  0.3045E-03
     -6.885  0.8553E-03  0.8553E-03  0.3673E-03  0.3673E-03
     -6.811  0.1111E-02  0.1111E-02  0.4488E-03  0.4488E-03
     -6.738  0.9380E-03  0.9380E-03  0.5177E-03  0.5177E-03
     -6.665  0.4704E-03  0.4704E-03  0.5522E-03  0.5522E-03
     -6.591  0.1124E-03  0.1124E-03  0.5605E-03  0.5605E-03
     -6.518  0.8596E-04  0.8596E-04  0.5668E-03  0.5668E-03
     -6.444  0.3021E-03  0.3021E-03  0.5890E-03  0.5890E-03
     -6.371  0.5693E-03  0.5693E-03  0.6308E-03  0.6308E-03
     -6.297  0.8180E-03  0.8180E-03  0.6908E-03  0.6908E-03
     -6.224  0.1053E-02  0.1053E-02  0.7682E-03  0.7682E-03
     -6.151  0.1141E-02  0.1141E-02  0.8520E-03  0.8520E-03
     -6.077  0.9326E-03  0.9326E-03  0.9204E-03  0.9204E-03
     -6.004  0.6237E-03  0.6237E-03  0.9662E-03  0.9662E-03
     -5.930  0.6299E-03  0.6299E-03  0.1012E-02  0.1012E-02
     -5.857  0.1055E-02  0.1055E-02  0.1090E-02  0.1090E-02
     -5.784  0.1585E-02  0.1585E-02  0.1206E-02  0.1206E-02
     -5.710  0.1882E-02  0.1882E-02  0.1345E-02  0.1345E-02
     -5.637  0.1815E-02  0.1815E-02  0.1478E-02  0.1478E-02
     -5.563  0.1406E-02  0.1406E-02  0.1581E-02  0.1581E-02
     -5.490  0.8089E-03  0.8089E-03  0.1640E-02  0.1640E-02
     -5.416  0.2998E-03  0.2998E-03  0.1662E-02  0.1662E-02
     -5.343  0.1478E-03  0.1478E-03  0.1673E-02  0.1673E-02
     -5.270  0.3921E-03  0.3921E-03  0.1702E-02  0.1702E-02
     -5.196  0.7841E-03  0.7841E-03  0.1760E-02  0.1760E-02
     -5.123  0.1124E-02  0.1124E-02  0.1842E-02  0.1842E-02
     -5.049  0.1661E-02  0.1661E-02  0.1964E-02  0.1964E-02
     -4.976  0.2831E-02  0.2831E-02  0.2172E-02  0.2172E-02
     -4.902  0.4471E-02  0.4471E-02  0.2500E-02  0.2500E-02
     -4.829  0.5596E-02  0.5596E-02  0.2911E-02  0.2911E-02
     -4.756  0.5216E-02  0.5216E-02  0.3294E-02  0.3294E-02
     -4.682  0.3408E-02  0.3408E-02  0.3544E-02  0.3544E-02
     -4.609  0.1329E-02  0.1329E-02  0.3642E-02  0.3642E-02
     -4.535  0.1377E-04  0.1377E-04  0.3643E-02  0.3643E-02
     -4.462 -0.4508E-03 -0.4508E-03  0.3610E-02  0.3610E-02
     -4.389 -0.4334E-03 -0.4334E-03  0.3578E-02  0.3578E-02
     -4.315  0.8654E-04  0.8654E-04  0.3584E-02  0.3584E-02
     -4.242  0.1496E-02  0.1496E-02  0.3694E-02  0.3694E-02
     -4.168  0.3649E-02  0.3649E-02  0.3962E-02  0.3962E-02
     -4.095  0.5341E-02  0.5341E-02  0.4354E-02  0.4354E-02
     -4.021  0.5300E-02  0.5300E-02  0.4743E-02  0.4743E-02
     -3.948  0.3703E-02  0.3703E-02  0.5015E-02  0.5015E-02
     -3.875  0.2069E-02  0.2069E-02  0.5167E-02  0.5167E-02
     -3.801  0.1591E-02  0.1591E-02  0.5284E-02  0.5284E-02
     -3.728  0.2171E-02  0.2171E-02  0.5443E-02  0.5443E-02
     -3.654  0.3154E-02  0.3154E-02  0.5675E-02  0.5675E-02
     -3.581  0.4294E-02  0.4294E-02  0.5990E-02  0.5990E-02
     -3.507  0.5559E-02  0.5559E-02  0.6398E-02  0.6398E-02
     -3.434  0.6600E-02  0.6600E-02  0.6883E-02  0.6883E-02
     -3.361  0.7145E-02  0.7145E-02  0.7407E-02  0.7407E-02
     -3.287  0.7578E-02  0.7578E-02  0.7964E-02  0.7964E-02
     -3.214  0.8455E-02  0.8455E-02  0.8585E-02  0.8585E-02
     -3.140  0.9722E-02  0.9722E-02  0.9299E-02  0.9299E-02
     -3.067  0.1093E-01  0.1093E-01  0.1010E-01  0.1010E-01
     -2.994  0.1173E-01  0.1173E-01  0.1096E-01  0.1096E-01
     -2.920  0.1170E-01  0.1170E-01  0.1182E-01  0.1182E-01
     -2.847  0.1052E-01  0.1052E-01  0.1259E-01  0.1259E-01
     -2.773  0.8825E-02  0.8825E-02  0.1324E-01  0.1324E-01
     -2.700  0.8081E-02  0.8081E-02  0.1384E-01  0.1384E-01
     -2.626  0.8995E-02  0.8995E-02  0.1450E-01  0.1450E-01
     -2.553  0.1056E-01  0.1056E-01  0.1527E-01  0.1527E-01
     -2.480  0.1158E-01  0.1158E-01  0.1612E-01  0.1612E-01
     -2.406  0.1238E-01  0.1238E-01  0.1703E-01  0.1703E-01
     -2.333  0.1361E-01  0.1361E-01  0.1803E-01  0.1803E-01
     -2.259  0.1464E-01  0.1464E-01  0.1911E-01  0.1911E-01
     -2.186  0.1474E-01  0.1474E-01  0.2019E-01  0.2019E-01
     -2.112  0.1516E-01  0.1516E-01  0.2130E-01  0.2130E-01
     -2.039  0.1750E-01  0.1750E-01  0.2259E-01  0.2259E-01
     -1.966  0.2064E-01  0.2064E-01  0.2410E-01  0.2410E-01
     -1.892  0.2160E-01  0.2160E-01  0.2569E-01  0.2569E-01
     -1.819  0.1955E-01  0.1955E-01  0.2712E-01  0.2712E-01
     -1.745  0.1675E-01  0.1675E-01  0.2835E-01  0.2835E-01
     -1.672  0.1533E-01  0.1533E-01  0.2948E-01  0.2948E-01
     -1.599  0.1489E-01  0.1489E-01  0.3057E-01  0.3057E-01
     -1.525  0.1368E-01  0.1368E-01  0.3158E-01  0.3158E-01
     -1.452  0.1141E-01  0.1141E-01  0.3241E-01  0.3241E-01
     -1.378  0.1001E-01  0.1001E-01  0.3315E-01  0.3315E-01
     -1.305  0.1151E-01  0.1151E-01  0.3399E-01  0.3399E-01
     -1.231  0.1603E-01  0.1603E-01  0.3517E-01  0.3517E-01
     -1.158  0.2168E-01  0.2168E-01  0.3676E-01  0.3676E-01
     -1.085  0.2574E-01  0.2574E-01  0.3865E-01  0.3865E-01
     -1.011  0.2609E-01  0.2609E-01  0.4057E-01  0.4057E-01
     -0.938  0.2310E-01  0.2310E-01  0.4226E-01  0.4226E-01
     -0.864  0.2003E-01  0.2003E-01  0.4373E-01  0.4373E-01
     -0.791  0.1977E-01  0.1977E-01  0.4518E-01  0.4518E-01
     -0.717  0.2175E-01  0.2175E-01  0.4678E-01  0.4678E-01
     -0.644  0.2330E-01  0.2330E-01  0.4849E-01  0.4849E-01
     -0.571  0.2283E-01  0.2283E-01  0.5017E-01  0.5017E-01
     -0.497  0.2040E-01  0.2040E-01  0.5167E-01  0.5167E-01
     -0.424  0.1655E-01  0.1655E-01  0.5288E-01  0.5288E-01
     -0.350  0.1214E-01  0.1214E-01  0.5377E-01  0.5377E-01
     -0.277  0.8241E-02  0.8241E-02  0.5438E-01  0.5438E-01
     -0.204  0.5393E-02  0.5393E-02  0.5477E-01  0.5477E-01
     -0.130  0.3334E-02  0.3334E-02  0.5502E-01  0.5502E-01
     -0.057  0.1673E-02  0.1673E-02  0.5514E-01  0.5514E-01
      0.017  0.4513E-03  0.4513E-03  0.5517E-01  0.5517E-01
      0.090 -0.1712E-03 -0.1712E-03  0.5516E-01  0.5516E-01
      0.164 -0.3154E-03 -0.3154E-03  0.5514E-01  0.5514E-01
      0.237 -0.1967E-03 -0.1967E-03  0.5512E-01  0.5512E-01
      0.310  0.1784E-03  0.1784E-03  0.5514E-01  0.5514E-01
      0.384  0.8871E-03  0.8871E-03  0.5520E-01  0.5520E-01
      0.457  0.1789E-02  0.1789E-02  0.5533E-01  0.5533E-01
      0.531  0.2592E-02  0.2592E-02  0.5552E-01  0.5552E-01
      0.604  0.3127E-02  0.3127E-02  0.5575E-01  0.5575E-01
      0.678  0.3272E-02  0.3272E-02  0.5599E-01  0.5599E-01
      0.751  0.2815E-02  0.2815E-02  0.5620E-01  0.5620E-01
      0.824  0.1813E-02  0.1813E-02  0.5633E-01  0.5633E-01
      0.898  0.8488E-03  0.8488E-03  0.5640E-01  0.5640E-01
      0.971  0.5114E-03  0.5114E-03  0.5643E-01  0.5643E-01
      1.045  0.7544E-03  0.7544E-03  0.5649E-01  0.5649E-01
      1.118  0.9983E-03  0.9983E-03  0.5656E-01  0.5656E-01
      1.191  0.8513E-03  0.8513E-03  0.5663E-01  0.5663E-01
      1.265  0.5405E-03  0.5405E-03  0.5667E-01  0.5667E-01
      1.338  0.5097E-03  0.5097E-03  0.5670E-01  0.5670E-01
      1.412  0.7846E-03  0.7846E-03  0.5676E-01  0.5676E-01
      1.485  0.1047E-02  0.1047E-02  0.5684E-01  0.5684E-01
      1.559  0.1252E-02  0.1252E-02  0.5693E-01  0.5693E-01
      1.632  0.1667E-02  0.1667E-02  0.5705E-01  0.5705E-01
      1.705  0.2156E-02  0.2156E-02  0.5721E-01  0.5721E-01
      1.779  0.2099E-02  0.2099E-02  0.5736E-01  0.5736E-01
      1.852  0.1324E-02  0.1324E-02  0.5746E-01  0.5746E-01
      1.926  0.5407E-03  0.5407E-03  0.5750E-01  0.5750E-01
      1.999  0.5565E-03  0.5565E-03  0.5754E-01  0.5754E-01
      2.073  0.1355E-02  0.1355E-02  0.5764E-01  0.5764E-01
      2.146  0.2091E-02  0.2091E-02  0.5779E-01  0.5779E-01
      2.219  0.2016E-02  0.2016E-02  0.5794E-01  0.5794E-01
      2.293  0.1347E-02  0.1347E-02  0.5804E-01  0.5804E-01
      2.366  0.9139E-03  0.9139E-03  0.5811E-01  0.5811E-01
      2.440  0.1119E-02  0.1119E-02  0.5819E-01  0.5819E-01
      2.513  0.1727E-02  0.1727E-02  0.5832E-01  0.5832E-01
      2.587  0.2423E-02  0.2423E-02  0.5850E-01  0.5850E-01
      2.660  0.2970E-02  0.2970E-02  0.5871E-01  0.5871E-01
      2.733  0.3077E-02  0.3077E-02  0.5894E-01  0.5894E-01
      2.807  0.2649E-02  0.2649E-02  0.5913E-01  0.5913E-01
      2.880  0.2029E-02  0.2029E-02  0.5928E-01  0.5928E-01
      2.954  0.1661E-02  0.1661E-02  0.5940E-01  0.5940E-01
      3.027  0.1582E-02  0.1582E-02  0.5952E-01  0.5952E-01
      3.100  0.1437E-02  0.1437E-02  0.5963E-01  0.5963E-01
      3.174  0.9937E-03  0.9937E-03  0.5970E-01  0.5970E-01
      3.247  0.4287E-03  0.4287E-03  0.5973E-01  0.5973E-01
      3.321  0.4763E-04  0.4763E-04  0.5973E-01  0.5973E-01
      3.394 -0.7431E-04 -0.7431E-04  0.5973E-01  0.5973E-01
      3.468 -0.6325E-04 -0.6325E-04  0.5972E-01  0.5972E-01
      3.541 -0.4634E-04 -0.4634E-04  0.5972E-01  0.5972E-01
      3.614 -0.8190E-04 -0.8190E-04  0.5971E-01  0.5971E-01
      3.688 -0.1691E-03 -0.1691E-03  0.5970E-01  0.5970E-01
      3.761 -0.1752E-03 -0.1752E-03  0.5969E-01  0.5969E-01
      3.835  0.2489E-03  0.2489E-03  0.5971E-01  0.5971E-01
      3.908  0.1425E-02  0.1425E-02  0.5981E-01  0.5981E-01
      3.982  0.3053E-02  0.3053E-02  0.6004E-01  0.6004E-01
      4.055  0.4129E-02  0.4129E-02  0.6034E-01  0.6034E-01
      4.128  0.3983E-02  0.3983E-02  0.6063E-01  0.6063E-01
      4.202  0.3163E-02  0.3163E-02  0.6086E-01  0.6086E-01
      4.275  0.2685E-02  0.2685E-02  0.6106E-01  0.6106E-01
      4.349  0.2699E-02  0.2699E-02  0.6126E-01  0.6126E-01
      4.422  0.2572E-02  0.2572E-02  0.6145E-01  0.6145E-01
      4.495  0.1984E-02  0.1984E-02  0.6159E-01  0.6159E-01
      4.569  0.1259E-02  0.1259E-02  0.6169E-01  0.6169E-01
      4.642  0.7399E-03  0.7398E-03  0.6174E-01  0.6174E-01
      4.716  0.4165E-03  0.4165E-03  0.6177E-01  0.6177E-01
      4.789  0.2264E-03  0.2265E-03  0.6179E-01  0.6179E-01
      4.863  0.3611E-03  0.3611E-03  0.6181E-01  0.6181E-01
      4.936  0.9948E-03  0.9948E-03  0.6189E-01  0.6189E-01
      5.009  0.1817E-02  0.1817E-02  0.6202E-01  0.6202E-01
      5.083  0.2149E-02  0.2149E-02  0.6218E-01  0.6218E-01
      5.156  0.1659E-02  0.1659E-02  0.6230E-01  0.6230E-01
      5.230  0.7227E-03  0.7227E-03  0.6235E-01  0.6235E-01
      5.303 -0.2311E-04 -0.2309E-04  0.6235E-01  0.6235E-01
      5.377 -0.1567E-03 -0.1567E-03  0.6234E-01  0.6234E-01
      5.450  0.5467E-03  0.5467E-03  0.6238E-01  0.6238E-01
      5.523  0.2058E-02  0.2058E-02  0.6253E-01  0.6253E-01
      5.597  0.3736E-02  0.3736E-02  0.6281E-01  0.6281E-01
      5.670  0.4497E-02  0.4497E-02  0.6314E-01  0.6314E-01
      5.744  0.3824E-02  0.3824E-02  0.6342E-01  0.6342E-01
      5.817  0.2428E-02  0.2428E-02  0.6360E-01  0.6360E-01
      5.890  0.1549E-02  0.1549E-02  0.6371E-01  0.6371E-01
      5.964  0.1724E-02  0.1724E-02  0.6384E-01  0.6384E-01
      6.037  0.2471E-02  0.2471E-02  0.6402E-01  0.6402E-01
      6.111  0.2941E-02  0.2941E-02  0.6423E-01  0.6423E-01
      6.184  0.2746E-02  0.2746E-02  0.6443E-01  0.6443E-01
      6.258  0.2270E-02  0.2270E-02  0.6460E-01  0.6460E-01
      6.331  0.2124E-02  0.2124E-02  0.6476E-01  0.6476E-01
      6.404  0.2412E-02  0.2412E-02  0.6493E-01  0.6493E-01
      6.478  0.2851E-02  0.2851E-02  0.6514E-01  0.6514E-01
      6.551  0.3353E-02  0.3353E-02  0.6539E-01  0.6539E-01
      6.625  0.3978E-02  0.3978E-02  0.6568E-01  0.6568E-01
      6.698  0.4430E-02  0.4430E-02  0.6601E-01  0.6601E-01
      6.772  0.4129E-02  0.4129E-02  0.6631E-01  0.6631E-01
      6.845  0.2945E-02  0.2945E-02  0.6653E-01  0.6653E-01
      6.918  0.1653E-02  0.1653E-02  0.6665E-01  0.6665E-01
      6.992  0.1331E-02  0.1331E-02  0.6675E-01  0.6675E-01
      7.065  0.2154E-02  0.2154E-02  0.6690E-01  0.6690E-01
      7.139  0.3055E-02  0.3055E-02  0.6713E-01  0.6713E-01
      7.212  0.2906E-02  0.2906E-02  0.6734E-01  0.6734E-01
      7.285  0.1849E-02  0.1849E-02  0.6748E-01  0.6748E-01
      7.359  0.9560E-03  0.9560E-03  0.6755E-01  0.6755E-01
      7.432  0.8256E-03  0.8255E-03  0.6761E-01  0.6761E-01
      7.506  0.1133E-02  0.1133E-02  0.6769E-01  0.6769E-01
      7.579  0.1380E-02  0.1380E-02  0.6779E-01  0.6779E-01
      7.653  0.1436E-02  0.1436E-02  0.6790E-01  0.6790E-01
      7.726  0.1429E-02  0.1429E-02  0.6800E-01  0.6800E-01
      7.799  0.1724E-02  0.1724E-02  0.6813E-01  0.6813E-01
      7.873  0.2870E-02  0.2870E-02  0.6834E-01  0.6834E-01
      7.946  0.4886E-02  0.4886E-02  0.6870E-01  0.6870E-01
      8.020  0.6694E-02  0.6694E-02  0.6919E-01  0.6919E-01
      8.093  0.6934E-02  0.6935E-02  0.6970E-01  0.6970E-01
      8.167  0.5480E-02  0.5480E-02  0.7010E-01  0.7010E-01
      8.240  0.3641E-02  0.3641E-02  0.7037E-01  0.7037E-01
      8.313  0.2598E-02  0.2598E-02  0.7056E-01  0.7056E-01
      8.387  0.2268E-02  0.2268E-02  0.7073E-01  0.7073E-01
      8.460  0.2065E-02  0.2065E-02  0.7088E-01  0.7088E-01
      8.534  0.1883E-02  0.1883E-02  0.7102E-01  0.7102E-01
      8.607  0.1833E-02  0.1833E-02  0.7115E-01  0.7115E-01
      8.680  0.1886E-02  0.1886E-02  0.7129E-01  0.7129E-01
      8.754  0.2102E-02  0.2102E-02  0.7144E-01  0.7144E-01
      8.827  0.2521E-02  0.2520E-02  0.7163E-01  0.7163E-01
      8.901  0.2722E-02  0.2722E-02  0.7183E-01  0.7183E-01
      8.974  0.2179E-02  0.2179E-02  0.7199E-01  0.7199E-01
      9.048  0.1037E-02  0.1038E-02  0.7206E-01  0.7206E-01
      9.121  0.4248E-04  0.4274E-04  0.7207E-01  0.7207E-01
      9.194 -0.1164E-03 -0.1164E-03  0.7206E-01  0.7206E-01
      9.268  0.9349E-03  0.9347E-03  0.7213E-01  0.7213E-01
      9.341  0.3120E-02  0.3119E-02  0.7236E-01  0.7236E-01
      9.415  0.5526E-02  0.5526E-02  0.7276E-01  0.7276E-01
      9.488  0.6707E-02  0.6707E-02  0.7326E-01  0.7326E-01
      9.562  0.6048E-02  0.6048E-02  0.7370E-01  0.7370E-01
      9.635  0.4466E-02  0.4466E-02  0.7403E-01  0.7403E-01
      9.708  0.3259E-02  0.3259E-02  0.7427E-01  0.7427E-01
      9.782  0.2810E-02  0.2809E-02  0.7447E-01  0.7447E-01
      9.855  0.2694E-02  0.2694E-02  0.7467E-01  0.7467E-01
      9.929  0.2364E-02  0.2364E-02  0.7484E-01  0.7484E-01
     10.002  0.1603E-02  0.1604E-02  0.7496E-01  0.7496E-01
     10.075  0.6985E-03  0.6987E-03  0.7501E-01  0.7501E-01
     10.149  0.8698E-04  0.8710E-04  0.7502E-01  0.7502E-01
     10.222 -0.1153E-03 -0.1153E-03  0.7501E-01  0.7501E-01
     10.296 -0.9578E-04 -0.9579E-04  0.7500E-01  0.7500E-01
     10.369 -0.4066E-04 -0.4067E-04  0.7500E-01  0.7500E-01
     10.443 -0.1143E-04 -0.1143E-04  0.7500E-01  0.7500E-01
     10.516 -0.2280E-05 -0.2281E-05  0.7500E-01  0.7500E-01
     10.589 -0.3325E-06 -0.3327E-06  0.7500E-01  0.7500E-01
     10.663 -0.3598E-07 -0.3601E-07  0.7500E-01  0.7500E-01
     10.736 -0.2916E-08 -0.2918E-08  0.7500E-01  0.7500E-01
     10.810 -0.1778E-09 -0.1780E-09  0.7500E-01  0.7500E-01
     10.883 -0.8196E-11 -0.8204E-11  0.7500E-01  0.7500E-01
     10.957 -0.2861E-12 -0.2864E-12  0.7500E-01  0.7500E-01
     11.030 -0.7575E-14 -0.7585E-14  0.7500E-01  0.7500E-01
     11.103 -0.1521E-15 -0.1521E-15  0.7500E-01  0.7500E-01
     11.177 -0.2520E-17 -0.2520E-17  0.7500E-01  0.7500E-01
     11.250  0.0000E+00  0.0000E+00  0.7500E-01  0.7500E-01
     11.324  0.0000E+00  0.0000E+00  0.7500E-01  0.7500E-01
     11.397  0.0000E+00  0.0000E+00  0.7500E-01  0.7500E-01
     11.470  0.0000E+00  0.0000E+00  0.7500E-01  0.7500E-01
     11.544  0.0000E+00  0.0000E+00  0.7500E-01  0.7500E-01
     11.617  0.0000E+00  0.0000E+00  0.7500E-01  0.7500E-01
     11.691  0.0000E+00  0.0000E+00  0.7500E-01  0.7500E-01
     11.764  0.0000E+00  0.0000E+00  0.7500E-01  0.7500E-01
     11.838  0.0000E+00  0.0000E+00  0.7500E-01  0.7500E-01
     11.911  0.0000E+00  0.0000E+00  0.7500E-01  0.7500E-01
