       N       E                     dE             d eps       ncg     rms          rms(c)
DAV:   1     0.771264363320E+03    0.77126E+03   -0.33219E+04   960   0.168E+03
DAV:   2     0.584101435323E+02   -0.71285E+03   -0.68519E+03   960   0.375E+02
DAV:   3    -0.307313892126E+02   -0.89142E+02   -0.82769E+02  1000   0.181E+02
DAV:   4    -0.344465033722E+02   -0.37151E+01   -0.36871E+01  1096   0.506E+01
DAV:   5    -0.345312334147E+02   -0.84730E-01   -0.84665E-01  1136   0.633E+00    0.269E+01
DAV:   6    -0.297324975306E+02    0.47987E+01   -0.90218E+01  1076   0.119E+02    0.133E+01
DAV:   7    -0.273765704323E+02    0.23559E+01   -0.23994E+01  1180   0.955E+01    0.866E+00
DAV:   8    -0.269790858667E+02    0.39748E+00   -0.99013E+00  1264   0.827E+01    0.741E+00
DAV:   9    -0.265632628482E+02    0.41582E+00   -0.51468E+00  1644   0.514E+01    0.623E+00
DAV:  10    -0.272614459043E+02   -0.69818E+00   -0.19072E+00  1384   0.353E+01    0.522E+00
DAV:  11    -0.287557480931E+02   -0.14943E+01   -0.11043E+00  1272   0.276E+01    0.436E+00
DAV:  12    -0.298099423780E+02   -0.10542E+01   -0.67177E-01  1268   0.201E+01    0.346E+00
DAV:  13    -0.320522351977E+02   -0.22423E+01   -0.14451E+00  1220   0.287E+01    0.205E+00
DAV:  14    -0.338766998847E+02   -0.18245E+01   -0.20334E+00  1320   0.206E+01    0.106E+00
DAV:  15    -0.344184276773E+02   -0.54173E+00   -0.66287E-01  1140   0.889E+00    0.689E-01
DAV:  16    -0.346034121142E+02   -0.18498E+00   -0.14533E-01  1192   0.550E+00    0.520E-01
DAV:  17    -0.347640560958E+02   -0.16064E+00   -0.12313E-01  1220   0.460E+00    0.410E-01
DAV:  18    -0.348138445468E+02   -0.49788E-01   -0.35477E-02  1144   0.243E+00    0.250E-01
DAV:  19    -0.348873706685E+02   -0.73526E-01   -0.23595E-02  1156   0.177E+00    0.200E-01
DAV:  20    -0.349230637380E+02   -0.35693E-01   -0.61779E-03  1156   0.152E+00    0.159E-01
DAV:  21    -0.349600443116E+02   -0.36981E-01   -0.38651E-03  1192   0.863E-01    0.119E-01
DAV:  22    -0.350079996937E+02   -0.47955E-01   -0.46413E-03  1056   0.381E-01    0.917E-02
DAV:  23    -0.350647518261E+02   -0.56752E-01   -0.29614E-03  1080   0.524E-01    0.612E-02
DAV:  24    -0.350902869929E+02   -0.25535E-01   -0.84704E-04   872   0.458E-01    0.445E-02
DAV:  25    -0.351023509917E+02   -0.12064E-01   -0.38005E-04   780   0.386E-01    0.253E-02
DAV:  26    -0.351055733514E+02   -0.32224E-02   -0.23512E-04   748   0.164E-01    0.192E-02
DAV:  27    -0.351059898165E+02   -0.41647E-03   -0.10588E-04   712   0.127E-01    0.135E-02
DAV:  28    -0.351059999099E+02   -0.10093E-04   -0.36316E-05   716   0.713E-02
   1 F= -.38367079E+02 E0= -.38367704E+02  d E =-.383671E+02  mag=    -0.0003
       N       E                     dE             d eps       ncg     rms          rms(c)
DAV:   1    -0.351071182766E+02   -0.11285E-02   -0.93342E+00  1048   0.124E+01    0.513E-01
DAV:   2    -0.351216603432E+02   -0.14542E-01   -0.18971E-01  1364   0.496E+00    0.426E-01
DAV:   3    -0.351200151760E+02    0.16452E-02   -0.17366E-02  1104   0.439E+00    0.264E-01
DAV:   4    -0.351193852281E+02    0.62995E-03   -0.59190E-03  1228   0.247E+00    0.149E-01
DAV:   5    -0.351192984473E+02    0.86781E-04   -0.36664E-03  1472   0.178E+00    0.515E-02
DAV:   6    -0.351193203993E+02   -0.21952E-04   -0.22682E-03   780   0.153E+00    0.540E-02
DAV:   7    -0.351192695951E+02    0.50804E-04   -0.74123E-04   696   0.821E-01
   2 F= -.38390964E+02 E0= -.38392348E+02  d E =-.238854E-01  mag=    -0.0001
       N       E                     dE             d eps       ncg     rms          rms(c)
DAV:   1    -0.351236729383E+02   -0.43525E-02   -0.36663E-01  1048   0.245E+00    0.885E-02
DAV:   2    -0.351241943264E+02   -0.52139E-03   -0.62946E-03  1352   0.740E-01    0.723E-02
DAV:   3    -0.351241762794E+02    0.18047E-04   -0.57696E-04   936   0.684E-01
   3 F= -.38392236E+02 E0= -.38393448E+02  d E =-.251573E-01  mag=    -0.0000
       N       E                     dE             d eps       ncg     rms          rms(c)
DAV:   1    -0.351346912405E+02   -0.10497E-01   -0.10692E+01  1056   0.132E+01    0.321E-01
DAV:   2    -0.351544830115E+02   -0.19792E-01   -0.21727E-01  1384   0.522E+00    0.368E-01
DAV:   3    -0.351530083446E+02    0.14747E-02   -0.13283E-02  1096   0.339E+00    0.189E-01
DAV:   4    -0.351529084973E+02    0.99847E-04   -0.30234E-03  1072   0.968E-01    0.160E-01
DAV:   5    -0.351526777223E+02    0.23078E-03   -0.18623E-03  1032   0.131E+00    0.107E-01
DAV:   6    -0.351525627845E+02    0.11494E-03   -0.20647E-03   984   0.147E+00    0.434E-02
DAV:   7    -0.351525521273E+02    0.10657E-04   -0.63439E-04   656   0.738E-01
   4 F= -.38422306E+02 E0= -.38424133E+02  d E =-.300698E-01  mag=     0.0000
       N       E                     dE             d eps       ncg     rms          rms(c)
DAV:   1    -0.351161053953E+02    0.36457E-01   -0.29857E+01  1056   0.226E+01    0.548E-01
DAV:   2    -0.351752541443E+02   -0.59149E-01   -0.64398E-01  1400   0.899E+00    0.616E-01
DAV:   3    -0.351705562409E+02    0.46979E-02   -0.31699E-02  1104   0.588E+00    0.317E-01
DAV:   4    -0.351703183132E+02    0.23793E-03   -0.88124E-03  1132   0.165E+00    0.269E-01
DAV:   5    -0.351697890234E+02    0.52929E-03   -0.59156E-03  1152   0.241E+00    0.191E-01
DAV:   6    -0.351693535454E+02    0.43548E-03   -0.67513E-03  1516   0.248E+00    0.719E-02
DAV:   7    -0.351693171796E+02    0.36366E-04   -0.14554E-03   920   0.109E+00
   5 F= -.38442390E+02 E0= -.38444914E+02  d E =-.501537E-01  mag=     0.0000
       N       E                     dE             d eps       ncg     rms          rms(c)
DAV:   1    -0.351753382767E+02   -0.59847E-02   -0.19097E+00   984   0.584E+00    0.160E-01
DAV:   2    -0.351787634614E+02   -0.34252E-02   -0.38761E-02  1320   0.180E+00    0.152E-01
DAV:   3    -0.351786669656E+02    0.96496E-04   -0.33627E-03  1052   0.160E+00    0.115E-01
DAV:   4    -0.351785496157E+02    0.11735E-03   -0.12540E-03   716   0.110E+00
   6 F= -.38452206E+02 E0= -.38454523E+02  d E =-.981644E-02  mag=     0.0000
       N       E                     dE             d eps       ncg     rms          rms(c)
DAV:   1    -0.351786101975E+02    0.56768E-04   -0.44637E-01  1000   0.295E+00    0.930E-02
DAV:   2    -0.351794259935E+02   -0.81580E-03   -0.10294E-02  1544   0.150E+00    0.880E-02
DAV:   3    -0.351793684970E+02    0.57497E-04   -0.21120E-03   992   0.136E+00    0.668E-02
DAV:   4    -0.351793384287E+02    0.30068E-04   -0.50243E-04   652   0.604E-01
   7 F= -.38453528E+02 E0= -.38455713E+02  d E =-.111387E-01  mag=     0.0000
       N       E                     dE             d eps       ncg     rms          rms(c)
DAV:   1    -0.351830432240E+02   -0.36747E-02   -0.41298E-01  1000   0.273E+00    0.658E-02
DAV:   2    -0.351838022519E+02   -0.75903E-03   -0.81873E-03  1340   0.886E-01    0.667E-02
DAV:   3    -0.351837866007E+02    0.15651E-04   -0.45260E-04   844   0.544E-01
   8 F= -.38458925E+02 E0= -.38460982E+02  d E =-.539688E-02  mag=     0.0000
       N       E                     dE             d eps       ncg     rms          rms(c)
DAV:   1    -0.351865010929E+02   -0.26988E-02   -0.37248E+00   984   0.814E+00    0.207E-01
DAV:   2    -0.351932584266E+02   -0.67573E-02   -0.74152E-02  1328   0.208E+00    0.204E-01
DAV:   3    -0.351929114579E+02    0.34697E-03   -0.19778E-03  1120   0.106E+00    0.150E-01
DAV:   4    -0.351926912530E+02    0.22020E-03   -0.83019E-04   932   0.106E+00    0.101E-01
DAV:   5    -0.351925709308E+02    0.12032E-03   -0.10172E-03   744   0.118E+00
   9 F= -.38470694E+02 E0= -.38472397E+02  d E =-.171653E-01  mag=     0.0000
       N       E                     dE             d eps       ncg     rms          rms(c)
DAV:   1    -0.351626491488E+02    0.30042E-01   -0.14904E+01   984   0.165E+01    0.384E-01
DAV:   2    -0.351924359426E+02   -0.29787E-01   -0.31919E-01  1328   0.470E+00    0.416E-01
DAV:   3    -0.351911038758E+02    0.13321E-02   -0.11546E-02  1120   0.270E+00    0.285E-01
DAV:   4    -0.351905049629E+02    0.59891E-03   -0.35997E-03  1080   0.177E+00    0.222E-01
DAV:   5    -0.351901231467E+02    0.38182E-03   -0.72026E-03  1488   0.247E+00    0.118E-01
DAV:   6    -0.351898110441E+02    0.31210E-03   -0.54544E-03  1064   0.253E+00    0.443E-02
DAV:   7    -0.351897712845E+02    0.39760E-04   -0.74992E-04   724   0.739E-01
  10 F= -.38474875E+02 E0= -.38475937E+02  d E =-.213468E-01  mag=     0.0000
       N       E                     dE             d eps       ncg     rms          rms(c)
DAV:   1    -0.351907337213E+02   -0.92268E-03   -0.19884E+00   984   0.595E+00    0.128E-01
DAV:   2    -0.351943641595E+02   -0.36304E-02   -0.39170E-02  1328   0.166E+00    0.148E-01
DAV:   3    -0.351942434929E+02    0.12067E-03   -0.17181E-03  1056   0.998E-01
  11 F= -.38476581E+02 E0= -.38477927E+02  d E =-.230527E-01  mag=     0.0000
       N       E                     dE             d eps       ncg     rms          rms(c)
DAV:   1    -0.351965763478E+02   -0.22122E-02   -0.64034E-01   984   0.340E+00    0.945E-02
DAV:   2    -0.351979595657E+02   -0.13832E-02   -0.15475E-02  1496   0.160E+00    0.820E-02
DAV:   3    -0.351979216167E+02    0.37949E-04   -0.29727E-03  1040   0.157E+00    0.611E-02
DAV:   4    -0.351978905785E+02    0.31038E-04   -0.50469E-04   632   0.609E-01
  12 F= -.38480395E+02 E0= -.38481578E+02  d E =-.381420E-02  mag=     0.0000
       N       E                     dE             d eps       ncg     rms          rms(c)
DAV:   1    -0.351946928034E+02    0.32288E-02   -0.57956E+00   984   0.101E+01    0.263E-01
DAV:   2    -0.352063638222E+02   -0.11671E-01   -0.12832E-01  1272   0.239E+00    0.266E-01
DAV:   3    -0.352058296901E+02    0.53413E-03   -0.23876E-03  1192   0.597E-01    0.206E-01
DAV:   4    -0.352053801052E+02    0.44958E-03   -0.14981E-03  1112   0.126E+00    0.133E-01
DAV:   5    -0.352051752315E+02    0.20487E-03   -0.15446E-03  1168   0.137E+00    0.404E-02
DAV:   6    -0.352051581268E+02    0.17105E-04   -0.31165E-04   672   0.507E-01
  13 F= -.38488336E+02 E0= -.38489139E+02  d E =-.117545E-01  mag=     0.0000
       N       E                     dE             d eps       ncg     rms          rms(c)
DAV:   1    -0.351611429018E+02    0.44032E-01   -0.23162E+01   984   0.205E+01    0.544E-01
DAV:   2    -0.352084631441E+02   -0.47320E-01   -0.52178E-01  1272   0.517E+00    0.547E-01
DAV:   3    -0.352059492217E+02    0.25139E-02   -0.12433E-02  1216   0.242E+00    0.404E-01
DAV:   4    -0.352052326759E+02    0.71655E-03   -0.14606E-02  1224   0.408E+00    0.324E-01
DAV:   5    -0.352036744091E+02    0.15583E-02   -0.23169E-02  1632   0.437E+00    0.121E-01
DAV:   6    -0.352033595677E+02    0.31484E-03   -0.60645E-03  1424   0.249E+00    0.532E-02
DAV:   7    -0.352033397593E+02    0.19808E-04   -0.71902E-04   776   0.755E-01
  14 F= -.38488171E+02 E0= -.38488298E+02  d E =-.115901E-01  mag=     0.0000
       N       E                     dE             d eps       ncg     rms          rms(c)
DAV:   1    -0.351960791519E+02    0.72804E-02   -0.66192E+00   976   0.108E+01    0.290E-01
DAV:   2    -0.352081320253E+02   -0.12053E-01   -0.13615E-01  1304   0.292E+00    0.296E-01
DAV:   3    -0.352075360353E+02    0.59599E-03   -0.67433E-03  1104   0.217E+00    0.216E-01
DAV:   4    -0.352072036324E+02    0.33240E-03   -0.44734E-03  1080   0.204E+00    0.153E-01
DAV:   5    -0.352068254153E+02    0.37822E-03   -0.48794E-03   856   0.210E+00    0.501E-02
DAV:   6    -0.352067353124E+02    0.90103E-04   -0.12716E-03   672   0.111E+00
  15 F= -.38490653E+02 E0= -.38491133E+02  d E =-.140722E-01  mag=     0.0000
       N       E                     dE             d eps       ncg     rms          rms(c)
DAV:   1    -0.352094991729E+02   -0.26738E-02   -0.42722E-01  1000   0.273E+00    0.851E-02
DAV:   2    -0.352102630665E+02   -0.76389E-03   -0.90740E-03  1336   0.757E-01    0.829E-02
DAV:   3    -0.352102020374E+02    0.61029E-04   -0.42514E-04   704   0.597E-01
  16 F= -.38494228E+02 E0= -.38494643E+02  d E =-.357422E-02  mag=     0.0000
       N       E                     dE             d eps       ncg     rms          rms(c)
DAV:   1    -0.352100376606E+02    0.22541E-03   -0.38495E+00  1000   0.816E+00    0.274E-01
DAV:   2    -0.352168557096E+02   -0.68180E-02   -0.81744E-02  1360   0.289E+00    0.253E-01
DAV:   3    -0.352164539592E+02    0.40175E-03   -0.78046E-03  1144   0.259E+00    0.188E-01
DAV:   4    -0.352161401381E+02    0.31382E-03   -0.47872E-03  1128   0.232E+00    0.118E-01
DAV:   5    -0.352160111111E+02    0.12903E-03   -0.28442E-03  1208   0.146E+00    0.548E-02
DAV:   6    -0.352159864499E+02    0.24661E-04   -0.53814E-04   704   0.712E-01
  17 F= -.38500564E+02 E0= -.38500861E+02  d E =-.991030E-02  mag=     0.0000
       N       E                     dE             d eps       ncg     rms          rms(c)
DAV:   1    -0.352155601022E+02    0.45101E-03   -0.52011E-01  1000   0.300E+00    0.924E-02
DAV:   2    -0.352165481064E+02   -0.98800E-03   -0.11156E-02  1312   0.734E-01    0.836E-02
DAV:   3    -0.352164900498E+02    0.58057E-04   -0.24009E-04   720   0.378E-01
  18 F= -.38501398E+02 E0= -.38501632E+02  d E =-.107444E-01  mag=     0.0000
       N       E                     dE             d eps       ncg     rms          rms(c)
DAV:   1    -0.352216485721E+02   -0.51005E-02   -0.60436E-01   968   0.332E+00    0.100E-01
DAV:   2    -0.352227141630E+02   -0.10656E-02   -0.12462E-02  1312   0.113E+00    0.970E-02
DAV:   3    -0.352226773843E+02    0.36779E-04   -0.12837E-03   976   0.962E-01
  19 F= -.38506034E+02 E0= -.38506310E+02  d E =-.463649E-02  mag=     0.0000
       N       E                     dE             d eps       ncg     rms          rms(c)
DAV:   1    -0.352272975428E+02   -0.45834E-02   -0.54247E+00   968   0.986E+00    0.284E-01
DAV:   2    -0.352378033082E+02   -0.10506E-01   -0.11954E-01  1280   0.303E+00    0.293E-01
DAV:   3    -0.352372750185E+02    0.52829E-03   -0.49416E-03  1152   0.174E+00    0.215E-01
DAV:   4    -0.352369046738E+02    0.37034E-03   -0.21073E-03  1072   0.153E+00    0.152E-01
DAV:   5    -0.352368057644E+02    0.98909E-04   -0.34659E-03  1008   0.200E+00    0.690E-02
DAV:   6    -0.352366504454E+02    0.15532E-03   -0.22397E-03   824   0.149E+00    0.340E-02
DAV:   7    -0.352366463612E+02    0.40841E-05   -0.34573E-04   656   0.415E-01
  20 F= -.38515447E+02 E0= -.38515809E+02  d E =-.140495E-01  mag=     0.0000
       N       E                     dE             d eps       ncg     rms          rms(c)
DAV:   1    -0.352044496855E+02    0.32201E-01   -0.21667E+01   968   0.199E+01    0.535E-01
DAV:   2    -0.352512578907E+02   -0.46808E-01   -0.51813E-01  1328   0.675E+00    0.578E-01
DAV:   3    -0.352486236230E+02    0.26343E-02   -0.19854E-02  1168   0.373E+00    0.412E-01
DAV:   4    -0.352473785694E+02    0.12451E-02   -0.78072E-03  1272   0.263E+00    0.299E-01
DAV:   5    -0.352468889043E+02    0.48967E-03   -0.17254E-02  1528   0.390E+00    0.184E-01
DAV:   6    -0.352461374662E+02    0.75144E-03   -0.86772E-03  1288   0.333E+00    0.489E-02
DAV:   7    -0.352461317343E+02    0.57318E-05   -0.11329E-03   976   0.766E-01
  21 F= -.38516201E+02 E0= -.38516656E+02  d E =-.148037E-01  mag=     0.0000
       N       E                     dE             d eps       ncg     rms          rms(c)
DAV:   1    -0.352327138278E+02    0.13424E-01   -0.60861E+00   984   0.105E+01    0.256E-01
DAV:   2    -0.352455019741E+02   -0.12788E-01   -0.14049E-01  1296   0.284E+00    0.293E-01
DAV:   3    -0.352449560085E+02    0.54597E-03   -0.40027E-03  1072   0.133E+00    0.232E-01
DAV:   4    -0.352446092691E+02    0.34674E-03   -0.19771E-03  1136   0.153E+00    0.186E-01
DAV:   5    -0.352442147582E+02    0.39451E-03   -0.42005E-03   816   0.201E+00    0.853E-02
DAV:   6    -0.352440717623E+02    0.14300E-03   -0.24182E-03   872   0.161E+00    0.396E-02
DAV:   7    -0.352440596986E+02    0.12064E-04   -0.48905E-04   680   0.545E-01
  22 F= -.38518709E+02 E0= -.38519106E+02  d E =-.173108E-01  mag=     0.0000
       N       E                     dE             d eps       ncg     rms          rms(c)
DAV:   1    -0.352446393144E+02   -0.56755E-03   -0.38460E-01   968   0.261E+00    0.666E-02
DAV:   2    -0.352453674344E+02   -0.72812E-03   -0.82542E-03  1320   0.718E-01    0.732E-02
DAV:   3    -0.352453314580E+02    0.35976E-04   -0.21565E-04   728   0.285E-01
  23 F= -.38518814E+02 E0= -.38519218E+02  d E =-.174166E-01  mag=     0.0000
       N       E                     dE             d eps       ncg     rms          rms(c)
DAV:   1    -0.352446047300E+02    0.76270E-03   -0.82028E-02   992   0.127E+00    0.397E-02
DAV:   2    -0.352447638654E+02   -0.15914E-03   -0.16949E-03  1120   0.763E-01
  24 F= -.38518788E+02 E0= -.38519229E+02  d E =-.173900E-01  mag=     0.0000
       N       E                     dE             d eps       ncg     rms          rms(c)
DAV:   1    -0.352450263582E+02   -0.42163E-03   -0.21268E-02  1336   0.802E-01    0.119E-02
DAV:   2    -0.352450507063E+02   -0.24348E-04   -0.27542E-04   736   0.345E-01
  25 F= -.38518800E+02 E0= -.38519210E+02  d E =-.174027E-01  mag=     0.0000
       N       E                     dE             d eps       ncg     rms          rms(c)
DAV:   1    -0.352504068118E+02   -0.53805E-02   -0.61340E-01  1016   0.320E+00    0.674E-02
DAV:   2    -0.352514696375E+02   -0.10628E-02   -0.11607E-02  1328   0.961E-01    0.792E-02
DAV:   3    -0.352514405941E+02    0.29043E-04   -0.61859E-04   896   0.540E-01
  26 F= -.38522106E+02 E0= -.38522435E+02  d E =-.330551E-02  mag=     0.0000
       N       E                     dE             d eps       ncg     rms          rms(c)
DAV:   1    -0.352570734649E+02   -0.56038E-02   -0.42355E+00  1016   0.841E+00    0.192E-01
DAV:   2    -0.352646141901E+02   -0.75407E-02   -0.82832E-02  1304   0.226E+00    0.218E-01
DAV:   3    -0.352643201208E+02    0.29407E-03   -0.28686E-03  1096   0.108E+00    0.163E-01
DAV:   4    -0.352641024937E+02    0.21763E-03   -0.86842E-04  1000   0.966E-01    0.132E-01
DAV:   5    -0.352638871391E+02    0.21535E-03   -0.11998E-03   904   0.110E+00    0.468E-02
DAV:   6    -0.352638700697E+02    0.17069E-04   -0.11784E-03   648   0.113E+00
  27 F= -.38526614E+02 E0= -.38526757E+02  d E =-.781309E-02  mag=     0.0000
       N       E                     dE             d eps       ncg     rms          rms(c)
DAV:   1    -0.352676988416E+02   -0.38117E-02   -0.34752E-01  1056   0.248E+00    0.616E-02
DAV:   2    -0.352682838554E+02   -0.58501E-03   -0.65465E-03  1320   0.665E-01    0.552E-02
DAV:   3    -0.352682723389E+02    0.11516E-04   -0.46712E-04   752   0.639E-01
  28 F= -.38529075E+02 E0= -.38529126E+02  d E =-.246140E-02  mag=     0.0000
       N       E                     dE             d eps       ncg     rms          rms(c)
DAV:   1    -0.352721022314E+02   -0.38184E-02   -0.10213E+00  1056   0.415E+00    0.115E-01
DAV:   2    -0.352736731047E+02   -0.15709E-02   -0.18113E-02  1320   0.119E+00    0.109E-01
DAV:   3    -0.352736219513E+02    0.51153E-04   -0.11256E-03  1040   0.852E-01
  29 F= -.38531254E+02 E0= -.38531140E+02  d E =-.464011E-02  mag=     0.0000
       N       E                     dE             d eps       ncg     rms          rms(c)
DAV:   1    -0.352746123075E+02   -0.93920E-03   -0.11984E-01  1088   0.160E+00    0.705E-02
DAV:   2    -0.352748008479E+02   -0.18854E-03   -0.29786E-03  1400   0.125E+00    0.668E-02
DAV:   3    -0.352747178806E+02    0.82967E-04   -0.11004E-03   648   0.108E+00
  30 F= -.38531320E+02 E0= -.38531186E+02  d E =-.470686E-02  mag=     0.0000
       N       E                     dE             d eps       ncg     rms          rms(c)
DAV:   1    -0.352786851266E+02   -0.38843E-02   -0.58211E-01  1064   0.318E+00    0.553E-02
DAV:   2    -0.352796731308E+02   -0.98800E-03   -0.10497E-02  1344   0.877E-01    0.681E-02
DAV:   3    -0.352796566629E+02    0.16468E-04   -0.45973E-04   800   0.453E-01
  31 F= -.38533017E+02 E0= -.38532746E+02  d E =-.169693E-02  mag=     0.0000
       N       E                     dE             d eps       ncg     rms          rms(c)
DAV:   1    -0.352846866666E+02   -0.50135E-02   -0.52359E+00  1040   0.948E+00    0.180E-01
DAV:   2    -0.352937191223E+02   -0.90325E-02   -0.96965E-02  1320   0.229E+00    0.216E-01
DAV:   3    -0.352934010367E+02    0.31809E-03   -0.24972E-03  1064   0.884E-01    0.169E-01
DAV:   4    -0.352931736594E+02    0.22738E-03   -0.66034E-04   976   0.907E-01    0.147E-01
DAV:   5    -0.352928203077E+02    0.35335E-03   -0.10699E-03   976   0.875E-01    0.469E-02
DAV:   6    -0.352928356669E+02   -0.15359E-04   -0.11556E-03   664   0.109E+00
  32 F= -.38536545E+02 E0= -.38535925E+02  d E =-.522415E-02  mag=     0.0000
       N       E                     dE             d eps       ncg     rms          rms(c)
DAV:   1    -0.352762467658E+02    0.16574E-01   -0.20992E+01  1040   0.193E+01    0.339E-01
DAV:   2    -0.353162088553E+02   -0.39962E-01   -0.41943E-01  1312   0.464E+00    0.404E-01
DAV:   3    -0.353150414575E+02    0.11674E-02   -0.13213E-02  1080   0.215E+00    0.293E-01
DAV:   4    -0.353144298169E+02    0.61164E-03   -0.25126E-03  1136   0.156E+00    0.252E-01
DAV:   5    -0.353134647440E+02    0.96507E-03   -0.36565E-03  1616   0.155E+00    0.104E-01
DAV:   6    -0.353134418103E+02    0.22934E-04   -0.44806E-03   792   0.209E+00    0.840E-02
DAV:   7    -0.353132471215E+02    0.19469E-03   -0.16666E-03   672   0.136E+00
  33 F= -.38537973E+02 E0= -.38536757E+02  d E =-.665236E-02  mag=     0.0000
       N       E                     dE             d eps       ncg     rms          rms(c)
DAV:   1    -0.353067982072E+02    0.66436E-02   -0.13511E+00  1056   0.478E+00    0.968E-02
DAV:   2    -0.353090544055E+02   -0.22562E-02   -0.24466E-02  1368   0.168E+00    0.127E-01
DAV:   3    -0.353089265833E+02    0.12782E-03   -0.13159E-03   968   0.954E-01
  34 F= -.38538435E+02 E0= -.38537341E+02  d E =-.711480E-02  mag=     0.0000
       N       E                     dE             d eps       ncg     rms          rms(c)
DAV:   1    -0.353106293239E+02   -0.15749E-02   -0.39860E-01  1064   0.264E+00    0.697E-02
DAV:   2    -0.353113376320E+02   -0.70831E-03   -0.76214E-03  1520   0.111E+00    0.395E-02
DAV:   3    -0.353113360113E+02    0.16207E-05   -0.11249E-03   848   0.103E+00
  35 F= -.38538224E+02 E0= -.38537064E+02  d E =-.690406E-02  mag=     0.0000
       N       E                     dE             d eps       ncg     rms          rms(c)
DAV:   1    -0.353097842170E+02    0.15534E-02   -0.11657E-01  1056   0.148E+00    0.238E-02
DAV:   2    -0.353100066603E+02   -0.22244E-03   -0.22737E-03  1264   0.306E-01    0.248E-02
DAV:   3    -0.353099993313E+02    0.73290E-05   -0.41909E-05   572   0.105E-01
  36 F= -.38538301E+02 E0= -.38537175E+02  d E =-.698034E-02  mag=     0.0000
       N       E                     dE             d eps       ncg     rms          rms(c)
DAV:   1    -0.353125868877E+02   -0.25802E-02   -0.39854E-01  1024   0.257E+00    0.104E-01
DAV:   2    -0.353131813803E+02   -0.59449E-03   -0.76718E-03  1288   0.749E-01    0.787E-02
DAV:   3    -0.353131814084E+02   -0.28122E-07   -0.11302E-03   880   0.105E+00
  37 F= -.38539162E+02 E0= -.38538021E+02  d E =-.861466E-03  mag=     0.0000
       N       E                     dE             d eps       ncg     rms          rms(c)
DAV:   1    -0.353125475189E+02    0.63386E-03   -0.56826E-02  1296   0.139E+00    0.348E-02
DAV:   2    -0.353126463252E+02   -0.98806E-04   -0.17055E-03   880   0.112E+00
  38 F= -.38539449E+02 E0= -.38538306E+02  d E =-.114806E-02  mag=     0.0000
       N       E                     dE             d eps       ncg     rms          rms(c)
DAV:   1    -0.353134273650E+02   -0.87985E-03   -0.63096E-01  1024   0.339E+00    0.571E-02
DAV:   2    -0.353145853239E+02   -0.11580E-02   -0.12067E-02  1424   0.885E-01    0.690E-02
DAV:   3    -0.353145487468E+02    0.36577E-04   -0.39863E-04   664   0.562E-01
  39 F= -.38540601E+02 E0= -.38539500E+02  d E =-.115253E-02  mag=     0.0000
       N       E                     dE             d eps       ncg     rms          rms(c)
DAV:   1    -0.353146881704E+02   -0.10285E-03   -0.79696E-03  1352   0.479E-01    0.421E-02
DAV:   2    -0.353146787212E+02    0.94492E-05   -0.22788E-04   624   0.510E-01
  40 F= -.38540652E+02 E0= -.38539551E+02  d E =-.120322E-02  mag=     0.0000
       N       E                     dE             d eps       ncg     rms          rms(c)
DAV:   1    -0.353149086685E+02   -0.22050E-03   -0.29228E-02  1368   0.926E-01    0.309E-02
DAV:   2    -0.353149319425E+02   -0.23274E-04   -0.52225E-04   672   0.734E-01
  41 F= -.38540747E+02 E0= -.38539647E+02  d E =-.129799E-02  mag=     0.0000
       N       E                     dE             d eps       ncg     rms          rms(c)
DAV:   1    -0.353150808097E+02   -0.17214E-03   -0.11450E-01  1024   0.152E+00    0.330E-02
DAV:   2    -0.353153111320E+02   -0.23032E-03   -0.24988E-03  1384   0.411E-01    0.339E-02
DAV:   3    -0.353153047726E+02    0.63595E-05   -0.57293E-05   504   0.167E-01
  42 F= -.38540803E+02 E0= -.38539728E+02  d E =-.135452E-02  mag=     0.0000
       N       E                     dE             d eps       ncg     rms          rms(c)
DAV:   1    -0.353151210319E+02    0.19010E-03   -0.19717E-02  1040   0.636E-01    0.207E-02
DAV:   2    -0.353151348428E+02   -0.13811E-04   -0.20140E-04   616   0.464E-01
  43 F= -.38540766E+02 E0= -.38539692E+02  d E =-.131727E-02  mag=     0.0000
       N       E                     dE             d eps       ncg     rms          rms(c)
DAV:   1    -0.353152498554E+02   -0.12882E-03   -0.93199E-03  1456   0.551E-01    0.115E-02
DAV:   2    -0.353152556209E+02   -0.57655E-05   -0.94016E-05   592   0.326E-01
  44 F= -.38540797E+02 E0= -.38539721E+02  d E =-.134818E-02  mag=     0.0000
       N       E                     dE             d eps       ncg     rms          rms(c)
DAV:   1    -0.353152089908E+02    0.40865E-04   -0.19773E-03  1328   0.320E-01    0.452E-03
DAV:   2    -0.353152106838E+02   -0.16930E-05   -0.20055E-05   496   0.143E-01
  45 F= -.38540793E+02 E0= -.38539715E+02  d E =-.134437E-02  mag=     0.0000
       N       E                     dE             d eps       ncg     rms          rms(c)
DAV:   1    -0.353152127031E+02   -0.37123E-05   -0.17833E-04   544   0.131E-01    0.107E-02
DAV:   2    -0.353152257212E+02   -0.13018E-04   -0.14995E-04   480   0.273E-01
  46 F= -.38540791E+02 E0= -.38539715E+02  d E =-.134266E-02  mag=     0.0000
       N       E                     dE             d eps       ncg     rms          rms(c)
DAV:   1    -0.353152066296E+02    0.60735E-05   -0.47973E-05   512   0.202E-01    0.520E-03
DAV:   2    -0.353152096608E+02   -0.30313E-05   -0.34891E-05   504   0.846E-02
  47 F= -.38540791E+02 E0= -.38539711E+02  d E =-.134234E-02  mag=     0.0000
       N       E                     dE             d eps       ncg     rms          rms(c)
DAV:   1    -0.353152205516E+02   -0.13922E-04   -0.18553E-05   480   0.925E-02    0.282E-03
DAV:   2    -0.353152211394E+02   -0.58777E-06   -0.61345E-06   480   0.819E-02
  48 F= -.38540795E+02 E0= -.38539715E+02  d E =-.134595E-02  mag=     0.0000
       N       E                     dE             d eps       ncg     rms          rms(c)
DAV:   1    -0.353152190843E+02    0.14673E-05   -0.35070E-06   480   0.608E-02    0.691E-04
DAV:   2    -0.353152192557E+02   -0.17133E-06   -0.10787E-06   520   0.288E-02
  49 F= -.38540795E+02 E0= -.38539715E+02  d E =-.134635E-02  mag=     0.0000
       N       E                     dE             d eps       ncg     rms          rms(c)
DAV:   1    -0.353148355457E+02    0.38354E-03   -0.31848E-02  1080   0.748E-01    0.316E-02
DAV:   2    -0.353148662669E+02   -0.30721E-04   -0.46399E-04   720   0.199E-01
  50 F= -.38540915E+02 E0= -.38539840E+02  d E =-.119584E-03  mag=     0.0000
       N       E                     dE             d eps       ncg     rms          rms(c)
DAV:   1    -0.353150164245E+02   -0.18088E-03   -0.25410E-03  1320   0.377E-01    0.182E-02
DAV:   2    -0.353150279253E+02   -0.11501E-04   -0.22385E-04   640   0.532E-01
  51 F= -.38540941E+02 E0= -.38539860E+02  d E =-.145738E-03  mag=     0.0000
       N       E                     dE             d eps       ncg     rms          rms(c)
DAV:   1    -0.353149417696E+02    0.74655E-04   -0.23668E-04   688   0.397E-01    0.824E-03
DAV:   2    -0.353149517917E+02   -0.10022E-04   -0.12246E-04   544   0.303E-01
  52 F= -.38540916E+02 E0= -.38539837E+02  d E =-.120735E-03  mag=     0.0000
       N       E                     dE             d eps       ncg     rms          rms(c)
DAV:   1    -0.353150063736E+02   -0.64604E-04   -0.91289E-05   608   0.224E-01    0.488E-03
DAV:   2    -0.353150073200E+02   -0.94632E-06   -0.10525E-05   512   0.466E-02
  53 F= -.38540928E+02 E0= -.38539852E+02  d E =-.133075E-03  mag=     0.0000
       N       E                     dE             d eps       ncg     rms          rms(c)
DAV:   1    -0.353149844170E+02    0.21957E-04   -0.26441E-05   480   0.777E-02    0.539E-03
DAV:   2    -0.353149865649E+02   -0.21478E-05   -0.27916E-05   480   0.153E-01
  54 F= -.38540929E+02 E0= -.38539853E+02  d E =-.133874E-03  mag=     0.0000
       N       E                     dE             d eps       ncg     rms          rms(c)
DAV:   1    -0.353150010942E+02   -0.16677E-04   -0.10890E-05   496   0.106E-01    0.228E-03
DAV:   2    -0.353150012612E+02   -0.16695E-06   -0.33278E-06   504   0.551E-02
  55 F= -.38540929E+02 E0= -.38539853E+02  d E =-.134292E-03  mag=     0.0000
       N       E                     dE             d eps       ncg     rms          rms(c)
DAV:   1    -0.353149866139E+02    0.14480E-04   -0.25407E-02  1016   0.675E-01    0.123E-02
DAV:   2    -0.353150181673E+02   -0.31553E-04   -0.34027E-04   616   0.177E-01
  56 F= -.38541070E+02 E0= -.38540002E+02  d E =-.140392E-03  mag=     0.0000
       N       E                     dE             d eps       ncg     rms          rms(c)
DAV:   1    -0.353150224123E+02   -0.35798E-04   -0.10302E-02  1032   0.451E-01    0.163E-02
DAV:   2    -0.353150291313E+02   -0.67190E-05   -0.12343E-04   544   0.110E-01
  57 F= -.38541157E+02 E0= -.38540093E+02  d E =-.227524E-03  mag=     0.0000
       N       E                     dE             d eps       ncg     rms          rms(c)
DAV:   1    -0.353149492295E+02    0.73183E-04   -0.39166E-02  1024   0.860E-01    0.215E-02
DAV:   2    -0.353149874935E+02   -0.38264E-04   -0.47719E-04   736   0.256E-01
  58 F= -.38541268E+02 E0= -.38540214E+02  d E =-.338611E-03  mag=     0.0000
       N       E                     dE             d eps       ncg     rms          rms(c)
DAV:   1    -0.353153563867E+02   -0.40716E-03   -0.10913E-02  1040   0.497E-01    0.278E-02
DAV:   2    -0.353153581878E+02   -0.18010E-05   -0.16331E-04   696   0.223E-01
  59 F= -.38541388E+02 E0= -.38540322E+02  d E =-.119889E-03  mag=     0.0000
       N       E                     dE             d eps       ncg     rms          rms(c)
DAV:   1    -0.353155793248E+02   -0.22294E-03   -0.55573E-03  1336   0.461E-01    0.258E-02
DAV:   2    -0.353155887219E+02   -0.93971E-05   -0.25580E-04   656   0.551E-01
  60 F= -.38541446E+02 E0= -.38540377E+02  d E =-.178000E-03  mag=     0.0000
       N       E                     dE             d eps       ncg     rms          rms(c)
DAV:   1    -0.353158807617E+02   -0.30144E-03   -0.21046E-02  1264   0.757E-01    0.319E-02
DAV:   2    -0.353158928092E+02   -0.12047E-04   -0.31982E-04   712   0.331E-01
  61 F= -.38541412E+02 E0= -.38540329E+02  d E =-.144433E-03  mag=     0.0000
       N       E                     dE             d eps       ncg     rms          rms(c)
DAV:   1    -0.353156799347E+02    0.20083E-03   -0.96128E-03  1312   0.612E-01    0.169E-02
DAV:   2    -0.353157127247E+02   -0.32790E-04   -0.45100E-04   696   0.682E-01
  62 F= -.38541459E+02 E0= -.38540394E+02  d E =-.190532E-03  mag=     0.0000
       N       E                     dE             d eps       ncg     rms          rms(c)
DAV:   1    -0.353156968487E+02   -0.16914E-04   -0.12323E-03  1048   0.512E-01    0.114E-02
DAV:   2    -0.353157717218E+02   -0.74873E-04   -0.76515E-04   848   0.304E-01
  63 F= -.38541481E+02 E0= -.38540405E+02  d E =-.223367E-04  mag=     0.0000
       N       E                     dE             d eps       ncg     rms          rms(c)
DAV:   1    -0.353159027621E+02   -0.20591E-03   -0.58997E-03  1224   0.386E-01    0.113E-02
DAV:   2    -0.353159064348E+02   -0.36727E-05   -0.64709E-05   552   0.128E-01
  64 F= -.38541550E+02 E0= -.38540464E+02  d E =-.911122E-04  mag=     0.0000
       N       E                     dE             d eps       ncg     rms          rms(c)
DAV:   1    -0.353161363820E+02   -0.23362E-03   -0.22611E-02   992   0.647E-01    0.221E-02
DAV:   2    -0.353161575554E+02   -0.21173E-04   -0.30808E-04   704   0.221E-01
  65 F= -.38541669E+02 E0= -.38540568E+02  d E =-.210152E-03  mag=     0.0000
       N       E                     dE             d eps       ncg     rms          rms(c)
DAV:   1    -0.353165086815E+02   -0.37230E-03   -0.91027E-02   992   0.129E+00    0.440E-02
DAV:   2    -0.353166585508E+02   -0.14987E-03   -0.18896E-03  1296   0.384E-01
  66 F= -.38541905E+02 E0= -.38540776E+02  d E =-.446229E-03  mag=     0.0000
       N       E                     dE             d eps       ncg     rms          rms(c)
DAV:   1    -0.353168179241E+02   -0.30924E-03   -0.35992E-01   992   0.252E+00    0.860E-02
DAV:   2    -0.353174393391E+02   -0.62142E-03   -0.76815E-03  1296   0.734E-01    0.800E-02
DAV:   3    -0.353173897330E+02    0.49606E-04   -0.35350E-04   832   0.458E-01
  67 F= -.38542103E+02 E0= -.38540935E+02  d E =-.644729E-03  mag=     0.0000
       N       E                     dE             d eps       ncg     rms          rms(c)
DAV:   1    -0.353177170004E+02   -0.27766E-03   -0.38842E-02  1296   0.988E-01    0.478E-02
DAV:   2    -0.353177408159E+02   -0.23816E-04   -0.58934E-04   848   0.790E-01
  68 F= -.38542329E+02 E0= -.38541169E+02  d E =-.225439E-03  mag=     0.0000
       N       E                     dE             d eps       ncg     rms          rms(c)
DAV:   1    -0.353179862361E+02   -0.26924E-03   -0.19042E-01   968   0.191E+00    0.756E-02
DAV:   2    -0.353183202370E+02   -0.33400E-03   -0.43783E-03  1288   0.461E-01    0.668E-02
DAV:   3    -0.353182778092E+02    0.42428E-04   -0.18099E-04   704   0.374E-01
  69 F= -.38542602E+02 E0= -.38541416E+02  d E =-.498334E-03  mag=     0.0000
       N       E                     dE             d eps       ncg     rms          rms(c)
DAV:   1    -0.353190172704E+02   -0.69703E-03   -0.60515E-02  1104   0.121E+00    0.401E-02
DAV:   2    -0.353191157629E+02   -0.98492E-04   -0.14264E-03   936   0.107E+00
  70 F= -.38542979E+02 E0= -.38541788E+02  d E =-.377269E-03  mag=     0.0000
       N       E                     dE             d eps       ncg     rms          rms(c)
DAV:   1    -0.353199015210E+02   -0.88425E-03   -0.10959E-01  1152   0.163E+00    0.612E-02
DAV:   2    -0.353200353380E+02   -0.13382E-03   -0.20883E-03  1072   0.495E-01    0.519E-02
DAV:   3    -0.353200223705E+02    0.12967E-04   -0.33084E-04   656   0.557E-01
  71 F= -.38543283E+02 E0= -.38542104E+02  d E =-.681494E-03  mag=     0.0000
