 vasp.6.3.2 27Jun22 (build Aug 17 2022 15:43:34) complex                        
  
 executed on           tv2STDVTST date 2025.02.04  13:49:01
 running   20 mpi-ranks, with    1 threads/rank
 distrk:  each k-point on   20 cores,    1 groups
 distr:  one band on NCORE=   5 cores,    4 groups


--------------------------------------------------------------------------------------------------------


 -----------------------------------------------------------------------------
|                                                                             |
|           W    W    AA    RRRRR   N    N  II  N    N   GGGG   !!!           |
|           W    W   A  A   R    R  NN   N  II  NN   N  G    G  !!!           |
|           W    W  A    A  R    R  N N  N  II  N N  N  G       !!!           |
|           W WW W  AAAAAA  RRRRR   N  N N  II  N  N N  G  GGG   !            |
|           WW  WW  A    A  R   R   N   NN  II  N   NN  G    G                |
|           W    W  A    A  R    R  N    N  II  N    N   GGGG   !!!           |
|                                                                             |
|     Found issues when parsing the INCAR file                                |
|     In line 61: Tagname --- R W I G S contains invalid characters.          |
|     Please check if the interpretation in the OUTCAR file is correct.       |
|                                                                             |
 -----------------------------------------------------------------------------

 INCAR:
    = \=\=\=\=\=\=\=\=\=\=\=\=\=\=\=\=\=\=\=\=\=\=\=\=\=\=\=\=\=\=\=\=\=\=\=\=\=\=\=\=\=\=\=\=\=\=\=\=\=\=\=\=\=\=\=\=\=\=\=\=\=\=\=\=\=\=\=\=\=\=\=\=
    = \=\=\=\=\=\=\=\=\=\=\=\=\=\=\=\=\=\=\=\=\=\=\=\=\=\=\=\=\=\=\=\=\=\=\=\=\=\=\=\=\=\=\=\=\=\=\=\=\=\=\=\=\=\=\=\=\=\=\=\=\=\=\=\=\=\=\=\=\=\=\=\=
   ISTART = 0
   ICHARG = 2
   IPIPOL = 3
   IVDW = 11
    = \=\=\=\=\=\=\=\=\=\=\=\=\=\=\=\=\=\=\=\=\=\=\=\=\=\=\=\=\=\=\=\=\=\=\=\=\=\=\=\=\=\=\=\=\=\=\=\=\=\=\=\=\=\=\=\=\=\=\=\=\=\=\=\=\=\=\=\=\=\=\=\=
    = \=\=\=\=\=\=\=\=\=\=\=\=\=\=\=\=\=\=\=\=\=\=\=\=\=\=\=\=\=\=\=\=\=\=\=\=\=\=\=\=\=\=\=\=\=\=\=\=\=\=\=\=\=\=\=\=\=\=\=\=\=\=\=\=\=\=\=\=\=\=\=\=
   ISPIN = 2
    = \=\=\=\=\=\=\=\=\=\=\=\=\=\=\=\=\=\=\=\=\=\=\=\=\=\=\=\=\=\=\=\=\=\=\=\=\=\=\=\=\=\=\=\=\=\=\=\=\=\=\=\=\=\=\=\=\=\=\=\=\=\=\=\=\=\=\=\=\=\=\=\=
    = \=\=\=\=\=\=\=\=\=\=\=\=\=\=\=\=\=\=\=\=\=\=\=\=\=\=\=\=\=\=\=\=\=\=\=\=\=\=\=\=\=\=\=\=\=\=\=\=\=\=\=\=\=\=\=\=\=\=\=\=\=\=\=\=\=\=\=\=\=\=\=\=
   ENCUT = 400
   PREC = Normal
   EDIFF = 2E-04
   GGA = PE
   ISMEAR = 1
   SIGMA = 0.2
   LREAL = .FALSE.
    = \=\=\=\=\=\=\=\=\=\=\=\=\=\=\=\=\=\=\=\=\=\=\=\=\=\=\=\=\=\=\=\=\=\=\=\=\=\=\=\=\=\=\=\=\=\=\=\=\=\=\=\=\=\=\=\=\=\=\=\=\=\=\=\=\=\=\=\=\=\=\=\=
    = \=\=\=\=\=\=\=\=\=\=\=\=\=\=\=\=\=\=\=\=\=\=\=\=\=\=\=\=\=\=\=\=\=\=\=\=\=\=\=\=\=\=\=\=\=\=\=\=\=\=\=\=\=\=\=\=\=\=\=\=\=\=\=\=\=\=\=\=\=\=\=\=
   ISYM = 1
   NSW = 800
   IBRION = 2
   POTIM = 0.5
   ISIF = 2
   EDIFFG = -.03
    = \=\=\=\=\=\=\=\=\=\=\=\=\=\=\=\=\=\=\=\=\=\=\=\=\=\=\=\=\=\=\=\=\=\=\=\=\=\=\=\=\=\=\=\=\=\=\=\=\=\=\=\=\=\=\=\=\=\=\=\=\=\=\=\=\=\=\=\=\=\=\=\=
    = \=\=\=\=\=\=\=\=\=\=\=\=\=\=\=\=\=\=\=\=\=\=\=\=\=\=\=\=\=\=\=\=\=\=\=\=\=\=\=\=\=\=\=\=\=\=\=\=\=\=\=\=\=\=\=\=\=\=\=\=\=\=\=\=\=\=\=\=\=\=\=\=
   NPAR = 4
   LWAVE = .FALSE.
   LCHARG = .FALSE.

 POTCAR:    PAW_PBE Cu 22Jun2005                  
 POTCAR:    PAW_PBE H 15Jun2001                   
 -----------------------------------------------------------------------------
|                                                                             |
|           W    W    AA    RRRRR   N    N  II  N    N   GGGG   !!!           |
|           W    W   A  A   R    R  NN   N  II  NN   N  G    G  !!!           |
|           W    W  A    A  R    R  N N  N  II  N N  N  G       !!!           |
|           W WW W  AAAAAA  RRRRR   N  N N  II  N  N N  G  GGG   !            |
|           WW  WW  A    A  R   R   N   NN  II  N   NN  G    G                |
|           W    W  A    A  R    R  N    N  II  N    N   GGGG   !!!           |
|                                                                             |
|     You use a magnetic or noncollinear calculation, but did not specify     |
|     the initial magnetic moment with the MAGMOM tag. Note that a            |
|     default of 1 will be used for all atoms. This ferromagnetic setup       |
|     may break the symmetry of the crystal, in particular it may rule        |
|     out finding an antiferromagnetic solution. Thence, we recommend         |
|     setting the initial magnetic moment manually or verifying carefully     |
|     that this magnetic setup is desired.                                    |
|                                                                             |
 -----------------------------------------------------------------------------

 POTCAR:    PAW_PBE Cu 22Jun2005                  
   SHA256 =  0e71e558f37a4e8407882b4609ceaae59938afaad9ced71dfe8490308a0ab630 Cu/POTCAR             
   COPYR  = (c) Copyright 22Jun2005 Georg Kresse                                                    
   COPYR  = This file is part of the software VASP. Any use, copying, and all other rights are regul
   COPYR  = If you do not have a valid VASP license, you may not use, copy or distribute this file. 
   VRHFIN =Cu: d10 p1                                                                               
   LEXCH  = PE                                                                                      
   EATOM  =  1390.9808 eV,  102.2342 Ry                                                             
                                                                                                    
   TITEL  = PAW_PBE Cu 22Jun2005                                                                    
   LULTRA =        F    use ultrasoft PP ?                                                          
   IUNSCR =        1    unscreen: 0-lin 1-nonlin 2-no                                               
   RPACOR =    2.000    partial core radius                                                         
   POMASS =   63.546; ZVAL   =   11.000    mass and valenz                                          
   RCORE  =    2.300    outmost cutoff radius                                                       
   RWIGS  =    2.200; RWIGS  =    1.164    wigner-seitz radius (au A)                               
   ENMAX  =  295.446; ENMIN  =  221.585 eV                                                          
   ICORE  =        3    local potential                                                             
   LCOR   =        T    correct aug charges                                                         
   LPAW   =        T    paw PP                                                                      
   EAUG   =  586.980                                                                                
   DEXC   =    0.000                                                                                
   RMAX   =    2.344    core radius for proj-oper                                                   
   RAUG   =    1.300    factor for augmentation sphere                                              
   RDEP   =    2.302    radius for radial grids                                                     
   RDEPT  =    1.771    core radius for aug-charge                                                  
                                                                                                    
   Atomic configuration                                                                             
    9 entries                                                                                       
     n  l   j            E        occ.                                                              
     1  0  0.50     -8850.2468   2.0000                                                             
     2  0  0.50     -1062.3498   2.0000                                                             
     2  1  1.50      -916.8226   6.0000                                                             
     3  0  0.50      -114.6929   2.0000                                                             
     3  1  1.50       -72.1325   6.0000                                                             
     3  2  2.50        -5.0394  10.0000                                                             
     4  0  0.50        -4.6097   1.0000                                                             
     4  1  0.50        -4.0817   0.0000                                                             
     4  3  2.50        -1.3606   0.0000                                                             
   Description                                                                                      
     l       E           TYP  RCUT    TYP  RCUT                                                     
     2     -5.0393973     23  2.200                                                                 
     2     10.8846608     23  2.200                                                                 
     0     -4.6097109     23  2.200                                                                 
     0      8.2520465     23  2.200                                                                 
     1     -2.7211652     23  2.200                                                                 
     1     21.7055443     23  2.200                                                                 
     3      2.7211652     23  2.300                                                                 
  local pseudopotential read in
  partial core-charges read in
  partial kinetic energy density read in
  atomic valenz-charges read in
  non local Contribution for L=           2  read in
    real space projection operators read in
  non local Contribution for L=           2  read in
    real space projection operators read in
  non local Contribution for L=           0  read in
    real space projection operators read in
  non local Contribution for L=           0  read in
    real space projection operators read in
  non local Contribution for L=           1  read in
    real space projection operators read in
  non local Contribution for L=           1  read in
    real space projection operators read in
    PAW grid and wavefunctions read in
 
   number of l-projection  operators is LMAX  =           6
   number of lm-projection operators is LMMAX =          18
 
 POTCAR:    PAW_PBE H 15Jun2001                   
   SHA256 =  030f79b5d3ab3cf0e668861823c8fb652ff669f3e15e46930bd03bfd63a607b6 H/POTCAR              
   COPYR  = (c) Copyright 15Jun2001 Georg Kresse                                                    
   COPYR  = This file is part of the software VASP. Any use, copying, and all other rights are regul
   COPYR  = If you do not have a valid VASP license, you may not use, copy or distribute this file. 
   VRHFIN =H: ultrasoft test                                                                        
   LEXCH  = PE                                                                                      
   EATOM  =    12.4884 eV,    0.9179 Ry                                                             
                                                                                                    
   TITEL  = PAW_PBE H 15Jun2001                                                                     
   LULTRA =        F    use ultrasoft PP ?                                                          
   IUNSCR =        0    unscreen: 0-lin 1-nonlin 2-no                                               
   RPACOR =    0.000    partial core radius                                                         
   POMASS =    1.000; ZVAL   =    1.000    mass and valenz                                          
   RCORE  =    1.100    outmost cutoff radius                                                       
   RWIGS  =    0.700; RWIGS  =    0.370    wigner-seitz radius (au A)                               
   ENMAX  =  250.000; ENMIN  =  200.000 eV                                                          
   RCLOC  =    0.701    cutoff for local pot                                                        
   LCOR   =        T    correct aug charges                                                         
   LPAW   =        T    paw PP                                                                      
   EAUG   =  400.000                                                                                
   RMAX   =    1.123    core radius for proj-oper                                                   
   RAUG   =    1.200    factor for augmentation sphere                                              
   RDEP   =    1.112    radius for radial grids                                                     
   RDEPT  =    0.926    core radius for aug-charge                                                  
                                                                                                    
   Atomic configuration                                                                             
    2 entries                                                                                       
     n  l   j            E        occ.                                                              
     1  0  0.50        -6.4927   1.0000                                                             
     2  1  0.50        -3.4015   0.0000                                                             
   Description                                                                                      
     l       E           TYP  RCUT    TYP  RCUT                                                     
     0     -6.4927494     23  1.100                                                                 
     0      6.8029130     23  1.100                                                                 
     1     -4.0817478     23  1.100                                                                 
  local pseudopotential read in
  atomic valenz-charges read in
  non local Contribution for L=           0  read in
    real space projection operators read in
  non local Contribution for L=           0  read in
    real space projection operators read in
  non local Contribution for L=           1  read in
    real space projection operators read in
    PAW grid and wavefunctions read in
 
   number of l-projection  operators is LMAX  =           3
   number of lm-projection operators is LMMAX =           5
 
  PAW_PBE Cu 22Jun2005                  :
 energy of atom  1       EATOM=-1390.9808
 kinetic energy error for atom=    0.0232 (will be added to EATOM!!)
  PAW_PBE H 15Jun2001                   :
 energy of atom  2       EATOM=  -12.4884
 kinetic energy error for atom=    0.0098 (will be added to EATOM!!)
 
 
 POSCAR: FCC Cu
  positions in cartesian coordinates
  No initial velocities read in
 exchange correlation table for  LEXCH =        8
   RHO(1)=    0.500       N(1)  =     2000
   RHO(2)=  100.500       N(2)  =     4000

 VTST: version 4.2, (08/11/21)

 CHAIN: initializing optimizer
 
 OPT: Using VASP Conjugate-Gradient optimizer
 CHAIN: Read ICHAIN            0
 
 POSCAR: FCC Cu
  positions in cartesian coordinates
  No initial velocities read in
 


--------------------------------------------------------------------------------------------------------


 ion  position               nearest neighbor table
   1  0.000  0.000  0.000-   3 2.51   2 2.57   2 2.57   2 2.57   2 2.57
   2  0.500  0.500  0.054-   4 2.50   3 2.54   3 2.54   3 2.54   3 2.54   1 2.57   1 2.57   1 2.57
                             1 2.57
   3  0.000  0.000  0.105-   1 2.51   2 2.54   2 2.54   2 2.54   2 2.54   5 2.54   4 2.56   4 2.56
                             4 2.56   4 2.56
   4  0.500  0.500  0.158-   2 2.50   6 2.52   5 2.56   5 2.56   5 2.56   5 2.56   3 2.56   3 2.56
                             3 2.56   3 2.56
   5  0.000  0.000  0.211-   3 2.54   6 2.55   6 2.55   6 2.55   6 2.55   7 2.55   4 2.56   4 2.56
                             4 2.56   4 2.56
   6  0.500  0.500  0.263-   8 2.44   4 2.52   5 2.55   5 2.55   5 2.55   5 2.55   7 2.58   7 2.58
                             7 2.58   7 2.58
   7  0.000  0.000  0.317-   8 2.50   8 2.50   8 2.50   8 2.50   5 2.55   6 2.58   6 2.58   6 2.58
                             6 2.58
   8  0.500  0.500  0.365-   6 2.44   7 2.50   7 2.50   7 2.50   7 2.50
   9  1.000  0.000  0.427-  10 0.75
  10  1.000  0.206  0.449-   9 0.75
 
  LATTYP: Found a simple orthorhombic cell.
 ALAT       =     2.5667977333
 B/A-ratio  =     1.4142135422
 C/A-ratio  =     9.3438571494
  
  Lattice vectors:
  
 A1 = (   0.0000000000,  -2.5667977333,   0.0000000000)
 A2 = (   3.6300001144,   0.0000000000,   0.0000000000)
 A3 = (   0.0000000000,   0.0000000000,  23.9837913513)


Analysis of symmetry for initial positions (statically):
=====================================================================
 Subroutine PRICEL returns:
 Original cell was already a primitive cell.
 

 Routine SETGRP: Setting up the symmetry group for a 
 simple orthorhombic supercell.


 Subroutine GETGRP returns: Found  2 space group operations
 (whereof  2 operations were pure point group operations)
 out of a pool of  8 trial point group operations.


The static configuration has the point symmetry C_1h.


Analysis of symmetry for dynamics (positions and initial velocities):
=====================================================================
 Subroutine PRICEL returns:
 Original cell was already a primitive cell.
 

 Routine SETGRP: Setting up the symmetry group for a 
 simple orthorhombic supercell.


 Subroutine GETGRP returns: Found  2 space group operations
 (whereof  2 operations were pure point group operations)
 out of a pool of  8 trial point group operations.


The dynamic configuration has the point symmetry C_1h.


Analysis of structural, dynamic, and magnetic symmetry:
=====================================================================
 Subroutine PRICEL returns:
 Original cell was already a primitive cell.
 

 Routine SETGRP: Setting up the symmetry group for a 
 simple orthorhombic supercell.


 Subroutine GETGRP returns: Found  2 space group operations
 (whereof  2 operations were pure point group operations)
 out of a pool of  8 trial point group operations.


The overall configuration has the point symmetry C_1h.


 Subroutine INISYM returns: Found  2 space group operations
 (whereof  2 operations are pure point group operations),
 and found     1 'primitive' translations


----------------------------------------------------------------------------------------

                                     Primitive cell                                     

  volume of cell :     223.4684

  direct lattice vectors                    reciprocal lattice vectors
     3.630000114  0.000000000  0.000000000     0.275482085  0.000000000  0.000000000
     0.000000000  2.566797733  0.000000000     0.000000000  0.389590495  0.000000000
     0.000000000  0.000000000 23.983791351     0.000000000  0.000000000  0.041694826

  length of vectors
     3.630000114  2.566797733 23.983791351     0.275482085  0.389590495  0.041694826

  position of ions in fractional coordinates (direct lattice)
     0.000000000  0.000000000  0.000000000
     0.500000000  0.500000000  0.053511090
     0.000000000  0.000000000  0.104681476
     0.500000000  0.500000000  0.157929955
     0.000000000  0.000000000  0.210708991
     0.500000000  0.500000000  0.262890478
     0.000000000  0.000000000  0.317115916
     0.500000000  0.500000000  0.364675901
     1.000000000  0.000000000  0.426907920
     1.000000000  0.205509633  0.448902010

  ion indices of the primitive-cell ions
   primitive index   ion index
                 1           1
                 2           2
                 3           3
                 4           4
                 5           5
                 6           6
                 7           7
                 8           8
                 9           9
                10          10

----------------------------------------------------------------------------------------

 
 
 KPOINTS: Auto-mesh                               

Automatic generation of k-mesh.
 Grid dimensions read from file:
 generate k-points for:    3    3    1

 Generating k-lattice:

  Cartesian coordinates                     Fractional coordinates (reciprocal lattice)
     0.091827362  0.000000000  0.000000000     0.333333333  0.000000000  0.000000000
     0.000000000  0.129863498  0.000000000     0.000000000  0.333333333  0.000000000
     0.000000000  0.000000000  0.041694826     0.000000000  0.000000000  1.000000000

  Length of vectors
     0.091827362  0.129863498  0.041694826

  Shift w.r.t. Gamma in fractional coordinates (k-lattice)
     0.000000000  0.000000000  0.000000000

 
 Subroutine IBZKPT returns following result:
 ===========================================
 
 Found      4 irreducible k-points:
 
 Following reciprocal coordinates:
            Coordinates               Weight
  0.000000  0.000000  0.000000      1.000000
  0.333333  0.000000  0.000000      2.000000
  0.000000  0.333333  0.000000      2.000000
  0.333333  0.333333  0.000000      4.000000
 
 Following cartesian coordinates:
            Coordinates               Weight
  0.000000  0.000000  0.000000      1.000000
  0.091827  0.000000  0.000000      2.000000
  0.000000  0.129863  0.000000      2.000000
  0.091827  0.129863  0.000000      4.000000
 


--------------------------------------------------------------------------------------------------------




 Dimension of arrays:
   k-points           NKPTS =      4   k-points in BZ     NKDIM =      4   number of bands    NBANDS=     60
   number of dos      NEDOS =    301   number of ions     NIONS =     10
   non local maximal  LDIM  =      6   non local SUM 2l+1 LMDIM =     18
   total plane-waves  NPLWV =  30240
   max r-space proj   IRMAX =      1   max aug-charges    IRDMAX=   4119
   dimension x,y,z NGX =    18 NGY =   14 NGZ =  120
   dimension x,y,z NGXF=    36 NGYF=   28 NGZF=  240
   support grid    NGXF=    36 NGYF=   28 NGZF=  240
   ions per type =               8   2
   NGX,Y,Z   is equivalent  to a cutoff of   8.24,  9.07,  8.32 a.u.
   NGXF,Y,Z  is equivalent  to a cutoff of  16.49, 18.13, 16.64 a.u.

 SYSTEM =  unknown system                          
 POSCAR =  FCC Cu                                  

 Startparameter for this run:
   NWRITE =      2    write-flag & timer
   PREC   = normal    normal or accurate (medium, high low for compatibility)
   ISTART =      0    job   : 0-new  1-cont  2-samecut
   ICHARG =      2    charge: 1-file 2-atom 10-const
   ISPIN  =      2    spin polarized calculation?
   LNONCOLLINEAR =      F non collinear calculations
   LSORBIT =      F    spin-orbit coupling
   INIWAV =      1    electr: 0-lowe 1-rand  2-diag
   LASPH  =      F    aspherical Exc in radial PAW
 Electronic Relaxation 1
   ENCUT  =  400.0 eV  29.40 Ry    5.42 a.u.   5.92  4.19 39.11*2*pi/ulx,y,z
   ENINI  =  400.0     initial cutoff
   ENAUG  =  587.0 eV  augmentation charge cutoff
   NELM   =     60;   NELMIN=  2; NELMDL= -5     # of ELM steps 
   EDIFF  = 0.2E-03   stopping-criterion for ELM
   LREAL  =      F    real-space projection
   NLSPLINE    = F    spline interpolate recip. space projectors
   LCOMPAT=      F    compatible to vasp.4.4
   GGA_COMPAT  = T    GGA compatible to vasp.4.4-vasp.4.6
   LMAXPAW     = -100 max onsite density
   LMAXMIX     =    2 max onsite mixed and CHGCAR
   VOSKOWN=      0    Vosko Wilk Nusair interpolation
   ROPT   =    0.00000   0.00000
 Ionic relaxation
   EDIFFG = -.3E-01   stopping-criterion for IOM
   NSW    =    800    number of steps for IOM
   NBLOCK =      1;   KBLOCK =    800    inner block; outer block 
   IBRION =      2    ionic relax: 0-MD 1-quasi-New 2-CG
   NFREE  =      1    steps in history (QN), initial steepest desc. (CG)
   ISIF   =      2    stress and relaxation
   IWAVPR =     11    prediction:  0-non 1-charg 2-wave 3-comb
   ISYM   =      1    0-nonsym 1-usesym 2-fastsym
   LCORR  =      T    Harris-Foulkes like correction to forces

   POTIM  = 0.5000    time-step for ionic-motion
   TEIN   =    0.0    initial temperature
   TEBEG  =    0.0;   TEEND  =   0.0 temperature during run
   SMASS  =  -3.00    Nose mass-parameter (am)
   estimated Nose-frequenzy (Omega)   =  0.10E-29 period in steps = 0.13E+47 mass=  -0.301E-27a.u.
   SCALEE = 1.0000    scale energy and forces
   NPACO  =    256;   APACO  = 10.0  distance and # of slots for P.C.
   PSTRESS=    0.0 pullay stress

  Mass of Ions in am
   POMASS =  63.55  1.00
  Ionic Valenz
   ZVAL   =  11.00  1.00
  Atomic Wigner-Seitz radii
   RWIGS  =  -1.00 -1.00
  virtual crystal weights 
   VCA    =   1.00  1.00
   NELECT =      90.0000    total number of electrons
   NUPDOWN=      -1.0000    fix difference up-down

 DOS related values:
   EMIN   =  10.00;   EMAX   =-10.00  energy-range for DOS
   EFERMI =   0.00
   ISMEAR =     1;   SIGMA  =   0.20  broadening in eV -4-tet -1-fermi 0-gaus

 Electronic relaxation 2 (details)
   IALGO  =     38    algorithm
   LDIAG  =      T    sub-space diagonalisation (order eigenvalues)
   LSUBROT=      F    optimize rotation matrix (better conditioning)
   TURBO    =      0    0=normal 1=particle mesh
   IRESTART =      0    0=no restart 2=restart with 2 vectors
   NREBOOT  =      0    no. of reboots
   NMIN     =      0    reboot dimension
   EREF     =   0.00    reference energy to select bands
   IMIX   =      4    mixing-type and parameters
     AMIX     =   0.40;   BMIX     =  1.00
     AMIX_MAG =   1.60;   BMIX_MAG =  1.00
     AMIN     =   0.10
     WC   =   100.;   INIMIX=   1;  MIXPRE=   1;  MAXMIX= -45

 Intra band minimization:
   WEIMIN = 0.0010     energy-eigenvalue tresh-hold
   EBREAK =  0.83E-06  absolut break condition
   DEPER  =   0.30     relativ break condition  

   TIME   =   0.40     timestep for ELM

  volume/ion in A,a.u.               =      22.35       150.80
  Fermi-wavevector in a.u.,A,eV,Ry     =   1.208974  2.284630 19.886522  1.461618
  Thomas-Fermi vector in A             =   2.344566
 
 Write flags
   LWAVE        =      F    write WAVECAR
   LDOWNSAMPLE  =      F    k-point downsampling of WAVECAR
   LCHARG       =      F    write CHGCAR
   LVTOT        =      F    write LOCPOT, total local potential
   LVHAR        =      F    write LOCPOT, Hartree potential only
   LELF         =      F    write electronic localiz. function (ELF)
   LORBIT       =      0    0 simple, 1 ext, 2 COOP (PROOUT), +10 PAW based schemes


 Dipole corrections
   LMONO  =      F    monopole corrections only (constant potential shift)
   LDIPOL =      F    correct potential (dipole corrections)
   IDIPOL =      0    1-x, 2-y, 3-z, 4-all directions 
   EPSILON=  1.0000000 bulk dielectric constant

 Exchange correlation treatment:
   GGA     =    PE    GGA type
   LEXCH   =     8    internal setting for exchange type
   LIBXC   =     F    Libxc                    
   VOSKOWN =     0    Vosko Wilk Nusair interpolation
   LHFCALC =     F    Hartree Fock is set to
   LHFONE  =     F    Hartree Fock one center treatment
   AEXX    =    0.0000 exact exchange contribution

 Linear response parameters
   LEPSILON=     F    determine dielectric tensor
   LRPA    =     F    only Hartree local field effects (RPA)
   LNABLA  =     F    use nabla operator in PAW spheres
   LVEL    =     F    velocity operator in full k-point grid
   CSHIFT  =0.1000    complex shift for real part using Kramers Kronig
   OMEGAMAX=  -1.0    maximum frequency
   DEG_THRESHOLD= 0.2000000E-02 threshold for treating states as degnerate
   RTIME   =   -0.100 relaxation time in fs
  (WPLASMAI=    0.000 imaginary part of plasma frequency in eV, 0.658/RTIME)
   DFIELD  = 0.0000000 0.0000000 0.0000000 field for delta impulse in time
 
  Optional k-point grid parameters
   LKPOINTS_OPT  =     F    use optional k-point grid
   KPOINTS_OPT_MODE=     1    mode for optional k-point grid
 
 Orbital magnetization related:
   ORBITALMAG=     F  switch on orbital magnetization
   LCHIMAG   =     F  perturbation theory with respect to B field
   DQ        =  0.001000  dq finite difference perturbation B field
   LLRAUG    =     F  two centre corrections for induced B field



--------------------------------------------------------------------------------------------------------


 conjugate gradient relaxation of ions
 charge density and potential will be updated during run
 spin polarized calculation
 Variant of blocked Davidson
 Davidson routine will perform the subspace rotation
 perform sub-space diagonalisation
    after iterative eigenvector-optimisation
 modified Broyden-mixing scheme, WC =      100.0
 initial mixing is a Kerker type mixing with AMIX =  0.4000 and BMIX =      1.0000
 Hartree-type preconditioning will be used
 using additional bands           15
 reciprocal scheme for non local part
 use partial core corrections
 calculate Harris-corrections to forces 
   (improved forces if not selfconsistent)
 use gradient corrections 
 use of overlap-Matrix (Vanderbilt PP)
 Methfessel and Paxton  Order N= 1 SIGMA  =   0.20


--------------------------------------------------------------------------------------------------------


  energy-cutoff  :      400.00
  volume of cell :      223.47
      direct lattice vectors                 reciprocal lattice vectors
     3.630000114  0.000000000  0.000000000     0.275482085  0.000000000  0.000000000
     0.000000000  2.566797733  0.000000000     0.000000000  0.389590495  0.000000000
     0.000000000  0.000000000 23.983791351     0.000000000  0.000000000  0.041694826

  length of vectors
     3.630000114  2.566797733 23.983791351     0.275482085  0.389590495  0.041694826


 
 k-points in units of 2pi/SCALE and weight: Auto-mesh                               
   0.00000000  0.00000000  0.00000000       0.111
   0.09182736  0.00000000  0.00000000       0.222
   0.00000000  0.12986350  0.00000000       0.222
   0.09182736  0.12986350  0.00000000       0.444
 
 k-points in reciprocal lattice and weights: Auto-mesh                               
   0.00000000  0.00000000  0.00000000       0.111
   0.33333333  0.00000000  0.00000000       0.222
   0.00000000  0.33333333  0.00000000       0.222
   0.33333333  0.33333333  0.00000000       0.444
 
 position of ions in fractional coordinates (direct lattice) 
   0.00000000  0.00000000  0.00000000
   0.50000000  0.50000000  0.05351109
   0.00000000  0.00000000  0.10468148
   0.50000000  0.50000000  0.15792996
   0.00000000  0.00000000  0.21070899
   0.50000000  0.50000000  0.26289048
   0.00000000  0.00000000  0.31711592
   0.50000000  0.50000000  0.36467590
   1.00000000  0.00000000  0.42690792
   1.00000000  0.20550963  0.44890201
 
 position of ions in cartesian coordinates  (Angst):
   0.00000000  0.00000000  0.00000000
   1.81500006  1.28339887  1.28339883
   0.00000000  0.00000000  2.51065868
   1.81500006  1.28339887  3.78775910
   0.00000000  0.00000000  5.05360047
   1.81500006  1.28339887  6.30511038
   0.00000000  0.00000000  7.60564196
   1.81500006  1.28339887  8.74631073
   3.63000011  0.00000000 10.23887049
   3.63000011  0.52750166 10.76637215
 


--------------------------------------------------------------------------------------------------------


 k-point   1 :   0.0000 0.0000 0.0000  plane waves:    4037
 k-point   2 :   0.3333 0.0000 0.0000  plane waves:    4064
 k-point   3 :   0.0000 0.3333 0.0000  plane waves:    4032
 k-point   4 :   0.3333 0.3333 0.0000  plane waves:    4072

 maximum and minimum number of plane-waves per node :       827      778

 maximum number of plane-waves:      4072
 maximum index in each direction: 
   IXMAX=    5   IYMAX=    4   IZMAX=   39
   IXMIN=   -6   IYMIN=   -4   IZMIN=  -39


 parallel 3D FFT for wavefunctions:
    minimum data exchange during FFTs selected (reduces bandwidth)
 parallel 3D FFT for charge:
    minimum data exchange during FFTs selected (reduces bandwidth)


 total amount of memory used by VASP MPI-rank0    35069. kBytes
=======================================================================

   base      :      30000. kBytes
   nonl-proj :       1086. kBytes
   fftplans  :        642. kBytes
   grid      :       1621. kBytes
   one-center:         62. kBytes
   wavefun   :       1658. kBytes
 
     INWAV:  cpu time      0.0000: real time      0.0005
 Broyden mixing: mesh for mixing (old mesh)
   NGX = 11   NGY =  9   NGZ = 79
  (NGX  = 36   NGY  = 28   NGZ  =240)
  gives a total of   7821 points

 initial charge density was supplied:
 charge density of overlapping atoms calculated
 number of electron      90.0000000 magnetization      10.0000000
 keeping initial charge density in first step


--------------------------------------------------------------------------------------------------------


 Maximum index for augmentation-charges          309 (set IRDMAX)


--------------------------------------------------------------------------------------------------------


 First call to EWALD:  gamma=   0.292
 Maximum number of real-space cells 4x 6x 1
 Maximum number of reciprocal cells 2x 1x 9

    FEWALD:  cpu time      0.0018: real time      0.0019


--------------------------------------- Iteration      1(   1)  ---------------------------------------


    POTLOK:  cpu time      0.0210: real time      0.0213
    SETDIJ:  cpu time      0.0066: real time      0.0066
     EDDAV:  cpu time      0.3172: real time      0.3197
       DOS:  cpu time      0.0017: real time      0.0017
    --------------------------------------------
      LOOP:  cpu time      0.3465: real time      0.3493

 eigenvalue-minimisations  :   960
 total energy-change (2. order) : 0.7712644E+03  (-0.3321930E+04)
 number of electron      90.0000000 magnetization      10.0000000
 augmentation part       90.0000000 magnetization      10.0000000

 Free energy of the ion-electron system (eV)
  ---------------------------------------------------
  alpha Z        PSCENC =       216.17040255
  Ewald energy   TEWEN  =     42281.88809044
  -Hartree energ DENC   =    -53105.66993209
  -exchange      EXHF   =         0.00000000
  -V(xc)+E(xc)   XCENC  =       371.25292492
  PAW double counting   =      9828.36862813   -10674.97285505
  entropy T*S    EENTRO =        -0.00327039
  eigenvalues    EBANDS =       701.61198790
  atomic energy  EATOM  =     11152.61838693
  Solvation  Ediel_sol  =         0.00000000
  ---------------------------------------------------
  free energy    TOTEN  =       771.26436332 eV

  energy without entropy =      771.26763371  energy(sigma->0) =      771.26545345


--------------------------------------------------------------------------------------------------------




--------------------------------------- Iteration      1(   2)  ---------------------------------------


     EDDAV:  cpu time      0.3051: real time      0.3082
       DOS:  cpu time      0.0009: real time      0.0009
    --------------------------------------------
      LOOP:  cpu time      0.3060: real time      0.3091

 eigenvalue-minimisations  :   960
 total energy-change (2. order) :-0.7128542E+03  (-0.6851869E+03)
 number of electron      90.0000000 magnetization      10.0000000
 augmentation part       90.0000000 magnetization      10.0000000

 Free energy of the ion-electron system (eV)
  ---------------------------------------------------
  alpha Z        PSCENC =       216.17040255
  Ewald energy   TEWEN  =     42281.88809044
  -Hartree energ DENC   =    -53105.66993209
  -exchange      EXHF   =         0.00000000
  -V(xc)+E(xc)   XCENC  =       371.25292492
  PAW double counting   =      9828.36862813   -10674.97285505
  entropy T*S    EENTRO =        -0.02193295
  eigenvalues    EBANDS =       -11.22356934
  atomic energy  EATOM  =     11152.61838693
  Solvation  Ediel_sol  =         0.00000000
  ---------------------------------------------------
  free energy    TOTEN  =        58.41014353 eV

  energy without entropy =       58.43207648  energy(sigma->0) =       58.41745451


--------------------------------------------------------------------------------------------------------




--------------------------------------- Iteration      1(   3)  ---------------------------------------


     EDDAV:  cpu time      0.3148: real time      0.3177
       DOS:  cpu time      0.0009: real time      0.0009
    --------------------------------------------
      LOOP:  cpu time      0.3157: real time      0.3186

 eigenvalue-minimisations  :  1000
 total energy-change (2. order) :-0.8914153E+02  (-0.8276936E+02)
 number of electron      90.0000000 magnetization      10.0000000
 augmentation part       90.0000000 magnetization      10.0000000

 Free energy of the ion-electron system (eV)
  ---------------------------------------------------
  alpha Z        PSCENC =       216.17040255
  Ewald energy   TEWEN  =     42281.88809044
  -Hartree energ DENC   =    -53105.66993209
  -exchange      EXHF   =         0.00000000
  -V(xc)+E(xc)   XCENC  =       371.25292492
  PAW double counting   =      9828.36862813   -10674.97285505
  entropy T*S    EENTRO =         0.00329493
  eigenvalues    EBANDS =      -100.39032996
  atomic energy  EATOM  =     11152.61838693
  Solvation  Ediel_sol  =         0.00000000
  ---------------------------------------------------
  free energy    TOTEN  =       -30.73138921 eV

  energy without entropy =      -30.73468414  energy(sigma->0) =      -30.73248752


--------------------------------------------------------------------------------------------------------




--------------------------------------- Iteration      1(   4)  ---------------------------------------


     EDDAV:  cpu time      0.3488: real time      0.3516
       DOS:  cpu time      0.0009: real time      0.0009
    --------------------------------------------
      LOOP:  cpu time      0.3497: real time      0.3525

 eigenvalue-minimisations  :  1096
 total energy-change (2. order) :-0.3715114E+01  (-0.3687062E+01)
 number of electron      90.0000000 magnetization      10.0000000
 augmentation part       90.0000000 magnetization      10.0000000

 Free energy of the ion-electron system (eV)
  ---------------------------------------------------
  alpha Z        PSCENC =       216.17040255
  Ewald energy   TEWEN  =     42281.88809044
  -Hartree energ DENC   =    -53105.66993209
  -exchange      EXHF   =         0.00000000
  -V(xc)+E(xc)   XCENC  =       371.25292492
  PAW double counting   =      9828.36862813   -10674.97285505
  entropy T*S    EENTRO =         0.00057438
  eigenvalues    EBANDS =      -104.10272356
  atomic energy  EATOM  =     11152.61838693
  Solvation  Ediel_sol  =         0.00000000
  ---------------------------------------------------
  free energy    TOTEN  =       -34.44650337 eV

  energy without entropy =      -34.44707775  energy(sigma->0) =      -34.44669483


--------------------------------------------------------------------------------------------------------




--------------------------------------- Iteration      1(   5)  ---------------------------------------


     EDDAV:  cpu time      0.3444: real time      0.3474
       DOS:  cpu time      0.0010: real time      0.0010
    CHARGE:  cpu time      0.0547: real time      0.0549
    MIXING:  cpu time      0.0006: real time      0.0006
    --------------------------------------------
      LOOP:  cpu time      0.4006: real time      0.4038

 eigenvalue-minimisations  :  1136
 total energy-change (2. order) :-0.8473004E-01  (-0.8466514E-01)
 number of electron      90.0000818 magnetization       9.1043032
 augmentation part       52.3192994 magnetization       8.7633026

 Broyden mixing:
  rms(total) = 0.26918E+01    rms(broyden)= 0.26916E+01
  rms(prec ) = 0.27729E+01
  weight for this iteration     100.00

 Free energy of the ion-electron system (eV)
  ---------------------------------------------------
  alpha Z        PSCENC =       216.17040255
  Ewald energy   TEWEN  =     42281.88809044
  -Hartree energ DENC   =    -53105.66993209
  -exchange      EXHF   =         0.00000000
  -V(xc)+E(xc)   XCENC  =       371.25292492
  PAW double counting   =      9828.36862813   -10674.97285505
  entropy T*S    EENTRO =         0.00053258
  eigenvalues    EBANDS =      -104.18741181
  atomic energy  EATOM  =     11152.61838693
  Solvation  Ediel_sol  =         0.00000000
  ---------------------------------------------------
  free energy    TOTEN  =       -34.53123341 eV

  energy without entropy =      -34.53176599  energy(sigma->0) =      -34.53141094


--------------------------------------------------------------------------------------------------------




--------------------------------------- Iteration      1(   6)  ---------------------------------------


    POTLOK:  cpu time      0.0192: real time      0.0195
    SETDIJ:  cpu time      0.0059: real time      0.0059
     EDDAV:  cpu time      0.3300: real time      0.3329
       DOS:  cpu time      0.0010: real time      0.0010
    CHARGE:  cpu time      0.0536: real time      0.0538
    MIXING:  cpu time      0.0007: real time      0.0007
    --------------------------------------------
      LOOP:  cpu time      0.4104: real time      0.4139

 eigenvalue-minimisations  :  1076
 total energy-change (2. order) : 0.4798736E+01  (-0.9021825E+01)
 number of electron      90.0000909 magnetization       8.5325054
 augmentation part       58.4712934 magnetization       6.4728848

 Broyden mixing:
  rms(total) = 0.13340E+01    rms(broyden)= 0.13337E+01
  rms(prec ) = 0.14089E+01
  weight for this iteration     100.00

 eigenvalues of (default mixing * dielectric matrix)
  average eigenvalue GAMMA=   0.8052
  0.8052

 Free energy of the ion-electron system (eV)
  ---------------------------------------------------
  alpha Z        PSCENC =       216.17040255
  Ewald energy   TEWEN  =     42281.88809044
  -Hartree energ DENC   =    -52920.06272248
  -exchange      EXHF   =         0.00000000
  -V(xc)+E(xc)   XCENC  =       364.63016789
  PAW double counting   =      9981.42435650   -10787.08729016
  entropy T*S    EENTRO =        -0.01201423
  eigenvalues    EBANDS =      -319.30187496
  atomic energy  EATOM  =     11152.61838693
  Solvation  Ediel_sol  =         0.00000000
  ---------------------------------------------------
  free energy    TOTEN  =       -29.73249753 eV

  energy without entropy =      -29.72048330  energy(sigma->0) =      -29.72849279


--------------------------------------------------------------------------------------------------------




--------------------------------------- Iteration      1(   7)  ---------------------------------------


    POTLOK:  cpu time      0.0181: real time      0.0184
    SETDIJ:  cpu time      0.0056: real time      0.0056
     EDDAV:  cpu time      0.3537: real time      0.3565
       DOS:  cpu time      0.0009: real time      0.0009
    CHARGE:  cpu time      0.0484: real time      0.0486
    MIXING:  cpu time      0.0007: real time      0.0007
    --------------------------------------------
      LOOP:  cpu time      0.4274: real time      0.4307

 eigenvalue-minimisations  :  1180
 total energy-change (2. order) : 0.2355927E+01  (-0.2399398E+01)
 number of electron      90.0000882 magnetization       8.1221652
 augmentation part       56.4415042 magnetization       6.1370006

 Broyden mixing:
  rms(total) = 0.86584E+00    rms(broyden)= 0.86569E+00
  rms(prec ) = 0.95118E+00
  weight for this iteration     100.00

 eigenvalues of (default mixing * dielectric matrix)
  average eigenvalue GAMMA=   0.7528
  0.9282  0.5773

 Free energy of the ion-electron system (eV)
  ---------------------------------------------------
  alpha Z        PSCENC =       216.17040255
  Ewald energy   TEWEN  =     42281.88809044
  -Hartree energ DENC   =    -53026.09972788
  -exchange      EXHF   =         0.00000000
  -V(xc)+E(xc)   XCENC  =       368.31153221
  PAW double counting   =     10194.19155415   -11037.74826913
  entropy T*S    EENTRO =        -0.02419646
  eigenvalues    EBANDS =      -176.68434324
  atomic energy  EATOM  =     11152.61838693
  Solvation  Ediel_sol  =         0.00000000
  ---------------------------------------------------
  free energy    TOTEN  =       -27.37657043 eV

  energy without entropy =      -27.35237397  energy(sigma->0) =      -27.36850494


--------------------------------------------------------------------------------------------------------




--------------------------------------- Iteration      1(   8)  ---------------------------------------


    POTLOK:  cpu time      0.0182: real time      0.0184
    SETDIJ:  cpu time      0.0057: real time      0.0057
     EDDAV:  cpu time      0.3727: real time      0.3759
       DOS:  cpu time      0.0009: real time      0.0009
    CHARGE:  cpu time      0.0513: real time      0.0515
    MIXING:  cpu time      0.0007: real time      0.0007
    --------------------------------------------
      LOOP:  cpu time      0.4495: real time      0.4532

 eigenvalue-minimisations  :  1264
 total energy-change (2. order) : 0.3974846E+00  (-0.9901335E+00)
 number of electron      90.0000875 magnetization       7.3831526
 augmentation part       56.1210807 magnetization       5.2453894

 Broyden mixing:
  rms(total) = 0.74060E+00    rms(broyden)= 0.74047E+00
  rms(prec ) = 0.82042E+00
  weight for this iteration     100.00

 eigenvalues of (default mixing * dielectric matrix)
  average eigenvalue GAMMA=   0.7050
  1.1044  0.6649  0.3456

 Free energy of the ion-electron system (eV)
  ---------------------------------------------------
  alpha Z        PSCENC =       216.17040255
  Ewald energy   TEWEN  =     42281.88809044
  -Hartree energ DENC   =    -53024.71800141
  -exchange      EXHF   =         0.00000000
  -V(xc)+E(xc)   XCENC  =       368.60326638
  PAW double counting   =     10275.11206316   -11125.77839990
  entropy T*S    EENTRO =        -0.00845157
  eigenvalues    EBANDS =      -170.86644243
  atomic energy  EATOM  =     11152.61838693
  Solvation  Ediel_sol  =         0.00000000
  ---------------------------------------------------
  free energy    TOTEN  =       -26.97908587 eV

  energy without entropy =      -26.97063430  energy(sigma->0) =      -26.97626868


--------------------------------------------------------------------------------------------------------




--------------------------------------- Iteration      1(   9)  ---------------------------------------


    POTLOK:  cpu time      0.0180: real time      0.0183
    SETDIJ:  cpu time      0.0056: real time      0.0056
     EDDAV:  cpu time      0.4658: real time      0.4696
       DOS:  cpu time      0.0009: real time      0.0009
    CHARGE:  cpu time      0.0502: real time      0.0504
    MIXING:  cpu time      0.0008: real time      0.0008
    --------------------------------------------
      LOOP:  cpu time      0.5413: real time      0.5456

 eigenvalue-minimisations  :  1644
 total energy-change (2. order) : 0.4158230E+00  (-0.5146842E+00)
 number of electron      90.0000874 magnetization       6.4661601
 augmentation part       56.1220495 magnetization       4.5629126

 Broyden mixing:
  rms(total) = 0.62269E+00    rms(broyden)= 0.62263E+00
  rms(prec ) = 0.65250E+00
  weight for this iteration     100.00

 eigenvalues of (default mixing * dielectric matrix)
  average eigenvalue GAMMA=   0.7620
  1.2697  0.7441  0.7441  0.2902

 Free energy of the ion-electron system (eV)
  ---------------------------------------------------
  alpha Z        PSCENC =       216.17040255
  Ewald energy   TEWEN  =     42281.88809044
  -Hartree energ DENC   =    -53022.08685712
  -exchange      EXHF   =         0.00000000
  -V(xc)+E(xc)   XCENC  =       368.41082127
  PAW double counting   =     10398.99325746   -11257.23864038
  entropy T*S    EENTRO =        -0.01923152
  eigenvalues    EBANDS =      -165.29949246
  atomic energy  EATOM  =     11152.61838693
  Solvation  Ediel_sol  =         0.00000000
  ---------------------------------------------------
  free energy    TOTEN  =       -26.56326285 eV

  energy without entropy =      -26.54403132  energy(sigma->0) =      -26.55685234


--------------------------------------------------------------------------------------------------------




--------------------------------------- Iteration      1(  10)  ---------------------------------------


    POTLOK:  cpu time      0.0260: real time      0.0263
    SETDIJ:  cpu time      0.0060: real time      0.0061
     EDDAV:  cpu time      0.4077: real time      0.4112
       DOS:  cpu time      0.0009: real time      0.0009
    CHARGE:  cpu time      0.0529: real time      0.0531
    MIXING:  cpu time      0.0010: real time      0.0010
    --------------------------------------------
      LOOP:  cpu time      0.4945: real time      0.4985

 eigenvalue-minimisations  :  1384
 total energy-change (2. order) :-0.6981831E+00  (-0.1907202E+00)
 number of electron      90.0000875 magnetization       5.1682411
 augmentation part       56.1606118 magnetization       3.3322940

 Broyden mixing:
  rms(total) = 0.52232E+00    rms(broyden)= 0.52231E+00
  rms(prec ) = 0.52600E+00
  weight for this iteration     100.00

 eigenvalues of (default mixing * dielectric matrix)
  average eigenvalue GAMMA=   0.8878
  1.6842  1.2396  0.7244  0.5117  0.2788

 Free energy of the ion-electron system (eV)
  ---------------------------------------------------
  alpha Z        PSCENC =       216.17040255
  Ewald energy   TEWEN  =     42281.88809044
  -Hartree energ DENC   =    -53035.69578120
  -exchange      EXHF   =         0.00000000
  -V(xc)+E(xc)   XCENC  =       367.45754757
  PAW double counting   =     10507.45465987   -11370.12587239
  entropy T*S    EENTRO =        -0.01057816
  eigenvalues    EBANDS =      -147.01830150
  atomic energy  EATOM  =     11152.61838693
  Solvation  Ediel_sol  =         0.00000000
  ---------------------------------------------------
  free energy    TOTEN  =       -27.26144590 eV

  energy without entropy =      -27.25086774  energy(sigma->0) =      -27.25791985


--------------------------------------------------------------------------------------------------------




--------------------------------------- Iteration      1(  11)  ---------------------------------------


    POTLOK:  cpu time      0.0187: real time      0.0190
    SETDIJ:  cpu time      0.0057: real time      0.0057
     EDDAV:  cpu time      0.3735: real time      0.3765
       DOS:  cpu time      0.0009: real time      0.0010
    CHARGE:  cpu time      0.0509: real time      0.0512
    MIXING:  cpu time      0.0009: real time      0.0009
    --------------------------------------------
      LOOP:  cpu time      0.4507: real time      0.4543

 eigenvalue-minimisations  :  1272
 total energy-change (2. order) :-0.1494302E+01  (-0.1104330E+00)
 number of electron      90.0000876 magnetization       3.9288633
 augmentation part       56.3391798 magnetization       2.4016983

 Broyden mixing:
  rms(total) = 0.43629E+00    rms(broyden)= 0.43628E+00
  rms(prec ) = 0.44059E+00
  weight for this iteration     100.00

 eigenvalues of (default mixing * dielectric matrix)
  average eigenvalue GAMMA=   1.0373
  2.8789  1.1607  0.7179  0.7179  0.4706  0.2778

 Free energy of the ion-electron system (eV)
  ---------------------------------------------------
  alpha Z        PSCENC =       216.17040255
  Ewald energy   TEWEN  =     42281.88809044
  -Hartree energ DENC   =    -53040.50749650
  -exchange      EXHF   =         0.00000000
  -V(xc)+E(xc)   XCENC  =       366.18607062
  PAW double counting   =     10588.88898510   -11453.60513401
  entropy T*S    EENTRO =        -0.00924915
  eigenvalues    EBANDS =      -140.38580406
  atomic energy  EATOM  =     11152.61838693
  Solvation  Ediel_sol  =         0.00000000
  ---------------------------------------------------
  free energy    TOTEN  =       -28.75574809 eV

  energy without entropy =      -28.74649894  energy(sigma->0) =      -28.75266504


--------------------------------------------------------------------------------------------------------




--------------------------------------- Iteration      1(  12)  ---------------------------------------


    POTLOK:  cpu time      0.0179: real time      0.0182
    SETDIJ:  cpu time      0.0056: real time      0.0056
     EDDAV:  cpu time      0.3734: real time      0.3766
       DOS:  cpu time      0.0009: real time      0.0009
    CHARGE:  cpu time      0.0511: real time      0.0514
    MIXING:  cpu time      0.0019: real time      0.0019
    --------------------------------------------
      LOOP:  cpu time      0.4509: real time      0.4546

 eigenvalue-minimisations  :  1268
 total energy-change (2. order) :-0.1054194E+01  (-0.6717693E-01)
 number of electron      90.0000875 magnetization       2.0062899
 augmentation part       56.2756951 magnetization       0.6987481

 Broyden mixing:
  rms(total) = 0.34630E+00    rms(broyden)= 0.34629E+00
  rms(prec ) = 0.35335E+00
  weight for this iteration     100.00

 eigenvalues of (default mixing * dielectric matrix)
  average eigenvalue GAMMA=   1.3379
  4.7341  1.5807  0.8577  0.8577  0.2793  0.5677  0.4880

 Free energy of the ion-electron system (eV)
  ---------------------------------------------------
  alpha Z        PSCENC =       216.17040255
  Ewald energy   TEWEN  =     42281.88809044
  -Hartree energ DENC   =    -53055.97205711
  -exchange      EXHF   =         0.00000000
  -V(xc)+E(xc)   XCENC  =       365.64466722
  PAW double counting   =     10624.62020803   -11491.58977408
  entropy T*S    EENTRO =        -0.00866373
  eigenvalues    EBANDS =      -123.18120262
  atomic energy  EATOM  =     11152.61838693
  Solvation  Ediel_sol  =         0.00000000
  ---------------------------------------------------
  free energy    TOTEN  =       -29.80994238 eV

  energy without entropy =      -29.80127864  energy(sigma->0) =      -29.80705447


--------------------------------------------------------------------------------------------------------




--------------------------------------- Iteration      1(  13)  ---------------------------------------


    POTLOK:  cpu time      0.0179: real time      0.0182
    SETDIJ:  cpu time      0.0057: real time      0.0058
     EDDAV:  cpu time      0.3608: real time      0.3635
       DOS:  cpu time      0.0009: real time      0.0009
    CHARGE:  cpu time      0.0508: real time      0.0511
    MIXING:  cpu time      0.0010: real time      0.0011
    --------------------------------------------
      LOOP:  cpu time      0.4372: real time      0.4406

 eigenvalue-minimisations  :  1220
 total energy-change (2. order) :-0.2242293E+01  (-0.1445069E+00)
 number of electron      90.0000873 magnetization       0.9677784
 augmentation part       56.1496140 magnetization      -0.0216842

 Broyden mixing:
  rms(total) = 0.20469E+00    rms(broyden)= 0.20465E+00
  rms(prec ) = 0.22670E+00
  weight for this iteration     100.00

 eigenvalues of (default mixing * dielectric matrix)
  average eigenvalue GAMMA=   1.6786
  7.6082  2.1592  0.8288  0.8288  0.7684  0.2791  0.5145  0.4416

 Free energy of the ion-electron system (eV)
  ---------------------------------------------------
  alpha Z        PSCENC =       216.17040255
  Ewald energy   TEWEN  =     42281.88809044
  -Hartree energ DENC   =    -53062.14382889
  -exchange      EXHF   =         0.00000000
  -V(xc)+E(xc)   XCENC  =       364.39403739
  PAW double counting   =     10585.80789002   -11451.86959427
  entropy T*S    EENTRO =        -0.01317818
  eigenvalues    EBANDS =      -118.90444119
  atomic energy  EATOM  =     11152.61838693
  Solvation  Ediel_sol  =         0.00000000
  ---------------------------------------------------
  free energy    TOTEN  =       -32.05223520 eV

  energy without entropy =      -32.03905702  energy(sigma->0) =      -32.04784247


--------------------------------------------------------------------------------------------------------




--------------------------------------- Iteration      1(  14)  ---------------------------------------


    POTLOK:  cpu time      0.0179: real time      0.0181
    SETDIJ:  cpu time      0.0055: real time      0.0056
     EDDAV:  cpu time      0.3851: real time      0.3885
       DOS:  cpu time      0.0010: real time      0.0010
    CHARGE:  cpu time      0.0516: real time      0.0518
    MIXING:  cpu time      0.0010: real time      0.0011
    --------------------------------------------
      LOOP:  cpu time      0.4621: real time      0.4660

 eigenvalue-minimisations  :  1320
 total energy-change (2. order) :-0.1824465E+01  (-0.2033437E+00)
 number of electron      90.0000873 magnetization       0.5756637
 augmentation part       56.1392562 magnetization       0.0812223

 Broyden mixing:
  rms(total) = 0.10576E+00    rms(broyden)= 0.10569E+00
  rms(prec ) = 0.11497E+00
  weight for this iteration     100.00

 eigenvalues of (default mixing * dielectric matrix)
  average eigenvalue GAMMA=   1.7480
  9.1217  2.2039  1.0124  0.7668  0.7668  0.6716  0.2788  0.4550  0.4550

 Free energy of the ion-electron system (eV)
  ---------------------------------------------------
  alpha Z        PSCENC =       216.17040255
  Ewald energy   TEWEN  =     42281.88809044
  -Hartree energ DENC   =    -53065.52308160
  -exchange      EXHF   =         0.00000000
  -V(xc)+E(xc)   XCENC  =       363.15957451
  PAW double counting   =     10523.91610463   -11386.33109126
  entropy T*S    EENTRO =        -0.00890991
  eigenvalues    EBANDS =      -119.76617618
  atomic energy  EATOM  =     11152.61838693
  Solvation  Ediel_sol  =         0.00000000
  ---------------------------------------------------
  free energy    TOTEN  =       -33.87669988 eV

  energy without entropy =      -33.86778997  energy(sigma->0) =      -33.87372991


--------------------------------------------------------------------------------------------------------




--------------------------------------- Iteration      1(  15)  ---------------------------------------


    POTLOK:  cpu time      0.0180: real time      0.0183
    SETDIJ:  cpu time      0.0055: real time      0.0056
     EDDAV:  cpu time      0.3442: real time      0.3468
       DOS:  cpu time      0.0009: real time      0.0009
    CHARGE:  cpu time      0.0498: real time      0.0500
    MIXING:  cpu time      0.0012: real time      0.0012
    --------------------------------------------
      LOOP:  cpu time      0.4197: real time      0.4228

 eigenvalue-minimisations  :  1140
 total energy-change (2. order) :-0.5417278E+00  (-0.6628652E-01)
 number of electron      90.0000873 magnetization       0.4316294
 augmentation part       56.1915380 magnetization       0.1578432

 Broyden mixing:
  rms(total) = 0.68864E-01    rms(broyden)= 0.68825E-01
  rms(prec ) = 0.77129E-01
  weight for this iteration     100.00

 eigenvalues of (default mixing * dielectric matrix)
  average eigenvalue GAMMA=   1.6988
  9.5914  2.2620  0.8766  0.8766  0.8099  0.8099  0.2789  0.5680  0.4754  0.4389

 Free energy of the ion-electron system (eV)
  ---------------------------------------------------
  alpha Z        PSCENC =       216.17040255
  Ewald energy   TEWEN  =     42281.88809044
  -Hartree energ DENC   =    -53060.75918502
  -exchange      EXHF   =         0.00000000
  -V(xc)+E(xc)   XCENC  =       362.78910543
  PAW double counting   =     10518.27094903   -11380.02043305
  entropy T*S    EENTRO =        -0.00191829
  eigenvalues    EBANDS =      -125.37382569
  atomic energy  EATOM  =     11152.61838693
  Solvation  Ediel_sol  =         0.00000000
  ---------------------------------------------------
  free energy    TOTEN  =       -34.41842768 eV

  energy without entropy =      -34.41650939  energy(sigma->0) =      -34.41778825


--------------------------------------------------------------------------------------------------------




--------------------------------------- Iteration      1(  16)  ---------------------------------------


    POTLOK:  cpu time      0.0179: real time      0.0182
    SETDIJ:  cpu time      0.0056: real time      0.0056
     EDDAV:  cpu time      0.3674: real time      0.3704
       DOS:  cpu time      0.0009: real time      0.0009
    CHARGE:  cpu time      0.0536: real time      0.0539
    MIXING:  cpu time      0.0014: real time      0.0014
    --------------------------------------------
      LOOP:  cpu time      0.4468: real time      0.4503

 eigenvalue-minimisations  :  1192
 total energy-change (2. order) :-0.1849844E+00  (-0.1453324E-01)
 number of electron      90.0000873 magnetization       0.3113776
 augmentation part       56.2065704 magnetization       0.1321053

 Broyden mixing:
  rms(total) = 0.52004E-01    rms(broyden)= 0.51982E-01
  rms(prec ) = 0.56538E-01
  weight for this iteration     100.00

 eigenvalues of (default mixing * dielectric matrix)
  average eigenvalue GAMMA=   1.7361
 10.1880  2.3355  1.2488  1.2488  0.8332  0.8332  0.6973  0.2789  0.5384  0.4577
  0.4371

 Free energy of the ion-electron system (eV)
  ---------------------------------------------------
  alpha Z        PSCENC =       216.17040255
  Ewald energy   TEWEN  =     42281.88809044
  -Hartree energ DENC   =    -53056.59473304
  -exchange      EXHF   =         0.00000000
  -V(xc)+E(xc)   XCENC  =       362.64826984
  PAW double counting   =     10511.94381047   -11373.29348267
  entropy T*S    EENTRO =         0.00125501
  eigenvalues    EBANDS =      -129.98541164
  atomic energy  EATOM  =     11152.61838693
  Solvation  Ediel_sol  =         0.00000000
  ---------------------------------------------------
  free energy    TOTEN  =       -34.60341211 eV

  energy without entropy =      -34.60466712  energy(sigma->0) =      -34.60383045


--------------------------------------------------------------------------------------------------------




--------------------------------------- Iteration      1(  17)  ---------------------------------------


    POTLOK:  cpu time      0.0190: real time      0.0193
    SETDIJ:  cpu time      0.0059: real time      0.0059
     EDDAV:  cpu time      0.3624: real time      0.3655
       DOS:  cpu time      0.0009: real time      0.0009
    CHARGE:  cpu time      0.0516: real time      0.0519
    MIXING:  cpu time      0.0013: real time      0.0013
    --------------------------------------------
      LOOP:  cpu time      0.4411: real time      0.4448

 eigenvalue-minimisations  :  1220
 total energy-change (2. order) :-0.1606440E+00  (-0.1231336E-01)
 number of electron      90.0000872 magnetization       0.2265609
 augmentation part       56.2210490 magnetization       0.1335000

 Broyden mixing:
  rms(total) = 0.40989E-01    rms(broyden)= 0.40970E-01
  rms(prec ) = 0.43208E-01
  weight for this iteration     100.00

 eigenvalues of (default mixing * dielectric matrix)
  average eigenvalue GAMMA=   1.7198
 10.6627  2.1102  2.1102  0.9873  0.9873  0.7338  0.7338  0.7184  0.2789  0.4559
  0.4559  0.4034

 Free energy of the ion-electron system (eV)
  ---------------------------------------------------
  alpha Z        PSCENC =       216.17040255
  Ewald energy   TEWEN  =     42281.88809044
  -Hartree energ DENC   =    -53047.82535411
  -exchange      EXHF   =         0.00000000
  -V(xc)+E(xc)   XCENC  =       362.51658919
  PAW double counting   =     10503.31829812   -11364.32765480
  entropy T*S    EENTRO =         0.00368312
  eigenvalues    EBANDS =      -139.12649754
  atomic energy  EATOM  =     11152.61838693
  Solvation  Ediel_sol  =         0.00000000
  ---------------------------------------------------
  free energy    TOTEN  =       -34.76405610 eV

  energy without entropy =      -34.76773922  energy(sigma->0) =      -34.76528380


--------------------------------------------------------------------------------------------------------




--------------------------------------- Iteration      1(  18)  ---------------------------------------


    POTLOK:  cpu time      0.0180: real time      0.0182
    SETDIJ:  cpu time      0.0056: real time      0.0056
     EDDAV:  cpu time      0.3431: real time      0.3459
       DOS:  cpu time      0.0009: real time      0.0009
    CHARGE:  cpu time      0.0484: real time      0.0486
    MIXING:  cpu time      0.0014: real time      0.0014
    --------------------------------------------
      LOOP:  cpu time      0.4174: real time      0.4207

 eigenvalue-minimisations  :  1144
 total energy-change (2. order) :-0.4978845E-01  (-0.3547708E-02)
 number of electron      90.0000872 magnetization       0.1996979
 augmentation part       56.2040253 magnetization       0.1321629

 Broyden mixing:
  rms(total) = 0.25046E-01    rms(broyden)= 0.25037E-01
  rms(prec ) = 0.27227E-01
  weight for this iteration     100.00

 eigenvalues of (default mixing * dielectric matrix)
  average eigenvalue GAMMA=   1.7208
 10.8235  2.2595  2.2595  1.3639  1.0235  0.8018  0.8018  0.7817  0.6504  0.2789
  0.4674  0.4519  0.4071

 Free energy of the ion-electron system (eV)
  ---------------------------------------------------
  alpha Z        PSCENC =       216.17040255
  Ewald energy   TEWEN  =     42281.88809044
  -Hartree energ DENC   =    -53044.06807494
  -exchange      EXHF   =         0.00000000
  -V(xc)+E(xc)   XCENC  =       362.50245507
  PAW double counting   =     10510.01167297   -11371.74588219
  entropy T*S    EENTRO =         0.00397179
  eigenvalues    EBANDS =      -142.19486717
  atomic energy  EATOM  =     11152.61838693
  Solvation  Ediel_sol  =         0.00000000
  ---------------------------------------------------
  free energy    TOTEN  =       -34.81384455 eV

  energy without entropy =      -34.81781634  energy(sigma->0) =      -34.81516848


--------------------------------------------------------------------------------------------------------




--------------------------------------- Iteration      1(  19)  ---------------------------------------


    POTLOK:  cpu time      0.0178: real time      0.0180
    SETDIJ:  cpu time      0.0056: real time      0.0056
     EDDAV:  cpu time      0.3462: real time      0.3492
       DOS:  cpu time      0.0009: real time      0.0009
    CHARGE:  cpu time      0.0486: real time      0.0488
    MIXING:  cpu time      0.0015: real time      0.0015
    --------------------------------------------
      LOOP:  cpu time      0.4205: real time      0.4241

 eigenvalue-minimisations  :  1156
 total energy-change (2. order) :-0.7352612E-01  (-0.2359499E-02)
 number of electron      90.0000872 magnetization       0.1736689
 augmentation part       56.1945287 magnetization       0.1243877

 Broyden mixing:
  rms(total) = 0.20043E-01    rms(broyden)= 0.20040E-01
  rms(prec ) = 0.21464E-01
  weight for this iteration     100.00

 eigenvalues of (default mixing * dielectric matrix)
  average eigenvalue GAMMA=   1.7108
 10.9569  3.0655  2.1494  1.4976  0.8608  0.8608  0.9019  0.7531  0.7531  0.2789
  0.5344  0.4791  0.4528  0.4064

 Free energy of the ion-electron system (eV)
  ---------------------------------------------------
  alpha Z        PSCENC =       216.17040255
  Ewald energy   TEWEN  =     42281.88809044
  -Hartree energ DENC   =    -53039.49777742
  -exchange      EXHF   =         0.00000000
  -V(xc)+E(xc)   XCENC  =       362.44346001
  PAW double counting   =     10504.61963336   -11366.26124561
  entropy T*S    EENTRO =         0.00344117
  eigenvalues    EBANDS =      -146.87176209
  atomic energy  EATOM  =     11152.61838693
  Solvation  Ediel_sol  =         0.00000000
  ---------------------------------------------------
  free energy    TOTEN  =       -34.88737067 eV

  energy without entropy =      -34.89081184  energy(sigma->0) =      -34.88851772


--------------------------------------------------------------------------------------------------------




--------------------------------------- Iteration      1(  20)  ---------------------------------------


    POTLOK:  cpu time      0.0180: real time      0.0183
    SETDIJ:  cpu time      0.0058: real time      0.0058
     EDDAV:  cpu time      0.3467: real time      0.3494
       DOS:  cpu time      0.0009: real time      0.0009
    CHARGE:  cpu time      0.0484: real time      0.0487
    MIXING:  cpu time      0.0016: real time      0.0016
    --------------------------------------------
      LOOP:  cpu time      0.4215: real time      0.4248

 eigenvalue-minimisations  :  1156
 total energy-change (2. order) :-0.3569307E-01  (-0.6177867E-03)
 number of electron      90.0000872 magnetization       0.1340162
 augmentation part       56.1976513 magnetization       0.0956067

 Broyden mixing:
  rms(total) = 0.15853E-01    rms(broyden)= 0.15851E-01
  rms(prec ) = 0.16812E-01
  weight for this iteration     100.00

 eigenvalues of (default mixing * dielectric matrix)
  average eigenvalue GAMMA=   1.6811
 11.0128  3.2459  2.3671  1.2454  1.2454  0.8783  0.8783  0.8201  0.8201  0.2789
  0.6283  0.4898  0.4502  0.4502  0.4055

 Free energy of the ion-electron system (eV)
  ---------------------------------------------------
  alpha Z        PSCENC =       216.17040255
  Ewald energy   TEWEN  =     42281.88809044
  -Hartree energ DENC   =    -53036.70469871
  -exchange      EXHF   =         0.00000000
  -V(xc)+E(xc)   XCENC  =       362.39649070
  PAW double counting   =     10503.21017694   -11364.78202582
  entropy T*S    EENTRO =         0.00330301
  eigenvalues    EBANDS =      -149.72318976
  atomic energy  EATOM  =     11152.61838693
  Solvation  Ediel_sol  =         0.00000000
  ---------------------------------------------------
  free energy    TOTEN  =       -34.92306374 eV

  energy without entropy =      -34.92636674  energy(sigma->0) =      -34.92416474


--------------------------------------------------------------------------------------------------------




--------------------------------------- Iteration      1(  21)  ---------------------------------------


    POTLOK:  cpu time      0.0178: real time      0.0181
    SETDIJ:  cpu time      0.0057: real time      0.0057
     EDDAV:  cpu time      0.3542: real time      0.3573
       DOS:  cpu time      0.0009: real time      0.0009
    CHARGE:  cpu time      0.0498: real time      0.0500
    MIXING:  cpu time      0.0016: real time      0.0016
    --------------------------------------------
      LOOP:  cpu time      0.4300: real time      0.4336

 eigenvalue-minimisations  :  1192
 total energy-change (2. order) :-0.3698057E-01  (-0.3865088E-03)
 number of electron      90.0000872 magnetization       0.0907895
 augmentation part       56.2049073 magnetization       0.0619089

 Broyden mixing:
  rms(total) = 0.11879E-01    rms(broyden)= 0.11878E-01
  rms(prec ) = 0.12507E-01
  weight for this iteration     100.00

 eigenvalues of (default mixing * dielectric matrix)
  average eigenvalue GAMMA=   1.7055
 11.0565  3.5804  2.6430  1.8744  1.1711  0.9853  0.9853  0.8378  0.7550  0.7550
  0.2789  0.6067  0.4765  0.4027  0.4438  0.4360

 Free energy of the ion-electron system (eV)
  ---------------------------------------------------
  alpha Z        PSCENC =       216.17040255
  Ewald energy   TEWEN  =     42281.88809044
  -Hartree energ DENC   =    -53033.87184537
  -exchange      EXHF   =         0.00000000
  -V(xc)+E(xc)   XCENC  =       362.34021006
  PAW double counting   =     10504.96777998   -11366.57787305
  entropy T*S    EENTRO =         0.00285741
  eigenvalues    EBANDS =      -152.49805326
  atomic energy  EATOM  =     11152.61838693
  Solvation  Ediel_sol  =         0.00000000
  ---------------------------------------------------
  free energy    TOTEN  =       -34.96004431 eV

  energy without entropy =      -34.96290172  energy(sigma->0) =      -34.96099678


--------------------------------------------------------------------------------------------------------




--------------------------------------- Iteration      1(  22)  ---------------------------------------


    POTLOK:  cpu time      0.0177: real time      0.0180
    SETDIJ:  cpu time      0.0056: real time      0.0056
     EDDAV:  cpu time      0.3224: real time      0.3249
       DOS:  cpu time      0.0009: real time      0.0009
    CHARGE:  cpu time      0.0485: real time      0.0487
    MIXING:  cpu time      0.0017: real time      0.0017
    --------------------------------------------
      LOOP:  cpu time      0.3969: real time      0.3999

 eigenvalue-minimisations  :  1056
 total energy-change (2. order) :-0.4795538E-01  (-0.4641300E-03)
 number of electron      90.0000872 magnetization       0.0490651
 augmentation part       56.2100585 magnetization       0.0323743

 Broyden mixing:
  rms(total) = 0.91726E-02    rms(broyden)= 0.91714E-02
  rms(prec ) = 0.94945E-02
  weight for this iteration     100.00

 eigenvalues of (default mixing * dielectric matrix)
  average eigenvalue GAMMA=   1.7664
 11.0923  4.4210  3.0593  2.1257  1.3362  1.1126  0.9367  0.9367  0.8161  0.8161
  0.2789  0.7205  0.6217  0.4618  0.4618  0.4058  0.4257

 Free energy of the ion-electron system (eV)
  ---------------------------------------------------
  alpha Z        PSCENC =       216.17040255
  Ewald energy   TEWEN  =     42281.88809044
  -Hartree energ DENC   =    -53029.98219065
  -exchange      EXHF   =         0.00000000
  -V(xc)+E(xc)   XCENC  =       362.28164097
  PAW double counting   =     10504.85561091   -11366.44024770
  entropy T*S    EENTRO =         0.00261721
  eigenvalues    EBANDS =      -156.40231036
  atomic energy  EATOM  =     11152.61838693
  Solvation  Ediel_sol  =         0.00000000
  ---------------------------------------------------
  free energy    TOTEN  =       -35.00799969 eV

  energy without entropy =      -35.01061690  energy(sigma->0) =      -35.00887210


--------------------------------------------------------------------------------------------------------




--------------------------------------- Iteration      1(  23)  ---------------------------------------


    POTLOK:  cpu time      0.0179: real time      0.0181
    SETDIJ:  cpu time      0.0056: real time      0.0056
     EDDAV:  cpu time      0.3282: real time      0.3309
       DOS:  cpu time      0.0009: real time      0.0009
    CHARGE:  cpu time      0.0484: real time      0.0486
    MIXING:  cpu time      0.0018: real time      0.0019
    --------------------------------------------
      LOOP:  cpu time      0.4028: real time      0.4060

 eigenvalue-minimisations  :  1080
 total energy-change (2. order) :-0.5675213E-01  (-0.2961353E-03)
 number of electron      90.0000872 magnetization       0.0296384
 augmentation part       56.2016411 magnetization       0.0202402

 Broyden mixing:
  rms(total) = 0.61191E-02    rms(broyden)= 0.61179E-02
  rms(prec ) = 0.63511E-02
  weight for this iteration     100.00

 eigenvalues of (default mixing * dielectric matrix)
  average eigenvalue GAMMA=   1.8595
 11.1387  6.3751  3.2694  2.2442  1.5967  1.0428  1.0428  0.9412  0.9412  0.7835
  0.7835  0.2789  0.6520  0.6276  0.4616  0.4616  0.4066  0.4239

 Free energy of the ion-electron system (eV)
  ---------------------------------------------------
  alpha Z        PSCENC =       216.17040255
  Ewald energy   TEWEN  =     42281.88809044
  -Hartree energ DENC   =    -53027.58518830
  -exchange      EXHF   =         0.00000000
  -V(xc)+E(xc)   XCENC  =       362.23746004
  PAW double counting   =     10505.26282675   -11366.93741526
  entropy T*S    EENTRO =         0.00228465
  eigenvalues    EBANDS =      -158.72159962
  atomic energy  EATOM  =     11152.61838693
  Solvation  Ediel_sol  =         0.00000000
  ---------------------------------------------------
  free energy    TOTEN  =       -35.06475183 eV

  energy without entropy =      -35.06703648  energy(sigma->0) =      -35.06551338


--------------------------------------------------------------------------------------------------------




--------------------------------------- Iteration      1(  24)  ---------------------------------------


    POTLOK:  cpu time      0.0178: real time      0.0181
    SETDIJ:  cpu time      0.0055: real time      0.0056
     EDDAV:  cpu time      0.2845: real time      0.2870
       DOS:  cpu time      0.0009: real time      0.0009
    CHARGE:  cpu time      0.0513: real time      0.0515
    MIXING:  cpu time      0.0019: real time      0.0019
    --------------------------------------------
      LOOP:  cpu time      0.3620: real time      0.3650

 eigenvalue-minimisations  :   872
 total energy-change (2. order) :-0.2553517E-01  (-0.8470433E-04)
 number of electron      90.0000872 magnetization       0.0171258
 augmentation part       56.2030968 magnetization       0.0105578

 Broyden mixing:
  rms(total) = 0.44460E-02    rms(broyden)= 0.44454E-02
  rms(prec ) = 0.47246E-02
  weight for this iteration     100.00

 eigenvalues of (default mixing * dielectric matrix)
  average eigenvalue GAMMA=   1.8984
 11.1959  7.8638  3.3078  2.3358  1.7466  1.1311  1.1311  0.9392  0.9392  0.8044
  0.8044  0.2789  0.6523  0.6523  0.5332  0.4644  0.4574  0.4061  0.4259

 Free energy of the ion-electron system (eV)
  ---------------------------------------------------
  alpha Z        PSCENC =       216.17040255
  Ewald energy   TEWEN  =     42281.88809044
  -Hartree energ DENC   =    -53026.24582877
  -exchange      EXHF   =         0.00000000
  -V(xc)+E(xc)   XCENC  =       362.20680622
  PAW double counting   =     10505.15038388   -11366.78364052
  entropy T*S    EENTRO =         0.00207975
  eigenvalues    EBANDS =      -160.09696747
  atomic energy  EATOM  =     11152.61838693
  Solvation  Ediel_sol  =         0.00000000
  ---------------------------------------------------
  free energy    TOTEN  =       -35.09028699 eV

  energy without entropy =      -35.09236674  energy(sigma->0) =      -35.09098024


--------------------------------------------------------------------------------------------------------




--------------------------------------- Iteration      1(  25)  ---------------------------------------


    POTLOK:  cpu time      0.0180: real time      0.0183
    SETDIJ:  cpu time      0.0055: real time      0.0056
     EDDAV:  cpu time      0.2650: real time      0.2670
       DOS:  cpu time      0.0010: real time      0.0010
    CHARGE:  cpu time      0.0502: real time      0.0505
    MIXING:  cpu time      0.0022: real time      0.0022
    --------------------------------------------
      LOOP:  cpu time      0.3419: real time      0.3444

 eigenvalue-minimisations  :   780
 total energy-change (2. order) :-0.1206400E-01  (-0.3800483E-04)
 number of electron      90.0000872 magnetization       0.0075396
 augmentation part       56.2057916 magnetization       0.0031404

 Broyden mixing:
  rms(total) = 0.25256E-02    rms(broyden)= 0.25249E-02
  rms(prec ) = 0.28589E-02
  weight for this iteration     100.00

 eigenvalues of (default mixing * dielectric matrix)
  average eigenvalue GAMMA=   1.9377
 11.3362  9.1369  3.2934  2.5264  1.9790  1.3235  1.0055  1.0055  0.8863  0.8863
  0.7960  0.7960  0.2789  0.6982  0.6140  0.4059  0.4616  0.4616  0.4263  0.4372

 Free energy of the ion-electron system (eV)
  ---------------------------------------------------
  alpha Z        PSCENC =       216.17040255
  Ewald energy   TEWEN  =     42281.88809044
  -Hartree energ DENC   =    -53025.35465281
  -exchange      EXHF   =         0.00000000
  -V(xc)+E(xc)   XCENC  =       362.18879035
  PAW double counting   =     10504.80072874   -11366.37890276
  entropy T*S    EENTRO =         0.00200182
  eigenvalues    EBANDS =      -161.03719624
[...]
      2      -5.1811      1.00000
      3      -4.8448      1.00000
      4      -4.1285      1.00000
      5      -3.6696      1.00000
      6      -3.3220      1.00000
      7      -3.2194      1.00000
      8      -3.2034      1.00000
      9      -3.0843      1.00000
     10      -2.9152      1.00000
     11      -2.9092      1.00000
     12      -2.9005      1.00000
     13      -2.6385      1.00000
     14      -2.6141      1.00000
     15      -2.6066      1.00000
     16      -2.5089      1.00000
     17      -2.3308      1.00000
     18      -2.0806      1.00000
     19      -2.0034      1.00000
     20      -1.9365      1.00000
     21      -1.7943      1.00000
     22      -1.6504      1.00000
     23      -1.4065      1.00000
     24      -1.3163      1.00000
     25      -1.2978      1.00000
     26      -1.2188      1.00000
     27      -1.1930      1.00000
     28      -1.1015      1.00000
     29      -1.0738      1.00000
     30      -1.0267      1.00000
     31      -0.9980      1.00000
     32      -0.9749      1.00000
     33      -0.8589      1.00000
     34      -0.8163      1.00000
     35      -0.7823      1.00000
     36      -0.7491      1.00000
     37      -0.7246      1.00000
     38      -0.6593      1.00000
     39      -0.5918      1.00000
     40      -0.5406      1.00000
     41      -0.5076      1.00000
     42      -0.4689      1.00000
     43      -0.4493      1.00000
     44      -0.4334      1.00000
     45       0.5268      1.03545
     46       2.4474     -0.00000
     47       4.3131     -0.00000
     48       4.3832     -0.00000
     49       5.0018     -0.00000
     50       6.3328      0.00000
     51       6.5874      0.00000
     52       6.8038      0.00000
     53       7.0866      0.00000
     54       7.7233      0.00000
     55       8.0598      0.00000
     56       8.5968      0.00000
     57       9.3503      0.00000
     58       9.4778      0.00000
     59       9.5032      0.00000
     60       9.8584      0.00000

 k-point     4 :       0.3333    0.3333    0.0000
  band No.  band energies     occupation 
      1      -4.9489      1.00000
      2      -4.7968      1.00000
      3      -4.0924      1.00000
      4      -3.5436      1.00000
      5      -3.4609      1.00000
      6      -3.1790      1.00000
      7      -3.1264      1.00000
      8      -3.0086      1.00000
      9      -2.9836      1.00000
     10      -2.8193      1.00000
     11      -2.8042      1.00000
     12      -2.5699      1.00000
     13      -2.5088      1.00000
     14      -2.3789      1.00000
     15      -2.3143      1.00000
     16      -2.2799      1.00000
     17      -2.2309      1.00000
     18      -2.1625      1.00000
     19      -2.0362      1.00000
     20      -1.9679      1.00000
     21      -1.9467      1.00000
     22      -1.9258      1.00000
     23      -1.8869      1.00000
     24      -1.7497      1.00000
     25      -1.6636      1.00000
     26      -1.5387      1.00000
     27      -1.5325      1.00000
     28      -1.2620      1.00000
     29      -1.2087      1.00000
     30      -1.1600      1.00000
     31      -1.1100      1.00000
     32      -1.0770      1.00000
     33      -0.9997      1.00000
     34      -0.9796      1.00000
     35      -0.8556      1.00000
     36      -0.7642      1.00000
     37      -0.7398      1.00000
     38      -0.6816      1.00000
     39      -0.6592      1.00000
     40      -0.6098      1.00000
     41      -0.5638      1.00000
     42      -0.5224      1.00000
     43      -0.1730      1.00000
     44       0.6772      0.85860
     45       1.7138     -0.00000
     46       2.1361     -0.00000
     47       2.6726     -0.00000
     48       3.9932     -0.00000
     49       4.0788     -0.00000
     50       5.5742     -0.00000
     51       5.6895     -0.00000
     52       6.0897     -0.00000
     53       6.7261      0.00000
     54       7.1461      0.00000
     55       7.9400      0.00000
     56       8.0622      0.00000
     57       8.3293      0.00000
     58       8.8892      0.00000
     59       9.4630      0.00000
     60       9.6875      0.00000


--------------------------------------------------------------------------------------------------------


 soft charge-density along one line, spin component           1
         0         1         2         3         4         5         6         7         8         9
 total charge-density along one line
 
 soft charge-density along one line, spin component           2
         0         1         2         3         4         5         6         7         8         9
 total charge-density along one line
 
 pseudopotential strength for first ion, spin component:           1
 -7.262  -0.000   0.000  -0.000  -0.000  -1.434   0.000  -0.000
 -0.000  -7.248   0.000  -0.000   0.000   0.000  -1.446  -0.000
  0.000   0.000  -7.270  -0.000   0.004  -0.000  -0.000  -1.432
 -0.000  -0.000  -0.000  -7.261  -0.000   0.000   0.000   0.000
 -0.000   0.000   0.004  -0.000  -7.257   0.000  -0.000  -0.002
 -1.434   0.000  -0.000   0.000   0.000   7.999  -0.000   0.000
  0.000  -1.446  -0.000   0.000  -0.000  -0.000   8.010   0.000
 -0.000  -0.000  -1.432   0.000  -0.002   0.000   0.000   8.002
  0.000   0.000   0.000  -1.438   0.000  -0.000  -0.000  -0.000
  0.000  -0.000  -0.002   0.000  -1.438  -0.000   0.000   0.000
  0.000  -0.000  -0.003   0.000  -0.000   0.000  -0.000   0.004
  0.000  -0.000  -0.007   0.000  -0.001   0.000  -0.000   0.008
  0.000  -0.016  -0.000   0.000  -0.000  -0.000   0.013   0.000
  0.000   0.000  -0.017   0.000   0.001   0.000  -0.000   0.012
  0.000   0.000  -0.000  -0.014   0.000  -0.000   0.000   0.000
  0.000  -0.018  -0.000  -0.000  -0.000   0.000   0.015   0.000
 -0.000   0.000  -0.018   0.000   0.001   0.000  -0.000   0.013
  0.000  -0.000  -0.000  -0.015   0.000  -0.000   0.000  -0.000
 pseudopotential strength for first ion, spin component:           2
 -7.262  -0.000   0.000  -0.000  -0.000  -1.434   0.000  -0.000
 -0.000  -7.248   0.000  -0.000   0.000   0.000  -1.446  -0.000
  0.000   0.000  -7.270  -0.000   0.004  -0.000  -0.000  -1.432
 -0.000  -0.000  -0.000  -7.261  -0.000   0.000   0.000   0.000
 -0.000   0.000   0.004  -0.000  -7.257   0.000  -0.000  -0.002
 -1.434   0.000  -0.000   0.000   0.000   7.999  -0.000   0.000
  0.000  -1.446  -0.000   0.000  -0.000  -0.000   8.010   0.000
 -0.000  -0.000  -1.432   0.000  -0.002   0.000   0.000   8.002
  0.000   0.000   0.000  -1.438   0.000  -0.000  -0.000  -0.000
  0.000  -0.000  -0.002   0.000  -1.438  -0.000   0.000   0.000
  0.000  -0.000  -0.003   0.000  -0.000   0.000  -0.000   0.004
  0.000  -0.000  -0.007   0.000  -0.001   0.000  -0.000   0.008
  0.000  -0.016  -0.000   0.000  -0.000  -0.000   0.013   0.000
  0.000   0.000  -0.017   0.000   0.001   0.000  -0.000   0.012
  0.000   0.000  -0.000  -0.014   0.000  -0.000   0.000   0.000
  0.000  -0.018  -0.000  -0.000  -0.000   0.000   0.015   0.000
 -0.000   0.000  -0.018   0.000   0.001   0.000  -0.000   0.013
  0.000  -0.000  -0.000  -0.015   0.000  -0.000   0.000  -0.000
 total augmentation occupancy for first ion, spin component:           1
  1.921   0.000   0.000  -0.000   0.000  -0.012   0.000   0.000   0.000   0.000   0.000   0.000   0.000   0.000   0.000   0.000
  0.000   1.946   0.000   0.000   0.000   0.000  -0.027  -0.000   0.000   0.000   0.000   0.000   0.023  -0.000   0.000  -0.022
  0.000   0.000   1.927   0.000   0.002   0.000  -0.000  -0.013   0.000   0.005  -0.016   0.015  -0.000   0.070   0.000  -0.000
 -0.000   0.000   0.000   1.942   0.000   0.000   0.000   0.000  -0.025   0.000   0.000   0.000   0.000   0.000   0.066   0.000
  0.000   0.000   0.002   0.000   1.926   0.000   0.000   0.005   0.000  -0.017  -0.050   0.010   0.000   0.022   0.000  -0.000
 -0.012   0.000   0.000   0.000   0.000   0.010   0.000   0.000  -0.000   0.000   0.000   0.000   0.000   0.000   0.000   0.000
  0.000  -0.027  -0.000   0.000   0.000   0.000   0.010  -0.000   0.000   0.000  -0.000   0.000   0.021  -0.000   0.000  -0.001
  0.000  -0.000  -0.013   0.000   0.005   0.000  -0.000   0.011   0.000   0.001  -0.015  -0.001  -0.000   0.020   0.000   0.000
  0.000   0.000   0.000  -0.025   0.000  -0.000   0.000   0.000   0.012   0.000   0.000   0.000   0.000   0.000   0.031   0.000
  0.000   0.000   0.005   0.000  -0.017   0.000   0.000   0.001   0.000   0.010  -0.006   0.001  -0.000   0.003   0.000   0.000
  0.000   0.000  -0.016   0.000  -0.050   0.000  -0.000  -0.015   0.000  -0.006   1.700  -0.128  -0.000   0.228   0.000   0.000
  0.000   0.000   0.015   0.000   0.010   0.000   0.000  -0.001   0.000   0.001  -0.128   0.016   0.000  -0.028   0.000  -0.000
  0.000   0.023  -0.000   0.000   0.000   0.000   0.021  -0.000   0.000  -0.000  -0.000   0.000   0.214  -0.000   0.000  -0.013
  0.000  -0.000   0.070   0.000   0.022   0.000  -0.000   0.020   0.000   0.003   0.228  -0.028  -0.000   0.110   0.000   0.000
  0.000   0.000   0.000   0.066   0.000   0.000   0.000   0.000   0.031   0.000   0.000   0.000   0.000   0.000   0.150   0.000
  0.000  -0.022  -0.000   0.000  -0.000   0.000  -0.001   0.000   0.000   0.000   0.000  -0.000  -0.013   0.000   0.000   0.001
  0.000   0.000  -0.027   0.000  -0.001   0.000  -0.000  -0.001   0.000  -0.000  -0.029   0.003  -0.000  -0.010   0.000  -0.000
  0.000   0.000   0.000  -0.025   0.000  -0.000   0.000   0.000  -0.002   0.000   0.000   0.000   0.000   0.000  -0.010   0.000
 total augmentation occupancy for first ion, spin component:           2
  0.000   0.000   0.000   0.000   0.000   0.000   0.000   0.000   0.000   0.000   0.000   0.000   0.000   0.000   0.000   0.000
  0.000  -0.000  -0.000   0.000   0.000   0.000  -0.000  -0.000   0.000   0.000  -0.000   0.000   0.000  -0.000   0.000  -0.000
  0.000  -0.000   0.000   0.000   0.000   0.000  -0.000   0.000   0.000   0.000   0.000   0.000  -0.000  -0.000   0.000  -0.000
  0.000   0.000   0.000  -0.000   0.000   0.000   0.000   0.000  -0.000   0.000   0.000   0.000   0.000   0.000  -0.000   0.000
  0.000   0.000   0.000   0.000  -0.000   0.000   0.000  -0.000   0.000  -0.000   0.000   0.000   0.000  -0.000   0.000  -0.000
  0.000   0.000   0.000   0.000   0.000   0.000   0.000   0.000  -0.000   0.000   0.000   0.000   0.000   0.000  -0.000   0.000
  0.000  -0.000  -0.000   0.000   0.000   0.000  -0.000  -0.000   0.000   0.000  -0.000   0.000  -0.000  -0.000   0.000   0.000
  0.000  -0.000   0.000   0.000  -0.000   0.000  -0.000  -0.000   0.000   0.000  -0.000   0.000   0.000   0.000   0.000  -0.000
  0.000   0.000   0.000  -0.000   0.000  -0.000   0.000   0.000   0.000   0.000   0.000   0.000   0.000   0.000  -0.000   0.000
  0.000   0.000   0.000   0.000  -0.000   0.000   0.000   0.000   0.000  -0.000  -0.000   0.000  -0.000  -0.000   0.000   0.000
  0.000  -0.000   0.000   0.000   0.000   0.000  -0.000  -0.000   0.000  -0.000  -0.000   0.000  -0.000  -0.000   0.000   0.000
  0.000   0.000   0.000   0.000   0.000   0.000   0.000   0.000   0.000   0.000   0.000  -0.000  -0.000   0.000   0.000   0.000
  0.000   0.000  -0.000   0.000   0.000   0.000  -0.000   0.000   0.000  -0.000  -0.000  -0.000   0.000  -0.000   0.000  -0.000
  0.000  -0.000  -0.000   0.000  -0.000   0.000  -0.000   0.000   0.000  -0.000  -0.000   0.000  -0.000  -0.000   0.000  -0.000
  0.000   0.000   0.000  -0.000   0.000  -0.000   0.000   0.000  -0.000   0.000   0.000   0.000   0.000   0.000  -0.000   0.000
  0.000  -0.000  -0.000   0.000  -0.000   0.000   0.000  -0.000   0.000   0.000   0.000   0.000  -0.000  -0.000   0.000   0.000
  0.000   0.000   0.000   0.000   0.000   0.000  -0.000  -0.000   0.000   0.000  -0.000  -0.000   0.000   0.000   0.000  -0.000
 -0.000   0.000   0.000   0.000   0.000   0.000   0.000   0.000   0.000   0.000   0.000   0.000   0.000   0.000   0.000   0.000


------------------------ aborting loop because EDIFF is reached ----------------------------------------


    CHARGE:  cpu time      0.0519: real time      0.0521
    FORLOC:  cpu time      0.0011: real time      0.0011
    FORNL :  cpu time      0.1397: real time      0.1404
    STRESS:  cpu time      0.1613: real time      0.1620
    FORCOR:  cpu time      0.0174: real time      0.0175
    FORHAR:  cpu time      0.0028: real time      0.0029
    MIXING:  cpu time      0.0005: real time      0.0005
    OFIELD:  cpu time      0.0000: real time      0.0000

 ---------------------------------------------------------------------------------------------

         DFTD3 V3.0 Rev 1        
 Edisp (eV)   -3.22326

 E6    (eV) :    -1.3085
 E8    (eV) :    -1.9148
 % E8        : 59.41
    FORVDW:  cpu time      0.0494: real time      0.0496

  FORCE on cell =-STRESS in cart. coord.  units (eV):
  Direction    XX          YY          ZZ          XY          YZ          ZX
  --------------------------------------------------------------------------------------
  Alpha Z   216.17040   216.17040   216.17040
  Ewald   48139.57924 48262.73614-53991.34880    -0.00000     2.46016     0.00000
  Hartree 51205.92325 51299.91941-49368.05933    -0.00000    -0.26457    -0.00000
  E(xc)    -520.40779  -520.25898  -520.68620     0.00000     0.03581    -0.00000
  Local  ************************102353.51986     0.00000    -0.75990    -0.00000
  n-local  -179.51198  -175.14381  -180.50113     6.91047    -0.15411    -0.00580
  augment   755.27900   758.60756   757.64545     0.00000    -0.01781     0.00000
  Kinetic   738.48394   739.87091   735.81611     6.70159    -1.26961    -0.01677
  Fock        0.00000     0.00000     0.00000     0.00000     0.00000     0.00000
  vdW        -3.90651    -3.89462    -2.90470    -0.00000     0.00475     0.00000
  -------------------------------------------------------------------------------------
  Total      -4.87825    -4.48069    -0.34834     0.00000     0.03473     0.00000
  in kB     -34.97509   -32.12474    -2.49744     0.00000     0.24901     0.00000
  external pressure =      -23.20 kB  Pullay stress =        0.00 kB


 VOLUME and BASIS-vectors are now :
 -----------------------------------------------------------------------------
  energy-cutoff  :      400.00
  volume of cell :      223.47
      direct lattice vectors                 reciprocal lattice vectors
     3.630000114  0.000000000  0.000000000     0.275482085  0.000000000  0.000000000
     0.000000000  2.566797733  0.000000000     0.000000000  0.389590495  0.000000000
     0.000000000  0.000000000 23.983791351     0.000000000  0.000000000  0.041694826

  length of vectors
     3.630000114  2.566797733 23.983791351     0.275482085  0.389590495  0.041694826


 FORCES acting on ions
    electron-ion (+dipol)            ewald-force                    non-local-force                 convergence-correction
 -----------------------------------------------------------------------------------------------
   -.576E-13 0.134E-01 0.460E+04   -.744E-07 -.127E-01 -.459E+04   0.000E+00 0.780E-02 -.617E+01   0.581E-10 -.828E-02 0.494E-01
   0.736E-06 -.904E-02 0.352E+04   0.134E-06 0.124E-01 -.352E+04   0.000E+00 0.109E-01 0.146E+01   -.495E-10 -.125E-01 0.224E+00
   -.512E-13 0.247E-01 0.209E+04   -.125E-06 -.231E-01 -.209E+04   0.000E+00 0.201E-01 -.115E+01   0.125E-10 -.202E-01 0.372E+00
   0.753E-06 0.101E-01 0.774E+03   0.129E-06 -.593E-02 -.775E+03   0.000E+00 0.206E-01 0.265E+00   -.885E-11 -.238E-01 0.315E+00
   -.601E-13 0.878E-01 -.581E+03   -.129E-06 -.845E-01 0.581E+03   0.000E+00 0.120E-01 -.129E+00   0.817E-10 -.135E-01 0.202E+00
   0.760E-06 -.241E-01 -.189E+04   0.125E-06 0.326E-01 0.189E+04   0.000E+00 -.602E-02 0.143E+01   0.563E-10 0.732E-03 0.133E+00
   -.548E-13 -.336E-01 -.333E+04   -.134E-06 0.846E-02 0.333E+04   0.000E+00 -.510E-03 -.144E+01   -.728E-10 0.273E-01 0.945E-01
   0.799E-06 -.604E+00 -.442E+04   0.740E-07 0.654E+00 0.441E+04   0.000E+00 -.850E-01 0.685E+01   0.111E-09 0.290E-01 0.123E-02
   0.217E-07 0.388E+01 -.381E+03   0.576E-09 -.484E+01 0.377E+03   0.000E+00 0.979E+00 0.480E+01   -.230E-11 -.797E-03 -.278E-01
   0.239E-07 -.331E+01 -.378E+03   0.196E-09 0.426E+01 0.383E+03   0.000E+00 -.963E+00 -.478E+01   -.791E-11 0.401E-03 -.225E-01
 -----------------------------------------------------------------------------------------------
   0.309E-05 0.423E-01 -.245E+01   0.318E-13 0.675E-13 -.171E-12   0.000E+00 -.391E-02 0.114E+01   0.178E-09 -.217E-01 0.134E+01
 
 
 POSITION                                       TOTAL-FORCE (eV/Angst)
 -----------------------------------------------------------------------------------
      0.00000     -0.00217     -0.00222         0.000000     -0.001474     -0.020420
      1.81500      1.28064      1.13180         0.000000     -0.000245     -0.007521
      0.00000     -0.00414      2.42896         0.000000     -0.000477      0.003543
      1.81500      1.27682      3.68069         0.000000     -0.001150     -0.005461
      0.00000     -0.01062      4.94253         0.000000     -0.000247     -0.011914
      1.81500      1.26683      6.19016         0.000000      0.001924     -0.001776
      0.00000     -0.02239      7.49138         0.000000      0.000461      0.001493
      1.81500      1.25983      8.61328         0.000000     -0.000257      0.011658
      3.63000      0.23372     10.53826         0.000000      0.002862      0.006354
      3.63000      0.38258     11.28289         0.000000     -0.001399      0.024043
 -----------------------------------------------------------------------------------
    total drift:                                0.000003      0.016643      0.030067


--------------------------------------------------------------------------------------------------------



  FREE ENERGIE OF THE ION-ELECTRON SYSTEM (eV)
  ---------------------------------------------------
  free  energy   TOTEN  =       -38.54328315 eV

  energy  without entropy=      -38.53974718  energy(sigma->0) =      -38.54210449
 
 d Force = 0.2597507E-03[ 0.202E-03, 0.318E-03]  d Energy = 0.3042258E-03-0.445E-04
 d Force = 0.1439845E+01[ 0.144E+01, 0.144E+01]  d Ewald  = 0.1439846E+01-0.200E-06


--------------------------------------------------------------------------------------------------------


    POTLOK:  cpu time      0.0255: real time      0.0257


--------------------------------------------------------------------------------------------------------


 stress matrix after NEB project (eV)
     -4.87825      0.00000      0.00000
      0.00000     -4.48069      0.03473
      0.00000      0.03473     -0.34834
  FORCES: max atom, RMS     0.024084    0.011982
  FORCE total and by dimension    0.037890    0.024043
  Stress total and by dimension    6.633078    4.878254


--------------------------------------------------------------------------------------------------------


  
 reached required accuracy - stopping structural energy minimisation
     LOOP+:  cpu time      1.5480: real time      1.5841
    4ORBIT:  cpu time      0.0000: real time      0.0000

 total amount of memory used by VASP MPI-rank0    35069. kBytes
=======================================================================

   base      :      30000. kBytes
   nonl-proj :       1086. kBytes
   fftplans  :        642. kBytes
   grid      :       1621. kBytes
   one-center:         62. kBytes
   wavefun   :       1658. kBytes
 
  
  
 General timing and accounting informations for this job:
 ========================================================
  
                  Total CPU time used (sec):      135.081
                            User time (sec):      134.596
                          System time (sec):        0.486
                         Elapsed time (sec):      139.083
  
                   Maximum memory used (kb):      230264.
                   Average memory used (kb):          N/A
  
                          Minor page faults:       126751
                          Major page faults:         6606
                 Voluntary context switches:         4367
