<?xml version="1.0" encoding="ISO-8859-1"?>
<modeling>
 <generator>
  <i name="program" type="string">vasp </i>
  <i name="version" type="string">6.3.2  </i>
  <i name="subversion" type="string">27Jun22 (build Aug 17 2022 15:43:34) complex                          parallel </i>
  <i name="platform" type="string">tv2STDVTST </i>
  <i name="date" type="string">2025 02 04 </i>
  <i name="time" type="string">13:49:01 </i>
 </generator>
 <incar>
  <i type="int" name="ISTART">     0</i>
  <i type="string" name="PREC">Normal</i>
  <i type="int" name="ISPIN">     2</i>
  <i type="int" name="ICHARG">     2</i>
  <i type="int" name="IBRION">     2</i>
  <i name="EDIFF">      0.00020000</i>
  <i name="EDIFFG">     -0.03000000</i>
  <i type="int" name="NSW">   800</i>
  <i type="int" name="ISIF">     2</i>
  <i type="int" name="ISYM">     1</i>
  <i name="ENCUT">    400.00000000</i>
  <i name="POTIM">      0.50000000</i>
  <i type="logical" name="LREAL"> F  </i>
  <i type="int" name="ISMEAR">     1</i>
  <i name="SIGMA">      0.20000000</i>
  <i type="logical" name="LWAVE"> F  </i>
  <i type="logical" name="LCHARG"> F  </i>
  <i type="string" name="GGA">PE</i>
  <i type="int" name="IVDW">    11</i>
 </incar>
 <primitive_cell>
  <structure name="primitive_cell" >
   <crystal>
    <varray name="basis" >
     <v>       3.63000011       0.00000000       0.00000000 </v>
     <v>       0.00000000       2.56679773       0.00000000 </v>
     <v>       0.00000000       0.00000000      23.98379135 </v>
    </varray>
    <i name="volume">    223.46840188 </i>
    <varray name="rec_basis" >
     <v>       0.27548208       0.00000000       0.00000000 </v>
     <v>       0.00000000       0.38959050       0.00000000 </v>
     <v>       0.00000000       0.00000000       0.04169483 </v>
    </varray>
   </crystal>
   <varray name="positions" >
    <v>       0.00000000       0.00000000       0.00000000 </v>
    <v>       0.50000000       0.50000000       0.05351109 </v>
    <v>       0.00000000       0.00000000       0.10468148 </v>
    <v>       0.50000000       0.50000000       0.15792996 </v>
    <v>       0.00000000       0.00000000       0.21070899 </v>
    <v>       0.50000000       0.50000000       0.26289048 </v>
    <v>       0.00000000       0.00000000       0.31711592 </v>
    <v>       0.50000000       0.50000000       0.36467590 </v>
    <v>       1.00000000       0.00000000       0.42690792 </v>
    <v>       1.00000000       0.20550963       0.44890201 </v>
   </varray>
  </structure>
  <varray name="primitive_index" >
   <v type="int" >        1 </v>
   <v type="int" >        2 </v>
   <v type="int" >        3 </v>
   <v type="int" >        4 </v>
   <v type="int" >        5 </v>
   <v type="int" >        6 </v>
   <v type="int" >        7 </v>
   <v type="int" >        8 </v>
   <v type="int" >        9 </v>
   <v type="int" >       10 </v>
  </varray>
 </primitive_cell>
 <kpoints>
  <generation param="Monkhorst-Pack">
   <v type="int" name="divisions">       3        3        1 </v>
   <v name="usershift">      0.00000000       0.00000000       0.00000000 </v>
   <v name="genvec1">      0.33333333       0.00000000       0.00000000 </v>
   <v name="genvec2">      0.00000000       0.33333333       0.00000000 </v>
   <v name="genvec3">      0.00000000       0.00000000       1.00000000 </v>
   <v name="shift">      0.00000000       0.00000000       0.00000000 </v>
  </generation>
  <varray name="kpointlist" >
   <v>       0.00000000       0.00000000       0.00000000 </v>
   <v>       0.33333333       0.00000000       0.00000000 </v>
   <v>       0.00000000       0.33333333       0.00000000 </v>
   <v>       0.33333333       0.33333333       0.00000000 </v>
  </varray>
  <varray name="weights" >
   <v>       0.11111111 </v>
   <v>       0.22222222 </v>
   <v>       0.22222222 </v>
   <v>       0.44444444 </v>
  </varray>
 </kpoints>
 <parameters>
  <separator name="general" >
   <i type="string" name="SYSTEM">unknown system</i>
   <i type="logical" name="LCOMPAT"> F  </i>
  </separator>
  <separator name="electronic" >
   <i type="string" name="PREC">normal</i>
   <i name="ENMAX">    400.00000000</i>
   <i name="ENAUG">    586.98000000</i>
   <i name="EDIFF">      0.00020000</i>
   <i type="int" name="IALGO">    38</i>
   <i type="int" name="IWAVPR">    11</i>
   <i type="int" name="NBANDS">    60</i>
   <i type="int" name="NBANDSLOW">    -1</i>
   <i type="int" name="NBANDSHIGH">    -1</i>
   <i name="NELECT">     90.00000000</i>
   <i type="int" name="TURBO">     0</i>
   <i type="int" name="IRESTART">     0</i>
   <i type="int" name="NREBOOT">     0</i>
   <i type="int" name="NMIN">     0</i>
   <i name="EREF">      0.00000000</i>
   <separator name="electronic smearing" >
    <i type="int" name="ISMEAR">     1</i>
    <i name="SIGMA">      0.20000000</i>
    <i name="KSPACING">      0.50000000</i>
    <i type="logical" name="KGAMMA"> T  </i>
    <i type="logical" name="KBLOWUP"> T  </i>
   </separator>
   <separator name="electronic projectors" >
    <i type="logical" name="LREAL"> F  </i>
    <v name="ROPT">      0.00000000      0.00000000</v>
    <i type="int" name="LMAXPAW">  -100</i>
    <i type="int" name="LMAXMIX">     2</i>
    <i type="logical" name="NLSPLINE"> F  </i>
   </separator>
   <separator name="electronic startup" >
    <i type="int" name="ISTART">     0</i>
    <i type="int" name="ICHARG">     2</i>
    <i type="int" name="INIWAV">     1</i>
   </separator>
   <separator name="electronic spin" >
    <i type="int" name="ISPIN">     2</i>
    <i type="logical" name="LNONCOLLINEAR"> F  </i>
    <v name="MAGMOM">      1.00000000      1.00000000      1.00000000      1.00000000      1.00000000      1.00000000      1.00000000      1.00000000      1.00000000      1.00000000</v>
    <i name="NUPDOWN">     -1.00000000</i>
    <i type="logical" name="LSORBIT"> F  </i>
    <v name="SAXIS">      0.00000000      0.00000000      1.00000000</v>
    <i type="logical" name="LSPIRAL"> F  </i>
    <v name="QSPIRAL">      0.00000000      0.00000000      0.00000000</v>
    <i type="logical" name="LZEROZ"> F  </i>
   </separator>
   <separator name="electronic exchange-correlation" >
    <i type="logical" name="LASPH"> F  </i>
    <i type="logical" name="LMETAGGA"> F  </i>
   </separator>
   <separator name="electronic convergence" >
    <i type="int" name="NELM">    60</i>
    <i type="int" name="NELMDL">    -5</i>
    <i type="int" name="NELMIN">     2</i>
    <i name="ENINI">    400.00000000</i>
    <separator name="electronic convergence detail" >
     <i type="logical" name="LDIAG"> T  </i>
     <i type="logical" name="LSUBROT"> F  </i>
     <i name="WEIMIN">      0.00100000</i>
     <i name="EBREAK">      0.00000083</i>
     <i name="DEPER">      0.30000000</i>
     <i type="int" name="NRMM">     4</i>
     <i name="TIME">      0.40000000</i>
    </separator>
   </separator>
   <separator name="electronic mixer" >
    <i name="AMIX">      0.40000000</i>
    <i name="BMIX">      1.00000000</i>
    <i name="AMIN">      0.10000000</i>
    <i name="AMIX_MAG">      1.60000000</i>
    <i name="BMIX_MAG">      1.00000000</i>
    <separator name="electronic mixer details" >
     <i type="int" name="IMIX">     4</i>
     <i type="logical" name="MIXFIRST"> F  </i>
     <i type="int" name="MAXMIX">   -45</i>
     <i name="WC">    100.00000000</i>
     <i type="int" name="INIMIX">     1</i>
     <i type="int" name="MIXPRE">     1</i>
     <i type="int" name="MREMOVE">     5</i>
    </separator>
   </separator>
   <separator name="electronic dipolcorrection" >
    <i type="logical" name="LDIPOL"> F  </i>
    <i type="logical" name="LMONO"> F  </i>
    <i type="int" name="IDIPOL">     0</i>
    <i name="EPSILON">      1.00000000</i>
    <v name="DIPOL">   -100.00000000   -100.00000000   -100.00000000</v>
    <i name="EFIELD">      0.00000000</i>
   </separator>
  </separator>
  <separator name="grids" >
   <i type="int" name="NGX">    18</i>
   <i type="int" name="NGY">    14</i>
   <i type="int" name="NGZ">   120</i>
   <i type="int" name="NGXF">    36</i>
   <i type="int" name="NGYF">    28</i>
   <i type="int" name="NGZF">   240</i>
   <i type="logical" name="ADDGRID"> F  </i>
  </separator>
  <separator name="ionic" >
   <i type="int" name="NSW">   800</i>
   <i type="int" name="IBRION">     2</i>
   <i type="int" name="MDALGO">     0</i>
   <i type="int" name="ISIF">     2</i>
   <i name="PSTRESS">      0.00000000</i>
   <i name="EDIFFG">     -0.03000000</i>
   <i type="int" name="NFREE">     1</i>
   <i name="POTIM">      0.50000000</i>
   <i name="SMASS">     -3.00000000</i>
   <i name="SCALEE">      1.00000000</i>
  </separator>
  <separator name="ionic md" >
   <i name="TEBEG">      0.00010000</i>
   <i name="TEEND">      0.00010000</i>
   <i type="int" name="NBLOCK">     1</i>
   <i type="int" name="KBLOCK">   800</i>
   <i type="int" name="NPACO">   256</i>
   <i name="APACO">     10.00000000</i>
  </separator>
  <separator name="symmetry" >
   <i type="int" name="ISYM">     1</i>
   <i name="SYMPREC">      0.00001000</i>
  </separator>
  <separator name="dos" >
   <i type="int" name="LORBIT">     0</i>
   <v name="RWIGS">     -1.00000000     -1.00000000</v>
   <i type="int" name="NEDOS">   301</i>
   <i name="EMIN">     10.00000000</i>
   <i name="EMAX">    -10.00000000</i>
   <i name="EFERMI">      0.00000000</i>
  </separator>
  <separator name="writing" >
   <i type="int" name="NWRITE">     2</i>
   <i type="logical" name="LWAVE"> F  </i>
   <i type="logical" name="LDOWNSAMPLE"> F  </i>
   <i type="logical" name="LCHARG"> F  </i>
   <i type="logical" name="LPARD"> F  </i>
   <i type="logical" name="LVTOT"> F  </i>
   <i type="logical" name="LVHAR"> F  </i>
   <i type="logical" name="LELF"> F  </i>
   <i type="logical" name="LOPTICS"> F  </i>
   <v name="STM">      0.00000000      0.00000000      0.00000000      0.00000000      0.00000000      0.00000000      0.00000000</v>
  </separator>
  <separator name="performance" >
   <i type="int" name="NPAR">     4</i>
   <i type="int" name="NSIM">     4</i>
   <i type="int" name="NBLK">    -1</i>
   <i type="logical" name="LPLANE"> T  </i>
   <i type="logical" name="LSCALAPACK"> T  </i>
   <i type="logical" name="LSCAAWARE"> F  </i>
   <i type="logical" name="LSCALU"> F  </i>
   <i type="logical" name="LASYNC"> F  </i>
   <i type="logical" name="LORBITALREAL"> F  </i>
  </separator>
  <separator name="miscellaneous" >
   <i type="int" name="IDIOT">     3</i>
   <i type="int" name="PHON_NSTRUCT">    -1</i>
   <i type="logical" name="LMUSIC"> F  </i>
   <v name="POMASS">     63.54600000      1.00000000</v>
   <v name="DARWINR">      0.00000000      0.00000000</v>
   <v name="DARWINV">      1.00000000      1.00000000</v>
   <i type="logical" name="LCORR"> T  </i>
  </separator>
  <i type="logical" name="GGA_COMPAT"> T  </i>
  <i type="logical" name="LBERRY"> F  </i>
  <i type="int" name="ICORELEVEL">     0</i>
  <i type="logical" name="LDAU"> F  </i>
  <i type="int" name="I_CONSTRAINED_M">     0</i>
  <separator name="electronic exchange-correlation" >
   <i type="string" name="GGA">PE</i>
   <i type="int" name="VOSKOWN">     0</i>
   <i type="logical" name="LHFCALC"> F  </i>
   <i type="string" name="PRECFOCK"></i>
   <i type="logical" name="LSYMGRAD"> F  </i>
   <i type="logical" name="LHFONE"> F  </i>
   <i type="logical" name="LRHFCALC"> F  </i>
   <i type="logical" name="LTHOMAS"> F  </i>
   <i type="logical" name="LMODELHF"> F  </i>
   <i type="logical" name="LFOCKACE"> F  </i>
   <i name="ENCUT4O">     -1.00000000</i>
   <i type="int" name="EXXOEP">     0</i>
   <i type="int" name="FOURORBIT">     0</i>
   <i name="AEXX">      0.00000000</i>
   <i name="HFALPHA">      0.00000000</i>
   <i name="MCALPHA">      0.00000000</i>
   <i name="ALDAX">      1.00000000</i>
   <i name="AGGAX">      1.00000000</i>
   <i name="ALDAC">      1.00000000</i>
   <i name="AGGAC">      1.00000000</i>
   <i type="int" name="NKREDX">     1</i>
   <i type="int" name="NKREDY">     1</i>
   <i type="int" name="NKREDZ">     1</i>
   <i type="logical" name="SHIFTRED"> F  </i>
   <i type="logical" name="ODDONLY"> F  </i>
   <i type="logical" name="EVENONLY"> F  </i>
   <i type="int" name="LMAXFOCK">     0</i>
   <i type="int" name="NMAXFOCKAE">     0</i>
   <i type="logical" name="LFOCKAEDFT"> F  </i>
   <i name="HFSCREEN">      0.00000000</i>
   <i name="HFSCREENC">      0.00000000</i>
   <i type="int" name="NBANDSGWLOW">     0</i>
  </separator>
  <separator name="vdW DFT" >
   <i type="logical" name="LUSE_VDW"> F  </i>
   <i name="Zab_VDW">     -0.84910000</i>
   <i name="PARAM1">      0.12340000</i>
   <i name="PARAM2">      1.00000000</i>
   <i name="PARAM3">      0.00000000</i>
  </separator>
  <separator name="model GW" >
   <i type="int" name="MODEL_GW">     0</i>
   <i name="MODEL_EPS0">     13.40810411</i>
   <i name="MODEL_ALPHA">      1.00000000</i>
  </separator>
  <separator name="linear response parameters" >
   <i type="logical" name="LEPSILON"> F  </i>
   <i type="logical" name="LRPA"> F  </i>
   <i type="logical" name="LNABLA"> F  </i>
   <i type="logical" name="LVEL"> F  </i>
   <i name="CSHIFT">      0.10000000</i>
   <i name="OMEGAMAX">     -1.00000000</i>
   <i name="DEG_THRESHOLD">      0.00200000</i>
   <i name="RTIME">     -0.10000000</i>
   <i name="WPLASMAI">      0.00000000</i>
   <v name="DFIELD">      0.00000000      0.00000000      0.00000000</v>
   <v name="WPLASMA">      0.00000000      0.00000000      0.00000000      0.00000000      0.00000000      0.00000000      0.00000000      0.00000000      0.00000000</v>
  </separator>
  <separator name="orbital magnetization" >
   <i type="logical" name="NUCIND"> F  </i>
   <v name="MAGPOS">      0.00000000      0.00000000      0.00000000</v>
   <i type="logical" name="LNICSALL"> T  </i>
   <i type="logical" name="ORBITALMAG"> F  </i>
   <i type="logical" name="LMAGBLOCH"> F  </i>
   <i type="logical" name="LCHIMAG"> F  </i>
   <i type="logical" name="LGAUGE"> T  </i>
   <i type="int" name="MAGATOM">     0</i>
   <v name="MAGDIPOL">      0.00000000      0.00000000      0.00000000</v>
   <v name="AVECCONST">      0.00000000      0.00000000      0.00000000</v>
  </separator>
  <separator name="response functions" >
   <i type="logical" name="LFINITE_TEMPERATURE"> F  </i>
   <i type="logical" name="LADDER"> F  </i>
   <i type="logical" name="LRPAFORCE"> F  </i>
   <i type="logical" name="LFXC"> F  </i>
   <i type="logical" name="LHARTREE"> T  </i>
   <i type="int" name="IBSE">     0</i>
   <v type="int" name="KPOINT">    -1     0     0     0</v>
   <i type="logical" name="LTCTC"> F  </i>
   <i type="logical" name="LTCTE"> F  </i>
   <i type="logical" name="LTETE"> F  </i>
   <i type="logical" name="LTRIPLET"> F  </i>
   <i type="logical" name="LFXCEPS"> F  </i>
   <i type="logical" name="LFXHEG"> F  </i>
   <i type="int" name="NATURALO">     2</i>
   <i type="logical" name="LHOLEGF"> F  </i>
   <i type="logical" name="L2ORDER"> F  </i>
   <i type="logical" name="LDMP1"> F  </i>
   <i type="logical" name="LMP2LT"> F  </i>
   <i type="logical" name="LSMP2LT"> F  </i>
   <i type="logical" name="LGWLF"> F  </i>
   <i name="ENCUTGW">     -2.00000000</i>
   <i name="ENCUTGWSOFT">     -2.00000000</i>
   <i name="ENCUTLF">     -1.00000000</i>
   <i type="logical" name="LESF_SPLINES"> F  </i>
   <i type="int" name="LMAXMP2">    -1</i>
   <i name="SCISSOR">      0.00000000</i>
   <i type="int" name="NOMEGA">     0</i>
   <i type="int" name="NOMEGAR">     0</i>
   <i type="int" name="NBANDSGW">    -1</i>
   <i type="int" name="NBANDSO">    -1</i>
   <i type="int" name="NBANDSV">    -1</i>
   <i type="int" name="NELMGW">     1</i>
   <i type="int" name="NELMHF">     1</i>
   <i type="int" name="DIM">     3</i>
   <i type="int" name="IESPILON">     4</i>
   <i type="int" name="ANTIRES">     0</i>
   <i name="OMEGAMAX">    -30.00000000</i>
   <i name="OMEGAMIN">    -30.00000000</i>
   <i name="OMEGATL">   -200.00000000</i>
   <i type="int" name="OMEGAGRID">     0</i>
   <i name="CSHIFT">     -0.10000000</i>
   <i type="logical" name="LSELFENERGY"> F  </i>
   <i type="logical" name="LSPECTRAL"> F  </i>
   <i type="logical" name="LSPECTRALGW"> F  </i>
   <i type="logical" name="LSINGLES"> F  </i>
   <i type="logical" name="LFERMIGW"> F  </i>
   <i type="logical" name="ODDONLYGW"> F  </i>
   <i type="logical" name="EVENONLYGW"> F  </i>
   <i type="int" name="NKREDLFX">     1</i>
   <i type="int" name="NKREDLFY">     1</i>
   <i type="int" name="NKREDLFZ">     1</i>
   <i type="int" name="MAXMEM">  2800</i>
   <i type="int" name="TELESCOPE">     0</i>
   <i type="int" name="NTAUPAR">    -1</i>
   <i type="int" name="NOMEGAPAR">    -1</i>
   <i name="DAMP_NEWTON">      0.80000001</i>
   <i name="LAMBDA">      1.00000000</i>
  </separator>
  <separator name="External order field" >
   <i name="OFIELD_KAPPA">      0.00000000</i>
   <v name="OFIELD_K">      0.00000000      0.00000000      0.00000000</v>
   <i name="OFIELD_Q6_NEAR">      0.00000000</i>
   <i name="OFIELD_Q6_FAR">      0.00000000</i>
   <i name="OFIELD_A">      0.00000000</i>
  </separator>
  <separator name="optional k-points parameters" >
   <i type="int" name="KPOINTS_OPT_MODE">     1</i>
   <i type="logical" name="LKPOINTS_OPT"> F  </i>
  </separator>
 </parameters>
 <atominfo>
  <atoms>      10 </atoms>
  <types>       2 </types>
  <array name="atoms" >
   <dimension dim="1">ion</dimension>
   <field type="string">element</field>
   <field type="int">atomtype</field>
   <set>
    <rc><c>Cu</c><c>   1</c></rc>
    <rc><c>Cu</c><c>   1</c></rc>
    <rc><c>Cu</c><c>   1</c></rc>
    <rc><c>Cu</c><c>   1</c></rc>
    <rc><c>Cu</c><c>   1</c></rc>
    <rc><c>Cu</c><c>   1</c></rc>
    <rc><c>Cu</c><c>   1</c></rc>
    <rc><c>Cu</c><c>   1</c></rc>
    <rc><c>H </c><c>   2</c></rc>
    <rc><c>H </c><c>   2</c></rc>
   </set>
  </array>
  <array name="atomtypes" >
   <dimension dim="1">type</dimension>
   <field type="int">atomspertype</field>
   <field type="string">element</field>
   <field>mass</field>
   <field>valence</field>
   <field type="string">pseudopotential</field>
   <set>
    <rc><c>   8</c><c>Cu</c><c>     63.54600000</c><c>     11.00000000</c><c>  PAW_PBE Cu 22Jun2005                  </c></rc>
    <rc><c>   2</c><c>H </c><c>      1.00000000</c><c>      1.00000000</c><c>  PAW_PBE H 15Jun2001                   </c></rc>
   </set>
  </array>
 </atominfo>
 <structure name="initialpos" >
  <crystal>
   <varray name="basis" >
    <v>       3.63000011       0.00000000       0.00000000 </v>
    <v>       0.00000000       2.56679773       0.00000000 </v>
    <v>       0.00000000       0.00000000      23.98379135 </v>
   </varray>
   <i name="volume">    223.46840188 </i>
   <varray name="rec_basis" >
    <v>       0.27548208       0.00000000       0.00000000 </v>
    <v>       0.00000000       0.38959050       0.00000000 </v>
    <v>       0.00000000       0.00000000       0.04169483 </v>
   </varray>
  </crystal>
  <varray name="positions" >
   <v>       0.00000000       0.00000000       0.00000000 </v>
   <v>       0.50000000       0.50000000       0.05351109 </v>
   <v>       0.00000000       0.00000000       0.10468148 </v>
   <v>       0.50000000       0.50000000       0.15792996 </v>
   <v>       0.00000000       0.00000000       0.21070899 </v>
   <v>       0.50000000       0.50000000       0.26289048 </v>
   <v>       0.00000000       0.00000000       0.31711592 </v>
   <v>       0.50000000       0.50000000       0.36467590 </v>
   <v>       1.00000000       0.00000000       0.42690792 </v>
   <v>       1.00000000       0.20550963       0.44890201 </v>
  </varray>
 </structure>
 <calculation>
  <scstep>
   <time name="dav">    0.32    0.32</time>
   <time name="total">    0.35    0.35</time>
   <energy>
    <i name="alphaZ">    216.17040255 </i>
    <i name="ewald">  42281.88809044 </i>
    <i name="hartreedc"> -53105.66993209 </i>
    <i name="XCdc">    371.25292492 </i>
    <i name="pawpsdc">   9828.36862813 </i>
    <i name="pawaedc"> -10674.97285505 </i>
    <i name="eentropy">     -0.00327039 </i>
    <i name="bandstr">    701.61198790 </i>
    <i name="atom">  11152.61838693 </i>
    <i name="e_fr_energy">    771.26436332 </i>
    <i name="e_wo_entrp">    771.26763371 </i>
    <i name="e_0_energy">    771.26545345 </i>
   </energy>
  </scstep>
  <scstep>
   <time name="dav">    0.31    0.31</time>
   <time name="total">    0.31    0.31</time>
   <energy>
    <i name="e_fr_energy">     58.41014353 </i>
    <i name="e_wo_entrp">     58.43207648 </i>
    <i name="e_0_energy">     58.41745451 </i>
   </energy>
  </scstep>
  <scstep>
   <time name="dav">    0.31    0.32</time>
   <time name="total">    0.32    0.32</time>
   <energy>
    <i name="e_fr_energy">    -30.73138921 </i>
    <i name="e_wo_entrp">    -30.73468414 </i>
    <i name="e_0_energy">    -30.73248752 </i>
   </energy>
  </scstep>
  <scstep>
   <time name="dav">    0.35    0.35</time>
   <time name="total">    0.35    0.35</time>
   <energy>
    <i name="e_fr_energy">    -34.44650337 </i>
    <i name="e_wo_entrp">    -34.44707775 </i>
    <i name="e_0_energy">    -34.44669483 </i>
   </energy>
  </scstep>
  <scstep>
   <time name="dav">    0.34    0.35</time>
   <time name="total">    0.40    0.40</time>
   <energy>
    <i name="e_fr_energy">    -34.53123341 </i>
    <i name="e_wo_entrp">    -34.53176599 </i>
    <i name="e_0_energy">    -34.53141094 </i>
   </energy>
  </scstep>
  <scstep>
   <time name="dav">    0.33    0.33</time>
   <time name="total">    0.41    0.41</time>
   <energy>
    <i name="e_fr_energy">    -29.73249753 </i>
    <i name="e_wo_entrp">    -29.72048330 </i>
    <i name="e_0_energy">    -29.72849279 </i>
   </energy>
  </scstep>
  <scstep>
   <time name="dav">    0.35    0.36</time>
   <time name="total">    0.43    0.43</time>
   <energy>
    <i name="e_fr_energy">    -27.37657043 </i>
    <i name="e_wo_entrp">    -27.35237397 </i>
    <i name="e_0_energy">    -27.36850494 </i>
   </energy>
  </scstep>
  <scstep>
   <time name="dav">    0.37    0.38</time>
   <time name="total">    0.45    0.45</time>
   <energy>
    <i name="e_fr_energy">    -26.97908587 </i>
    <i name="e_wo_entrp">    -26.97063430 </i>
    <i name="e_0_energy">    -26.97626868 </i>
   </energy>
  </scstep>
  <scstep>
   <time name="dav">    0.47    0.47</time>
   <time name="total">    0.54    0.55</time>
   <energy>
    <i name="e_fr_energy">    -26.56326285 </i>
    <i name="e_wo_entrp">    -26.54403132 </i>
    <i name="e_0_energy">    -26.55685234 </i>
   </energy>
  </scstep>
  <scstep>
   <time name="dav">    0.41    0.41</time>
   <time name="total">    0.49    0.50</time>
   <energy>
    <i name="e_fr_energy">    -27.26144590 </i>
    <i name="e_wo_entrp">    -27.25086774 </i>
    <i name="e_0_energy">    -27.25791985 </i>
   </energy>
  </scstep>
  <scstep>
   <time name="dav">    0.37    0.38</time>
   <time name="total">    0.45    0.45</time>
   <energy>
    <i name="e_fr_energy">    -28.75574809 </i>
    <i name="e_wo_entrp">    -28.74649894 </i>
    <i name="e_0_energy">    -28.75266504 </i>
   </energy>
  </scstep>
  <scstep>
   <time name="dav">    0.37    0.38</time>
   <time name="total">    0.45    0.45</time>
   <energy>
    <i name="e_fr_energy">    -29.80994238 </i>
    <i name="e_wo_entrp">    -29.80127864 </i>
    <i name="e_0_energy">    -29.80705447 </i>
   </energy>
  </scstep>
  <scstep>
   <time name="dav">    0.36    0.36</time>
   <time name="total">    0.44    0.44</time>
   <energy>
    <i name="e_fr_energy">    -32.05223520 </i>
    <i name="e_wo_entrp">    -32.03905702 </i>
    <i name="e_0_energy">    -32.04784247 </i>
   </energy>
  </scstep>
  <scstep>
   <time name="dav">    0.39    0.39</time>
   <time name="total">    0.46    0.47</time>
   <energy>
    <i name="e_fr_energy">    -33.87669988 </i>
    <i name="e_wo_entrp">    -33.86778997 </i>
    <i name="e_0_energy">    -33.87372991 </i>
   </energy>
  </scstep>
  <scstep>
   <time name="dav">    0.34    0.35</time>
   <time name="total">    0.42    0.42</time>
   <energy>
    <i name="e_fr_energy">    -34.41842768 </i>
    <i name="e_wo_entrp">    -34.41650939 </i>
    <i name="e_0_energy">    -34.41778825 </i>
   </energy>
  </scstep>
  <scstep>
   <time name="dav">    0.37    0.37</time>
   <time name="total">    0.45    0.45</time>
   <energy>
    <i name="e_fr_energy">    -34.60341211 </i>
    <i name="e_wo_entrp">    -34.60466712 </i>
    <i name="e_0_energy">    -34.60383045 </i>
   </energy>
  </scstep>
  <scstep>
   <time name="dav">    0.36    0.37</time>
   <time name="total">    0.44    0.44</time>
   <energy>
    <i name="e_fr_energy">    -34.76405610 </i>
    <i name="e_wo_entrp">    -34.76773922 </i>
    <i name="e_0_energy">    -34.76528380 </i>
   </energy>
  </scstep>
  <scstep>
   <time name="dav">    0.34    0.35</time>
   <time name="total">    0.42    0.42</time>
   <energy>
    <i name="e_fr_energy">    -34.81384455 </i>
    <i name="e_wo_entrp">    -34.81781634 </i>
    <i name="e_0_energy">    -34.81516848 </i>
   </energy>
  </scstep>
  <scstep>
   <time name="dav">    0.35    0.35</time>
   <time name="total">    0.42    0.42</time>
   <energy>
    <i name="e_fr_energy">    -34.88737067 </i>
    <i name="e_wo_entrp">    -34.89081184 </i>
    <i name="e_0_energy">    -34.88851772 </i>
   </energy>
  </scstep>
  <scstep>
   <time name="dav">    0.35    0.35</time>
   <time name="total">    0.42    0.42</time>
   <energy>
    <i name="e_fr_energy">    -34.92306374 </i>
    <i name="e_wo_entrp">    -34.92636674 </i>
    <i name="e_0_energy">    -34.92416474 </i>
   </energy>
  </scstep>
  <scstep>
   <time name="dav">    0.35    0.36</time>
   <time name="total">    0.43    0.43</time>
   <energy>
    <i name="e_fr_energy">    -34.96004431 </i>
    <i name="e_wo_entrp">    -34.96290172 </i>
    <i name="e_0_energy">    -34.96099678 </i>
   </energy>
  </scstep>
  <scstep>
   <time name="dav">    0.32    0.32</time>
   <time name="total">    0.40    0.40</time>
   <energy>
    <i name="e_fr_energy">    -35.00799969 </i>
    <i name="e_wo_entrp">    -35.01061690 </i>
    <i name="e_0_energy">    -35.00887210 </i>
   </energy>
  </scstep>
  <scstep>
   <time name="dav">    0.33    0.33</time>
   <time name="total">    0.40    0.41</time>
   <energy>
    <i name="e_fr_energy">    -35.06475183 </i>
    <i name="e_wo_entrp">    -35.06703648 </i>
    <i name="e_0_energy">    -35.06551338 </i>
   </energy>
  </scstep>
  <scstep>
   <time name="dav">    0.28    0.29</time>
   <time name="total">    0.36    0.37</time>
   <energy>
    <i name="e_fr_energy">    -35.09028699 </i>
    <i name="e_wo_entrp">    -35.09236674 </i>
    <i name="e_0_energy">    -35.09098024 </i>
   </energy>
  </scstep>
  <scstep>
   <time name="dav">    0.26    0.27</time>
   <time name="total">    0.34    0.34</time>
   <energy>
    <i name="e_fr_energy">    -35.10235099 </i>
    <i name="e_wo_entrp">    -35.10435281 </i>
    <i name="e_0_energy">    -35.10301826 </i>
   </energy>
  </scstep>
  <scstep>
   <time name="dav">    0.27    0.27</time>
   <time name="total">    0.35    0.35</time>
   <energy>
    <i name="e_fr_energy">    -35.10557335 </i>
    <i name="e_wo_entrp">    -35.10752334 </i>
    <i name="e_0_energy">    -35.10622335 </i>
   </energy>
  </scstep>
  <scstep>
   <time name="dav">    0.25    0.25</time>
   <time name="total">    0.33    0.33</time>
   <energy>
    <i name="e_fr_energy">    -35.10598982 </i>
    <i name="e_wo_entrp">    -35.10786677 </i>
    <i name="e_0_energy">    -35.10661547 </i>
   </energy>
  </scstep>
  <scstep>
   <time name="dav">    0.25    0.25</time>
   <time name="total">    0.28    0.28</time>
   <energy>
    <i name="alphaZ">    216.17040255 </i>
    <i name="ewald">  42281.88809044 </i>
    <i name="hartreedc"> -53025.05711073 </i>
    <i name="XCdc">    362.18887380 </i>
    <i name="pawpsdc">  10504.48229410 </i>
    <i name="pawaedc"> -11366.07135453 </i>
    <i name="eentropy">      0.00187527 </i>
    <i name="bandstr">   -161.32745774 </i>
    <i name="atom">  11152.61838693 </i>
    <i name="e_fr_energy">    -35.10599991 </i>
    <i name="e_wo_entrp">    -35.10787518 </i>
    <i name="e_0_energy">    -35.10662500 </i>
   </energy>
  </scstep>
  <structure>
   <crystal>
    <varray name="basis" >
     <v>       3.63000011       0.00000000       0.00000000 </v>
     <v>       0.00000000       2.56679773       0.00000000 </v>
     <v>       0.00000000       0.00000000      23.98379135 </v>
    </varray>
    <i name="volume">    223.46840188 </i>
    <varray name="rec_basis" >
     <v>       0.27548208       0.00000000       0.00000000 </v>
     <v>       0.00000000       0.38959050       0.00000000 </v>
     <v>       0.00000000       0.00000000       0.04169483 </v>
    </varray>
   </crystal>
   <varray name="positions" >
    <v>       0.00000000       0.00000000       0.00000000 </v>
    <v>       0.50000000       0.50000000       0.05351109 </v>
    <v>       0.00000000       0.00000000       0.10468148 </v>
    <v>       0.50000000       0.50000000       0.15792996 </v>
    <v>       0.00000000       0.00000000       0.21070899 </v>
    <v>       0.50000000       0.50000000       0.26289048 </v>
    <v>       0.00000000       0.00000000       0.31711592 </v>
    <v>       0.50000000       0.50000000       0.36467590 </v>
    <v>       1.00000000       0.00000000       0.42690792 </v>
    <v>       1.00000000       0.20550963       0.44890201 </v>
   </varray>
  </structure>
  <varray name="forces" >
   <v>       0.00000000      -0.00012400       0.51347173 </v>
   <v>       0.00000000      -0.00009780      -0.46611989 </v>
   <v>       0.00000000       0.00082601      -0.01479879 </v>
   <v>       0.00000000      -0.00099561       0.07604179 </v>
   <v>       0.00000000       0.00019666      -0.11190443 </v>
   <v>       0.00000000       0.00291490      -0.00324179 </v>
   <v>       0.00000000      -0.02346809      -0.09676602 </v>
   <v>       0.00000000      -0.03293326      -0.35551966 </v>
   <v>       0.00000000      -0.29529268      -0.25463465 </v>
   <v>       0.00000000       0.34897388       0.71347170 </v>
  </varray>
  <varray name="stress" >
   <v>     -37.90265294       0.00000000       0.00000000 </v>
   <v>       0.00000000     -32.75328528       1.92927725 </v>
   <v>       0.00000000       1.92927726      -3.02308003 </v>
  </varray>
  <energy>
   <i name="e_fr_energy">    -38.36707873 </i>
   <i name="e_wo_entrp">    -38.36895400 </i>
   <i name="e_0_energy">    -38.36770382 </i>
  </energy>
  <time name="totalsc">   11.79   11.91</time>
 </calculation>
 <calculation>
  <scstep>
   <time name="dav">    0.32    0.33</time>
   <time name="total">    0.40    0.40</time>
   <energy>
    <i name="alphaZ">    216.17040255 </i>
    <i name="ewald">  42402.79948846 </i>
    <i name="hartreedc"> -53146.76469278 </i>
    <i name="XCdc">    362.20086469 </i>
    <i name="pawpsdc">  10504.46074717 </i>
    <i name="pawaedc"> -11366.04886328 </i>
    <i name="eentropy">      0.00435066 </i>
    <i name="bandstr">   -160.54780267 </i>
    <i name="atom">  11152.61838693 </i>
    <i name="e_fr_energy">    -35.10711828 </i>
    <i name="e_wo_entrp">    -35.11146893 </i>
    <i name="e_0_energy">    -35.10856850 </i>
   </energy>
  </scstep>
  <scstep>
   <time name="dav">    0.40    0.40</time>
   <time name="total">    0.47    0.48</time>
   <energy>
    <i name="e_fr_energy">    -35.12166034 </i>
    <i name="e_wo_entrp">    -35.12492387 </i>
    <i name="e_0_energy">    -35.12274819 </i>
   </energy>
  </scstep>
  <scstep>
   <time name="dav">    0.33    0.34</time>
   <time name="total">    0.41    0.42</time>
   <energy>
    <i name="e_fr_energy">    -35.12001518 </i>
    <i name="e_wo_entrp">    -35.12431681 </i>
    <i name="e_0_energy">    -35.12144905 </i>
   </energy>
  </scstep>
  <scstep>
   <time name="dav">    0.36    0.36</time>
   <time name="total">    0.44    0.44</time>
   <energy>
    <i name="e_fr_energy">    -35.11938523 </i>
    <i name="e_wo_entrp">    -35.12312621 </i>
    <i name="e_0_energy">    -35.12063222 </i>
   </energy>
  </scstep>
  <scstep>
   <time name="dav">    0.42    0.42</time>
   <time name="total">    0.50    0.50</time>
   <energy>
    <i name="e_fr_energy">    -35.11929845 </i>
    <i name="e_wo_entrp">    -35.12355357 </i>
    <i name="e_0_energy">    -35.12071682 </i>
   </energy>
  </scstep>
  <scstep>
   <time name="dav">    0.27    0.27</time>
   <time name="total">    0.34    0.35</time>
   <energy>
    <i name="e_fr_energy">    -35.11932040 </i>
    <i name="e_wo_entrp">    -35.12342959 </i>
    <i name="e_0_energy">    -35.12069013 </i>
   </energy>
  </scstep>
  <scstep>
   <time name="dav">    0.25    0.25</time>
   <time name="total">    0.27    0.28</time>
   <energy>
    <i name="alphaZ">    216.17040255 </i>
    <i name="ewald">  42402.79948846 </i>
    <i name="hartreedc"> -53144.68819149 </i>
    <i name="XCdc">    362.10879740 </i>
    <i name="pawpsdc">  10508.03986542 </i>
    <i name="pawaedc"> -11369.72803846 </i>
    <i name="eentropy">      0.00415191 </i>
    <i name="bandstr">   -162.44413231 </i>
    <i name="atom">  11152.61838693 </i>
    <i name="e_fr_energy">    -35.11926960 </i>
    <i name="e_wo_entrp">    -35.12342151 </i>
    <i name="e_0_energy">    -35.12065357 </i>
   </energy>
  </scstep>
  <structure>
   <crystal>
    <varray name="basis" >
     <v>       3.63000011       0.00000000       0.00000000 </v>
     <v>       0.00000000       2.56679773       0.00000000 </v>
     <v>       0.00000000       0.00000000      23.98379135 </v>
    </varray>
    <i name="volume">    223.46840188 </i>
    <varray name="rec_basis" >
     <v>       0.27548208       0.00000000       0.00000000 </v>
     <v>       0.00000000       0.38959050       0.00000000 </v>
     <v>       0.00000000       0.00000000       0.04169483 </v>
    </varray>
   </crystal>
   <varray name="positions" >
    <v>       0.00000000      -0.00000233       0.00103283 </v>
    <v>       0.50000000       0.49999816       0.05257350 </v>
    <v>       0.00000000       0.00001552       0.10465171 </v>
    <v>       0.50000000       0.49998129       0.15808291 </v>
    <v>       0.00000000       0.00000370       0.21048390 </v>
    <v>       0.50000000       0.50005479       0.26288396 </v>
    <v>       0.00000000      -0.00044108       0.31692127 </v>
    <v>       0.50000000       0.49938102       0.36396078 </v>
    <v>       1.00000000      -0.00554999       0.42639573 </v>
    <v>       1.00000000       0.21206855       0.45033714 </v>
   </varray>
  </structure>
  <varray name="forces" >
   <v>       0.00000000      -0.00042449       0.35610924 </v>
   <v>       0.00000000      -0.00032488      -0.28244699 </v>
   <v>       0.00000000       0.00021254       0.00589214 </v>
   <v>       0.00000000      -0.00091832      -0.01306256 </v>
   <v>       0.00000000       0.00009499      -0.09105449 </v>
   <v>       0.00000000       0.00027493      -0.06375341 </v>
   <v>       0.00000000      -0.02117834      -0.09511128 </v>
   <v>       0.00000000      -0.03281860      -0.22028161 </v>
   <v>       0.00000000       0.58120483       0.60342510 </v>
   <v>       0.00000000      -0.52612265      -0.19971615 </v>
  </varray>
  <varray name="stress" >
   <v>     -35.71236542       0.00000000       0.00000000 </v>
   <v>       0.00000000     -34.50927239      -1.50774284 </v>
   <v>       0.00000000      -1.50774273      -4.40008728 </v>
  </varray>
  <energy>
   <i name="e_fr_energy">    -38.39096413 </i>
   <i name="e_wo_entrp">    -38.39511604 </i>
   <i name="e_0_energy">    -38.39234810 </i>
  </energy>
  <time name="totalsc">    3.34    3.40</time>
 </calculation>
 <calculation>
  <scstep>
   <time name="dav">    0.33    0.34</time>
   <time name="total">    0.41    0.42</time>
   <energy>
    <i name="alphaZ">    216.17040255 </i>
    <i name="ewald">  42378.72807728 </i>
    <i name="hartreedc"> -53120.44552520 </i>
    <i name="XCdc">    362.10640985 </i>
    <i name="pawpsdc">  10508.12552036 </i>
    <i name="pawaedc"> -11369.81764882 </i>
    <i name="eentropy">      0.00363916 </i>
    <i name="bandstr">   -162.61293505 </i>
    <i name="atom">  11152.61838693 </i>
    <i name="e_fr_energy">    -35.12367294 </i>
    <i name="e_wo_entrp">    -35.12731210 </i>
    <i name="e_0_energy">    -35.12488599 </i>
   </energy>
  </scstep>
  <scstep>
   <time name="dav">    0.39    0.40</time>
   <time name="total">    0.48    0.48</time>
   <energy>
    <i name="e_fr_energy">    -35.12419433 </i>
    <i name="e_wo_entrp">    -35.12795706 </i>
    <i name="e_0_energy">    -35.12544857 </i>
   </energy>
  </scstep>
  <scstep>
   <time name="dav">    0.30    0.30</time>
   <time name="total">    0.32    0.33</time>
   <energy>
    <i name="alphaZ">    216.17040255 </i>
    <i name="ewald">  42378.72807728 </i>
    <i name="hartreedc"> -53120.63653733 </i>
    <i name="XCdc">    362.11948013 </i>
    <i name="pawpsdc">  10507.77876587 </i>
    <i name="pawaedc"> -11369.47894443 </i>
    <i name="eentropy">      0.00363582 </i>
    <i name="bandstr">   -162.42744309 </i>
    <i name="atom">  11152.61838693 </i>
    <i name="e_fr_energy">    -35.12417628 </i>
    <i name="e_wo_entrp">    -35.12781210 </i>
    <i name="e_0_energy">    -35.12538822 </i>
   </energy>
  </scstep>
  <structure>
   <crystal>
    <varray name="basis" >
     <v>       3.63000011       0.00000000       0.00000000 </v>
     <v>       0.00000000       2.56679773       0.00000000 </v>
     <v>       0.00000000       0.00000000      23.98379135 </v>
    </varray>
    <i name="volume">    223.46840188 </i>
    <varray name="rec_basis" >
     <v>       0.27548208       0.00000000       0.00000000 </v>
     <v>       0.00000000       0.38959050       0.00000000 </v>
     <v>       0.00000000       0.00000000       0.04169483 </v>
    </varray>
   </crystal>
   <varray name="positions" >
    <v>       0.00000000      -0.00000187       0.00082743 </v>
    <v>       0.50000000       0.49999853       0.05275997 </v>
    <v>       0.00000000       0.00001244       0.10465763 </v>
    <v>       0.50000000       0.49998501       0.15805249 </v>
    <v>       0.00000000       0.00000296       0.21052866 </v>
    <v>       0.50000000       0.50004389       0.26288525 </v>
    <v>       0.00000000      -0.00035336       0.31695998 </v>
    <v>       0.50000000       0.49950412       0.36410300 </v>
    <v>       1.00000000      -0.00444624       0.42649759 </v>
    <v>       1.00000000       0.21076415       0.45005173 </v>
   </varray>
  </structure>
  <varray name="forces" >
   <v>       0.00000000       0.00010799       0.41151995 </v>
   <v>       0.00000000       0.00032300      -0.32948327 </v>
   <v>       0.00000000       0.00101423       0.00466423 </v>
   <v>       0.00000000      -0.00052719       0.01526491 </v>
   <v>       0.00000000       0.00062880      -0.10110819 </v>
   <v>       0.00000000       0.00203887      -0.04773377 </v>
   <v>       0.00000000      -0.02338278      -0.10390445 </v>
   <v>       0.00000000      -0.03411288      -0.26906411 </v>
   <v>       0.00000000       0.48165358       0.50757534 </v>
   <v>       0.00000000      -0.42774362      -0.08773065 </v>
  </varray>
  <varray name="stress" >
   <v>     -36.00447346       0.00000000       0.00000000 </v>
   <v>       0.00000000     -34.38684403      -1.08805633 </v>
   <v>       0.00000000      -1.08805639      -4.44779824 </v>
  </varray>
  <energy>
   <i name="e_fr_energy">    -38.39223605 </i>
   <i name="e_wo_entrp">    -38.39587187 </i>
   <i name="e_0_energy">    -38.39344799 </i>
  </energy>
  <time name="totalsc">    1.71    1.75</time>
 </calculation>
 <calculation>
  <scstep>
   <time name="dav">    0.32    0.33</time>
   <time name="total">    0.40    0.40</time>
   <energy>
    <i name="alphaZ">    216.17040255 </i>
    <i name="ewald">  42526.55478996 </i>
    <i name="hartreedc"> -53268.05431116 </i>
    <i name="XCdc">    362.20029870 </i>
    <i name="pawpsdc">  10507.67501900 </i>
    <i name="pawaedc"> -11369.37943254 </i>
    <i name="eentropy">      0.00536589 </i>
    <i name="bandstr">   -162.92521056 </i>
    <i name="atom">  11152.61838693 </i>
    <i name="e_fr_energy">    -35.13469124 </i>
    <i name="e_wo_entrp">    -35.14005713 </i>
    <i name="e_0_energy">    -35.13647987 </i>
   </energy>
  </scstep>
  <scstep>
   <time name="dav">    0.40    0.40</time>
   <time name="total">    0.47    0.48</time>
   <energy>
    <i name="e_fr_energy">    -35.15448301 </i>
    <i name="e_wo_entrp">    -35.15930606 </i>
    <i name="e_0_energy">    -35.15609069 </i>
   </energy>
  </scstep>
  <scstep>
   <time name="dav">    0.33    0.33</time>
   <time name="total">    0.41    0.41</time>
   <energy>
    <i name="e_fr_energy">    -35.15300834 </i>
    <i name="e_wo_entrp">    -35.15829412 </i>
    <i name="e_0_energy">    -35.15477027 </i>
   </energy>
  </scstep>
  <scstep>
   <time name="dav">    0.33    0.33</time>
   <time name="total">    0.41    0.41</time>
   <energy>
    <i name="e_fr_energy">    -35.15290850 </i>
    <i name="e_wo_entrp">    -35.15818713 </i>
    <i name="e_0_energy">    -35.15466804 </i>
   </energy>
  </scstep>
  <scstep>
   <time name="dav">    0.32    0.32</time>
   <time name="total">    0.40    0.40</time>
   <energy>
    <i name="e_fr_energy">    -35.15267772 </i>
    <i name="e_wo_entrp">    -35.15793090 </i>
    <i name="e_0_energy">    -35.15442878 </i>
   </energy>
  </scstep>
  <scstep>
   <time name="dav">    0.31    0.31</time>
   <time name="total">    0.38    0.39</time>
   <energy>
    <i name="e_fr_energy">    -35.15256278 </i>
    <i name="e_wo_entrp">    -35.15821592 </i>
    <i name="e_0_energy">    -35.15444716 </i>
   </energy>
  </scstep>
  <scstep>
   <time name="dav">    0.24    0.24</time>
   <time name="total">    0.26    0.27</time>
   <energy>
    <i name="alphaZ">    216.17040255 </i>
    <i name="ewald">  42526.55478996 </i>
    <i name="hartreedc"> -53266.92319523 </i>
    <i name="XCdc">    362.18372499 </i>
    <i name="pawpsdc">  10517.92261622 </i>
    <i name="pawaedc"> -11379.80209910 </i>
    <i name="eentropy">      0.00548260 </i>
    <i name="bandstr">   -163.88266105 </i>
    <i name="atom">  11152.61838693 </i>
    <i name="e_fr_energy">    -35.15255213 </i>
    <i name="e_wo_entrp">    -35.15803473 </i>
    <i name="e_0_energy">    -35.15437966 </i>
   </energy>
  </scstep>
  <structure>
   <crystal>
    <varray name="basis" >
     <v>       3.63000011       0.00000000       0.00000000 </v>
     <v>       0.00000000       2.56679773       0.00000000 </v>
     <v>       0.00000000       0.00000000      23.98379135 </v>
    </varray>
    <i name="volume">    223.46840188 </i>
    <varray name="rec_basis" >
     <v>       0.27548208       0.00000000       0.00000000 </v>
     <v>       0.00000000       0.38959050       0.00000000 </v>
     <v>       0.00000000       0.00000000       0.04169483 </v>
    </varray>
   </crystal>
   <varray name="positions" >
    <v>       0.00000000      -0.00000165       0.00200830 </v>
    <v>       0.50000000       0.50000201       0.05175366 </v>
    <v>       0.00000000       0.00003509       0.10464821 </v>
    <v>       0.50000000       0.49996738       0.15815934 </v>
    <v>       0.00000000       0.00001374       0.21025429 </v>
    <v>       0.50000000       0.50010239       0.26281057 </v>
    <v>       0.00000000      -0.00092132       0.31669819 </v>
    <v>       0.50000000       0.49868901       0.36330902 </v>
    <v>       1.00000000      -0.00079514       0.42697192 </v>
    <v>       1.00000000       0.20841811       0.45071024 </v>
   </varray>
  </structure>
  <varray name="forces" >
   <v>       0.00000000      -0.00011370       0.21518322 </v>
   <v>       0.00000000       0.00014813      -0.12843235 </v>
   <v>       0.00000000       0.00040877       0.03757813 </v>
   <v>       0.00000000      -0.00023472      -0.06691557 </v>
   <v>       0.00000000       0.00041611      -0.07635324 </v>
   <v>       0.00000000      -0.00110754      -0.11404256 </v>
   <v>       0.00000000      -0.02034570      -0.10583640 </v>
   <v>       0.00000000      -0.03011668      -0.16144437 </v>
   <v>       0.00000000       0.37920090       0.41386499 </v>
   <v>       0.00000000      -0.32825557      -0.01360184 </v>
  </varray>
  <varray name="stress" >
   <v>     -34.40377890       0.00000000       0.00000000 </v>
   <v>       0.00000000     -33.31388445      -0.71674303 </v>
   <v>       0.00000000      -0.71674309      -1.78885875 </v>
  </varray>
  <energy>
   <i name="e_fr_energy">    -38.42230590 </i>
   <i name="e_wo_entrp">    -38.42778850 </i>
   <i name="e_0_energy">    -38.42413343 </i>
  </energy>
  <time name="totalsc">    3.22    3.30</time>
 </calculation>
 <calculation>
  <scstep>
   <time name="dav">    0.32    0.33</time>
   <time name="total">    0.40    0.40</time>
   <energy>
    <i name="alphaZ">    216.17040255 </i>
    <i name="ewald">  42772.37100636 </i>
    <i name="hartreedc"> -53511.96536516 </i>
    <i name="XCdc">    362.32222212 </i>
    <i name="pawpsdc">  10517.99149978 </i>
    <i name="pawaedc"> -11379.87020629 </i>
    <i name="eentropy">      0.00730518 </i>
    <i name="bandstr">   -164.76135685 </i>
    <i name="atom">  11152.61838693 </i>
    <i name="e_fr_energy">    -35.11610540 </i>
    <i name="e_wo_entrp">    -35.12341057 </i>
    <i name="e_0_energy">    -35.11854045 </i>
   </energy>
  </scstep>
  <scstep>
   <time name="dav">    0.40    0.40</time>
   <time name="total">    0.48    0.48</time>
   <energy>
    <i name="e_fr_energy">    -35.17525414 </i>
    <i name="e_wo_entrp">    -35.18163731 </i>
    <i name="e_0_energy">    -35.17738187 </i>
   </energy>
  </scstep>
  <scstep>
   <time name="dav">    0.33    0.34</time>
   <time name="total">    0.41    0.41</time>
   <energy>
    <i name="e_fr_energy">    -35.17055624 </i>
    <i name="e_wo_entrp">    -35.17769229 </i>
    <i name="e_0_energy">    -35.17293492 </i>
   </energy>
  </scstep>
  <scstep>
   <time name="dav">    0.34    0.34</time>
   <time name="total">    0.42    0.42</time>
   <energy>
    <i name="e_fr_energy">    -35.17031831 </i>
    <i name="e_wo_entrp">    -35.17757860 </i>
    <i name="e_0_energy">    -35.17273841 </i>
   </energy>
  </scstep>
  <scstep>
   <time name="dav">    0.36    0.36</time>
   <time name="total">    0.44    0.44</time>
   <energy>
    <i name="e_fr_energy">    -35.16978902 </i>
    <i name="e_wo_entrp">    -35.17685551 </i>
    <i name="e_0_energy">    -35.17214452 </i>
   </energy>
  </scstep>
  <scstep>
   <time name="dav">    0.43    0.44</time>
   <time name="total">    0.51    0.52</time>
   <energy>
    <i name="e_fr_energy">    -35.16935355 </i>
    <i name="e_wo_entrp">    -35.17719448 </i>
    <i name="e_0_energy">    -35.17196719 </i>
   </energy>
  </scstep>
  <scstep>
   <time name="dav">    0.30    0.30</time>
   <time name="total">    0.32    0.32</time>
   <energy>
    <i name="alphaZ">    216.17040255 </i>
    <i name="ewald">  42772.37100636 </i>
    <i name="hartreedc"> -53510.00145147 </i>
    <i name="XCdc">    362.28953633 </i>
    <i name="pawpsdc">  10537.49010082 </i>
    <i name="pawaedc"> -11399.70881842 </i>
    <i name="eentropy">      0.00757325 </i>
    <i name="bandstr">   -166.40605352 </i>
    <i name="atom">  11152.61838693 </i>
    <i name="e_fr_energy">    -35.16931718 </i>
    <i name="e_wo_entrp">    -35.17689043 </i>
    <i name="e_0_energy">    -35.17184160 </i>
   </energy>
  </scstep>
  <structure>
   <crystal>
    <varray name="basis" >
     <v>       3.63000011       0.00000000       0.00000000 </v>
     <v>       0.00000000       2.56679773       0.00000000 </v>
     <v>       0.00000000       0.00000000      23.98379135 </v>
    </varray>
    <i name="volume">    223.46840188 </i>
    <varray name="rec_basis" >
     <v>       0.27548208       0.00000000       0.00000000 </v>
     <v>       0.00000000       0.38959050       0.00000000 </v>
     <v>       0.00000000       0.00000000       0.04169483 </v>
    </varray>
   </crystal>
   <varray name="positions" >
    <v>       0.00000000      -0.00000128       0.00397161 </v>
    <v>       0.50000000       0.50000780       0.05008057 </v>
    <v>       0.00000000       0.00007275       0.10463254 </v>
    <v>       0.50000000       0.49993808       0.15833698 </v>
    <v>       0.00000000       0.00003167       0.20979813 </v>
    <v>       0.50000000       0.50019965       0.26268641 </v>
    <v>       0.00000000      -0.00186561       0.31626295 </v>
    <v>       0.50000000       0.49733380       0.36198894 </v>
    <v>       1.00000000       0.00527516       0.42776054 </v>
    <v>       1.00000000       0.20451760       0.45180507 </v>
   </varray>
  </structure>
  <varray name="forces" >
   <v>       0.00000000      -0.00008719      -0.12375274 </v>
   <v>       0.00000000       0.00008716       0.19804023 </v>
   <v>       0.00000000      -0.00028107       0.10928483 </v>
   <v>       0.00000000       0.00037695      -0.18251205 </v>
   <v>       0.00000000       0.00018690      -0.04507811 </v>
   <v>       0.00000000      -0.00530214      -0.23727607 </v>
   <v>       0.00000000      -0.01603363      -0.11596586 </v>
   <v>       0.00000000      -0.02182354       0.04988836 </v>
   <v>       0.00000000       0.20115414       0.22402282 </v>
   <v>       0.00000000      -0.15827757       0.12334857 </v>
  </varray>
  <varray name="stress" >
   <v>     -29.11178109       0.00000000       0.00000000 </v>
   <v>       0.00000000     -29.59757413      -0.08016665 </v>
   <v>       0.00000000      -0.08016664       5.01250769 </v>
  </varray>
  <energy>
   <i name="e_fr_energy">    -38.44238977 </i>
   <i name="e_wo_entrp">    -38.44996302 </i>
   <i name="e_0_energy">    -38.44491418 </i>
  </energy>
  <time name="totalsc">    3.47    3.52</time>
 </calculation>
 <calculation>
  <scstep>
   <time name="dav">    0.31    0.31</time>
   <time name="total">    0.39    0.39</time>
   <energy>
    <i name="alphaZ">    216.17040255 </i>
    <i name="ewald">  42832.80224589 </i>
    <i name="hartreedc"> -53570.21681998 </i>
    <i name="XCdc">    362.30117042 </i>
    <i name="pawpsdc">  10537.58955579 </i>
    <i name="pawaedc"> -11399.81771745 </i>
    <i name="eentropy">      0.00659374 </i>
    <i name="bandstr">   -166.62915616 </i>
    <i name="atom">  11152.61838693 </i>
    <i name="e_fr_energy">    -35.17533828 </i>
    <i name="e_wo_entrp">    -35.18193202 </i>
    <i name="e_0_energy">    -35.17753619 </i>
   </energy>
  </scstep>
  <scstep>
   <time name="dav">    0.38    0.39</time>
   <time name="total">    0.46    0.46</time>
   <energy>
    <i name="e_fr_energy">    -35.17876346 </i>
    <i name="e_wo_entrp">    -35.18574709 </i>
    <i name="e_0_energy">    -35.18109134 </i>
   </energy>
  </scstep>
  <scstep>
   <time name="dav">    0.32    0.32</time>
   <time name="total">    0.40    0.40</time>
   <energy>
    <i name="e_fr_energy">    -35.17866697 </i>
    <i name="e_wo_entrp">    -35.18537594 </i>
    <i name="e_0_energy">    -35.18090329 </i>
   </energy>
  </scstep>
  <scstep>
   <time name="dav">    0.25    0.25</time>
   <time name="total">    0.28    0.28</time>
   <energy>
    <i name="alphaZ">    216.17040255 </i>
    <i name="ewald">  42832.80224589 </i>
    <i name="hartreedc"> -53569.92314101 </i>
    <i name="XCdc">    362.31576425 </i>
    <i name="pawpsdc">  10537.76583847 </i>
    <i name="pawaedc"> -11399.98334240 </i>
    <i name="eentropy">      0.00695072 </i>
    <i name="bandstr">   -166.95165501 </i>
    <i name="atom">  11152.61838693 </i>
    <i name="e_fr_energy">    -35.17854962 </i>
    <i name="e_wo_entrp">    -35.18550034 </i>
    <i name="e_0_energy">    -35.18086652 </i>
   </energy>
  </scstep>
  <structure>
   <crystal>
    <varray name="basis" >
     <v>       3.63000011       0.00000000       0.00000000 </v>
     <v>       0.00000000       2.56679773       0.00000000 </v>
     <v>       0.00000000       0.00000000      23.98379135 </v>
    </varray>
    <i name="volume">    223.46840188 </i>
    <varray name="rec_basis" >
     <v>       0.27548208       0.00000000       0.00000000 </v>
     <v>       0.00000000       0.38959050       0.00000000 </v>
     <v>       0.00000000       0.00000000       0.04169483 </v>
    </varray>
   </crystal>
   <varray name="positions" >
    <v>       0.00000000      -0.00000286       0.00393628 </v>
    <v>       0.50000000       0.50001004       0.05029442 </v>
    <v>       0.00000000       0.00007157       0.10484776 </v>
    <v>       0.50000000       0.49994193       0.15799378 </v>
    <v>       0.00000000       0.00003706       0.20965981 </v>
    <v>       0.50000000       0.50011175       0.26220220 </v>
    <v>       0.00000000      -0.00226408       0.31598618 </v>
    <v>       0.50000000       0.49678395       0.36194657 </v>
    <v>       1.00000000       0.00965556       0.42828961 </v>
    <v>       1.00000000       0.20116471       0.45216714 </v>
   </varray>
  </structure>
  <varray name="forces" >
   <v>       0.00000000      -0.00091861      -0.09131128 </v>
   <v>       0.00000000      -0.00078890       0.11678032 </v>
   <v>       0.00000000      -0.00115556       0.02478807 </v>
   <v>       0.00000000      -0.00037949      -0.11224943 </v>
   <v>       0.00000000      -0.00081797      -0.03094876 </v>
   <v>       0.00000000      -0.00655243      -0.12214633 </v>
   <v>       0.00000000      -0.01484401      -0.08973237 </v>
   <v>       0.00000000      -0.01937888      -0.03039500 </v>
   <v>       0.00000000      -0.07096478      -0.08840041 </v>
   <v>       0.00000000       0.11580064       0.42361518 </v>
  </varray>
  <varray name="stress" >
   <v>     -29.72123847       0.00000000       0.00000000 </v>
   <v>       0.00000000     -29.04293703       1.00979344 </v>
   <v>       0.00000000       1.00979344       5.56406715 </v>
  </varray>
  <energy>
   <i name="e_fr_energy">    -38.45220621 </i>
   <i name="e_wo_entrp">    -38.45915694 </i>
   <i name="e_0_energy">    -38.45452312 </i>
  </energy>
  <time name="totalsc">    2.01    2.08</time>
 </calculation>
 <calculation>
  <scstep>
   <time name="dav">    0.31    0.31</time>
   <time name="total">    0.39    0.39</time>
   <energy>
    <i name="alphaZ">    216.17040255 </i>
    <i name="ewald">  42861.97253221 </i>
    <i name="hartreedc"> -53598.93560586 </i>
    <i name="XCdc">    362.32424595 </i>
    <i name="pawpsdc">  10538.06227083 </i>
    <i name="pawaedc"> -11400.27874591 </i>
    <i name="eentropy">      0.00636039 </i>
    <i name="bandstr">   -167.11845729 </i>
    <i name="atom">  11152.61838693 </i>
    <i name="e_fr_energy">    -35.17861020 </i>
    <i name="e_wo_entrp">    -35.18497059 </i>
    <i name="e_0_energy">    -35.18073033 </i>
   </energy>
  </scstep>
  <scstep>
   <time name="dav">    0.44    0.44</time>
   <time name="total">    0.52    0.52</time>
   <energy>
    <i name="e_fr_energy">    -35.17942599 </i>
    <i name="e_wo_entrp">    -35.18604340 </i>
    <i name="e_0_energy">    -35.18163180 </i>
   </energy>
  </scstep>
  <scstep>
   <time name="dav">    0.31    0.31</time>
   <time name="total">    0.39    0.39</time>
   <energy>
    <i name="e_fr_energy">    -35.17936850 </i>
    <i name="e_wo_entrp">    -35.18579439 </i>
    <i name="e_0_energy">    -35.18151046 </i>
   </energy>
  </scstep>
  <scstep>
   <time name="dav">    0.24    0.24</time>
   <time name="total">    0.26    0.26</time>
   <energy>
    <i name="alphaZ">    216.17040255 </i>
    <i name="ewald">  42861.97253221 </i>
    <i name="hartreedc"> -53598.91739666 </i>
    <i name="XCdc">    362.33113644 </i>
    <i name="pawpsdc">  10538.38305103 </i>
    <i name="pawaedc"> -11400.59407946 </i>
    <i name="eentropy">      0.00655323 </i>
    <i name="bandstr">   -167.14992469 </i>
    <i name="atom">  11152.61838693 </i>
    <i name="e_fr_energy">    -35.17933843 </i>
    <i name="e_wo_entrp">    -35.18589166 </i>
    <i name="e_0_energy">    -35.18152284 </i>
   </energy>
  </scstep>
  <structure>
   <crystal>
    <varray name="basis" >
     <v>       3.63000011       0.00000000       0.00000000 </v>
     <v>       0.00000000       2.56679773       0.00000000 </v>
     <v>       0.00000000       0.00000000      23.98379135 </v>
    </varray>
    <i name="volume">    223.46840188 </i>
    <varray name="rec_basis" >
     <v>       0.27548208       0.00000000       0.00000000 </v>
     <v>       0.00000000       0.38959050       0.00000000 </v>
     <v>       0.00000000       0.00000000       0.04169483 </v>
    </varray>
   </crystal>
   <varray name="positions" >
    <v>       0.00000000      -0.00000362       0.00391925 </v>
    <v>       0.50000000       0.50001112       0.05039749 </v>
    <v>       0.00000000       0.00007100       0.10495148 </v>
    <v>       0.50000000       0.49994378       0.15782837 </v>
    <v>       0.00000000       0.00003965       0.20959315 </v>
    <v>       0.50000000       0.50006938       0.26196883 </v>
    <v>       0.00000000      -0.00245613       0.31585279 </v>
    <v>       0.50000000       0.49651895       0.36192615 </v>
    <v>       1.00000000       0.01176675       0.42854460 </v>
    <v>       1.00000000       0.19954874       0.45234164 </v>
   </varray>
  </structure>
  <varray name="forces" >
   <v>       0.00000000      -0.00045993      -0.07460542 </v>
   <v>       0.00000000      -0.00033536       0.11644519 </v>
   <v>       0.00000000      -0.00065521       0.01154989 </v>
   <v>       0.00000000       0.00013953      -0.11489786 </v>
   <v>       0.00000000      -0.00062620      -0.04113639 </v>
   <v>       0.00000000      -0.00642943      -0.10485994 </v>
   <v>       0.00000000      -0.01451211      -0.08970104 </v>
   <v>       0.00000000      -0.01871519      -0.04374339 </v>
   <v>       0.00000000      -0.22647230      -0.26701827 </v>
   <v>       0.00000000       0.26806620       0.60796724 </v>
  </varray>
  <varray name="stress" >
   <v>     -29.94808508       0.00000000       0.00000000 </v>
   <v>       0.00000000     -28.67510384       1.64100003 </v>
   <v>       0.00000000       1.64099992       6.34377230 </v>
  </varray>
  <energy>
   <i name="e_fr_energy">    -38.45352849 </i>
   <i name="e_wo_entrp">    -38.46008171 </i>
   <i name="e_0_energy">    -38.45571290 </i>
  </energy>
  <time name="totalsc">    2.04    2.10</time>
 </calculation>
 <calculation>
  <scstep>
   <time name="dav">    0.31    0.31</time>
   <time name="total">    0.39    0.39</time>
   <energy>
    <i name="alphaZ">    216.17040255 </i>
    <i name="ewald">  42888.99732923 </i>
    <i name="hartreedc"> -53626.11981470 </i>
    <i name="XCdc">    362.33030382 </i>
    <i name="pawpsdc">  10538.71753191 </i>
    <i name="pawaedc"> -11400.93072675 </i>
    <i name="eentropy">      0.00608174 </i>
    <i name="bandstr">   -166.97253794 </i>
    <i name="atom">  11152.61838693 </i>
    <i name="e_fr_energy">    -35.18304322 </i>
    <i name="e_wo_entrp">    -35.18912497 </i>
    <i name="e_0_energy">    -35.18507047 </i>
   </energy>
  </scstep>
  <scstep>
   <time name="dav">    0.39    0.39</time>
   <time name="total">    0.47    0.47</time>
   <energy>
    <i name="e_fr_energy">    -35.18380225 </i>
    <i name="e_wo_entrp">    -35.19002184 </i>
    <i name="e_0_energy">    -35.18587545 </i>
   </energy>
  </scstep>
  <scstep>
   <time name="dav">    0.28    0.28</time>
   <time name="total">    0.30    0.31</time>
   <energy>
    <i name="alphaZ">    216.17040255 </i>
    <i name="ewald">  42888.99732923 </i>
    <i name="hartreedc"> -53625.98229150 </i>
    <i name="XCdc">    362.32684262 </i>
    <i name="pawpsdc">  10538.55733157 </i>
    <i name="pawaedc"> -11400.75655878 </i>
    <i name="eentropy">      0.00617026 </i>
    <i name="bandstr">   -167.12139949 </i>
    <i name="atom">  11152.61838693 </i>
    <i name="e_fr_energy">    -35.18378660 </i>
    <i name="e_wo_entrp">    -35.18995686 </i>
    <i name="e_0_energy">    -35.18584335 </i>
   </energy>
  </scstep>
  <structure>
   <crystal>
    <varray name="basis" >
     <v>       3.63000011       0.00000000       0.00000000 </v>
     <v>       0.00000000       2.56679773       0.00000000 </v>
     <v>       0.00000000       0.00000000      23.98379135 </v>
    </varray>
    <i name="volume">    223.46840188 </i>
    <varray name="rec_basis" >
     <v>       0.27548208       0.00000000       0.00000000 </v>
     <v>       0.00000000       0.38959050       0.00000000 </v>
     <v>       0.00000000       0.00000000       0.04169483 </v>
    </varray>
   </crystal>
   <varray name="positions" >
    <v>       0.00000000      -0.00000577       0.00387903 </v>
    <v>       0.50000000       0.50001078       0.05051805 </v>
    <v>       0.00000000       0.00006833       0.10503407 </v>
    <v>       0.50000000       0.49994566       0.15766129 </v>
    <v>       0.00000000       0.00003947       0.20952770 </v>
    <v>       0.50000000       0.50001534       0.26175408 </v>
    <v>       0.00000000      -0.00265093       0.31571912 </v>
    <v>       0.50000000       0.49625463       0.36189468 </v>
    <v>       1.00000000       0.01258559       0.42863931 </v>
    <v>       1.00000000       0.19924652       0.45269641 </v>
   </varray>
  </structure>
  <varray name="forces" >
   <v>       0.00000000      -0.00094294      -0.05373066 </v>
   <v>       0.00000000      -0.00079542       0.08428105 </v>
   <v>       0.00000000      -0.00110209      -0.02418165 </v>
   <v>       0.00000000      -0.00043857      -0.08370840 </v>
   <v>       0.00000000      -0.00119823      -0.03658478 </v>
   <v>       0.00000000      -0.00672289      -0.06719118 </v>
   <v>       0.00000000      -0.01423061      -0.08077157 </v>
   <v>       0.00000000      -0.01736266      -0.06512382 </v>
   <v>       0.00000000      -0.17328743      -0.21363889 </v>
   <v>       0.00000000       0.21608084       0.54064990 </v>
  </varray>
  <varray name="stress" >
   <v>     -29.85696215       0.00000000       0.00000000 </v>
   <v>       0.00000000     -28.66513381       1.44060194 </v>
   <v>       0.00000000       1.44060206       6.24249897 </v>
  </varray>
  <energy>
   <i name="e_fr_energy">    -38.45892537 </i>
   <i name="e_wo_entrp">    -38.46509563 </i>
   <i name="e_0_energy">    -38.46098212 </i>
  </energy>
  <time name="totalsc">    1.64    1.73</time>
 </calculation>
 <calculation>
  <scstep>
   <time name="dav">    0.31    0.31</time>
   <time name="total">    0.38    0.39</time>
   <energy>
    <i name="alphaZ">    216.17040255 </i>
    <i name="ewald">  42970.21492814 </i>
    <i name="hartreedc"> -53707.34208407 </i>
    <i name="XCdc">    362.31605644 </i>
    <i name="pawpsdc">  10538.50648736 </i>
    <i name="pawaedc"> -11400.70990064 </i>
    <i name="eentropy">      0.00486331 </i>
    <i name="bandstr">   -166.96564110 </i>
    <i name="atom">  11152.61838693 </i>
    <i name="e_fr_energy">    -35.18650109 </i>
    <i name="e_wo_entrp">    -35.19136440 </i>
    <i name="e_0_energy">    -35.18812220 </i>
   </energy>
  </scstep>
  <scstep>
   <time name="dav">    0.38    0.39</time>
   <time name="total">    0.46    0.47</time>
   <energy>
    <i name="e_fr_energy">    -35.19325843 </i>
    <i name="e_wo_entrp">    -35.19844996 </i>
    <i name="e_0_energy">    -35.19498894 </i>
   </energy>
  </scstep>
  <scstep>
   <time name="dav">    0.35    0.35</time>
   <time name="total">    0.43    0.43</time>
   <energy>
    <i name="e_fr_energy">    -35.19291146 </i>
    <i name="e_wo_entrp">    -35.19797149 </i>
    <i name="e_0_energy">    -35.19459813 </i>
   </energy>
  </scstep>
  <scstep>
   <time name="dav">    0.30    0.30</time>
   <time name="total">    0.38    0.38</time>
   <energy>
    <i name="e_fr_energy">    -35.19269125 </i>
    <i name="e_wo_entrp">    -35.19803984 </i>
    <i name="e_0_energy">    -35.19447412 </i>
   </energy>
  </scstep>
  <scstep>
   <time name="dav">    0.26    0.26</time>
   <time name="total">    0.28    0.29</time>
   <energy>
    <i name="alphaZ">    216.17040255 </i>
    <i name="ewald">  42970.21492814 </i>
    <i name="hartreedc"> -53706.20434329 </i>
    <i name="XCdc">    362.30055417 </i>
    <i name="pawpsdc">  10537.54927103 </i>
    <i name="pawaedc"> -11399.73850314 </i>
    <i name="eentropy">      0.00511039 </i>
    <i name="bandstr">   -168.10837770 </i>
    <i name="atom">  11152.61838693 </i>
    <i name="e_fr_energy">    -35.19257093 </i>
    <i name="e_wo_entrp">    -35.19768132 </i>
    <i name="e_0_energy">    -35.19427439 </i>
   </energy>
  </scstep>
  <structure>
   <crystal>
    <varray name="basis" >
     <v>       3.63000011       0.00000000       0.00000000 </v>
     <v>       0.00000000       2.56679773       0.00000000 </v>
     <v>       0.00000000       0.00000000      23.98379135 </v>
    </varray>
    <i name="volume">    223.46840188 </i>
    <varray name="rec_basis" >
     <v>       0.27548208       0.00000000       0.00000000 </v>
     <v>       0.00000000       0.38959050       0.00000000 </v>
     <v>       0.00000000       0.00000000       0.04169483 </v>
    </varray>
   </crystal>
   <varray name="positions" >
    <v>       0.00000000      -0.00001222       0.00375836 </v>
    <v>       0.50000000       0.50000978       0.05087974 </v>
    <v>       0.00000000       0.00006031       0.10528185 </v>
    <v>       0.50000000       0.49995131       0.15716002 </v>
    <v>       0.00000000       0.00003892       0.20933136 </v>
    <v>       0.50000000       0.49985323       0.26110984 </v>
    <v>       0.00000000      -0.00323534       0.31531814 </v>
    <v>       0.50000000       0.49546167       0.36180027 </v>
    <v>       1.00000000       0.01504213       0.42892343 </v>
    <v>       1.00000000       0.19833985       0.45376072 </v>
   </varray>
  </structure>
  <varray name="forces" >
   <v>       0.00000000      -0.00081171       0.00353486 </v>
   <v>       0.00000000      -0.00076674       0.00552497 </v>
   <v>       0.00000000      -0.00102463      -0.11208554 </v>
   <v>       0.00000000      -0.00044836      -0.01631866 </v>
   <v>       0.00000000      -0.00182885      -0.04562519 </v>
   <v>       0.00000000      -0.00770616       0.01733585 </v>
   <v>       0.00000000      -0.01276400      -0.05505026 </v>
   <v>       0.00000000      -0.01381132      -0.10070902 </v>
   <v>       0.00000000       0.00082962      -0.01401091 </v>
   <v>       0.00000000       0.03833216       0.31740388 </v>
  </varray>
  <varray name="stress" >
   <v>     -28.23524840       0.00000000       0.00000000 </v>
   <v>       0.00000000     -27.22854436       0.71766202 </v>
   <v>       0.00000000       0.71766204       7.61156407 </v>
  </varray>
  <energy>
   <i name="e_fr_energy">    -38.47069380 </i>
   <i name="e_wo_entrp">    -38.47580419 </i>
   <i name="e_0_energy">    -38.47239726 </i>
  </energy>
  <time name="totalsc">    2.43    2.48</time>
 </calculation>
 <calculation>
  <scstep>
   <time name="dav">    0.31    0.31</time>
   <time name="total">    0.38    0.38</time>
   <energy>
    <i name="alphaZ">    216.17040255 </i>
    <i name="ewald">  43133.29377648 </i>
    <i name="hartreedc"> -53869.64353658 </i>
    <i name="XCdc">    362.28514508 </i>
    <i name="pawpsdc">  10537.56980358 </i>
    <i name="pawaedc"> -11399.77218936 </i>
    <i name="eentropy">      0.00248821 </i>
    <i name="bandstr">   -167.68692603 </i>
    <i name="atom">  11152.61838693 </i>
    <i name="e_fr_energy">    -35.16264915 </i>
    <i name="e_wo_entrp">    -35.16513736 </i>
    <i name="e_0_energy">    -35.16347855 </i>
   </energy>
  </scstep>
  <scstep>
   <time name="dav">    0.38    0.39</time>
   <time name="total">    0.46    0.47</time>
   <energy>
    <i name="e_fr_energy">    -35.19243594 </i>
    <i name="e_wo_entrp">    -35.19555546 </i>
    <i name="e_0_energy">    -35.19347578 </i>
   </energy>
  </scstep>
  <scstep>
   <time name="dav">    0.34    0.34</time>
   <time name="total">    0.41    0.42</time>
   <energy>
    <i name="e_fr_energy">    -35.19110388 </i>
    <i name="e_wo_entrp">    -35.19408789 </i>
    <i name="e_0_energy">    -35.19209855 </i>
   </energy>
  </scstep>
  <scstep>
   <time name="dav">    0.33    0.33</time>
   <time name="total">    0.40    0.41</time>
   <energy>
    <i name="e_fr_energy">    -35.19050496 </i>
    <i name="e_wo_entrp">    -35.19356776 </i>
    <i name="e_0_energy">    -35.19152590 </i>
   </energy>
  </scstep>
  <scstep>
   <time name="dav">    0.42    0.43</time>
   <time name="total">    0.50    0.51</time>
   <energy>
    <i name="e_fr_energy">    -35.19012315 </i>
    <i name="e_wo_entrp">    -35.19366848 </i>
    <i name="e_0_energy">    -35.19130492 </i>
   </energy>
  </scstep>
  <scstep>
   <time name="dav">    0.33    0.33</time>
   <time name="total">    0.40    0.41</time>
   <energy>
    <i name="e_fr_energy">    -35.18981104 </i>
    <i name="e_wo_entrp">    -35.19283573 </i>
    <i name="e_0_energy">    -35.19081927 </i>
   </energy>
  </scstep>
  <scstep>
   <time name="dav">    0.25    0.26</time>
   <time name="total">    0.28    0.28</time>
   <energy>
    <i name="alphaZ">    216.17040255 </i>
    <i name="ewald">  43133.29377648 </i>
    <i name="hartreedc"> -53867.36303501 </i>
    <i name="XCdc">    362.25989499 </i>
    <i name="pawpsdc">  10536.81844042 </i>
    <i name="pawaedc"> -11399.06086188 </i>
    <i name="eentropy">      0.00318648 </i>
    <i name="bandstr">   -169.92996223 </i>
    <i name="atom">  11152.61838693 </i>
    <i name="e_fr_energy">    -35.18977128 </i>
    <i name="e_wo_entrp">    -35.19295776 </i>
    <i name="e_0_energy">    -35.19083344 </i>
   </energy>
  </scstep>
  <structure>
   <crystal>
    <varray name="basis" >
     <v>       3.63000011       0.00000000       0.00000000 </v>
     <v>       0.00000000       2.56679773       0.00000000 </v>
     <v>       0.00000000       0.00000000      23.98379135 </v>
    </varray>
    <i name="volume">    223.46840188 </i>
    <varray name="rec_basis" >
     <v>       0.27548208       0.00000000       0.00000000 </v>
     <v>       0.00000000       0.38959050       0.00000000 </v>
     <v>       0.00000000       0.00000000       0.04169483 </v>
    </varray>
   </crystal>
   <varray name="positions" >
    <v>       0.00000000      -0.00002512       0.00351702 </v>
    <v>       0.50000000       0.50000777       0.05160311 </v>
    <v>       0.00000000       0.00004426       0.10577741 </v>
    <v>       0.50000000       0.49996259       0.15615749 </v>
    <v>       0.00000000       0.00003781       0.20893869 </v>
    <v>       0.50000000       0.49952901       0.25982135 </v>
    <v>       0.00000000      -0.00440415       0.31451617 </v>
    <v>       0.50000000       0.49387575       0.36161147 </v>
    <v>       1.00000000       0.01995520       0.42949169 </v>
    <v>       1.00000000       0.19652651       0.45588934 </v>
   </varray>
  </structure>
  <varray name="forces" >
   <v>       0.00000000      -0.00039617       0.09059217 </v>
   <v>       0.00000000      -0.00043731      -0.13781630 </v>
   <v>       0.00000000      -0.00056628      -0.26992601 </v>
   <v>       0.00000000      -0.00013134       0.12673103 </v>
   <v>       0.00000000      -0.00259728      -0.03407984 </v>
   <v>       0.00000000      -0.00865781       0.17855012 </v>
   <v>       0.00000000      -0.00823783      -0.01466491 </v>
   <v>       0.00000000      -0.01003418      -0.18563368 </v>
   <v>       0.00000000       0.28585158       0.36651279 </v>
   <v>       0.00000000      -0.25479337      -0.12026537 </v>
  </varray>
  <varray name="stress" >
   <v>     -31.93976032       0.00000000       0.00000000 </v>
   <v>       0.00000000     -31.24505946      -0.59477046 </v>
   <v>       0.00000000      -0.59477024       3.61951032 </v>
  </varray>
  <energy>
   <i name="e_fr_energy">    -38.47487533 </i>
   <i name="e_wo_entrp">    -38.47806181 </i>
   <i name="e_0_energy">    -38.47593749 </i>
  </energy>
  <time name="totalsc">    3.33    3.41</time>
 </calculation>
 <calculation>
  <scstep>
   <time name="dav">    0.31    0.31</time>
   <time name="total">    0.38    0.39</time>
   <energy>
    <i name="alphaZ">    216.17040255 </i>
    <i name="ewald">  43073.48376547 </i>
    <i name="hartreedc"> -53807.53535593 </i>
    <i name="XCdc">    362.26710193 </i>
    <i name="pawpsdc">  10536.89008825 </i>
    <i name="pawaedc"> -11399.12279701 </i>
    <i name="eentropy">      0.00419936 </i>
    <i name="bandstr">   -169.96652527 </i>
    <i name="atom">  11152.61838693 </i>
    <i name="e_fr_energy">    -35.19073372 </i>
    <i name="e_wo_entrp">    -35.19493308 </i>
    <i name="e_0_energy">    -35.19213351 </i>
   </energy>
  </scstep>
  <scstep>
   <time name="dav">    0.39    0.39</time>
   <time name="total">    0.46    0.47</time>
   <energy>
    <i name="e_fr_energy">    -35.19436416 </i>
    <i name="e_wo_entrp">    -35.19824406 </i>
    <i name="e_0_energy">    -35.19565746 </i>
   </energy>
  </scstep>
  <scstep>
   <time name="dav">    0.32    0.33</time>
   <time name="total">    0.35    0.35</time>
   <energy>
    <i name="alphaZ">    216.17040255 </i>
    <i name="ewald">  43073.48376547 </i>
    <i name="hartreedc"> -53807.95441633 </i>
    <i name="XCdc">    362.26581769 </i>
    <i name="pawpsdc">  10536.97685975 </i>
    <i name="pawaedc"> -11399.15544166 </i>
    <i name="eentropy">      0.00403593 </i>
    <i name="bandstr">   -169.60365381 </i>
    <i name="atom">  11152.61838693 </i>
    <i name="e_fr_energy">    -35.19424349 </i>
    <i name="e_wo_entrp">    -35.19827942 </i>
    <i name="e_0_energy">    -35.19558880 </i>
   </energy>
  </scstep>
  <structure>
   <crystal>
    <varray name="basis" >
     <v>       3.63000011       0.00000000       0.00000000 </v>
     <v>       0.00000000       2.56679773       0.00000000 </v>
     <v>       0.00000000       0.00000000      23.98379135 </v>
    </varray>
    <i name="volume">    223.46840188 </i>
    <varray name="rec_basis" >
     <v>       0.27548208       0.00000000       0.00000000 </v>
     <v>       0.00000000       0.38959050       0.00000000 </v>
     <v>       0.00000000       0.00000000       0.04169483 </v>
    </varray>
   </crystal>
   <varray name="positions" >
    <v>       0.00000000      -0.00002040       0.00360539 </v>
    <v>       0.50000000       0.50000851       0.05133825 </v>
    <v>       0.00000000       0.00005014       0.10559596 </v>
    <v>       0.50000000       0.49995846       0.15652456 </v>
    <v>       0.00000000       0.00003821       0.20908246 </v>
    <v>       0.50000000       0.49964772       0.26029313 </v>
    <v>       0.00000000      -0.00397620       0.31480980 </v>
    <v>       0.50000000       0.49445643       0.36168060 </v>
    <v>       1.00000000       0.01815630       0.42928363 </v>
    <v>       1.00000000       0.19719046       0.45510996 </v>
   </varray>
  </structure>
  <varray name="forces" >
   <v>       0.00000000       0.00114123       0.04793600 </v>
   <v>       0.00000000       0.00105121      -0.05524934 </v>
   <v>       0.00000000       0.00109074      -0.17923500 </v>
   <v>       0.00000000       0.00184014       0.05777006 </v>
   <v>       0.00000000      -0.00039583      -0.03473867 </v>
   <v>       0.00000000      -0.00657506       0.10120016 </v>
   <v>       0.00000000      -0.00908977      -0.04084171 </v>
   <v>       0.00000000      -0.01493440      -0.15387041 </v>
   <v>       0.00000000       0.19320301       0.23439005 </v>
   <v>       0.00000000      -0.16733127       0.02263888 </v>
  </varray>
  <varray name="stress" >
   <v>     -27.26922524       0.00000000       0.00000000 </v>
   <v>       0.00000000     -26.53647965      -0.16906147 </v>
   <v>       0.00000000      -0.16906139       8.70532191 </v>
  </varray>
  <energy>
   <i name="e_fr_energy">    -38.47658121 </i>
   <i name="e_wo_entrp">    -38.48061713 </i>
   <i name="e_0_energy">    -38.47792651 </i>
  </energy>
  <time name="totalsc">    1.68    1.76</time>
 </calculation>
 <calculation>
  <scstep>
   <time name="dav">    0.31    0.31</time>
   <time name="total">    0.38    0.39</time>
   <energy>
    <i name="alphaZ">    216.17040255 </i>
    <i name="ewald">  43115.11481346 </i>
    <i name="hartreedc"> -53849.64641026 </i>
    <i name="XCdc">    362.27770809 </i>
    <i name="pawpsdc">  10537.04354214 </i>
    <i name="pawaedc"> -11399.24648726 </i>
    <i name="eentropy">      0.00334432 </i>
    <i name="bandstr">   -169.53187632 </i>
    <i name="atom">  11152.61838693 </i>
    <i name="e_fr_energy">    -35.19657635 </i>
    <i name="e_wo_entrp">    -35.19992067 </i>
    <i name="e_0_energy">    -35.19769112 </i>
   </energy>
  </scstep>
  <scstep>
   <time name="dav">    0.43    0.43</time>
   <time name="total">    0.50    0.51</time>
   <energy>
    <i name="e_fr_energy">    -35.19795957 </i>
    <i name="e_wo_entrp">    -35.20168485 </i>
    <i name="e_0_energy">    -35.19920133 </i>
   </energy>
  </scstep>
  <scstep>
   <time name="dav">    0.32    0.32</time>
   <time name="total">    0.40    0.40</time>
   <energy>
    <i name="e_fr_energy">    -35.19792162 </i>
    <i name="e_wo_entrp">    -35.20137106 </i>
    <i name="e_0_energy">    -35.19907143 </i>
   </energy>
  </scstep>
  <scstep>
   <time name="dav">    0.23    0.24</time>
   <time name="total">    0.26    0.26</time>
   <energy>
    <i name="alphaZ">    216.17040255 </i>
    <i name="ewald">  43115.11481346 </i>
    <i name="hartreedc"> -53849.45386668 </i>
    <i name="XCdc">    362.28197521 </i>
    <i name="pawpsdc">  10537.80809187 </i>
    <i name="pawaedc"> -11400.02200244 </i>
    <i name="eentropy">      0.00354730 </i>
    <i name="bandstr">   -169.71923877 </i>
    <i name="atom">  11152.61838693 </i>
    <i name="e_fr_energy">    -35.19789058 </i>
    <i name="e_wo_entrp">    -35.20143788 </i>
    <i name="e_0_energy">    -35.19907301 </i>
   </energy>
  </scstep>
  <structure>
   <crystal>
    <varray name="basis" >
     <v>       3.63000011       0.00000000       0.00000000 </v>
     <v>       0.00000000       2.56679773       0.00000000 </v>
     <v>       0.00000000       0.00000000      23.98379135 </v>
    </varray>
    <i name="volume">    223.46840188 </i>
    <varray name="rec_basis" >
     <v>       0.27548208       0.00000000       0.00000000 </v>
     <v>       0.00000000       0.38959050       0.00000000 </v>
     <v>       0.00000000       0.00000000       0.04169483 </v>
    </varray>
   </crystal>
   <varray name="positions" >
    <v>       0.00000000      -0.00001406       0.00359277 </v>
    <v>       0.50000000       0.50001656       0.05145263 </v>
    <v>       0.00000000       0.00005536       0.10555192 </v>
    <v>       0.50000000       0.49997587       0.15634978 </v>
    <v>       0.00000000       0.00003476       0.20896434 </v>
    <v>       0.50000000       0.49952184       0.26009182 </v>
    <v>       0.00000000      -0.00431180       0.31459462 </v>
    <v>       0.50000000       0.49398002       0.36150506 </v>
    <v>       1.00000000       0.02082071       0.42961395 </v>
    <v>       1.00000000       0.19543037       0.45560685 </v>
   </varray>
  </structure>
  <varray name="forces" >
   <v>       0.00000000      -0.00120244       0.05235318 </v>
   <v>       0.00000000      -0.00137522      -0.10788419 </v>
   <v>       0.00000000      -0.00135935      -0.20944034 </v>
   <v>       0.00000000      -0.00105317       0.08819661 </v>
   <v>       0.00000000      -0.00327941      -0.03957231 </v>
[...]
       <r>     6.1841     2.1967    51.5477 </r>
       <r>     6.2576     1.8160    51.6811 </r>
       <r>     6.3310     1.6992    51.8058 </r>
       <r>     6.4044     1.9296    51.9475 </r>
       <r>     6.4778     2.2807    52.1149 </r>
       <r>     6.5512     2.6826    52.3119 </r>
       <r>     6.6247     3.1820    52.5455 </r>
       <r>     6.6981     3.5437    52.8057 </r>
       <r>     6.7715     3.3031    53.0482 </r>
       <r>     6.8449     2.3557    53.2212 </r>
       <r>     6.9184     1.3225    53.3183 </r>
       <r>     6.9918     1.0648    53.3965 </r>
       <r>     7.0652     1.7235    53.5230 </r>
       <r>     7.1386     2.4438    53.7024 </r>
       <r>     7.2120     2.3248    53.8731 </r>
       <r>     7.2855     1.4792    53.9817 </r>
       <r>     7.3589     0.7648    54.0379 </r>
       <r>     7.4323     0.6605    54.0864 </r>
       <r>     7.5057     0.9061    54.1529 </r>
       <r>     7.5791     1.1040    54.2340 </r>
       <r>     7.6526     1.1491    54.3183 </r>
       <r>     7.7260     1.1431    54.4023 </r>
       <r>     7.7994     1.3791    54.5035 </r>
       <r>     7.8728     2.2961    54.6721 </r>
       <r>     7.9462     3.9084    54.9591 </r>
       <r>     8.0197     5.3549    55.3522 </r>
       <r>     8.0931     5.5476    55.7595 </r>
       <r>     8.1665     4.3841    56.0814 </r>
       <r>     8.2399     2.9127    56.2953 </r>
       <r>     8.3134     2.0788    56.4479 </r>
       <r>     8.3868     1.8141    56.5811 </r>
       <r>     8.4602     1.6521    56.7024 </r>
       <r>     8.5336     1.5065    56.8130 </r>
       <r>     8.6070     1.4666    56.9207 </r>
       <r>     8.6805     1.5089    57.0315 </r>
       <r>     8.7539     1.6820    57.1550 </r>
       <r>     8.8273     2.0164    57.3030 </r>
       <r>     8.9007     2.1777    57.4629 </r>
       <r>     8.9741     1.7433    57.5909 </r>
       <r>     9.0476     0.8297    57.6518 </r>
       <r>     9.1210     0.0340    57.6543 </r>
       <r>     9.1944    -0.0931    57.6475 </r>
       <r>     9.2678     0.7479    57.7024 </r>
       <r>     9.3413     2.4957    57.8856 </r>
       <r>     9.4147     4.4210    58.2102 </r>
       <r>     9.4881     5.3658    58.6042 </r>
       <r>     9.5615     4.8383    58.9594 </r>
       <r>     9.6349     3.5730    59.2217 </r>
       <r>     9.7084     2.6072    59.4132 </r>
       <r>     9.7818     2.2476    59.5782 </r>
       <r>     9.8552     2.1555    59.7365 </r>
       <r>     9.9286     1.8911    59.8753 </r>
       <r>    10.0020     1.2828    59.9695 </r>
       <r>    10.0755     0.5588    60.0105 </r>
       <r>    10.1489     0.0696    60.0156 </r>
       <r>    10.2223    -0.0923    60.0088 </r>
       <r>    10.2957    -0.0766    60.0032 </r>
       <r>    10.3691    -0.0325    60.0008 </r>
       <r>    10.4426    -0.0091    60.0002 </r>
       <r>    10.5160    -0.0018    60.0000 </r>
       <r>    10.5894    -0.0003    60.0000 </r>
       <r>    10.6628    -0.0000    60.0000 </r>
       <r>    10.7363    -0.0000    60.0000 </r>
       <r>    10.8097    -0.0000    60.0000 </r>
       <r>    10.8831    -0.0000    60.0000 </r>
       <r>    10.9565    -0.0000    60.0000 </r>
       <r>    11.0299    -0.0000    60.0000 </r>
       <r>    11.1034    -0.0000    60.0000 </r>
       <r>    11.1768    -0.0000    60.0000 </r>
       <r>    11.2502     0.0000    60.0000 </r>
       <r>    11.3236     0.0000    60.0000 </r>
       <r>    11.3970     0.0000    60.0000 </r>
       <r>    11.4705     0.0000    60.0000 </r>
       <r>    11.5439     0.0000    60.0000 </r>
       <r>    11.6173     0.0000    60.0000 </r>
       <r>    11.6907     0.0000    60.0000 </r>
       <r>    11.7642     0.0000    60.0000 </r>
       <r>    11.8376     0.0000    60.0000 </r>
       <r>    11.9110     0.0000    60.0000 </r>
      </set>
      <set comment="spin 2">
       <r>   -10.1154     0.0000     0.0000 </r>
       <r>   -10.0419     0.0000     0.0000 </r>
       <r>    -9.9685     0.0000     0.0000 </r>
       <r>    -9.8951     0.0000     0.0000 </r>
       <r>    -9.8217     0.0000     0.0000 </r>
       <r>    -9.7483    -0.0000    -0.0000 </r>
       <r>    -9.6748    -0.0000    -0.0000 </r>
       <r>    -9.6014    -0.0000    -0.0000 </r>
       <r>    -9.5280    -0.0000    -0.0000 </r>
       <r>    -9.4546    -0.0000    -0.0000 </r>
       <r>    -9.3812    -0.0000    -0.0000 </r>
       <r>    -9.3077    -0.0000    -0.0000 </r>
       <r>    -9.2343    -0.0000    -0.0000 </r>
       <r>    -9.1609    -0.0000    -0.0000 </r>
       <r>    -9.0875    -0.0000    -0.0000 </r>
       <r>    -9.0141    -0.0000    -0.0000 </r>
       <r>    -8.9406    -0.0000    -0.0000 </r>
       <r>    -8.8672    -0.0000    -0.0000 </r>
       <r>    -8.7938    -0.0000    -0.0000 </r>
       <r>    -8.7204    -0.0001    -0.0000 </r>
       <r>    -8.6469    -0.0007    -0.0001 </r>
       <r>    -8.5735    -0.0034    -0.0003 </r>
       <r>    -8.5001    -0.0111    -0.0011 </r>
       <r>    -8.4267    -0.0226    -0.0028 </r>
       <r>    -8.3533    -0.0154    -0.0039 </r>
       <r>    -8.2798     0.0601     0.0005 </r>
       <r>    -8.2064     0.2285     0.0173 </r>
       <r>    -8.1330     0.4090     0.0473 </r>
       <r>    -8.0596     0.4547     0.0807 </r>
       <r>    -7.9862     0.3230     0.1044 </r>
       <r>    -7.9127     0.1314     0.1140 </r>
       <r>    -7.8393     0.0091     0.1147 </r>
       <r>    -7.7659    -0.0243     0.1129 </r>
       <r>    -7.6925    -0.0179     0.1116 </r>
       <r>    -7.6190    -0.0111     0.1108 </r>
       <r>    -7.5456    -0.0156     0.1097 </r>
       <r>    -7.4722    -0.0245     0.1079 </r>
       <r>    -7.3988    -0.0057     0.1074 </r>
       <r>    -7.3254     0.0908     0.1141 </r>
       <r>    -7.2519     0.2639     0.1335 </r>
       <r>    -7.1785     0.4013     0.1629 </r>
       <r>    -7.1051     0.3892     0.1915 </r>
       <r>    -7.0317     0.3118     0.2144 </r>
       <r>    -6.9583     0.3976     0.2436 </r>
       <r>    -6.8848     0.6842     0.2938 </r>
       <r>    -6.8114     0.8884     0.3591 </r>
       <r>    -6.7380     0.7504     0.4142 </r>
       <r>    -6.6646     0.3763     0.4418 </r>
       <r>    -6.5912     0.0899     0.4484 </r>
       <r>    -6.5177     0.0688     0.4534 </r>
       <r>    -6.4443     0.2417     0.4712 </r>
       <r>    -6.3709     0.4554     0.5046 </r>
       <r>    -6.2975     0.6544     0.5527 </r>
       <r>    -6.2240     0.8426     0.6145 </r>
       <r>    -6.1506     0.9130     0.6816 </r>
       <r>    -6.0772     0.7461     0.7363 </r>
       <r>    -6.0038     0.4990     0.7730 </r>
       <r>    -5.9304     0.5040     0.8100 </r>
       <r>    -5.8569     0.8438     0.8719 </r>
       <r>    -5.7835     1.2684     0.9651 </r>
       <r>    -5.7101     1.5059     1.0756 </r>
       <r>    -5.6367     1.4517     1.1822 </r>
       <r>    -5.5633     1.1252     1.2648 </r>
       <r>    -5.4898     0.6472     1.3123 </r>
       <r>    -5.4164     0.2398     1.3299 </r>
       <r>    -5.3430     0.1182     1.3386 </r>
       <r>    -5.2696     0.3136     1.3617 </r>
       <r>    -5.1961     0.6272     1.4077 </r>
       <r>    -5.1227     0.8988     1.4737 </r>
       <r>    -5.0493     1.3286     1.5713 </r>
       <r>    -4.9759     2.2649     1.7375 </r>
       <r>    -4.9025     3.5768     2.0002 </r>
       <r>    -4.8290     4.4767     2.3288 </r>
       <r>    -4.7556     4.1727     2.6352 </r>
       <r>    -4.6822     2.7266     2.8354 </r>
       <r>    -4.6088     1.0631     2.9135 </r>
       <r>    -4.5354     0.0110     2.9143 </r>
       <r>    -4.4619    -0.3606     2.8878 </r>
       <r>    -4.3885    -0.3467     2.8623 </r>
       <r>    -4.3151     0.0692     2.8674 </r>
       <r>    -4.2417     1.1967     2.9553 </r>
       <r>    -4.1683     2.9191     3.1696 </r>
       <r>    -4.0948     4.2727     3.4833 </r>
       <r>    -4.0214     4.2400     3.7946 </r>
       <r>    -3.9480     2.9626     4.0121 </r>
       <r>    -3.8746     1.6551     4.1337 </r>
       <r>    -3.8011     1.2729     4.2271 </r>
       <r>    -3.7277     1.7371     4.3547 </r>
       <r>    -3.6543     2.5232     4.5399 </r>
       <r>    -3.5809     3.4351     4.7921 </r>
       <r>    -3.5075     4.4472     5.1186 </r>
       <r>    -3.4340     5.2799     5.5063 </r>
       <r>    -3.3606     5.7162     5.9260 </r>
       <r>    -3.2872     6.0627     6.3711 </r>
       <r>    -3.2138     6.7640     6.8677 </r>
       <r>    -3.1404     7.7780     7.4388 </r>
       <r>    -3.0669     8.7470     8.0810 </r>
       <r>    -2.9935     9.3871     8.7702 </r>
       <r>    -2.9201     9.3625     9.4576 </r>
       <r>    -2.8467     8.4198    10.0758 </r>
       <r>    -2.7732     7.0601    10.5942 </r>
       <r>    -2.6998     6.4645    11.0688 </r>
       <r>    -2.6264     7.1960    11.5972 </r>
       <r>    -2.5530     8.4466    12.2173 </r>
       <r>    -2.4796     9.2674    12.8977 </r>
       <r>    -2.4061     9.9031    13.6248 </r>
       <r>    -2.3327    10.8907    14.4244 </r>
       <r>    -2.2593    11.7090    15.2841 </r>
       <r>    -2.1859    11.7937    16.1500 </r>
       <r>    -2.1125    12.1304    17.0407 </r>
       <r>    -2.0390    14.0037    18.0688 </r>
       <r>    -1.9656    16.5121    19.2812 </r>
       <r>    -1.8922    17.2790    20.5498 </r>
       <r>    -1.8188    15.6433    21.6984 </r>
       <r>    -1.7454    13.4017    22.6823 </r>
       <r>    -1.6719    12.2638    23.5828 </r>
       <r>    -1.5985    11.9091    24.4571 </r>
       <r>    -1.5251    10.9418    25.2605 </r>
       <r>    -1.4517     9.1291    25.9308 </r>
       <r>    -1.3782     8.0067    26.5186 </r>
       <r>    -1.3048     9.2114    27.1949 </r>
       <r>    -1.2314    12.8200    28.1362 </r>
       <r>    -1.1580    17.3401    29.4093 </r>
       <r>    -1.0846    20.5924    30.9213 </r>
       <r>    -1.0111    20.8683    32.4534 </r>
       <r>    -0.9377    18.4788    33.8102 </r>
       <r>    -0.8643    16.0214    34.9865 </r>
       <r>    -0.7909    15.8137    36.1475 </r>
       <r>    -0.7175    17.3996    37.4250 </r>
       <r>    -0.6440    18.6388    38.7935 </r>
       <r>    -0.5706    18.2675    40.1347 </r>
       <r>    -0.4972    16.3193    41.3329 </r>
       <r>    -0.4238    13.2428    42.3052 </r>
       <r>    -0.3503     9.7159    43.0186 </r>
       <r>    -0.2769     6.5927    43.5026 </r>
       <r>    -0.2035     4.3142    43.8194 </r>
       <r>    -0.1301     2.6671    44.0152 </r>
       <r>    -0.0567     1.3383    44.1135 </r>
       <r>     0.0168     0.3610    44.1400 </r>
       <r>     0.0902    -0.1369    44.1299 </r>
       <r>     0.1636    -0.2524    44.1114 </r>
       <r>     0.2370    -0.1574    44.0998 </r>
       <r>     0.3104     0.1427    44.1103 </r>
       <r>     0.3839     0.7097    44.1624 </r>
       <r>     0.4573     1.4314    44.2675 </r>
       <r>     0.5307     2.0736    44.4198 </r>
       <r>     0.6041     2.5016    44.6034 </r>
       <r>     0.6775     2.6180    44.7956 </r>
       <r>     0.7510     2.2522    44.9610 </r>
       <r>     0.8244     1.4507    45.0675 </r>
       <r>     0.8978     0.6791    45.1174 </r>
       <r>     0.9712     0.4091    45.1474 </r>
       <r>     1.0447     0.6035    45.1917 </r>
       <r>     1.1181     0.7987    45.2504 </r>
       <r>     1.1915     0.6811    45.3004 </r>
       <r>     1.2649     0.4324    45.3321 </r>
       <r>     1.3383     0.4078    45.3621 </r>
       <r>     1.4118     0.6277    45.4081 </r>
       <r>     1.4852     0.8372    45.4696 </r>
       <r>     1.5586     1.0016    45.5431 </r>
       <r>     1.6320     1.3332    45.6410 </r>
       <r>     1.7054     1.7247    45.7677 </r>
       <r>     1.7789     1.6792    45.8909 </r>
       <r>     1.8523     1.0589    45.9687 </r>
       <r>     1.9257     0.4325    46.0004 </r>
       <r>     1.9991     0.4452    46.0331 </r>
       <r>     2.0726     1.0842    46.1127 </r>
       <r>     2.1460     1.6729    46.2356 </r>
       <r>     2.2194     1.6129    46.3540 </r>
       <r>     2.2928     1.0776    46.4331 </r>
       <r>     2.3662     0.7311    46.4868 </r>
       <r>     2.4397     0.8949    46.5525 </r>
       <r>     2.5131     1.3819    46.6540 </r>
       <r>     2.5865     1.9382    46.7963 </r>
       <r>     2.6599     2.3758    46.9707 </r>
       <r>     2.7333     2.4619    47.1514 </r>
       <r>     2.8068     2.1189    47.3070 </r>
       <r>     2.8802     1.6229    47.4262 </r>
       <r>     2.9536     1.3291    47.5238 </r>
       <r>     3.0270     1.2656    47.6167 </r>
       <r>     3.1004     1.1499    47.7011 </r>
       <r>     3.1739     0.7949    47.7595 </r>
       <r>     3.2473     0.3430    47.7846 </r>
       <r>     3.3207     0.0381    47.7874 </r>
       <r>     3.3941    -0.0594    47.7831 </r>
       <r>     3.4676    -0.0506    47.7794 </r>
       <r>     3.5410    -0.0371    47.7766 </r>
       <r>     3.6144    -0.0655    47.7718 </r>
       <r>     3.6878    -0.1352    47.7619 </r>
       <r>     3.7612    -0.1401    47.7516 </r>
       <r>     3.8347     0.1991    47.7662 </r>
       <r>     3.9081     1.1400    47.8499 </r>
       <r>     3.9815     2.4423    48.0293 </r>
       <r>     4.0549     3.3031    48.2718 </r>
       <r>     4.1283     3.1862    48.5057 </r>
       <r>     4.2018     2.5303    48.6915 </r>
       <r>     4.2752     2.1482    48.8492 </r>
       <r>     4.3486     2.1594    49.0078 </r>
       <r>     4.4220     2.0576    49.1588 </r>
       <r>     4.4955     1.5875    49.2754 </r>
       <r>     4.5689     1.0068    49.3493 </r>
       <r>     4.6423     0.5919    49.3928 </r>
       <r>     4.7157     0.3332    49.4172 </r>
       <r>     4.7891     0.1812    49.4305 </r>
       <r>     4.8626     0.2889    49.4517 </r>
       <r>     4.9360     0.7959    49.5102 </r>
       <r>     5.0094     1.4534    49.6169 </r>
       <r>     5.0828     1.7188    49.7431 </r>
       <r>     5.1562     1.3270    49.8405 </r>
       <r>     5.2297     0.5782    49.8830 </r>
       <r>     5.3031    -0.0185    49.8816 </r>
       <r>     5.3765    -0.1254    49.8724 </r>
       <r>     5.4499     0.4374    49.9045 </r>
       <r>     5.5233     1.6465    50.0254 </r>
       <r>     5.5968     2.9891    50.2449 </r>
       <r>     5.6702     3.5978    50.5090 </r>
       <r>     5.7436     3.0590    50.7336 </r>
       <r>     5.8170     1.9425    50.8762 </r>
       <r>     5.8905     1.2392    50.9672 </r>
       <r>     5.9639     1.3795    51.0685 </r>
       <r>     6.0373     1.9772    51.2137 </r>
       <r>     6.1107     2.3531    51.3864 </r>
       <r>     6.1841     2.1967    51.5477 </r>
       <r>     6.2576     1.8159    51.6810 </r>
       <r>     6.3310     1.6992    51.8058 </r>
       <r>     6.4044     1.9295    51.9475 </r>
       <r>     6.4778     2.2807    52.1149 </r>
       <r>     6.5512     2.6827    52.3119 </r>
       <r>     6.6247     3.1821    52.5455 </r>
       <r>     6.6981     3.5438    52.8057 </r>
       <r>     6.7715     3.3031    53.0482 </r>
       <r>     6.8449     2.3557    53.2212 </r>
       <r>     6.9184     1.3225    53.3183 </r>
       <r>     6.9918     1.0648    53.3965 </r>
       <r>     7.0652     1.7235    53.5230 </r>
       <r>     7.1386     2.4438    53.7024 </r>
       <r>     7.2120     2.3248    53.8731 </r>
       <r>     7.2855     1.4792    53.9817 </r>
       <r>     7.3589     0.7648    54.0379 </r>
       <r>     7.4323     0.6604    54.0864 </r>
       <r>     7.5057     0.9060    54.1529 </r>
       <r>     7.5791     1.1039    54.2339 </r>
       <r>     7.6526     1.1490    54.3183 </r>
       <r>     7.7260     1.1431    54.4022 </r>
       <r>     7.7994     1.3792    54.5035 </r>
       <r>     7.8728     2.2961    54.6721 </r>
       <r>     7.9462     3.9085    54.9590 </r>
       <r>     8.0197     5.3550    55.3522 </r>
       <r>     8.0931     5.5476    55.7595 </r>
       <r>     8.1665     4.3842    56.0814 </r>
       <r>     8.2399     2.9128    56.2953 </r>
       <r>     8.3134     2.0788    56.4479 </r>
       <r>     8.3868     1.8141    56.5811 </r>
       <r>     8.4602     1.6520    56.7024 </r>
       <r>     8.5336     1.5065    56.8130 </r>
       <r>     8.6070     1.4666    56.9207 </r>
       <r>     8.6805     1.5089    57.0315 </r>
       <r>     8.7539     1.6818    57.1549 </r>
       <r>     8.8273     2.0162    57.3030 </r>
       <r>     8.9007     2.1776    57.4628 </r>
       <r>     8.9741     1.7435    57.5908 </r>
       <r>     9.0476     0.8300    57.6518 </r>
       <r>     9.1210     0.0342    57.6543 </r>
       <r>     9.1944    -0.0931    57.6475 </r>
       <r>     9.2678     0.7478    57.7024 </r>
       <r>     9.3413     2.4955    57.8856 </r>
       <r>     9.4147     4.4209    58.2102 </r>
       <r>     9.4881     5.3659    58.6042 </r>
       <r>     9.5615     4.8385    58.9594 </r>
       <r>     9.6349     3.5731    59.2217 </r>
       <r>     9.7084     2.6072    59.4132 </r>
       <r>     9.7818     2.2475    59.5782 </r>
       <r>     9.8552     2.1554    59.7364 </r>
       <r>     9.9286     1.8911    59.8753 </r>
       <r>    10.0020     1.2829    59.9695 </r>
       <r>    10.0755     0.5589    60.0105 </r>
       <r>    10.1489     0.0697    60.0156 </r>
       <r>    10.2223    -0.0922    60.0088 </r>
       <r>    10.2957    -0.0766    60.0032 </r>
       <r>    10.3691    -0.0325    60.0008 </r>
       <r>    10.4426    -0.0091    60.0002 </r>
       <r>    10.5160    -0.0018    60.0000 </r>
       <r>    10.5894    -0.0003    60.0000 </r>
       <r>    10.6628    -0.0000    60.0000 </r>
       <r>    10.7363    -0.0000    60.0000 </r>
       <r>    10.8097    -0.0000    60.0000 </r>
       <r>    10.8831    -0.0000    60.0000 </r>
       <r>    10.9565    -0.0000    60.0000 </r>
       <r>    11.0299    -0.0000    60.0000 </r>
       <r>    11.1034    -0.0000    60.0000 </r>
       <r>    11.1768    -0.0000    60.0000 </r>
       <r>    11.2502     0.0000    60.0000 </r>
       <r>    11.3236     0.0000    60.0000 </r>
       <r>    11.3970     0.0000    60.0000 </r>
       <r>    11.4705     0.0000    60.0000 </r>
       <r>    11.5439     0.0000    60.0000 </r>
       <r>    11.6173     0.0000    60.0000 </r>
       <r>    11.6907     0.0000    60.0000 </r>
       <r>    11.7642     0.0000    60.0000 </r>
       <r>    11.8376     0.0000    60.0000 </r>
       <r>    11.9110     0.0000    60.0000 </r>
      </set>
     </set>
    </array>
   </total>
  </dos>
 </calculation>
 <structure name="finalpos" >
  <crystal>
   <varray name="basis" >
    <v>       3.63000011       0.00000000       0.00000000 </v>
    <v>       0.00000000       2.56679773       0.00000000 </v>
    <v>       0.00000000       0.00000000      23.98379135 </v>
   </varray>
   <i name="volume">    223.46840188 </i>
   <varray name="rec_basis" >
    <v>       0.27548208       0.00000000       0.00000000 </v>
    <v>       0.00000000       0.38959050       0.00000000 </v>
    <v>       0.00000000       0.00000000       0.04169483 </v>
   </varray>
  </crystal>
  <varray name="positions" >
   <v>       0.00000000      -0.00084635      -0.00009277 </v>
   <v>       0.50000000       0.49892571       0.04719011 </v>
   <v>       0.00000000      -0.00161173       0.10127507 </v>
   <v>       0.50000000       0.49743770       0.15346558 </v>
   <v>       0.00000000      -0.00413703       0.20607804 </v>
   <v>       0.50000000       0.49354470       0.25809774 </v>
   <v>       0.00000000      -0.00872203       0.31235185 </v>
   <v>       0.50000000       0.49081655       0.35912930 </v>
   <v>       1.00000000       0.09105322       0.43939079 </v>
   <v>       1.00000000       0.14904889       0.47043803 </v>
  </varray>
 </structure>
</modeling>
