unknown system                          
           1
     3.630000    0.000000    0.000000
     0.000000    2.566798    0.000000
     0.000000    0.000000   23.983791
   Cu   H 
     8     2
Direct configuration=     1
   0.00000000  0.00000000  0.00000000
   0.50000000  0.50000000  0.05351109
   0.00000000  0.00000000  0.10468148
   0.50000000  0.50000000  0.15792996
   0.00000000  0.00000000  0.21070899
   0.50000000  0.50000000  0.26289048
   0.00000000  0.00000000  0.31711592
   0.50000000  0.50000000  0.36467590
   1.00000000  0.00000000  0.42690792
   1.00000000  0.20550963  0.44890201
Direct configuration=     2
   0.00000000 -0.00000233  0.00103283
   0.50000000  0.49999816  0.05257350
   0.00000000  0.00001552  0.10465171
   0.50000000  0.49998129  0.15808291
   0.00000000  0.00000370  0.21048390
   0.50000000  0.50005479  0.26288396
   0.00000000 -0.00044108  0.31692127
   0.50000000  0.49938102  0.36396078
   1.00000000 -0.00554999  0.42639573
   1.00000000  0.21206855  0.45033714
Direct configuration=     3
   0.00000000 -0.00000187  0.00082743
   0.50000000  0.49999853  0.05275997
   0.00000000  0.00001244  0.10465763
   0.50000000  0.49998501  0.15805249
   0.00000000  0.00000296  0.21052866
   0.50000000  0.50004389  0.26288525
   0.00000000 -0.00035336  0.31695998
   0.50000000  0.49950412  0.36410300
   1.00000000 -0.00444624  0.42649759
   1.00000000  0.21076415  0.45005173
Direct configuration=     4
   0.00000000 -0.00000165  0.00200830
   0.50000000  0.50000201  0.05175366
   0.00000000  0.00003509  0.10464821
   0.50000000  0.49996738  0.15815934
   0.00000000  0.00001374  0.21025429
   0.50000000  0.50010239  0.26281057
   0.00000000 -0.00092132  0.31669819
   0.50000000  0.49868901  0.36330902
   1.00000000 -0.00079514  0.42697192
   1.00000000  0.20841811  0.45071024
Direct configuration=     5
   0.00000000 -0.00000128  0.00397161
   0.50000000  0.50000780  0.05008057
   0.00000000  0.00007275  0.10463254
   0.50000000  0.49993808  0.15833698
   0.00000000  0.00003167  0.20979813
   0.50000000  0.50019965  0.26268641
   0.00000000 -0.00186561  0.31626295
   0.50000000  0.49733380  0.36198894
   1.00000000  0.00527516  0.42776054
   1.00000000  0.20451760  0.45180507
Direct configuration=     6
   0.00000000 -0.00000286  0.00393628
   0.50000000  0.50001004  0.05029442
   0.00000000  0.00007157  0.10484776
   0.50000000  0.49994193  0.15799378
   0.00000000  0.00003706  0.20965981
   0.50000000  0.50011175  0.26220220
   0.00000000 -0.00226408  0.31598618
   0.50000000  0.49678395  0.36194657
   1.00000000  0.00965556  0.42828961
   1.00000000  0.20116471  0.45216714
Direct configuration=     7
   0.00000000 -0.00000362  0.00391925
   0.50000000  0.50001112  0.05039749
   0.00000000  0.00007100  0.10495148
   0.50000000  0.49994378  0.15782837
   0.00000000  0.00003965  0.20959315
   0.50000000  0.50006938  0.26196883
   0.00000000 -0.00245613  0.31585279
   0.50000000  0.49651895  0.36192615
   1.00000000  0.01176675  0.42854460
   1.00000000  0.19954874  0.45234164
Direct configuration=     8
   0.00000000 -0.00000577  0.00387903
   0.50000000  0.50001078  0.05051805
   0.00000000  0.00006833  0.10503407
   0.50000000  0.49994566  0.15766129
   0.00000000  0.00003947  0.20952770
   0.50000000  0.50001534  0.26175408
   0.00000000 -0.00265093  0.31571912
   0.50000000  0.49625463  0.36189468
   1.00000000  0.01258559  0.42863931
   1.00000000  0.19924652  0.45269641
Direct configuration=     9
   0.00000000 -0.00001222  0.00375836
   0.50000000  0.50000978  0.05087974
   0.00000000  0.00006031  0.10528185
   0.50000000  0.49995131  0.15716002
   0.00000000  0.00003892  0.20933136
   0.50000000  0.49985323  0.26110984
   0.00000000 -0.00323534  0.31531814
   0.50000000  0.49546167  0.36180027
   1.00000000  0.01504213  0.42892343
   1.00000000  0.19833985  0.45376072
Direct configuration=    10
   0.00000000 -0.00002512  0.00351702
   0.50000000  0.50000777  0.05160311
   0.00000000  0.00004426  0.10577741
   0.50000000  0.49996259  0.15615749
   0.00000000  0.00003781  0.20893869
   0.50000000  0.49952901  0.25982135
   0.00000000 -0.00440415  0.31451617
   0.50000000  0.49387575  0.36161147
   1.00000000  0.01995520  0.42949169
   1.00000000  0.19652651  0.45588934
Direct configuration=    11
   0.00000000 -0.00002040  0.00360539
   0.50000000  0.50000851  0.05133825
   0.00000000  0.00005014  0.10559596
   0.50000000  0.49995846  0.15652456
   0.00000000  0.00003821  0.20908246
   0.50000000  0.49964772  0.26029313
   0.00000000 -0.00397620  0.31480980
   0.50000000  0.49445643  0.36168060
   1.00000000  0.01815630  0.42928363
   1.00000000  0.19719046  0.45510996
Direct configuration=    12
   0.00000000 -0.00001406  0.00359277
   0.50000000  0.50001656  0.05145263
   0.00000000  0.00005536  0.10555192
   0.50000000  0.49997587  0.15634978
   0.00000000  0.00003476  0.20896434
   0.50000000  0.49952184  0.26009182
   0.00000000 -0.00431180  0.31459462
   0.50000000  0.49398002  0.36150506
   1.00000000  0.02082071  0.42961395
   1.00000000  0.19543037  0.45560685
Direct configuration=    13
   0.00000000  0.00000496  0.00355491
   0.50000000  0.50004072  0.05179575
   0.00000000  0.00007103  0.10541980
   0.50000000  0.50002811  0.15582542
   0.00000000  0.00002441  0.20860998
   0.50000000  0.49914420  0.25948789
   0.00000000 -0.00531862  0.31394908
   0.50000000  0.49255080  0.36097845
   1.00000000  0.02881391  0.43060492
   1.00000000  0.19015011  0.45709754
Direct configuration=    14
   0.00000000  0.00004299  0.00347920
   0.50000000  0.50008903  0.05248199
   0.00000000  0.00010238  0.10515556
   0.50000000  0.50013260  0.15477671
   0.00000000  0.00000371  0.20790126
   0.50000000  0.49838890  0.25828004
   0.00000000 -0.00733225  0.31265800
   0.50000000  0.48969236  0.35992524
   1.00000000  0.04480033  0.43258685
   1.00000000  0.17958958  0.46007890
Direct configuration=    15
   0.00000000  0.00002260  0.00351978
   0.50000000  0.50006314  0.05211420
   0.00000000  0.00008558  0.10529718
   0.50000000  0.50007660  0.15533876
   0.00000000  0.00001481  0.20828109
   0.50000000  0.49879370  0.25892738
   0.00000000 -0.00625305  0.31334995
   0.50000000  0.49122433  0.36048970
   1.00000000  0.03623246  0.43152464
   1.00000000  0.18524946  0.45848105
Direct configuration=    16
   0.00000000  0.00002846  0.00353063
   0.50000000  0.50007031  0.05212986
   0.00000000  0.00009125  0.10519008
   0.50000000  0.50009129  0.15525653
   0.00000000 -0.00000056  0.20816772
   0.50000000  0.49865916  0.25880757
   0.00000000 -0.00656445  0.31317739
   0.50000000  0.49081924  0.36029341
   1.00000000  0.03813945  0.43173151
   1.00000000  0.18417549  0.45903904
Direct configuration=    17
   0.00000000  0.00004601  0.00356317
   0.50000000  0.50009180  0.05217683
   0.00000000  0.00010826  0.10486880
   0.50000000  0.50013535  0.15500985
   0.00000000 -0.00004665  0.20782762
   0.50000000  0.49825555  0.25844814
   0.00000000 -0.00749865  0.31265969
   0.50000000  0.48960396  0.35970452
   1.00000000  0.04386041  0.43235210
   1.00000000  0.18095357  0.46071302
Direct configuration=    18
   0.00000000  0.00005247  0.00357513
   0.50000000  0.50009971  0.05219409
   0.00000000  0.00011451  0.10475071
   0.50000000  0.50015155  0.15491918
   0.00000000 -0.00006359  0.20770260
   0.50000000  0.49810720  0.25831603
   0.00000000 -0.00784203  0.31246940
   0.50000000  0.48915727  0.35948806
   1.00000000  0.04596326  0.43258022
   1.00000000  0.17976930  0.46132832
Direct configuration=    19
   0.00000000  0.00004646  0.00358905
   0.50000000  0.50009330  0.05200155
   0.00000000  0.00011099  0.10455840
   0.50000000  0.50015154  0.15497389
   0.00000000 -0.00012474  0.20755928
   0.50000000  0.49791657  0.25828133
   0.00000000 -0.00817619  0.31235028
   0.50000000  0.48881976  0.35925752
   1.00000000  0.04864509  0.43292385
   1.00000000  0.17802685  0.46182857
Direct configuration=    20
   0.00000000  0.00002845  0.00363082
   0.50000000  0.50007407  0.05142394
   0.00000000  0.00010044  0.10398149
   0.50000000  0.50015150  0.15513802
   0.00000000 -0.00030818  0.20712932
   0.50000000  0.49734470  0.25817723
   0.00000000 -0.00917869  0.31199294
   0.50000000  0.48780725  0.35856592
   1.00000000  0.05669060  0.43395475
   1.00000000  0.17279950  0.46332931
Direct configuration=    21
   0.00000000 -0.00000757  0.00371434
   0.50000000  0.50003560  0.05026871
   0.00000000  0.00007933  0.10282767
   0.50000000  0.50015144  0.15546627
   0.00000000 -0.00067507  0.20626938
   0.50000000  0.49620095  0.25796904
   0.00000000 -0.01118368  0.31127826
   0.50000000  0.48578222  0.35718271
   1.00000000  0.07278160  0.43601655
   1.00000000  0.16234481  0.46633079
Direct configuration=    22
   0.00000000  0.00001158  0.00366993
   0.50000000  0.50005605  0.05088299
   0.00000000  0.00009056  0.10344120
   0.50000000  0.50015147  0.15529173
   0.00000000 -0.00047998  0.20672664
   0.50000000  0.49680913  0.25807974
   0.00000000 -0.01011754  0.31165829
   0.50000000  0.48685900  0.35791822
   1.00000000  0.06422538  0.43492021
   1.00000000  0.16790398  0.46473478
Direct configuration=    23
   0.00000000  0.00000676  0.00368110
   0.50000000  0.50005091  0.05072847
   0.00000000  0.00008773  0.10328687
   0.50000000  0.50015147  0.15533563
   0.00000000 -0.00052906  0.20661162
   0.50000000  0.49665614  0.25805190
   0.00000000 -0.01038572  0.31156269
   0.50000000  0.48658814  0.35773321
   1.00000000  0.06637764  0.43519599
   1.00000000  0.16650561  0.46513625
Direct configuration=    24
   0.00000000  0.00000900  0.00367591
   0.50000000  0.50005330  0.05080031
   0.00000000  0.00008905  0.10335863
   0.50000000  0.50015147  0.15531522
   0.00000000 -0.00050624  0.20666510
   0.50000000  0.49672727  0.25806484
   0.00000000 -0.01026104  0.31160714
   0.50000000  0.48671408  0.35781922
   1.00000000  0.06537698  0.43506777
   1.00000000  0.16715576  0.46494960
Direct configuration=    25
   0.00000000  0.00000787  0.00367854
   0.50000000  0.50005209  0.05076394
   0.00000000  0.00008838  0.10332230
   0.50000000  0.50015147  0.15532555
   0.00000000 -0.00051779  0.20663803
   0.50000000  0.49669126  0.25805829
   0.00000000 -0.01032416  0.31158464
   0.50000000  0.48665032  0.35777568
   1.00000000  0.06588357  0.43513268
   1.00000000  0.16682662  0.46504409
Direct configuration=    26
   0.00000000 -0.00000865  0.00343016
   0.50000000  0.50002778  0.05046335
   0.00000000  0.00007850  0.10336527
   0.50000000  0.50011026  0.15526686
   0.00000000 -0.00065203  0.20656840
   0.50000000  0.49649591  0.25805063
   0.00000000 -0.01040930  0.31164253
   0.50000000  0.48664542  0.35790254
   1.00000000  0.06762995  0.43537794
   1.00000000  0.16559179  0.46525605
Direct configuration=    27
   0.00000000 -0.00005199  0.00277843
   0.50000000  0.49996399  0.04967460
   0.00000000  0.00005256  0.10347803
   0.50000000  0.50000212  0.15511284
   0.00000000 -0.00100425  0.20638571
   0.50000000  0.49598332  0.25803052
   0.00000000 -0.01063271  0.31179443
   0.50000000  0.48663256  0.35823544
   1.00000000  0.07221238  0.43602149
   1.00000000  0.16235166  0.46581224
Direct configuration=    28
   0.00000000 -0.00006578  0.00258042
   0.50000000  0.49994487  0.04947634
   0.00000000  0.00004286  0.10346293
   0.50000000  0.49996021  0.15503506
   0.00000000 -0.00111841  0.20638088
   0.50000000  0.49583274  0.25804825
   0.00000000 -0.01066361  0.31185432
   0.50000000  0.48667994  0.35835153
   1.00000000  0.07294709  0.43604518
   1.00000000  0.16194973  0.46608884
Direct configuration=    29
   0.00000000 -0.00008938  0.00224146
   0.50000000  0.49991214  0.04913697
   0.00000000  0.00002625  0.10343707
   0.50000000  0.49988848  0.15490191
   0.00000000 -0.00131383  0.20637261
   0.50000000  0.49557498  0.25807859
   0.00000000 -0.01071649  0.31195684
   0.50000000  0.48676103  0.35855024
   1.00000000  0.07420473  0.43608574
   1.00000000  0.16126173  0.46656231
Direct configuration=    30
   0.00000000 -0.00009743  0.00212582
   0.50000000  0.49990097  0.04902118
   0.00000000  0.00002058  0.10342825
   0.50000000  0.49986400  0.15485649
   0.00000000 -0.00138051  0.20636979
   0.50000000  0.49548703  0.25808894
   0.00000000 -0.01073453  0.31199182
   0.50000000  0.48678869  0.35861804
   1.00000000  0.07463381  0.43609957
   1.00000000  0.16102700  0.46672384
Direct configuration=    31
   0.00000000 -0.00012209  0.00187586
   0.50000000  0.49987277  0.04881635
   0.00000000 -0.00000189  0.10330594
   0.50000000  0.49978897  0.15472248
   0.00000000 -0.00153909  0.20642137
   0.50000000  0.49530190  0.25814146
   0.00000000 -0.01073942  0.31208423
   0.50000000  0.48689737  0.35877185
   1.00000000  0.07587016  0.43625300
   1.00000000  0.16018096  0.46693119
Direct configuration=    32
   0.00000000 -0.00019608  0.00112600
   0.50000000  0.49978816  0.04820185
   0.00000000 -0.00006932  0.10293901
   0.50000000  0.49956388  0.15432045
   0.00000000 -0.00201486  0.20657612
   0.50000000  0.49474649  0.25829901
   0.00000000 -0.01075408  0.31236148
   0.50000000  0.48722341  0.35923329
   1.00000000  0.07957923  0.43671328
   1.00000000  0.15764282  0.46755324
Direct configuration=    33
   0.00000000 -0.00034405 -0.00037372
   0.50000000  0.49961894  0.04697286
   0.00000000 -0.00020418  0.10220515
   0.50000000  0.49911370  0.15351639
   0.00000000 -0.00296639  0.20688561
   0.50000000  0.49363566  0.25861410
   0.00000000 -0.01078341  0.31291598
   0.50000000  0.48787547  0.36015618
   1.00000000  0.08699736  0.43763385
   1.00000000  0.15256653  0.46879733
Direct configuration=    34
   0.00000000 -0.00030646  0.00000728
   0.50000000  0.49966193  0.04728508
   0.00000000 -0.00016992  0.10239158
   0.50000000  0.49922806  0.15372066
   0.00000000 -0.00272466  0.20680698
   0.50000000  0.49391786  0.25853405
   0.00000000 -0.01077596  0.31277511
   0.50000000  0.48770982  0.35992172
   1.00000000  0.08511282  0.43739998
   1.00000000  0.15385614  0.46848127
Direct configuration=    35
   0.00000000 -0.00032703 -0.00020117
   0.50000000  0.49963841  0.04711426
   0.00000000 -0.00018867  0.10228958
   0.50000000  0.49916549  0.15360890
   0.00000000 -0.00285691  0.20685000
   0.50000000  0.49376346  0.25857785
   0.00000000 -0.01078004  0.31285218
   0.50000000  0.48780045  0.36005000
   1.00000000  0.08614389  0.43752794
   1.00000000  0.15315057  0.46865419
Direct configuration=    36
   0.00000000 -0.00031593 -0.00008868
   0.50000000  0.49965111  0.04720644
   0.00000000 -0.00017855  0.10234463
   0.50000000  0.49919926  0.15366921
   0.00000000 -0.00278554  0.20682678
   0.50000000  0.49384678  0.25855422
   0.00000000 -0.01077784  0.31281059
   0.50000000  0.48775154  0.35998078
   1.00000000  0.08558748  0.43745889
   1.00000000  0.15353132  0.46856088
Direct configuration=    37
   0.00000000 -0.00033450 -0.00005332
   0.50000000  0.49965502  0.04721260
   0.00000000 -0.00024683  0.10203941
   0.50000000  0.49908397  0.15370357
   0.00000000 -0.00292158  0.20678236
   0.50000000  0.49377736  0.25860562
   0.00000000 -0.01068979  0.31289172
   0.50000000  0.48796206  0.35995050
   1.00000000  0.08653914  0.43779722
   1.00000000  0.15268478  0.46839407
Direct configuration=    38
   0.00000000 -0.00032751 -0.00006663
   0.50000000  0.49965355  0.04721028
   0.00000000 -0.00022114  0.10215425
   0.50000000  0.49912735  0.15369064
   0.00000000 -0.00287040  0.20679907
   0.50000000  0.49380348  0.25858628
   0.00000000 -0.01072292  0.31286120
   0.50000000  0.48788285  0.35996189
   1.00000000  0.08618109  0.43766993
   1.00000000  0.15300328  0.46845683
Direct configuration=    39
   0.00000000 -0.00035533  0.00004486
   0.50000000  0.49966323  0.04727237
   0.00000000 -0.00031909  0.10178351
   0.50000000  0.49893830  0.15375922
   0.00000000 -0.00305613  0.20668467
   0.50000000  0.49373028  0.25863868
   0.00000000 -0.01056597  0.31295512
   0.50000000  0.48821694  0.35987307
   1.00000000  0.08644788  0.43774196
   1.00000000  0.15280953  0.46857027
Direct configuration=    40
   0.00000000 -0.00035828  0.00005668
   0.50000000  0.49966426  0.04727896
   0.00000000 -0.00032948  0.10174420
   0.50000000  0.49891826  0.15376649
   0.00000000 -0.00307582  0.20667254
   0.50000000  0.49372252  0.25864423
   0.00000000 -0.01054933  0.31296508
   0.50000000  0.48825236  0.35986365
   1.00000000  0.08647616  0.43774960
   1.00000000  0.15278899  0.46858230
Direct configuration=    41
   0.00000000 -0.00036418  0.00008032
   0.50000000  0.49966631  0.04729212
   0.00000000 -0.00035025  0.10166559
   0.50000000  0.49887817  0.15378104
   0.00000000 -0.00311521  0.20664828
   0.50000000  0.49370700  0.25865534
   0.00000000 -0.01051605  0.31298500
   0.50000000  0.48832320  0.35984481
   1.00000000  0.08653274  0.43776487
   1.00000000  0.15274790  0.46860635
Direct configuration=    42
   0.00000000 -0.00037598  0.00012761
   0.50000000  0.49967042  0.04731846
   0.00000000 -0.00039179  0.10150835
   0.50000000  0.49879799  0.15381012
   0.00000000 -0.00319398  0.20659976
   0.50000000  0.49367595  0.25867757
   0.00000000 -0.01044948  0.31302484
   0.50000000  0.48846489  0.35980714
   1.00000000  0.08664589  0.43779542
   1.00000000  0.15266573  0.46865446
Direct configuration=    43
   0.00000000 -0.00037103  0.00010776
   0.50000000  0.49966869  0.04730740
   0.00000000 -0.00037435  0.10157435
   0.50000000  0.49883164  0.15379791
   0.00000000 -0.00316092  0.20662013
   0.50000000  0.49368898  0.25866824
   0.00000000 -0.01047742  0.31300811
   0.50000000  0.48840542  0.35982296
   1.00000000  0.08659839  0.43778260
   1.00000000  0.15270022  0.46863427
Direct configuration=    44
   0.00000000 -0.00037438  0.00012120
   0.50000000  0.49966986  0.04731489
   0.00000000 -0.00038616  0.10152966
   0.50000000  0.49880885  0.15380618
   0.00000000 -0.00318331  0.20660634
   0.50000000  0.49368016  0.25867455
   0.00000000 -0.01045850  0.31301944
   0.50000000  0.48844570  0.35981225
   1.00000000  0.08663056  0.43779129
   1.00000000  0.15267686  0.46864794
Direct configuration=    45
   0.00000000 -0.00037285  0.00011505
   0.50000000  0.49966933  0.04731146
   0.00000000 -0.00038075  0.10155011
   0.50000000  0.49881928  0.15380240
   0.00000000 -0.00317306  0.20661265
   0.50000000  0.49368420  0.25867166
   0.00000000 -0.01046716  0.31301426
   0.50000000  0.48842726  0.35981715
   1.00000000  0.08661584  0.43778731
   1.00000000  0.15268755  0.46864169
Direct configuration=    46
   0.00000000 -0.00037347  0.00011756
   0.50000000  0.49966954  0.04731286
   0.00000000 -0.00038295  0.10154178
   0.50000000  0.49881503  0.15380394
   0.00000000 -0.00317723  0.20661008
   0.50000000  0.49368255  0.25867284
   0.00000000 -0.01046364  0.31301637
   0.50000000  0.48843477  0.35981515
   1.00000000  0.08662183  0.43778893
   1.00000000  0.15268320  0.46864423
Direct configuration=    47
   0.00000000 -0.00037289  0.00011520
   0.50000000  0.49966934  0.04731155
   0.00000000 -0.00038089  0.10154961
   0.50000000  0.49881903  0.15380249
   0.00000000 -0.00317331  0.20661250
   0.50000000  0.49368410  0.25867173
   0.00000000 -0.01046695  0.31301438
   0.50000000  0.48842771  0.35981703
   1.00000000  0.08661620  0.43778741
   1.00000000  0.15268729  0.46864184
Direct configuration=    48
   0.00000000 -0.00037318  0.00011638
   0.50000000  0.49966944  0.04731220
   0.00000000 -0.00038192  0.10154570
   0.50000000  0.49881703  0.15380321
   0.00000000 -0.00317527  0.20661129
   0.50000000  0.49368333  0.25867229
   0.00000000 -0.01046529  0.31301537
   0.50000000  0.48843124  0.35981609
   1.00000000  0.08661901  0.43778817
   1.00000000  0.15268524  0.46864304
Direct configuration=    49
   0.00000000 -0.00037309  0.00011604
   0.50000000  0.49966941  0.04731201
   0.00000000 -0.00038162  0.10154684
   0.50000000  0.49881761  0.15380300
   0.00000000 -0.00317470  0.20661164
   0.50000000  0.49368355  0.25867213
   0.00000000 -0.01046577  0.31301509
   0.50000000  0.48843022  0.35981636
   1.00000000  0.08661819  0.43778795
   1.00000000  0.15268584  0.46864269
Direct configuration=    50
   0.00000000 -0.00038371  0.00008524
   0.50000000  0.49965273  0.04734241
   0.00000000 -0.00044966  0.10157256
   0.50000000  0.49872699  0.15380627
   0.00000000 -0.00323185  0.20656019
   0.50000000  0.49368467  0.25863191
   0.00000000 -0.01037442  0.31298138
   0.50000000  0.48855745  0.35980470
   1.00000000  0.08659164  0.43776478
   1.00000000  0.15273578  0.46877431
Direct configuration=    51
   0.00000000 -0.00038075  0.00009382
   0.50000000  0.49965738  0.04733394
   0.00000000 -0.00043070  0.10156539
   0.50000000  0.49875224  0.15380536
   0.00000000 -0.00321593  0.20657452
   0.50000000  0.49368436  0.25864311
   0.00000000 -0.01039987  0.31299077
   0.50000000  0.48852200  0.35980795
   1.00000000  0.08659903  0.43777123
   1.00000000  0.15272187  0.46873765
Direct configuration=    52
   0.00000000 -0.00038187  0.00009056
   0.50000000  0.49965561  0.04733716
   0.00000000 -0.00043791  0.10156812
   0.50000000  0.49874265  0.15380571
   0.00000000 -0.00322198  0.20656907
   0.50000000  0.49368448  0.25863885
   0.00000000 -0.01039020  0.31298720
   0.50000000  0.48853547  0.35980671
   1.00000000  0.08659622  0.43776878
   1.00000000  0.15272716  0.46875158
Direct configuration=    53
   0.00000000 -0.00038092  0.00009331
   0.50000000  0.49965710  0.04733444
   0.00000000 -0.00043183  0.10156582
   0.50000000  0.49875074  0.15380542
   0.00000000 -0.00321687  0.20657367
   0.50000000  0.49368438  0.25864245
   0.00000000 -0.01039836  0.31299021
   0.50000000  0.48852410  0.35980776
   1.00000000  0.08659860  0.43777085
   1.00000000  0.15272269  0.46873982
Direct configuration=    54
   0.00000000 -0.00038140  0.00009193
   0.50000000  0.49965636  0.04733580
   0.00000000 -0.00043487  0.10156697
   0.50000000  0.49874669  0.15380556
   0.00000000 -0.00321942  0.20657137
   0.50000000  0.49368443  0.25864065
   0.00000000 -0.01039428  0.31298870
   0.50000000  0.48852979  0.35980723
   1.00000000  0.08659741  0.43776981
   1.00000000  0.15272493  0.46874570
Direct configuration=    55
   0.00000000 -0.00038108  0.00009284
   0.50000000  0.49965685  0.04733490
   0.00000000 -0.00043285  0.10156621
   0.50000000  0.49874937  0.15380546
   0.00000000 -0.00321773  0.20657289
   0.50000000  0.49368439  0.25864184
   0.00000000 -0.01039698  0.31298970
   0.50000000  0.48852602  0.35980758
   1.00000000  0.08659819  0.43777050
   1.00000000  0.15272345  0.46874181
Direct configuration=    56
   0.00000000 -0.00039161  0.00006702
   0.50000000  0.49963863  0.04736445
   0.00000000 -0.00050129  0.10159124
   0.50000000  0.49865780  0.15380657
   0.00000000 -0.00327785  0.20652290
   0.50000000  0.49368441  0.25860552
   0.00000000 -0.01030128  0.31295770
   0.50000000  0.48865744  0.35979313
   1.00000000  0.08673512  0.43782463
   1.00000000  0.15260825  0.46879057
Direct configuration=    57
   0.00000000 -0.00039808  0.00005113
   0.50000000  0.49962741  0.04738263
   0.00000000 -0.00054340  0.10160665
   0.50000000  0.49860144  0.15380725
   0.00000000 -0.00331486  0.20649213
   0.50000000  0.49368442  0.25858317
   0.00000000 -0.01024238  0.31293801
   0.50000000  0.48873832  0.35978424
   1.00000000  0.08681940  0.43785795
   1.00000000  0.15253736  0.46882058
Direct configuration=    58
   0.00000000 -0.00041103  0.00001935
   0.50000000  0.49960498  0.04741900
   0.00000000 -0.00062764  0.10163747
   0.50000000  0.49848872  0.15380861
   0.00000000 -0.00338886  0.20643059
   0.50000000  0.49368444  0.25853846
   0.00000000 -0.01012458  0.31289862
   0.50000000  0.48890009  0.35976646
   1.00000000  0.08698794  0.43792459
   1.00000000  0.15239556  0.46888060
Direct configuration=    59
   0.00000000 -0.00042416  0.00002528
   0.50000000  0.49958211  0.04741078
   0.00000000 -0.00065464  0.10160820
   0.50000000  0.49846564  0.15379238
   0.00000000 -0.00341239  0.20642938
   0.50000000  0.49367472  0.25853247
   0.00000000 -0.01008502  0.31287489
   0.50000000  0.48895688  0.35973491
   1.00000000  0.08719511  0.43800504
   1.00000000  0.15221138  0.46891041
Direct configuration=    60
   0.00000000 -0.00043335  0.00002944
   0.50000000  0.49956610  0.04740503
   0.00000000 -0.00067354  0.10158772
   0.50000000  0.49844949  0.15378102
   0.00000000 -0.00342885  0.20642853
   0.50000000  0.49366792  0.25852827
   0.00000000 -0.01005734  0.31285828
   0.50000000  0.48899663  0.35971283
   1.00000000  0.08734007  0.43806134
   1.00000000  0.15208250  0.46893127
Direct configuration=    61
   0.00000000 -0.00045173  0.00003774
   0.50000000  0.49953409  0.04739353
   0.00000000 -0.00071133  0.10154675
   0.50000000  0.49841719  0.15375832
   0.00000000 -0.00346178  0.20642684
   0.50000000  0.49365431  0.25851989
   0.00000000 -0.01000198  0.31282507
   0.50000000  0.48907611  0.35966868
   1.00000000  0.08763001  0.43817394
   1.00000000  0.15182474  0.46897298
Direct configuration=    62
   0.00000000 -0.00043936  0.00003215
   0.50000000  0.49955563  0.04740127
   0.00000000 -0.00068590  0.10157432
   0.50000000  0.49843893  0.15377360
   0.00000000 -0.00343962  0.20642798
   0.50000000  0.49366347  0.25852553
   0.00000000 -0.01003924  0.31284742
   0.50000000  0.48902262  0.35969839
   1.00000000  0.08743489  0.43809817
   1.00000000  0.15199821  0.46894491
Direct configuration=    63
   0.00000000 -0.00044544  0.00003458
   0.50000000  0.49954452  0.04739843
   0.00000000 -0.00070094  0.10156365
   0.50000000  0.49842342  0.15376777
   0.00000000 -0.00345216  0.20642711
   0.50000000  0.49365986  0.25852225
   0.00000000 -0.01001663  0.31283704
   0.50000000  0.48905502  0.35968445
   1.00000000  0.08749307  0.43811889
   1.00000000  0.15194893  0.46896957
Direct configuration=    64
   0.00000000 -0.00045636  0.00003893
   0.50000000  0.49952456  0.04739334
   0.00000000 -0.00072797  0.10154447
   0.50000000  0.49839556  0.15375731
   0.00000000 -0.00347470  0.20642555
   0.50000000  0.49365337  0.25851634
   0.00000000 -0.00997603  0.31281840
   0.50000000  0.48911321  0.35965939
   1.00000000  0.08759757  0.43815613
   1.00000000  0.15186042  0.46901387
Direct configuration=    65
   0.00000000 -0.00047820  0.00004764
   0.50000000  0.49948463  0.04738315
   0.00000000 -0.00078202  0.10150612
   0.50000000  0.49833985  0.15373639
   0.00000000 -0.00351977  0.20642243
   0.50000000  0.49364039  0.25850454
   0.00000000 -0.00989482  0.31278112
   0.50000000  0.48922961  0.35960928
   1.00000000  0.08780658  0.43823060
   1.00000000  0.15168340  0.46910247
Direct configuration=    66
   0.00000000 -0.00052188  0.00006507
   0.50000000  0.49940478  0.04736276
   0.00000000 -0.00089013  0.10142941
   0.50000000  0.49822843  0.15369455
   0.00000000 -0.00360992  0.20641620
   0.50000000  0.49361442  0.25848094
   0.00000000 -0.00973241  0.31270656
   0.50000000  0.48946239  0.35950906
   1.00000000  0.08822460  0.43837954
   1.00000000  0.15132935  0.46927966
Direct configuration=    67
   0.00000000 -0.00060925  0.00009991
   0.50000000  0.49924508  0.04732200
   0.00000000 -0.00110634  0.10127600
   0.50000000  0.49800559  0.15361086
   0.00000000 -0.00379022  0.20640372
   0.50000000  0.49356250  0.25843372
   0.00000000 -0.00940759  0.31255743
   0.50000000  0.48992796  0.35930863
   1.00000000  0.08906064  0.43867741
   1.00000000  0.15062126  0.46963405
Direct configuration=    68
   0.00000000 -0.00064884  0.00007518
   0.50000000  0.49918768  0.04730048
   0.00000000 -0.00119378  0.10126674
   0.50000000  0.49790917  0.15358623
   0.00000000 -0.00385232  0.20635650
   0.50000000  0.49355411  0.25838198
   0.00000000 -0.00928590  0.31251785
   0.50000000  0.49008990  0.35926718
   1.00000000  0.08935301  0.43877489
   1.00000000  0.15039660  0.46979670
Direct configuration=    69
   0.00000000 -0.00073710  0.00002006
   0.50000000  0.49905973  0.04725252
   0.00000000 -0.00138868  0.10124611
   0.50000000  0.49769427  0.15353134
   0.00000000 -0.00399072  0.20625125
   0.50000000  0.49353542  0.25826666
   0.00000000 -0.00901465  0.31242962
   0.50000000  0.49045085  0.35917479
   1.00000000  0.09000466  0.43899215
   1.00000000  0.14989586  0.47015924
Direct configuration=    70
   0.00000000 -0.00078390 -0.00002828
   0.50000000  0.49900232  0.04722579
   0.00000000 -0.00148423  0.10125852
   0.50000000  0.49758435  0.15350317
   0.00000000 -0.00405340  0.20617705
   0.50000000  0.49353939  0.25819430
   0.00000000 -0.00888929  0.31239630
   0.50000000  0.49060751  0.35915530
   1.00000000  0.09045386  0.43916292
   1.00000000  0.14953302  0.47027867
Direct configuration=    71
   0.00000000 -0.00084635 -0.00009277
   0.50000000  0.49892571  0.04719011
   0.00000000 -0.00161173  0.10127507
   0.50000000  0.49743770  0.15346558
   0.00000000 -0.00413703  0.20607804
   0.50000000  0.49354470  0.25809774
   0.00000000 -0.00872203  0.31235185
   0.50000000  0.49081655  0.35912930
   1.00000000  0.09105322  0.43939079
   1.00000000  0.14904889  0.47043803
