  10  10   0   0
  0.1692928E+02  0.2566798E-09  0.2566798E-09  0.2967047E-08  0.5000000E-15
  1.000000000000000E-004
  CAR 
 unknown system                          
     18.23900843     -8.79482519  301      2.03948904      1.00000000
     -8.795  0.0000E+00  0.0000E+00  0.0000E+00  0.0000E+00
     -8.705  0.0000E+00  0.0000E+00  0.0000E+00  0.0000E+00
     -8.615  0.0000E+00  0.0000E+00  0.0000E+00  0.0000E+00
     -8.524  0.0000E+00  0.0000E+00  0.0000E+00  0.0000E+00
     -8.434 -0.2323E-31 -0.2323E-31 -0.2093E-32 -0.2093E-32
     -8.344 -0.2892E-28 -0.2892E-28 -0.2608E-29 -0.2608E-29
     -8.254 -0.2392E-25 -0.2392E-25 -0.2158E-26 -0.2158E-26
     -8.164 -0.1313E-22 -0.1313E-22 -0.1185E-23 -0.1185E-23
     -8.074 -0.4779E-20 -0.4779E-20 -0.4318E-21 -0.4318E-21
     -7.984 -0.1153E-17 -0.1153E-17 -0.1043E-18 -0.1043E-18
     -7.894 -0.1780E-15 -0.1780E-15 -0.1614E-16 -0.1614E-16
     -7.804 -0.1868E-13 -0.1868E-13 -0.1700E-14 -0.1700E-14
     -7.713 -0.1291E-11 -0.1291E-11 -0.1180E-12 -0.1180E-12
     -7.623 -0.5853E-10 -0.5853E-10 -0.5392E-11 -0.5392E-11
     -7.533 -0.1733E-08 -0.1733E-08 -0.1615E-09 -0.1615E-09
     -7.443 -0.3321E-07 -0.3321E-07 -0.3154E-08 -0.3154E-08
     -7.353 -0.4064E-06 -0.4064E-06 -0.3978E-07 -0.3978E-07
     -7.263 -0.3092E-05 -0.3092E-05 -0.3184E-06 -0.3184E-06
     -7.173 -0.1377E-04 -0.1377E-04 -0.1559E-05 -0.1559E-05
     -7.083 -0.2935E-04 -0.2935E-04 -0.4204E-05 -0.4204E-05
     -6.993  0.9492E-05  0.9492E-05 -0.3348E-05 -0.3348E-05
     -6.902  0.2036E-03  0.2036E-03  0.1500E-04  0.1500E-04
     -6.812  0.4767E-03  0.4767E-03  0.5796E-04  0.5796E-04
     -6.722  0.5266E-03  0.5266E-03  0.1054E-03  0.1054E-03
     -6.632  0.3138E-03  0.3138E-03  0.1337E-03  0.1337E-03
     -6.542  0.2232E-03  0.2232E-03  0.1538E-03  0.1538E-03
     -6.452  0.4132E-03  0.4132E-03  0.1910E-03  0.1910E-03
     -6.362  0.5276E-03  0.5276E-03  0.2386E-03  0.2386E-03
     -6.272  0.3382E-03  0.3382E-03  0.2691E-03  0.2691E-03
     -6.182  0.1550E-03  0.1550E-03  0.2830E-03  0.2830E-03
     -6.091  0.2864E-03  0.2864E-03  0.3088E-03  0.3088E-03
     -6.001  0.5202E-03  0.5202E-03  0.3557E-03  0.3557E-03
     -5.911  0.4672E-03  0.4672E-03  0.3978E-03  0.3978E-03
     -5.821  0.1888E-03  0.1888E-03  0.4148E-03  0.4148E-03
     -5.731  0.8274E-04  0.8274E-04  0.4223E-03  0.4223E-03
     -5.641  0.2982E-03  0.2982E-03  0.4492E-03  0.4492E-03
     -5.551  0.5428E-03  0.5428E-03  0.4981E-03  0.4981E-03
     -5.461  0.4786E-03  0.4786E-03  0.5412E-03  0.5412E-03
     -5.371  0.1982E-03  0.1982E-03  0.5591E-03  0.5591E-03
     -5.280  0.6410E-05  0.6410E-05  0.5596E-03  0.5596E-03
     -5.190 -0.3348E-04 -0.3348E-04  0.5566E-03  0.5566E-03
     -5.100 -0.3040E-04 -0.3040E-04  0.5539E-03  0.5539E-03
     -5.010 -0.3231E-04 -0.3231E-04  0.5510E-03  0.5510E-03
     -4.920  0.3283E-04  0.3283E-04  0.5539E-03  0.5539E-03
     -4.830  0.2610E-03  0.2610E-03  0.5774E-03  0.5774E-03
     -4.740  0.5263E-03  0.5263E-03  0.6249E-03  0.6249E-03
     -4.650  0.5272E-03  0.5272E-03  0.6724E-03  0.6724E-03
     -4.560  0.2620E-03  0.2620E-03  0.6960E-03  0.6960E-03
     -4.469  0.2814E-04  0.2814E-04  0.6985E-03  0.6985E-03
     -4.379 -0.6544E-04 -0.6544E-04  0.6926E-03  0.6926E-03
     -4.289 -0.1436E-03 -0.1436E-03  0.6797E-03  0.6797E-03
     -4.199 -0.1787E-03 -0.1787E-03  0.6636E-03  0.6636E-03
     -4.109  0.3237E-03  0.3237E-03  0.6927E-03  0.6927E-03
     -4.019  0.1773E-02  0.1773E-02  0.8525E-03  0.8525E-03
     -3.929  0.3306E-02  0.3306E-02  0.1150E-02  0.1150E-02
     -3.839  0.3797E-02  0.3797E-02  0.1493E-02  0.1493E-02
     -3.749  0.3769E-02  0.3769E-02  0.1832E-02  0.1832E-02
     -3.658  0.3675E-02  0.3675E-02  0.2163E-02  0.2163E-02
     -3.568  0.3117E-02  0.3117E-02  0.2444E-02  0.2444E-02
     -3.478  0.2877E-02  0.2877E-02  0.2703E-02  0.2703E-02
     -3.388  0.3205E-02  0.3205E-02  0.2992E-02  0.2992E-02
     -3.298  0.2559E-02  0.2559E-02  0.3223E-02  0.3223E-02
     -3.208  0.1131E-02  0.1131E-02  0.3325E-02  0.3325E-02
     -3.118  0.1164E-02  0.1164E-02  0.3430E-02  0.3430E-02
     -3.028  0.2917E-02  0.2917E-02  0.3692E-02  0.3692E-02
     -2.937  0.3780E-02  0.3780E-02  0.4033E-02  0.4033E-02
     -2.847  0.2322E-02  0.2322E-02  0.4242E-02  0.4242E-02
     -2.757  0.6848E-03  0.6848E-03  0.4304E-02  0.4304E-02
     -2.667  0.1442E-02  0.1442E-02  0.4434E-02  0.4434E-02
     -2.577  0.4023E-02  0.4023E-02  0.4796E-02  0.4796E-02
     -2.487  0.5222E-02  0.5222E-02  0.5267E-02  0.5267E-02
     -2.397  0.3671E-02  0.3671E-02  0.5598E-02  0.5598E-02
     -2.307  0.2010E-02  0.2010E-02  0.5779E-02  0.5779E-02
     -2.217  0.2354E-02  0.2354E-02  0.5991E-02  0.5991E-02
     -2.126  0.2991E-02  0.2991E-02  0.6261E-02  0.6261E-02
     -2.036  0.2256E-02  0.2256E-02  0.6464E-02  0.6464E-02
     -1.946  0.1633E-02  0.1633E-02  0.6611E-02  0.6611E-02
     -1.856  0.2436E-02  0.2436E-02  0.6830E-02  0.6830E-02
     -1.766  0.4201E-02  0.4201E-02  0.7209E-02  0.7209E-02
     -1.676  0.7523E-02  0.7523E-02  0.7887E-02  0.7887E-02
     -1.586  0.1298E-01  0.1298E-01  0.9056E-02  0.9056E-02
     -1.496  0.1788E-01  0.1788E-01  0.1067E-01  0.1067E-01
     -1.406  0.1833E-01  0.1833E-01  0.1232E-01  0.1232E-01
     -1.315  0.1415E-01  0.1415E-01  0.1360E-01  0.1360E-01
     -1.225  0.9636E-02  0.9636E-02  0.1446E-01  0.1446E-01
     -1.135  0.7719E-02  0.7719E-02  0.1516E-01  0.1516E-01
     -1.045  0.7145E-02  0.7145E-02  0.1580E-01  0.1580E-01
     -0.955  0.6341E-02  0.6341E-02  0.1637E-01  0.1637E-01
     -0.865  0.6169E-02  0.6169E-02  0.1693E-01  0.1693E-01
     -0.775  0.8403E-02  0.8403E-02  0.1769E-01  0.1769E-01
     -0.685  0.1239E-01  0.1239E-01  0.1880E-01  0.1880E-01
     -0.595  0.1586E-01  0.1586E-01  0.2023E-01  0.2023E-01
     -0.504  0.1892E-01  0.1892E-01  0.2194E-01  0.2194E-01
     -0.414  0.2172E-01  0.2172E-01  0.2390E-01  0.2390E-01
     -0.324  0.2140E-01  0.2140E-01  0.2582E-01  0.2582E-01
     -0.234  0.1710E-01  0.1710E-01  0.2737E-01  0.2737E-01
     -0.144  0.1246E-01  0.1246E-01  0.2849E-01  0.2849E-01
     -0.054  0.1046E-01  0.1046E-01  0.2943E-01  0.2943E-01
      0.036  0.1097E-01  0.1097E-01  0.3042E-01  0.3042E-01
      0.126  0.1287E-01  0.1287E-01  0.3158E-01  0.3158E-01
      0.216  0.1548E-01  0.1548E-01  0.3297E-01  0.3297E-01
      0.307  0.1808E-01  0.1808E-01  0.3460E-01  0.3460E-01
      0.397  0.1925E-01  0.1925E-01  0.3634E-01  0.3634E-01
      0.487  0.1938E-01  0.1938E-01  0.3808E-01  0.3808E-01
      0.577  0.2125E-01  0.2125E-01  0.4000E-01  0.4000E-01
      0.667  0.2519E-01  0.2519E-01  0.4227E-01  0.4227E-01
      0.757  0.2793E-01  0.2793E-01  0.4478E-01  0.4478E-01
      0.847  0.2667E-01  0.2667E-01  0.4719E-01  0.4719E-01
      0.937  0.2206E-01  0.2206E-01  0.4918E-01  0.4918E-01
      1.027  0.1800E-01  0.1800E-01  0.5080E-01  0.5080E-01
      1.118  0.1703E-01  0.1703E-01  0.5233E-01  0.5233E-01
      1.208  0.1622E-01  0.1622E-01  0.5379E-01  0.5379E-01
      1.298  0.1208E-01  0.1208E-01  0.5488E-01  0.5488E-01
      1.388  0.6222E-02  0.6222E-02  0.5544E-01  0.5544E-01
      1.478  0.1883E-02  0.1883E-02  0.5561E-01  0.5561E-01
      1.568 -0.8686E-04 -0.8686E-04  0.5561E-01  0.5561E-01
      1.658 -0.5379E-03 -0.5379E-03  0.5556E-01  0.5556E-01
      1.748 -0.2687E-03 -0.2687E-03  0.5553E-01  0.5553E-01
      1.838  0.8187E-03  0.8187E-03  0.5561E-01  0.5561E-01
      1.929  0.2654E-02  0.2654E-02  0.5585E-01  0.5585E-01
      2.019  0.3700E-02  0.3700E-02  0.5618E-01  0.5618E-01
      2.109  0.2810E-02  0.2810E-02  0.5643E-01  0.5643E-01
      2.199  0.1157E-02  0.1157E-02  0.5654E-01  0.5654E-01
      2.289  0.3362E-03  0.3362E-03  0.5657E-01  0.5657E-01
      2.379  0.3763E-03  0.3762E-03  0.5660E-01  0.5660E-01
      2.469  0.4657E-03  0.4657E-03  0.5664E-01  0.5664E-01
      2.559  0.2655E-03  0.2655E-03  0.5667E-01  0.5667E-01
      2.649  0.4525E-05  0.4525E-05  0.5667E-01  0.5667E-01
      2.740 -0.1646E-03 -0.1646E-03  0.5665E-01  0.5665E-01
      2.830 -0.1605E-03 -0.1605E-03  0.5664E-01  0.5664E-01
      2.920  0.5074E-03  0.5074E-03  0.5668E-01  0.5668E-01
      3.010  0.2118E-02  0.2118E-02  0.5687E-01  0.5687E-01
      3.100  0.3386E-02  0.3386E-02  0.5718E-01  0.5718E-01
      3.190  0.2768E-02  0.2768E-02  0.5743E-01  0.5743E-01
      3.280  0.1055E-02  0.1055E-02  0.5752E-01  0.5752E-01
      3.370 -0.4715E-05 -0.4715E-05  0.5752E-01  0.5752E-01
      3.461 -0.1706E-03 -0.1706E-03  0.5751E-01  0.5751E-01
      3.551 -0.7215E-04 -0.7215E-04  0.5750E-01  0.5750E-01
      3.641 -0.1521E-04 -0.1521E-04  0.5750E-01  0.5750E-01
      3.731 -0.1938E-05 -0.1938E-05  0.5750E-01  0.5750E-01
      3.821 -0.8238E-06 -0.8238E-06  0.5750E-01  0.5750E-01
      3.911 -0.6671E-05 -0.6671E-05  0.5750E-01  0.5750E-01
      4.001 -0.3995E-04 -0.3995E-04  0.5750E-01  0.5750E-01
      4.091 -0.1321E-03 -0.1321E-03  0.5748E-01  0.5748E-01
      4.181 -0.1482E-03 -0.1482E-03  0.5747E-01  0.5747E-01
      4.272  0.4706E-03  0.4706E-03  0.5751E-01  0.5751E-01
      4.362  0.2055E-02  0.2055E-02  0.5770E-01  0.5770E-01
      4.452  0.3370E-02  0.3370E-02  0.5800E-01  0.5800E-01
      4.542  0.2821E-02  0.2821E-02  0.5826E-01  0.5826E-01
      4.632  0.1112E-02  0.1112E-02  0.5836E-01  0.5836E-01
      4.722  0.1417E-04  0.1417E-04  0.5836E-01  0.5836E-01
      4.812 -0.1727E-03 -0.1727E-03  0.5834E-01  0.5834E-01
      4.902 -0.7541E-04 -0.7541E-04  0.5833E-01  0.5833E-01
      4.992 -0.1622E-04 -0.1622E-04  0.5833E-01  0.5833E-01
      5.083 -0.2164E-05 -0.2164E-05  0.5833E-01  0.5833E-01
      5.173 -0.1629E-05 -0.1629E-05  0.5833E-01  0.5833E-01
      5.263 -0.1251E-04 -0.1251E-04  0.5833E-01  0.5833E-01
      5.353 -0.6512E-04 -0.6512E-04  0.5833E-01  0.5833E-01
      5.443 -0.1893E-03 -0.1893E-03  0.5831E-01  0.5831E-01
      5.533 -0.1951E-03 -0.1951E-03  0.5829E-01  0.5829E-01
      5.623  0.5490E-03  0.5490E-03  0.5834E-01  0.5834E-01
      5.713  0.2575E-02  0.2575E-02  0.5857E-01  0.5857E-01
      5.803  0.5386E-02  0.5386E-02  0.5906E-01  0.5906E-01
      5.894  0.7384E-02  0.7384E-02  0.5972E-01  0.5972E-01
      5.984  0.6808E-02  0.6808E-02  0.6034E-01  0.6034E-01
      6.074  0.4051E-02  0.4051E-02  0.6070E-01  0.6070E-01
      6.164  0.1865E-02  0.1865E-02  0.6087E-01  0.6087E-01
      6.254  0.1452E-02  0.1452E-02  0.6100E-01  0.6100E-01
      6.344  0.1498E-02  0.1498E-02  0.6114E-01  0.6114E-01
      6.434  0.1091E-02  0.1091E-02  0.6123E-01  0.6123E-01
      6.524  0.6298E-03  0.6296E-03  0.6129E-01  0.6129E-01
      6.614  0.4630E-03  0.4629E-03  0.6133E-01  0.6133E-01
      6.705  0.4536E-03  0.4538E-03  0.6137E-01  0.6137E-01
      6.795  0.6097E-03  0.6099E-03  0.6143E-01  0.6143E-01
      6.885  0.1004E-02  0.1004E-02  0.6152E-01  0.6152E-01
      6.975  0.1805E-02  0.1805E-02  0.6168E-01  0.6168E-01
      7.065  0.3263E-02  0.3263E-02  0.6198E-01  0.6198E-01
      7.155  0.4363E-02  0.4362E-02  0.6237E-01  0.6237E-01
      7.245  0.3638E-02  0.3638E-02  0.6270E-01  0.6270E-01
      7.335  0.1758E-02  0.1758E-02  0.6286E-01  0.6286E-01
      7.425  0.4837E-03  0.4838E-03  0.6290E-01  0.6290E-01
      7.516  0.5431E-03  0.5433E-03  0.6295E-01  0.6295E-01
      7.606  0.1685E-02  0.1685E-02  0.6310E-01  0.6310E-01
      7.696  0.2783E-02  0.2783E-02  0.6335E-01  0.6335E-01
      7.786  0.2640E-02  0.2640E-02  0.6359E-01  0.6359E-01
      7.876  0.1423E-02  0.1423E-02  0.6372E-01  0.6372E-01
      7.966  0.3157E-03  0.3157E-03  0.6375E-01  0.6375E-01
      8.056  0.2705E-03  0.2705E-03  0.6377E-01  0.6377E-01
      8.146  0.1314E-02  0.1313E-02  0.6389E-01  0.6389E-01
      8.236  0.2470E-02  0.2469E-02  0.6411E-01  0.6411E-01
      8.327  0.3021E-02  0.3021E-02  0.6438E-01  0.6438E-01
      8.417  0.3358E-02  0.3358E-02  0.6469E-01  0.6469E-01
      8.507  0.3375E-02  0.3376E-02  0.6499E-01  0.6499E-01
      8.597  0.2379E-02  0.2379E-02  0.6520E-01  0.6520E-01
      8.687  0.1159E-02  0.1159E-02  0.6531E-01  0.6531E-01
      8.777  0.1031E-02  0.1031E-02  0.6540E-01  0.6540E-01
      8.867  0.1806E-02  0.1806E-02  0.6556E-01  0.6556E-01
      8.957  0.2832E-02  0.2832E-02  0.6582E-01  0.6582E-01
      9.048  0.3680E-02  0.3680E-02  0.6615E-01  0.6615E-01
      9.138  0.3655E-02  0.3655E-02  0.6648E-01  0.6648E-01
      9.228  0.3155E-02  0.3155E-02  0.6676E-01  0.6676E-01
      9.318  0.3468E-02  0.3468E-02  0.6708E-01  0.6708E-01
      9.408  0.4077E-02  0.4076E-02  0.6744E-01  0.6744E-01
      9.498  0.3347E-02  0.3347E-02  0.6775E-01  0.6775E-01
      9.588  0.1803E-02  0.1803E-02  0.6791E-01  0.6791E-01
      9.678  0.1514E-02  0.1514E-02  0.6804E-01  0.6804E-01
      9.768  0.2555E-02  0.2554E-02  0.6828E-01  0.6827E-01
      9.859  0.2875E-02  0.2876E-02  0.6853E-01  0.6853E-01
      9.949  0.1963E-02  0.1963E-02  0.6871E-01  0.6871E-01
     10.039  0.1718E-02  0.1717E-02  0.6887E-01  0.6887E-01
     10.129  0.2719E-02  0.2718E-02  0.6911E-01  0.6911E-01
     10.219  0.3038E-02  0.3039E-02  0.6938E-01  0.6938E-01
     10.309  0.2192E-02  0.2194E-02  0.6958E-01  0.6958E-01
     10.399  0.2103E-02  0.2104E-02  0.6977E-01  0.6977E-01
     10.489  0.3001E-02  0.3001E-02  0.7004E-01  0.7004E-01
     10.579  0.3114E-02  0.3114E-02  0.7032E-01  0.7032E-01
     10.670  0.2506E-02  0.2506E-02  0.7055E-01  0.7055E-01
     10.760  0.2752E-02  0.2752E-02  0.7080E-01  0.7080E-01
     10.850  0.3582E-02  0.3581E-02  0.7112E-01  0.7112E-01
     10.940  0.3674E-02  0.3674E-02  0.7145E-01  0.7145E-01
     11.030  0.3146E-02  0.3146E-02  0.7173E-01  0.7173E-01
     11.120  0.2418E-02  0.2419E-02  0.7195E-01  0.7195E-01
     11.210  0.1279E-02  0.1279E-02  0.7207E-01  0.7207E-01
     11.300  0.1555E-03  0.1557E-03  0.7208E-01  0.7208E-01
     11.390 -0.1125E-03 -0.1125E-03  0.7207E-01  0.7207E-01
     11.481  0.8768E-03  0.8766E-03  0.7215E-01  0.7215E-01
     11.571  0.2909E-02  0.2909E-02  0.7241E-01  0.7241E-01
     11.661  0.4719E-02  0.4719E-02  0.7284E-01  0.7284E-01
     11.751  0.4775E-02  0.4775E-02  0.7327E-01  0.7327E-01
     11.841  0.3226E-02  0.3226E-02  0.7356E-01  0.7356E-01
     11.931  0.1643E-02  0.1644E-02  0.7371E-01  0.7371E-01
     12.021  0.1125E-02  0.1125E-02  0.7381E-01  0.7381E-01
     12.111  0.1726E-02  0.1725E-02  0.7396E-01  0.7396E-01
     12.201  0.2624E-02  0.2623E-02  0.7420E-01  0.7420E-01
     12.292  0.2630E-02  0.2630E-02  0.7444E-01  0.7444E-01
     12.382  0.1523E-02  0.1523E-02  0.7457E-01  0.7457E-01
     12.472  0.3558E-03  0.3561E-03  0.7461E-01  0.7461E-01
     12.562 -0.1077E-03 -0.1077E-03  0.7460E-01  0.7460E-01
     12.652 -0.1031E-03 -0.1031E-03  0.7459E-01  0.7459E-01
     12.742 -0.3309E-04 -0.3312E-04  0.7458E-01  0.7458E-01
     12.832 -0.7525E-05 -0.7529E-05  0.7458E-01  0.7458E-01
     12.922 -0.1132E-04 -0.1131E-04  0.7458E-01  0.7458E-01
     13.012 -0.3752E-04 -0.3750E-04  0.7458E-01  0.7458E-01
     13.103 -0.5133E-04 -0.5134E-04  0.7457E-01  0.7457E-01
     13.193  0.1060E-03  0.1059E-03  0.7458E-01  0.7458E-01
     13.283  0.5767E-03  0.5765E-03  0.7464E-01  0.7464E-01
     13.373  0.1058E-02  0.1058E-02  0.7473E-01  0.7473E-01
     13.463  0.1002E-02  0.1003E-02  0.7482E-01  0.7482E-01
     13.553  0.4794E-03  0.4796E-03  0.7486E-01  0.7486E-01
     13.643  0.5726E-04  0.5737E-04  0.7487E-01  0.7487E-01
     13.733 -0.5494E-04 -0.5493E-04  0.7486E-01  0.7486E-01
     13.823 -0.3171E-04 -0.3173E-04  0.7486E-01  0.7486E-01
     13.914 -0.8118E-05 -0.8124E-05  0.7486E-01  0.7486E-01
     14.004 -0.1204E-05 -0.1205E-05  0.7486E-01  0.7486E-01
     14.094 -0.1111E-06 -0.1113E-06  0.7486E-01  0.7486E-01
     14.184 -0.6568E-08 -0.6577E-08  0.7486E-01  0.7486E-01
     14.274 -0.2523E-09 -0.2527E-09  0.7486E-01  0.7486E-01
     14.364 -0.6353E-11 -0.6365E-11  0.7486E-01  0.7486E-01
     14.454 -0.1053E-12 -0.1055E-12  0.7486E-01  0.7486E-01
     14.544 -0.1154E-14 -0.1156E-14  0.7486E-01  0.7486E-01
     14.634 -0.8214E-17 -0.8214E-17  0.7486E-01  0.7486E-01
     14.725 -0.4148E-27 -0.4138E-27  0.7486E-01  0.7486E-01
     14.815 -0.2925E-24 -0.2918E-24  0.7486E-01  0.7486E-01
     14.905 -0.1368E-21 -0.1365E-21  0.7486E-01  0.7486E-01
     14.995 -0.4244E-19 -0.4236E-19  0.7486E-01  0.7486E-01
     15.085 -0.8463E-17 -0.8447E-17  0.7486E-01  0.7486E-01
     15.175 -0.1144E-14 -0.1142E-14  0.7486E-01  0.7486E-01
     15.265 -0.1021E-12 -0.1019E-12  0.7486E-01  0.7486E-01
     15.355 -0.5989E-11 -0.5981E-11  0.7486E-01  0.7486E-01
     15.446 -0.2302E-09 -0.2299E-09  0.7486E-01  0.7486E-01
     15.536 -0.5762E-08 -0.5756E-08  0.7486E-01  0.7486E-01
     15.626 -0.9295E-07 -0.9286E-07  0.7486E-01  0.7486E-01
     15.716 -0.9494E-06 -0.9487E-06  0.7486E-01  0.7486E-01
     15.806 -0.5926E-05 -0.5923E-05  0.7486E-01  0.7486E-01
     15.896 -0.2065E-04 -0.2064E-04  0.7486E-01  0.7486E-01
     15.986 -0.2669E-04 -0.2669E-04  0.7486E-01  0.7486E-01
     16.076  0.6449E-04  0.6443E-04  0.7486E-01  0.7486E-01
     16.166  0.3200E-03  0.3199E-03  0.7489E-01  0.7489E-01
     16.257  0.5544E-03  0.5544E-03  0.7494E-01  0.7494E-01
     16.347  0.4878E-03  0.4878E-03  0.7498E-01  0.7498E-01
     16.437  0.2058E-03  0.2059E-03  0.7500E-01  0.7500E-01
     16.527  0.9727E-05  0.9764E-05  0.7500E-01  0.7500E-01
     16.617 -0.2932E-04 -0.2933E-04  0.7500E-01  0.7500E-01
     16.707 -0.1376E-04 -0.1377E-04  0.7500E-01  0.7500E-01
     16.797 -0.3090E-05 -0.3092E-05  0.7500E-01  0.7500E-01
     16.887 -0.4061E-06 -0.4064E-06  0.7500E-01  0.7500E-01
     16.977 -0.3318E-07 -0.3321E-07  0.7500E-01  0.7500E-01
     17.068 -0.1731E-08 -0.1733E-08  0.7500E-01  0.7500E-01
     17.158 -0.5845E-10 -0.5853E-10  0.7500E-01  0.7500E-01
     17.248 -0.1289E-11 -0.1291E-11  0.7500E-01  0.7500E-01
     17.338 -0.1865E-13 -0.1868E-13  0.7500E-01  0.7500E-01
     17.428 -0.1780E-15 -0.1780E-15  0.7500E-01  0.7500E-01
     17.518 -0.1027E-17 -0.1027E-17  0.7500E-01  0.7500E-01
     17.608  0.0000E+00  0.0000E+00  0.7500E-01  0.7500E-01
     17.698  0.0000E+00  0.0000E+00  0.7500E-01  0.7500E-01
     17.788  0.0000E+00  0.0000E+00  0.7500E-01  0.7500E-01
     17.879  0.0000E+00  0.0000E+00  0.7500E-01  0.7500E-01
     17.969  0.0000E+00  0.0000E+00  0.7500E-01  0.7500E-01
     18.059  0.0000E+00  0.0000E+00  0.7500E-01  0.7500E-01
     18.149  0.0000E+00  0.0000E+00  0.7500E-01  0.7500E-01
     18.239  0.0000E+00  0.0000E+00  0.7500E-01  0.7500E-01
