   10   10  800    2
  0.1692928E+02  0.2566798E-09  0.2566798E-09  0.2967047E-08  0.5000000E-15
  1.000000000000000E-004
  CAR 
 unknown system                          
     90      4     60
 
  0.0000000E+00  0.0000000E+00  0.0000000E+00  0.1111111E+00
      1         -6.794825       -6.794825   1.000000   1.000000
      2         -6.418748       -6.418748   1.000000   1.000000
      3         -6.015527       -6.015527   1.000000   1.000000
      4         -5.570641       -5.570641   1.000000   1.000000
      5         -4.739511       -4.739511   1.000000   1.000000
      6         -3.798004       -3.798004   1.000000   1.000000
      7         -2.992741       -2.992741   1.000000   1.000000
      8         -2.565536       -2.565536   1.000000   1.000000
      9         -2.492714       -2.492714   1.000000   1.000000
     10         -0.621585       -0.621584   1.000000   1.000000
     11         -0.600046       -0.600046   1.000000   1.000000
     12         -0.512230       -0.512230   1.000000   1.000000
     13         -0.511278       -0.511278   1.000000   1.000000
     14         -0.500813       -0.500813   1.000000   1.000000
     15         -0.500738       -0.500738   1.000000   1.000000
     16         -0.446867       -0.446867   1.000000   1.000000
     17         -0.429535       -0.429535   1.000000   1.000000
     18         -0.429262       -0.429262   1.000000   1.000000
     19         -0.408195       -0.408195   1.000000   1.000000
     20         -0.407646       -0.407646   1.000000   1.000000
     21         -0.362797       -0.362797   1.000000   1.000000
     22         -0.330433       -0.330433   1.000000   1.000000
     23         -0.330376       -0.330376   1.000000   1.000000
     24         -0.295650       -0.295650   1.000000   1.000000
     25         -0.295199       -0.295199   1.000000   1.000000
     26         -0.144044       -0.144044   1.000000   1.000000
     27          0.056542        0.056542   1.000000   1.000000
     28          0.058944        0.058944   1.000000   1.000000
     29          0.084636        0.084636   1.000000   1.000000
     30          0.167462        0.167462   1.000000   1.000000
     31          0.168343        0.168343   1.000000   1.000000
     32          0.345643        0.345643   1.000000   1.000000
     33          0.351836        0.351836   1.000000   1.000000
     34          0.357336        0.357336   1.000000   1.000000
     35          0.363980        0.363980   1.000000   1.000000
     36          0.478423        0.478423   1.000000   1.000000
     37          0.480112        0.480112   1.000000   1.000000
     38          0.600530        0.600530   1.000000   1.000000
     39          0.603720        0.603720   1.000000   1.000000
     40          0.709088        0.709088   1.000000   1.000000
     41          0.712479        0.712479   1.000000   1.000000
     42          0.787686        0.787686   1.000000   1.000000
     43          0.871265        0.871265   1.000000   1.000000
     44          0.876946        0.876946   1.000000   1.000000
     45          1.082966        1.082967   1.000000   1.000000
     46          1.086395        1.086395   1.000000   1.000000
     47          1.204305        1.204305   1.000000   1.000000
     48          1.204411        1.204411   1.000000   1.000000
     49          2.097885        2.097886   0.264195   0.264195
     50          2.389637        2.389638  -0.016394  -0.016394
     51          5.878883        5.878912  -0.000000  -0.000000
     52          6.588342        6.588409  -0.000000  -0.000000
     53          7.342265        7.342337  -0.000000  -0.000000
     54          8.314430        8.314463   0.000000   0.000000
     55          8.831754        8.831816   0.000000   0.000000
     56         10.624079       10.624113   0.000000   0.000000
     57         10.870611       10.870659   0.000000   0.000000
     58         13.341175       13.341206   0.000000   0.000000
     59         13.389203       13.389248   0.000000   0.000000
     60         16.238976       16.239008   0.000000   0.000000
 
  0.3333333E+00  0.5551115E-16  0.0000000E+00  0.4444444E+00
      1         -3.940330       -3.940330   1.000000   1.000000
      2         -3.685610       -3.685610   1.000000   1.000000
      3         -3.406657       -3.406657   1.000000   1.000000
      4         -2.996391       -2.996391   1.000000   1.000000
      5         -2.563013       -2.563013   1.000000   1.000000
      6         -2.177470       -2.177470   1.000000   1.000000
      7         -1.848440       -1.848440   1.000000   1.000000
      8         -1.664696       -1.664696   1.000000   1.000000
      9         -1.595312       -1.595312   1.000000   1.000000
     10         -1.494920       -1.494920   1.000000   1.000000
     11         -1.428148       -1.428148   1.000000   1.000000
     12         -1.210080       -1.210080   1.000000   1.000000
     13         -1.019160       -1.019160   1.000000   1.000000
     14         -0.868523       -0.868523   1.000000   1.000000
     15         -0.697355       -0.697355   1.000000   1.000000
     16         -0.680028       -0.680028   1.000000   1.000000
     17         -0.542401       -0.542401   1.000000   1.000000
     18         -0.478552       -0.478552   1.000000   1.000000
     19         -0.424936       -0.424936   1.000000   1.000000
     20         -0.337317       -0.337317   1.000000   1.000000
     21         -0.330063       -0.330063   1.000000   1.000000
     22         -0.237748       -0.237748   1.000000   1.000000
     23         -0.122682       -0.122682   1.000000   1.000000
     24         -0.091792       -0.091792   1.000000   1.000000
     25          0.058921        0.058921   1.000000   1.000000
     26          0.160019        0.160019   1.000000   1.000000
     27          0.287118        0.287118   1.000000   1.000000
     28          0.364093        0.364093   1.000000   1.000000
     29          0.440315        0.440315   1.000000   1.000000
     30          0.518694        0.518694   1.000000   1.000000
     31          0.529917        0.529917   1.000000   1.000000
     32          0.607587        0.607587   1.000000   1.000000
     33          0.625050        0.625050   1.000000   1.000000
     34          0.677124        0.677124   1.000000   1.000000
     35          0.700850        0.700850   1.000000   1.000000
     36          0.754657        0.754657   1.000000   1.000000
     37          0.785273        0.785273   1.000000   1.000000
     38          0.793706        0.793706   1.000000   1.000000
     39          0.888559        0.888559   1.000000   1.000000
     40          0.914910        0.914910   1.000000   1.000000
     41          1.051883        1.051883   1.000000   1.000000
     42          1.159955        1.159955   1.000000   1.000000
     43          1.161243        1.161243   1.000000   1.000000
     44          1.195634        1.195634   1.000000   1.000000
     45          1.334076        1.334076   1.000004   1.000004
     46          1.963807        1.963807   0.796233   0.796233
     47          3.070193        3.070193  -0.000000  -0.000000
     48          4.425694        4.425694  -0.000000  -0.000000
     49          5.925184        5.925184  -0.000000  -0.000000
     50          7.151538        7.151538  -0.000000  -0.000000
     51          8.494427        8.494434   0.000000   0.000000
     52          9.026388        9.026392   0.000000   0.000000
     53          9.381718        9.381721   0.000000   0.000000
     54          9.762181        9.762202   0.000000   0.000000
     55         10.139730       10.139808   0.000000   0.000000
     56         10.497352       10.497388   0.000000   0.000000
     57         11.066333       11.066355   0.000000   0.000000
     58         11.634867       11.634876   0.000000   0.000000
     59         11.709320       11.709353   0.000000   0.000000
     60         12.237211       12.237252   0.000000   0.000000
 
  0.0000000E+00  0.3333333E+00  0.0000000E+00  0.2222222E+00
      1         -3.958192       -3.958192   1.000000   1.000000
      2         -3.681135       -3.681135   1.000000   1.000000
      3         -3.401435       -3.401435   1.000000   1.000000
      4         -2.991790       -2.991790   1.000000   1.000000
      5         -2.559062       -2.559062   1.000000   1.000000
      6         -2.172998       -2.172998   1.000000   1.000000
      7         -1.843219       -1.843219   1.000000   1.000000
      8         -1.663412       -1.663412   1.000000   1.000000
      9         -1.593513       -1.593513   1.000000   1.000000
     10         -1.488505       -1.488505   1.000000   1.000000
     11         -1.428061       -1.428061   1.000000   1.000000
     12         -1.210006       -1.210006   1.000000   1.000000
     13         -1.019247       -1.019247   1.000000   1.000000
     14         -0.869382       -0.869382   1.000000   1.000000
     15         -0.697736       -0.697736   1.000000   1.000000
     16         -0.683848       -0.683848   1.000000   1.000000
     17         -0.540783       -0.540783   1.000000   1.000000
     18         -0.473849       -0.473849   1.000000   1.000000
     19         -0.428617       -0.428617   1.000000   1.000000
     20         -0.340351       -0.340351   1.000000   1.000000
     21         -0.329217       -0.329217   1.000000   1.000000
     22         -0.240665       -0.240665   1.000000   1.000000
     23         -0.123959       -0.123959   1.000000   1.000000
     24         -0.091631       -0.091631   1.000000   1.000000
     25          0.054414        0.054414   1.000000   1.000000
     26          0.158552        0.158552   1.000000   1.000000
     27          0.273964        0.273964   1.000000   1.000000
     28          0.362819        0.362819   1.000000   1.000000
     29          0.423044        0.423044   1.000000   1.000000
     30          0.519021        0.519021   1.000000   1.000000
     31          0.524823        0.524823   1.000000   1.000000
     32          0.606456        0.606456   1.000000   1.000000
     33          0.625846        0.625846   1.000000   1.000000
     34          0.676166        0.676166   1.000000   1.000000
     35          0.702213        0.702213   1.000000   1.000000
     36          0.754275        0.754275   1.000000   1.000000
     37          0.787488        0.787488   1.000000   1.000000
     38          0.794821        0.794821   1.000000   1.000000
     39          0.889109        0.889109   1.000000   1.000000
     40          0.913795        0.913795   1.000000   1.000000
     41          1.050482        1.050482   1.000000   1.000000
     42          1.159974        1.159974   1.000000   1.000000
     43          1.161459        1.161459   1.000000   1.000000
     44          1.195034        1.195034   1.000000   1.000000
     45          1.334075        1.334075   1.000004   1.000004
     46          1.967563        1.967563   0.783622   0.783622
     47          3.077177        3.077177  -0.000000  -0.000000
     48          4.430894        4.430894  -0.000000  -0.000000
     49          5.915354        5.915354  -0.000000  -0.000000
     50          7.121400        7.121400  -0.000000  -0.000000
     51          8.420175        8.420180   0.000000   0.000000
     52          9.060891        9.060894   0.000000   0.000000
     53          9.469118        9.469121   0.000000   0.000000
     54          9.839360        9.839408   0.000000   0.000000
     55         10.155951       10.156004   0.000000   0.000000
     56         10.797054       10.797080   0.000000   0.000000
     57         10.880777       10.880811   0.000000   0.000000
     58         11.537389       11.537396   0.000000   0.000000
     59         11.867301       11.867327   0.000000   0.000000
     60         12.092801       12.092839   0.000000   0.000000
 
 -0.3333333E+00  0.3333333E+00  0.0000000E+00  0.2222222E+00
      1         -2.484306       -2.484306   1.000000   1.000000
      2         -1.583806       -1.583806   1.000000   1.000000
      3         -1.568697       -1.568697   1.000000   1.000000
      4         -1.561736       -1.561736   1.000000   1.000000
      5         -1.503156       -1.503156   1.000000   1.000000
      6         -1.467129       -1.467129   1.000000   1.000000
      7         -1.452692       -1.452692   1.000000   1.000000
      8         -1.416902       -1.416902   1.000000   1.000000
      9         -1.403473       -1.403473   1.000000   1.000000
     10         -1.399269       -1.399269   1.000000   1.000000
     11         -1.391148       -1.391148   1.000000   1.000000
     12         -1.356376       -1.356376   1.000000   1.000000
     13         -1.262491       -1.262491   1.000000   1.000000
     14         -1.167976       -1.167976   1.000000   1.000000
     15         -1.122699       -1.122699   1.000000   1.000000
     16         -1.048910       -1.048910   1.000000   1.000000
     17         -0.745505       -0.745505   1.000000   1.000000
     18         -0.700699       -0.700699   1.000000   1.000000
     19         -0.693602       -0.693602   1.000000   1.000000
     20         -0.630626       -0.630626   1.000000   1.000000
     21         -0.472167       -0.472167   1.000000   1.000000
     22         -0.381088       -0.381088   1.000000   1.000000
     23          0.025639        0.025639   1.000000   1.000000
     24          0.089294        0.089294   1.000000   1.000000
     25          0.196812        0.196812   1.000000   1.000000
     26          0.211881        0.211881   1.000000   1.000000
     27          0.292684        0.292684   1.000000   1.000000
     28          0.295280        0.295280   1.000000   1.000000
     29          0.324594        0.324594   1.000000   1.000000
     30          0.331460        0.331460   1.000000   1.000000
     31          0.340370        0.340370   1.000000   1.000000
     32          0.613659        0.613659   1.000000   1.000000
     33          0.692982        0.692982   1.000000   1.000000
     34          0.814602        0.814602   1.000000   1.000000
     35          0.824645        0.824645   1.000000   1.000000
     36          0.847470        0.847470   1.000000   1.000000
     37          0.917007        0.917007   1.000000   1.000000
     38          0.972664        0.972664   1.000000   1.000000
     39          0.976573        0.976573   1.000000   1.000000
     40          1.033648        1.033648   1.000000   1.000000
     41          1.105086        1.105086   1.000000   1.000000
     42          5.741692        5.741692  -0.000000  -0.000000
     43          5.744946        5.744946  -0.000000  -0.000000
     44          5.773014        5.773014  -0.000000  -0.000000
     45          5.914019        5.914019  -0.000000  -0.000000
     46          5.935525        5.935525  -0.000000  -0.000000
     47          6.184556        6.184556  -0.000000  -0.000000
     48          6.322883        6.322883  -0.000000  -0.000000
     49          6.867785        6.867785  -0.000000  -0.000000
     50          7.066175        7.066175  -0.000000  -0.000000
     51          7.641364        7.641364   0.000000   0.000000
     52          7.657617        7.657617   0.000000   0.000000
     53          7.780401        7.780401   0.000000   0.000000
     54          8.190730        8.190730   0.000000   0.000000
     55          8.214590        8.214590   0.000000   0.000000
     56          8.817023        8.817023   0.000000   0.000000
     57          9.184260        9.184260   0.000000   0.000000
     58          9.334449        9.334449   0.000000   0.000000
     59         10.437751       10.437751   0.000000   0.000000
     60         10.788563       10.788563   0.000000   0.000000
