 vasp.6.3.2 27Jun22 (build Aug 17 2022 15:43:34) complex                        
  
 executed on           tv2STDVTST date 2025.02.04  14:08:01
 running   20 mpi-ranks, with    1 threads/rank
 distrk:  each k-point on   20 cores,    1 groups
 distr:  one band on NCORE=   5 cores,    4 groups


--------------------------------------------------------------------------------------------------------


 -----------------------------------------------------------------------------
|                                                                             |
|           W    W    AA    RRRRR   N    N  II  N    N   GGGG   !!!           |
|           W    W   A  A   R    R  NN   N  II  NN   N  G    G  !!!           |
|           W    W  A    A  R    R  N N  N  II  N N  N  G       !!!           |
|           W WW W  AAAAAA  RRRRR   N  N N  II  N  N N  G  GGG   !            |
|           WW  WW  A    A  R   R   N   NN  II  N   NN  G    G                |
|           W    W  A    A  R    R  N    N  II  N    N   GGGG   !!!           |
|                                                                             |
|     Found issues when parsing the INCAR file                                |
|     In line 61: Tagname --- R W I G S contains invalid characters.          |
|     Please check if the interpretation in the OUTCAR file is correct.       |
|                                                                             |
 -----------------------------------------------------------------------------

 INCAR:
    = \=\=\=\=\=\=\=\=\=\=\=\=\=\=\=\=\=\=\=\=\=\=\=\=\=\=\=\=\=\=\=\=\=\=\=\=\=\=\=\=\=\=\=\=\=\=\=\=\=\=\=\=\=\=\=\=\=\=\=\=\=\=\=\=\=\=\=\=\=\=\=\=
    = \=\=\=\=\=\=\=\=\=\=\=\=\=\=\=\=\=\=\=\=\=\=\=\=\=\=\=\=\=\=\=\=\=\=\=\=\=\=\=\=\=\=\=\=\=\=\=\=\=\=\=\=\=\=\=\=\=\=\=\=\=\=\=\=\=\=\=\=\=\=\=\=
   ISTART = 0
   ICHARG = 2
   IPIPOL = 3
   IVDW = 11
    = \=\=\=\=\=\=\=\=\=\=\=\=\=\=\=\=\=\=\=\=\=\=\=\=\=\=\=\=\=\=\=\=\=\=\=\=\=\=\=\=\=\=\=\=\=\=\=\=\=\=\=\=\=\=\=\=\=\=\=\=\=\=\=\=\=\=\=\=\=\=\=\=
    = \=\=\=\=\=\=\=\=\=\=\=\=\=\=\=\=\=\=\=\=\=\=\=\=\=\=\=\=\=\=\=\=\=\=\=\=\=\=\=\=\=\=\=\=\=\=\=\=\=\=\=\=\=\=\=\=\=\=\=\=\=\=\=\=\=\=\=\=\=\=\=\=
   ISPIN = 2
    = \=\=\=\=\=\=\=\=\=\=\=\=\=\=\=\=\=\=\=\=\=\=\=\=\=\=\=\=\=\=\=\=\=\=\=\=\=\=\=\=\=\=\=\=\=\=\=\=\=\=\=\=\=\=\=\=\=\=\=\=\=\=\=\=\=\=\=\=\=\=\=\=
    = \=\=\=\=\=\=\=\=\=\=\=\=\=\=\=\=\=\=\=\=\=\=\=\=\=\=\=\=\=\=\=\=\=\=\=\=\=\=\=\=\=\=\=\=\=\=\=\=\=\=\=\=\=\=\=\=\=\=\=\=\=\=\=\=\=\=\=\=\=\=\=\=
   ENCUT = 400
   PREC = Normal
   EDIFF = 2E-04
   GGA = PE
   ISMEAR = 1
   SIGMA = 0.2
   LREAL = .FALSE.
    = \=\=\=\=\=\=\=\=\=\=\=\=\=\=\=\=\=\=\=\=\=\=\=\=\=\=\=\=\=\=\=\=\=\=\=\=\=\=\=\=\=\=\=\=\=\=\=\=\=\=\=\=\=\=\=\=\=\=\=\=\=\=\=\=\=\=\=\=\=\=\=\=
    = \=\=\=\=\=\=\=\=\=\=\=\=\=\=\=\=\=\=\=\=\=\=\=\=\=\=\=\=\=\=\=\=\=\=\=\=\=\=\=\=\=\=\=\=\=\=\=\=\=\=\=\=\=\=\=\=\=\=\=\=\=\=\=\=\=\=\=\=\=\=\=\=
   ISYM = 1
   NSW = 800
   IBRION = 2
   POTIM = 0.5
   ISIF = 2
   EDIFFG = -.03
    = \=\=\=\=\=\=\=\=\=\=\=\=\=\=\=\=\=\=\=\=\=\=\=\=\=\=\=\=\=\=\=\=\=\=\=\=\=\=\=\=\=\=\=\=\=\=\=\=\=\=\=\=\=\=\=\=\=\=\=\=\=\=\=\=\=\=\=\=\=\=\=\=
    = \=\=\=\=\=\=\=\=\=\=\=\=\=\=\=\=\=\=\=\=\=\=\=\=\=\=\=\=\=\=\=\=\=\=\=\=\=\=\=\=\=\=\=\=\=\=\=\=\=\=\=\=\=\=\=\=\=\=\=\=\=\=\=\=\=\=\=\=\=\=\=\=
   NPAR = 4
   LWAVE = .FALSE.
   LCHARG = .FALSE.

 POTCAR:    PAW_PBE Cu 22Jun2005                  
 POTCAR:    PAW_PBE H 15Jun2001                   
 -----------------------------------------------------------------------------
|                                                                             |
|           W    W    AA    RRRRR   N    N  II  N    N   GGGG   !!!           |
|           W    W   A  A   R    R  NN   N  II  NN   N  G    G  !!!           |
|           W    W  A    A  R    R  N N  N  II  N N  N  G       !!!           |
|           W WW W  AAAAAA  RRRRR   N  N N  II  N  N N  G  GGG   !            |
|           WW  WW  A    A  R   R   N   NN  II  N   NN  G    G                |
|           W    W  A    A  R    R  N    N  II  N    N   GGGG   !!!           |
|                                                                             |
|     You use a magnetic or noncollinear calculation, but did not specify     |
|     the initial magnetic moment with the MAGMOM tag. Note that a            |
|     default of 1 will be used for all atoms. This ferromagnetic setup       |
|     may break the symmetry of the crystal, in particular it may rule        |
|     out finding an antiferromagnetic solution. Thence, we recommend         |
|     setting the initial magnetic moment manually or verifying carefully     |
|     that this magnetic setup is desired.                                    |
|                                                                             |
 -----------------------------------------------------------------------------

 POTCAR:    PAW_PBE Cu 22Jun2005                  
   SHA256 =  0e71e558f37a4e8407882b4609ceaae59938afaad9ced71dfe8490308a0ab630 Cu/POTCAR             
   COPYR  = (c) Copyright 22Jun2005 Georg Kresse                                                    
   COPYR  = This file is part of the software VASP. Any use, copying, and all other rights are regul
   COPYR  = If you do not have a valid VASP license, you may not use, copy or distribute this file. 
   VRHFIN =Cu: d10 p1                                                                               
   LEXCH  = PE                                                                                      
   EATOM  =  1390.9808 eV,  102.2342 Ry                                                             
                                                                                                    
   TITEL  = PAW_PBE Cu 22Jun2005                                                                    
   LULTRA =        F    use ultrasoft PP ?                                                          
   IUNSCR =        1    unscreen: 0-lin 1-nonlin 2-no                                               
   RPACOR =    2.000    partial core radius                                                         
   POMASS =   63.546; ZVAL   =   11.000    mass and valenz                                          
   RCORE  =    2.300    outmost cutoff radius                                                       
   RWIGS  =    2.200; RWIGS  =    1.164    wigner-seitz radius (au A)                               
   ENMAX  =  295.446; ENMIN  =  221.585 eV                                                          
   ICORE  =        3    local potential                                                             
   LCOR   =        T    correct aug charges                                                         
   LPAW   =        T    paw PP                                                                      
   EAUG   =  586.980                                                                                
   DEXC   =    0.000                                                                                
   RMAX   =    2.344    core radius for proj-oper                                                   
   RAUG   =    1.300    factor for augmentation sphere                                              
   RDEP   =    2.302    radius for radial grids                                                     
   RDEPT  =    1.771    core radius for aug-charge                                                  
                                                                                                    
   Atomic configuration                                                                             
    9 entries                                                                                       
     n  l   j            E        occ.                                                              
     1  0  0.50     -8850.2468   2.0000                                                             
     2  0  0.50     -1062.3498   2.0000                                                             
     2  1  1.50      -916.8226   6.0000                                                             
     3  0  0.50      -114.6929   2.0000                                                             
     3  1  1.50       -72.1325   6.0000                                                             
     3  2  2.50        -5.0394  10.0000                                                             
     4  0  0.50        -4.6097   1.0000                                                             
     4  1  0.50        -4.0817   0.0000                                                             
     4  3  2.50        -1.3606   0.0000                                                             
   Description                                                                                      
     l       E           TYP  RCUT    TYP  RCUT                                                     
     2     -5.0393973     23  2.200                                                                 
     2     10.8846608     23  2.200                                                                 
     0     -4.6097109     23  2.200                                                                 
     0      8.2520465     23  2.200                                                                 
     1     -2.7211652     23  2.200                                                                 
     1     21.7055443     23  2.200                                                                 
     3      2.7211652     23  2.300                                                                 
  local pseudopotential read in
  partial core-charges read in
  partial kinetic energy density read in
  atomic valenz-charges read in
  non local Contribution for L=           2  read in
    real space projection operators read in
  non local Contribution for L=           2  read in
    real space projection operators read in
  non local Contribution for L=           0  read in
    real space projection operators read in
  non local Contribution for L=           0  read in
    real space projection operators read in
  non local Contribution for L=           1  read in
    real space projection operators read in
  non local Contribution for L=           1  read in
    real space projection operators read in
    PAW grid and wavefunctions read in
 
   number of l-projection  operators is LMAX  =           6
   number of lm-projection operators is LMMAX =          18
 
 POTCAR:    PAW_PBE H 15Jun2001                   
   SHA256 =  030f79b5d3ab3cf0e668861823c8fb652ff669f3e15e46930bd03bfd63a607b6 H/POTCAR              
   COPYR  = (c) Copyright 15Jun2001 Georg Kresse                                                    
   COPYR  = This file is part of the software VASP. Any use, copying, and all other rights are regul
   COPYR  = If you do not have a valid VASP license, you may not use, copy or distribute this file. 
   VRHFIN =H: ultrasoft test                                                                        
   LEXCH  = PE                                                                                      
   EATOM  =    12.4884 eV,    0.9179 Ry                                                             
                                                                                                    
   TITEL  = PAW_PBE H 15Jun2001                                                                     
   LULTRA =        F    use ultrasoft PP ?                                                          
   IUNSCR =        0    unscreen: 0-lin 1-nonlin 2-no                                               
   RPACOR =    0.000    partial core radius                                                         
   POMASS =    1.000; ZVAL   =    1.000    mass and valenz                                          
   RCORE  =    1.100    outmost cutoff radius                                                       
   RWIGS  =    0.700; RWIGS  =    0.370    wigner-seitz radius (au A)                               
   ENMAX  =  250.000; ENMIN  =  200.000 eV                                                          
   RCLOC  =    0.701    cutoff for local pot                                                        
   LCOR   =        T    correct aug charges                                                         
   LPAW   =        T    paw PP                                                                      
   EAUG   =  400.000                                                                                
   RMAX   =    1.123    core radius for proj-oper                                                   
   RAUG   =    1.200    factor for augmentation sphere                                              
   RDEP   =    1.112    radius for radial grids                                                     
   RDEPT  =    0.926    core radius for aug-charge                                                  
                                                                                                    
   Atomic configuration                                                                             
    2 entries                                                                                       
     n  l   j            E        occ.                                                              
     1  0  0.50        -6.4927   1.0000                                                             
     2  1  0.50        -3.4015   0.0000                                                             
   Description                                                                                      
     l       E           TYP  RCUT    TYP  RCUT                                                     
     0     -6.4927494     23  1.100                                                                 
     0      6.8029130     23  1.100                                                                 
     1     -4.0817478     23  1.100                                                                 
  local pseudopotential read in
  atomic valenz-charges read in
  non local Contribution for L=           0  read in
    real space projection operators read in
  non local Contribution for L=           0  read in
    real space projection operators read in
  non local Contribution for L=           1  read in
    real space projection operators read in
    PAW grid and wavefunctions read in
 
   number of l-projection  operators is LMAX  =           3
   number of lm-projection operators is LMMAX =           5
 
  PAW_PBE Cu 22Jun2005                  :
 energy of atom  1       EATOM=-1390.9808
 kinetic energy error for atom=    0.0232 (will be added to EATOM!!)
  PAW_PBE H 15Jun2001                   :
 energy of atom  2       EATOM=  -12.4884
 kinetic energy error for atom=    0.0098 (will be added to EATOM!!)
 
 
 POSCAR: FCC Cu
  positions in cartesian coordinates
  No initial velocities read in
 exchange correlation table for  LEXCH =        8
   RHO(1)=    0.500       N(1)  =     2000
   RHO(2)=  100.500       N(2)  =     4000

 VTST: version 4.2, (08/11/21)

 CHAIN: initializing optimizer
 
 OPT: Using VASP Conjugate-Gradient optimizer
 CHAIN: Read ICHAIN            0
 
 POSCAR: FCC Cu
  positions in cartesian coordinates
  No initial velocities read in
 


--------------------------------------------------------------------------------------------------------


 ion  position               nearest neighbor table
   1  0.000  0.000  0.000-   2 2.57   2 2.57   2 2.57
   2  0.333  0.333  0.071-   3 2.51   3 2.51   3 2.51   1 2.57   1 2.57   1 2.57
   3  0.667  0.667  0.139-   2 2.51   2 2.51   2 2.51   4 2.53   4 2.53   4 2.53
   4  0.000  0.000  0.208-   5 2.51   5 2.51   5 2.51   3 2.53   3 2.53   3 2.53
   5  0.333  0.333  0.277-   4 2.51   4 2.51   4 2.51   6 2.53   6 2.53   6 2.53
   6  0.667  0.667  0.346-   7 2.51   7 2.51   7 2.51   5 2.53   5 2.53   5 2.53
   7  0.000  0.000  0.414-   8 2.49   8 2.49   8 2.49   6 2.51   6 2.51   6 2.51
   8  0.333  0.333  0.481-   7 2.49   7 2.49   7 2.49
   9  0.833  0.333  0.534-  10 0.75
  10  0.715  0.571  0.552-   9 0.75
 
  LATTYP: Found a hexagonal cell.
 ALAT       =     2.5667977333
 C/A-ratio  =    11.5593335643
  
  Lattice vectors:
  
 A1 = (  -1.2833988667,  -2.2229120434,   0.0000000000)
 A2 = (   2.5667977333,   0.0000000000,   0.0000000000)
 A3 = (   0.0000000000,   0.0000000000,  29.6704711914)


Analysis of symmetry for initial positions (statically):
=====================================================================
 Subroutine PRICEL returns:
 Original cell was already a primitive cell.
 

 Routine SETGRP: Setting up the symmetry group for a 
 hexagonal supercell.


 Subroutine GETGRP returns: Found  2 space group operations
 (whereof  2 operations were pure point group operations)
 out of a pool of 24 trial point group operations.


The static configuration has the point symmetry C_1h.


Analysis of symmetry for dynamics (positions and initial velocities):
=====================================================================
 Subroutine PRICEL returns:
 Original cell was already a primitive cell.
 

 Routine SETGRP: Setting up the symmetry group for a 
 hexagonal supercell.


 Subroutine GETGRP returns: Found  2 space group operations
 (whereof  2 operations were pure point group operations)
 out of a pool of 24 trial point group operations.


The dynamic configuration has the point symmetry C_1h.


Analysis of structural, dynamic, and magnetic symmetry:
=====================================================================
 Subroutine PRICEL returns:
 Original cell was already a primitive cell.
 

 Routine SETGRP: Setting up the symmetry group for a 
 hexagonal supercell.


 Subroutine GETGRP returns: Found  2 space group operations
 (whereof  2 operations were pure point group operations)
 out of a pool of 24 trial point group operations.


The overall configuration has the point symmetry C_1h.


 Subroutine INISYM returns: Found  2 space group operations
 (whereof  2 operations are pure point group operations),
 and found     1 'primitive' translations


----------------------------------------------------------------------------------------

                                     Primitive cell                                     

  volume of cell :     169.2928

  direct lattice vectors                    reciprocal lattice vectors
     2.566797733  0.000000000  0.000000000     0.389590495 -0.224930177  0.000000000
     1.283398867  2.222912043  0.000000000     0.000000000  0.449860355  0.000000000
     0.000000000  0.000000000 29.670471191     0.000000000  0.000000000  0.033703543

  length of vectors
     2.566797733  2.566797733 29.670471191     0.449860355  0.449860355  0.033703543

  position of ions in fractional coordinates (direct lattice)
     0.000000000  0.000000000  0.000000000
     0.333333333  0.333333333  0.070635264
     0.666666667  0.666666667  0.139085938
     0.000000000  0.000000000  0.208165116
     0.333333333  0.333333333  0.276562395
     0.666666667  0.666666667  0.345560339
     0.000000000  0.000000000  0.414005934
     0.333333333  0.333333333  0.481392695
     0.833333334  0.333333333  0.534259303
     0.714682292  0.570635416  0.552037977

  ion indices of the primitive-cell ions
   primitive index   ion index
                 1           1
                 2           2
                 3           3
                 4           4
                 5           5
                 6           6
                 7           7
                 8           8
                 9           9
                10          10

----------------------------------------------------------------------------------------

 
 
 KPOINTS: Auto-mesh                               

Automatic generation of k-mesh.
 Grid dimensions read from file:
 generate k-points for:    3    3    1

 Generating k-lattice:

  Cartesian coordinates                     Fractional coordinates (reciprocal lattice)
     0.129863498 -0.074976726  0.000000000     0.333333333  0.000000000  0.000000000
     0.000000000  0.149953452  0.000000000     0.000000000  0.333333333  0.000000000
     0.000000000  0.000000000  0.033703543     0.000000000  0.000000000  1.000000000

  Length of vectors
     0.149953452  0.149953452  0.033703543

  Shift w.r.t. Gamma in fractional coordinates (k-lattice)
     0.000000000  0.000000000  0.000000000

 
 Subroutine IBZKPT returns following result:
 ===========================================
 
 Found      4 irreducible k-points:
 
 Following reciprocal coordinates:
            Coordinates               Weight
  0.000000  0.000000  0.000000      1.000000
  0.333333  0.000000  0.000000      4.000000
  0.000000  0.333333  0.000000      2.000000
 -0.333333  0.333333  0.000000      2.000000
 
 Following cartesian coordinates:
            Coordinates               Weight
  0.000000  0.000000  0.000000      1.000000
  0.129863 -0.074977  0.000000      4.000000
  0.000000  0.149953  0.000000      2.000000
 -0.129863  0.224930  0.000000      2.000000
 


--------------------------------------------------------------------------------------------------------




 Dimension of arrays:
   k-points           NKPTS =      4   k-points in BZ     NKDIM =      4   number of bands    NBANDS=     60
   number of dos      NEDOS =    301   number of ions     NIONS =     10
   non local maximal  LDIM  =      6   non local SUM 2l+1 LMDIM =     18
   total plane-waves  NPLWV =  29400
   max r-space proj   IRMAX =      1   max aug-charges    IRDMAX=   5229
   dimension x,y,z NGX =    14 NGY =   14 NGZ =  150
   dimension x,y,z NGXF=    28 NGYF=   28 NGZF=  300
   support grid    NGXF=    28 NGYF=   28 NGZF=  300
   ions per type =               8   2
   NGX,Y,Z   is equivalent  to a cutoff of   9.07,  9.07,  8.40 a.u.
   NGXF,Y,Z  is equivalent  to a cutoff of  18.13, 18.13, 16.81 a.u.

 SYSTEM =  unknown system                          
 POSCAR =  FCC Cu                                  

 Startparameter for this run:
   NWRITE =      2    write-flag & timer
   PREC   = normal    normal or accurate (medium, high low for compatibility)
   ISTART =      0    job   : 0-new  1-cont  2-samecut
   ICHARG =      2    charge: 1-file 2-atom 10-const
   ISPIN  =      2    spin polarized calculation?
   LNONCOLLINEAR =      F non collinear calculations
   LSORBIT =      F    spin-orbit coupling
   INIWAV =      1    electr: 0-lowe 1-rand  2-diag
   LASPH  =      F    aspherical Exc in radial PAW
 Electronic Relaxation 1
   ENCUT  =  400.0 eV  29.40 Ry    5.42 a.u.   4.19  4.19 48.39*2*pi/ulx,y,z
   ENINI  =  400.0     initial cutoff
   ENAUG  =  587.0 eV  augmentation charge cutoff
   NELM   =     60;   NELMIN=  2; NELMDL= -5     # of ELM steps 
   EDIFF  = 0.2E-03   stopping-criterion for ELM
   LREAL  =      F    real-space projection
   NLSPLINE    = F    spline interpolate recip. space projectors
   LCOMPAT=      F    compatible to vasp.4.4
   GGA_COMPAT  = T    GGA compatible to vasp.4.4-vasp.4.6
   LMAXPAW     = -100 max onsite density
   LMAXMIX     =    2 max onsite mixed and CHGCAR
   VOSKOWN=      0    Vosko Wilk Nusair interpolation
   ROPT   =    0.00000   0.00000
 Ionic relaxation
   EDIFFG = -.3E-01   stopping-criterion for IOM
   NSW    =    800    number of steps for IOM
   NBLOCK =      1;   KBLOCK =    800    inner block; outer block 
   IBRION =      2    ionic relax: 0-MD 1-quasi-New 2-CG
   NFREE  =      1    steps in history (QN), initial steepest desc. (CG)
   ISIF   =      2    stress and relaxation
   IWAVPR =     11    prediction:  0-non 1-charg 2-wave 3-comb
   ISYM   =      1    0-nonsym 1-usesym 2-fastsym
   LCORR  =      T    Harris-Foulkes like correction to forces

   POTIM  = 0.5000    time-step for ionic-motion
   TEIN   =    0.0    initial temperature
   TEBEG  =    0.0;   TEEND  =   0.0 temperature during run
   SMASS  =  -3.00    Nose mass-parameter (am)
   estimated Nose-frequenzy (Omega)   =  0.10E-29 period in steps = 0.13E+47 mass=  -0.151E-27a.u.
   SCALEE = 1.0000    scale energy and forces
   NPACO  =    256;   APACO  = 10.0  distance and # of slots for P.C.
   PSTRESS=    0.0 pullay stress

  Mass of Ions in am
   POMASS =  63.55  1.00
  Ionic Valenz
   ZVAL   =  11.00  1.00
  Atomic Wigner-Seitz radii
   RWIGS  =  -1.00 -1.00
  virtual crystal weights 
   VCA    =   1.00  1.00
   NELECT =      90.0000    total number of electrons
   NUPDOWN=      -1.0000    fix difference up-down

 DOS related values:
   EMIN   =  10.00;   EMAX   =-10.00  energy-range for DOS
   EFERMI =   0.00
   ISMEAR =     1;   SIGMA  =   0.20  broadening in eV -4-tet -1-fermi 0-gaus

 Electronic relaxation 2 (details)
   IALGO  =     38    algorithm
   LDIAG  =      T    sub-space diagonalisation (order eigenvalues)
   LSUBROT=      F    optimize rotation matrix (better conditioning)
   TURBO    =      0    0=normal 1=particle mesh
   IRESTART =      0    0=no restart 2=restart with 2 vectors
   NREBOOT  =      0    no. of reboots
   NMIN     =      0    reboot dimension
   EREF     =   0.00    reference energy to select bands
   IMIX   =      4    mixing-type and parameters
     AMIX     =   0.40;   BMIX     =  1.00
     AMIX_MAG =   1.60;   BMIX_MAG =  1.00
     AMIN     =   0.10
     WC   =   100.;   INIMIX=   1;  MIXPRE=   1;  MAXMIX= -45

 Intra band minimization:
   WEIMIN = 0.0010     energy-eigenvalue tresh-hold
   EBREAK =  0.83E-06  absolut break condition
   DEPER  =   0.30     relativ break condition  

   TIME   =   0.40     timestep for ELM

  volume/ion in A,a.u.               =      16.93       114.24
  Fermi-wavevector in a.u.,A,eV,Ry     =   1.326202  2.506158 23.930072  1.758811
  Thomas-Fermi vector in A             =   2.455606
 
 Write flags
   LWAVE        =      F    write WAVECAR
   LDOWNSAMPLE  =      F    k-point downsampling of WAVECAR
   LCHARG       =      F    write CHGCAR
   LVTOT        =      F    write LOCPOT, total local potential
   LVHAR        =      F    write LOCPOT, Hartree potential only
   LELF         =      F    write electronic localiz. function (ELF)
   LORBIT       =      0    0 simple, 1 ext, 2 COOP (PROOUT), +10 PAW based schemes


 Dipole corrections
   LMONO  =      F    monopole corrections only (constant potential shift)
   LDIPOL =      F    correct potential (dipole corrections)
   IDIPOL =      0    1-x, 2-y, 3-z, 4-all directions 
   EPSILON=  1.0000000 bulk dielectric constant

 Exchange correlation treatment:
   GGA     =    PE    GGA type
   LEXCH   =     8    internal setting for exchange type
   LIBXC   =     F    Libxc                    
   VOSKOWN =     0    Vosko Wilk Nusair interpolation
   LHFCALC =     F    Hartree Fock is set to
   LHFONE  =     F    Hartree Fock one center treatment
   AEXX    =    0.0000 exact exchange contribution

 Linear response parameters
   LEPSILON=     F    determine dielectric tensor
   LRPA    =     F    only Hartree local field effects (RPA)
   LNABLA  =     F    use nabla operator in PAW spheres
   LVEL    =     F    velocity operator in full k-point grid
   CSHIFT  =0.1000    complex shift for real part using Kramers Kronig
   OMEGAMAX=  -1.0    maximum frequency
   DEG_THRESHOLD= 0.2000000E-02 threshold for treating states as degnerate
   RTIME   =   -0.100 relaxation time in fs
  (WPLASMAI=    0.000 imaginary part of plasma frequency in eV, 0.658/RTIME)
   DFIELD  = 0.0000000 0.0000000 0.0000000 field for delta impulse in time
 
  Optional k-point grid parameters
   LKPOINTS_OPT  =     F    use optional k-point grid
   KPOINTS_OPT_MODE=     1    mode for optional k-point grid
 
 Orbital magnetization related:
   ORBITALMAG=     F  switch on orbital magnetization
   LCHIMAG   =     F  perturbation theory with respect to B field
   DQ        =  0.001000  dq finite difference perturbation B field
   LLRAUG    =     F  two centre corrections for induced B field



--------------------------------------------------------------------------------------------------------


 conjugate gradient relaxation of ions
 charge density and potential will be updated during run
 spin polarized calculation
 Variant of blocked Davidson
 Davidson routine will perform the subspace rotation
 perform sub-space diagonalisation
    after iterative eigenvector-optimisation
 modified Broyden-mixing scheme, WC =      100.0
 initial mixing is a Kerker type mixing with AMIX =  0.4000 and BMIX =      1.0000
 Hartree-type preconditioning will be used
 using additional bands           15
 reciprocal scheme for non local part
 use partial core corrections
 calculate Harris-corrections to forces 
   (improved forces if not selfconsistent)
 use gradient corrections 
 use of overlap-Matrix (Vanderbilt PP)
 Methfessel and Paxton  Order N= 1 SIGMA  =   0.20


--------------------------------------------------------------------------------------------------------


  energy-cutoff  :      400.00
  volume of cell :      169.29
      direct lattice vectors                 reciprocal lattice vectors
     2.566797733  0.000000000  0.000000000     0.389590495 -0.224930177  0.000000000
     1.283398867  2.222912043  0.000000000     0.000000000  0.449860355  0.000000000
     0.000000000  0.000000000 29.670471191     0.000000000  0.000000000  0.033703543

  length of vectors
     2.566797733  2.566797733 29.670471191     0.449860355  0.449860355  0.033703543


 
 k-points in units of 2pi/SCALE and weight: Auto-mesh                               
   0.00000000  0.00000000  0.00000000       0.111
   0.12986350 -0.07497673  0.00000000       0.444
   0.00000000  0.14995345  0.00000000       0.222
  -0.12986350  0.22493018  0.00000000       0.222
 
 k-points in reciprocal lattice and weights: Auto-mesh                               
   0.00000000  0.00000000  0.00000000       0.111
   0.33333333  0.00000000  0.00000000       0.444
   0.00000000  0.33333333  0.00000000       0.222
  -0.33333333  0.33333333  0.00000000       0.222
 
 position of ions in fractional coordinates (direct lattice) 
   0.00000000  0.00000000  0.00000000
   0.33333333  0.33333333  0.07063526
   0.66666667  0.66666667  0.13908594
   0.00000000  0.00000000  0.20816512
   0.33333333  0.33333333  0.27656240
   0.66666667  0.66666667  0.34556034
   0.00000000  0.00000000  0.41400593
   0.33333333  0.33333333  0.48139269
   0.83333333  0.33333333  0.53425930
   0.71468229  0.57063542  0.55203798
 
 position of ions in cartesian coordinates  (Angst):
   0.00000000  0.00000000  0.00000000
   1.28339887  0.74097068  2.09578157
   2.56679773  1.48194136  4.12674532
   0.00000000  0.00000000  6.17635708
   1.28339887  0.74097068  8.20573658
   2.56679773  1.48194136 10.25293808
   0.00000000  0.00000000 12.28375114
   1.28339887  0.74097068 14.28314809
   2.56679773  0.74097068 15.85172525
   2.56679773  1.26847234 16.37922691
 


--------------------------------------------------------------------------------------------------------


 k-point   1 :   0.0000 0.0000 0.0000  plane waves:    3091
 k-point   2 :   0.3333 0.0000 0.0000  plane waves:    3081
 k-point   3 :   0.0000 0.3333 0.0000  plane waves:    3081
 k-point   4 :  -0.3333 0.3333 0.0000  plane waves:    3096

 maximum and minimum number of plane-waves per node :       634      594

 maximum number of plane-waves:      3096
 maximum index in each direction: 
   IXMAX=    4   IYMAX=    4   IZMAX=   48
   IXMIN=   -4   IYMIN=   -4   IZMIN=  -48


 parallel 3D FFT for wavefunctions:
    minimum data exchange during FFTs selected (reduces bandwidth)
 parallel 3D FFT for charge:
    minimum data exchange during FFTs selected (reduces bandwidth)


 total amount of memory used by VASP MPI-rank0    34706. kBytes
=======================================================================

   base      :      30000. kBytes
   nonl-proj :        813. kBytes
   fftplans  :        716. kBytes
   grid      :       1856. kBytes
   one-center:         62. kBytes
   wavefun   :       1259. kBytes
 
     INWAV:  cpu time      0.0000: real time      0.0004
 Broyden mixing: mesh for mixing (old mesh)
   NGX =  9   NGY =  9   NGZ = 97
  (NGX  = 28   NGY  = 28   NGZ  =300)
  gives a total of   7857 points

 initial charge density was supplied:
 charge density of overlapping atoms calculated
 number of electron      90.0000000 magnetization      10.0000000
 keeping initial charge density in first step


--------------------------------------------------------------------------------------------------------


 Maximum index for augmentation-charges          479 (set IRDMAX)


--------------------------------------------------------------------------------------------------------


 First call to EWALD:  gamma=   0.320
 Maximum number of real-space cells 6x 6x 1
 Maximum number of reciprocal cells 2x 2x13

    FEWALD:  cpu time      0.0019: real time      0.0019


--------------------------------------- Iteration      1(   1)  ---------------------------------------


    POTLOK:  cpu time      0.0223: real time      0.0226
    SETDIJ:  cpu time      0.0068: real time      0.0069
     EDDAV:  cpu time      0.2841: real time      0.2864
       DOS:  cpu time      0.0008: real time      0.0008
    --------------------------------------------
      LOOP:  cpu time      0.3141: real time      0.3167

 eigenvalue-minimisations  :   960
 total energy-change (2. order) : 0.7967366E+03  (-0.3348891E+04)
 number of electron      90.0000000 magnetization      10.0000000
 augmentation part       90.0000000 magnetization      10.0000000

 Free energy of the ion-electron system (eV)
  ---------------------------------------------------
  alpha Z        PSCENC =       285.34744303
  Ewald energy   TEWEN  =     52357.25125972
  -Hartree energ DENC   =    -63409.94293158
  -exchange      EXHF   =         0.00000000
  -V(xc)+E(xc)   XCENC  =       372.60741242
  PAW double counting   =      9828.36862813   -10674.97285505
  entropy T*S    EENTRO =        -0.00996079
  eigenvalues    EBANDS =       885.46916722
  atomic energy  EATOM  =     11152.61838693
  Solvation  Ediel_sol  =         0.00000000
  ---------------------------------------------------
  free energy    TOTEN  =       796.73655003 eV

  energy without entropy =      796.74651082  energy(sigma->0) =      796.73987029


--------------------------------------------------------------------------------------------------------




--------------------------------------- Iteration      1(   2)  ---------------------------------------


     EDDAV:  cpu time      0.2734: real time      0.2765
       DOS:  cpu time      0.0009: real time      0.0009
    --------------------------------------------
      LOOP:  cpu time      0.2743: real time      0.2774

 eigenvalue-minimisations  :   960
 total energy-change (2. order) :-0.7234210E+03  (-0.6923284E+03)
 number of electron      90.0000000 magnetization      10.0000000
 augmentation part       90.0000000 magnetization      10.0000000

 Free energy of the ion-electron system (eV)
  ---------------------------------------------------
  alpha Z        PSCENC =       285.34744303
  Ewald energy   TEWEN  =     52357.25125972
  -Hartree energ DENC   =    -63409.94293158
  -exchange      EXHF   =         0.00000000
  -V(xc)+E(xc)   XCENC  =       372.60741242
  PAW double counting   =      9828.36862813   -10674.97285505
  entropy T*S    EENTRO =        -0.00186311
  eigenvalues    EBANDS =       162.04003246
  atomic energy  EATOM  =     11152.61838693
  Solvation  Ediel_sol  =         0.00000000
  ---------------------------------------------------
  free energy    TOTEN  =        73.31551295 eV

  energy without entropy =       73.31737606  energy(sigma->0) =       73.31613399


--------------------------------------------------------------------------------------------------------




--------------------------------------- Iteration      1(   3)  ---------------------------------------


     EDDAV:  cpu time      0.2805: real time      0.2827
       DOS:  cpu time      0.0008: real time      0.0008
    --------------------------------------------
      LOOP:  cpu time      0.2813: real time      0.2836

 eigenvalue-minimisations  :  1004
 total energy-change (2. order) :-0.1060253E+03  (-0.9936896E+02)
 number of electron      90.0000000 magnetization      10.0000000
 augmentation part       90.0000000 magnetization      10.0000000

 Free energy of the ion-electron system (eV)
  ---------------------------------------------------
  alpha Z        PSCENC =       285.34744303
  Ewald energy   TEWEN  =     52357.25125972
  -Hartree energ DENC   =    -63409.94293158
  -exchange      EXHF   =         0.00000000
  -V(xc)+E(xc)   XCENC  =       372.60741242
  PAW double counting   =      9828.36862813   -10674.97285505
  entropy T*S    EENTRO =         0.01793338
  eigenvalues    EBANDS =        55.99493561
  atomic energy  EATOM  =     11152.61838693
  Solvation  Ediel_sol  =         0.00000000
  ---------------------------------------------------
  free energy    TOTEN  =       -32.70978741 eV

  energy without entropy =      -32.72772078  energy(sigma->0) =      -32.71576520


--------------------------------------------------------------------------------------------------------




--------------------------------------- Iteration      1(   4)  ---------------------------------------


     EDDAV:  cpu time      0.2925: real time      0.2950
       DOS:  cpu time      0.0009: real time      0.0009
    --------------------------------------------
      LOOP:  cpu time      0.2934: real time      0.2958

 eigenvalue-minimisations  :  1068
 total energy-change (2. order) :-0.4591836E+01  (-0.4553697E+01)
 number of electron      90.0000000 magnetization      10.0000000
 augmentation part       90.0000000 magnetization      10.0000000

 Free energy of the ion-electron system (eV)
  ---------------------------------------------------
  alpha Z        PSCENC =       285.34744303
  Ewald energy   TEWEN  =     52357.25125972
  -Hartree energ DENC   =    -63409.94293158
  -exchange      EXHF   =         0.00000000
  -V(xc)+E(xc)   XCENC  =       372.60741242
  PAW double counting   =      9828.36862813   -10674.97285505
  entropy T*S    EENTRO =         0.02986660
  eigenvalues    EBANDS =        51.39116676
  atomic energy  EATOM  =     11152.61838693
  Solvation  Ediel_sol  =         0.00000000
  ---------------------------------------------------
  free energy    TOTEN  =       -37.30162305 eV

  energy without entropy =      -37.33148964  energy(sigma->0) =      -37.31157858


--------------------------------------------------------------------------------------------------------




--------------------------------------- Iteration      1(   5)  ---------------------------------------


     EDDAV:  cpu time      0.3196: real time      0.3224
       DOS:  cpu time      0.0009: real time      0.0009
    CHARGE:  cpu time      0.0583: real time      0.0585
    MIXING:  cpu time      0.0013: real time      0.0013
    --------------------------------------------
      LOOP:  cpu time      0.3800: real time      0.3831

 eigenvalue-minimisations  :  1120
 total energy-change (2. order) :-0.1023320E+00  (-0.1022492E+00)
 number of electron      89.9999967 magnetization       9.3944925
 augmentation part       52.1718843 magnetization       9.0375992

 Broyden mixing:
  rms(total) = 0.27645E+01    rms(broyden)= 0.27644E+01
  rms(prec ) = 0.28314E+01
  weight for this iteration     100.00

 Free energy of the ion-electron system (eV)
  ---------------------------------------------------
  alpha Z        PSCENC =       285.34744303
  Ewald energy   TEWEN  =     52357.25125972
  -Hartree energ DENC   =    -63409.94293158
  -exchange      EXHF   =         0.00000000
  -V(xc)+E(xc)   XCENC  =       372.60741242
  PAW double counting   =      9828.36862813   -10674.97285505
  entropy T*S    EENTRO =         0.03016261
  eigenvalues    EBANDS =        51.28853871
  atomic energy  EATOM  =     11152.61838693
  Solvation  Ediel_sol  =         0.00000000
  ---------------------------------------------------
  free energy    TOTEN  =       -37.40395507 eV

  energy without entropy =      -37.43411769  energy(sigma->0) =      -37.41400928


--------------------------------------------------------------------------------------------------------




--------------------------------------- Iteration      1(   6)  ---------------------------------------


    POTLOK:  cpu time      0.0209: real time      0.0212
    SETDIJ:  cpu time      0.0068: real time      0.0069
     EDDAV:  cpu time      0.3452: real time      0.3490
       DOS:  cpu time      0.0014: real time      0.0014
    CHARGE:  cpu time      0.0561: real time      0.0564
    MIXING:  cpu time      0.0007: real time      0.0007
    --------------------------------------------
      LOOP:  cpu time      0.4311: real time      0.4355

 eigenvalue-minimisations  :  1308
 total energy-change (2. order) : 0.2469302E+01  (-0.1094588E+02)
 number of electron      89.9999985 magnetization       9.1604115
 augmentation part       56.6317827 magnetization       6.8672807

 Broyden mixing:
  rms(total) = 0.20896E+01    rms(broyden)= 0.20893E+01
  rms(prec ) = 0.31114E+01
  weight for this iteration     100.00

 eigenvalues of (default mixing * dielectric matrix)
  average eigenvalue GAMMA=   0.7010
  0.7010

 Free energy of the ion-electron system (eV)
  ---------------------------------------------------
  alpha Z        PSCENC =       285.34744303
  Ewald energy   TEWEN  =     52357.25125972
  -Hartree energ DENC   =    -63221.70963250
  -exchange      EXHF   =         0.00000000
  -V(xc)+E(xc)   XCENC  =       365.20476188
  PAW double counting   =     10013.81229379   -10818.44297852
  entropy T*S    EENTRO =        -0.03914533
  eigenvalues    EBANDS =      -168.97704217
  atomic energy  EATOM  =     11152.61838693
  Solvation  Ediel_sol  =         0.00000000
  ---------------------------------------------------
  free energy    TOTEN  =       -34.93465315 eV

  energy without entropy =      -34.89550783  energy(sigma->0) =      -34.92160471


--------------------------------------------------------------------------------------------------------




--------------------------------------- Iteration      1(   7)  ---------------------------------------


    POTLOK:  cpu time      0.0192: real time      0.0196
    SETDIJ:  cpu time      0.0059: real time      0.0059
     EDDAV:  cpu time      0.3635: real time      0.3666
       DOS:  cpu time      0.0009: real time      0.0009
    CHARGE:  cpu time      0.0538: real time      0.0541
    MIXING:  cpu time      0.0007: real time      0.0007
    --------------------------------------------
      LOOP:  cpu time      0.4440: real time      0.4477

 eigenvalue-minimisations  :  1392
 total energy-change (2. order) :-0.6010004E+02  (-0.3244052E+02)
 number of electron      89.9999963 magnetization       9.0143663
 augmentation part       50.7022465 magnetization       5.6193738

 Broyden mixing:
  rms(total) = 0.62765E+01    rms(broyden)= 0.62763E+01
  rms(prec ) = 0.11480E+02
  weight for this iteration     100.00

 eigenvalues of (default mixing * dielectric matrix)
  average eigenvalue GAMMA=   0.4168
  0.7553  0.0783

 Free energy of the ion-electron system (eV)
  ---------------------------------------------------
  alpha Z        PSCENC =       285.34744303
  Ewald energy   TEWEN  =     52357.25125972
  -Hartree energ DENC   =    -63315.16487564
  -exchange      EXHF   =         0.00000000
  -V(xc)+E(xc)   XCENC  =       365.68450729
  PAW double counting   =     10114.07749880   -10935.25143519
  entropy T*S    EENTRO =         0.01707223
  eigenvalues    EBANDS =      -119.61455332
  atomic energy  EATOM  =     11152.61838693
  Solvation  Ediel_sol  =         0.00000000
  ---------------------------------------------------
  free energy    TOTEN  =       -95.03469614 eV

  energy without entropy =      -95.05176838  energy(sigma->0) =      -95.04038689


--------------------------------------------------------------------------------------------------------




--------------------------------------- Iteration      1(   8)  ---------------------------------------


    POTLOK:  cpu time      0.0191: real time      0.0195
    SETDIJ:  cpu time      0.0059: real time      0.0060
     EDDAV:  cpu time      0.4190: real time      0.4221
       DOS:  cpu time      0.0009: real time      0.0009
    CHARGE:  cpu time      0.0552: real time      0.0558
    MIXING:  cpu time      0.0007: real time      0.0007
    --------------------------------------------
      LOOP:  cpu time      0.5009: real time      0.5049

 eigenvalue-minimisations  :  1656
 total energy-change (2. order) : 0.5428486E+02  (-0.2254756E+02)
 number of electron      89.9999972 magnetization       8.8272983
 augmentation part       56.1338855 magnetization       6.6226884

 Broyden mixing:
  rms(total) = 0.22430E+01    rms(broyden)= 0.22424E+01
  rms(prec ) = 0.28115E+01
  weight for this iteration     100.00

 eigenvalues of (default mixing * dielectric matrix)
  average eigenvalue GAMMA=   0.3962
  0.8154  0.2941  0.0790

 Free energy of the ion-electron system (eV)
  ---------------------------------------------------
  alpha Z        PSCENC =       285.34744303
  Ewald energy   TEWEN  =     52357.25125972
  -Hartree energ DENC   =    -63292.65732664
  -exchange      EXHF   =         0.00000000
  -V(xc)+E(xc)   XCENC  =       365.01704420
  PAW double counting   =     10134.97732181   -10962.09665346
  entropy T*S    EENTRO =        -0.05617304
  eigenvalues    EBANDS =       -81.15113964
  atomic energy  EATOM  =     11152.61838693
  Solvation  Ediel_sol  =         0.00000000
  ---------------------------------------------------
  free energy    TOTEN  =       -40.74983710 eV

  energy without entropy =      -40.69366406  energy(sigma->0) =      -40.73111275


--------------------------------------------------------------------------------------------------------




--------------------------------------- Iteration      1(   9)  ---------------------------------------


    POTLOK:  cpu time      0.0190: real time      0.0195
    SETDIJ:  cpu time      0.0058: real time      0.0058
     EDDAV:  cpu time      0.4053: real time      0.4087
       DOS:  cpu time      0.0009: real time      0.0009
    CHARGE:  cpu time      0.0546: real time      0.0548
    MIXING:  cpu time      0.0009: real time      0.0009
    --------------------------------------------
      LOOP:  cpu time      0.4866: real time      0.4907

 eigenvalue-minimisations  :  1600
 total energy-change (2. order) : 0.6649865E+01  (-0.5794391E+01)
 number of electron      89.9999956 magnetization       8.6943785
 augmentation part       57.2844515 magnetization       7.5055309

 Broyden mixing:
  rms(total) = 0.16739E+01    rms(broyden)= 0.16736E+01
  rms(prec ) = 0.18431E+01
  weight for this iteration     100.00

 eigenvalues of (default mixing * dielectric matrix)
  average eigenvalue GAMMA=   0.3597
  0.8458  0.0817  0.2557  0.2557

 Free energy of the ion-electron system (eV)
  ---------------------------------------------------
  alpha Z        PSCENC =       285.34744303
  Ewald energy   TEWEN  =     52357.25125972
  -Hartree energ DENC   =    -63157.66943774
  -exchange      EXHF   =         0.00000000
  -V(xc)+E(xc)   XCENC  =       364.97190009
  PAW double counting   =     10193.42596646   -11030.39237306
  entropy T*S    EENTRO =        -0.02267642
  eigenvalues    EBANDS =      -199.63044160
  atomic energy  EATOM  =     11152.61838693
  Solvation  Ediel_sol  =         0.00000000
  ---------------------------------------------------
  free energy    TOTEN  =       -34.09997259 eV

  energy without entropy =      -34.07729617  energy(sigma->0) =      -34.09241378


--------------------------------------------------------------------------------------------------------




--------------------------------------- Iteration      1(  10)  ---------------------------------------


    POTLOK:  cpu time      0.0190: real time      0.0193
    SETDIJ:  cpu time      0.0058: real time      0.0058
     EDDAV:  cpu time      0.3779: real time      0.3807
       DOS:  cpu time      0.0009: real time      0.0009
    CHARGE:  cpu time      0.0549: real time      0.0552
    MIXING:  cpu time      0.0010: real time      0.0010
    --------------------------------------------
      LOOP:  cpu time      0.4595: real time      0.4629

 eigenvalue-minimisations  :  1428
 total energy-change (2. order) : 0.2473973E+01  (-0.1512279E+01)
 number of electron      89.9999964 magnetization       8.5999051
 augmentation part       57.3868263 magnetization       7.3483365

 Broyden mixing:
  rms(total) = 0.11997E+01    rms(broyden)= 0.11995E+01
  rms(prec ) = 0.12434E+01
  weight for this iteration     100.00

 eigenvalues of (default mixing * dielectric matrix)
  average eigenvalue GAMMA=   0.3569
  0.8734  0.3005  0.3005  0.0809  0.2291

 Free energy of the ion-electron system (eV)
  ---------------------------------------------------
  alpha Z        PSCENC =       285.34744303
  Ewald energy   TEWEN  =     52357.25125972
  -Hartree energ DENC   =    -63197.94418229
  -exchange      EXHF   =         0.00000000
  -V(xc)+E(xc)   XCENC  =       365.76896235
  PAW double counting   =     10242.14394823   -11085.67493193
  entropy T*S    EENTRO =        -0.01262983
  eigenvalues    EBANDS =      -151.12425624
  atomic energy  EATOM  =     11152.61838693
  Solvation  Ediel_sol  =         0.00000000
  ---------------------------------------------------
  free energy    TOTEN  =       -31.62600002 eV

  energy without entropy =      -31.61337020  energy(sigma->0) =      -31.62179008


--------------------------------------------------------------------------------------------------------




--------------------------------------- Iteration      1(  11)  ---------------------------------------


    POTLOK:  cpu time      0.0200: real time      0.0203
    SETDIJ:  cpu time      0.0060: real time      0.0061
     EDDAV:  cpu time      0.3491: real time      0.3519
       DOS:  cpu time      0.0009: real time      0.0009
    CHARGE:  cpu time      0.0553: real time      0.0558
    MIXING:  cpu time      0.0008: real time      0.0008
    --------------------------------------------
      LOOP:  cpu time      0.4321: real time      0.4359

 eigenvalue-minimisations  :  1344
 total energy-change (2. order) : 0.4024909E+00  (-0.1700491E+00)
 number of electron      89.9999965 magnetization       8.1689365
 augmentation part       57.0545714 magnetization       6.7949265

 Broyden mixing:
  rms(total) = 0.10439E+01    rms(broyden)= 0.10439E+01
  rms(prec ) = 0.10996E+01
  weight for this iteration     100.00

 eigenvalues of (default mixing * dielectric matrix)
  average eigenvalue GAMMA=   0.4689
  0.9481  0.6211  0.6211  0.0812  0.2711  0.2711

 Free energy of the ion-electron system (eV)
  ---------------------------------------------------
  alpha Z        PSCENC =       285.34744303
  Ewald energy   TEWEN  =     52357.25125972
  -Hartree energ DENC   =    -63219.51078644
  -exchange      EXHF   =         0.00000000
  -V(xc)+E(xc)   XCENC  =       366.18493266
  PAW double counting   =     10272.01877863   -11119.17899826
  entropy T*S    EENTRO =        -0.00778011
  eigenvalues    EBANDS =      -125.94674523
  atomic energy  EATOM  =     11152.61838693
  Solvation  Ediel_sol  =         0.00000000
  ---------------------------------------------------
  free energy    TOTEN  =       -31.22350907 eV

  energy without entropy =      -31.21572896  energy(sigma->0) =      -31.22091570


--------------------------------------------------------------------------------------------------------




--------------------------------------- Iteration      1(  12)  ---------------------------------------


    POTLOK:  cpu time      0.0189: real time      0.0192
    SETDIJ:  cpu time      0.0059: real time      0.0059
     EDDAV:  cpu time      0.3135: real time      0.3158
       DOS:  cpu time      0.0009: real time      0.0009
    CHARGE:  cpu time      0.0550: real time      0.0552
    MIXING:  cpu time      0.0009: real time      0.0009
    --------------------------------------------
      LOOP:  cpu time      0.3952: real time      0.3981

 eigenvalue-minimisations  :  1172
 total energy-change (2. order) : 0.7930250E+00  (-0.1407454E+00)
 number of electron      89.9999966 magnetization       7.2298477
 augmentation part       56.5344526 magnetization       5.7539548

 Broyden mixing:
  rms(total) = 0.83337E+00    rms(broyden)= 0.83337E+00
  rms(prec ) = 0.88945E+00
  weight for this iteration     100.00

 eigenvalues of (default mixing * dielectric matrix)
  average eigenvalue GAMMA=   0.5556
  1.2890  0.7109  0.7109  0.0812  0.4279  0.4279  0.2414

 Free energy of the ion-electron system (eV)
  ---------------------------------------------------
  alpha Z        PSCENC =       285.34744303
  Ewald energy   TEWEN  =     52357.25125972
  -Hartree energ DENC   =    -63257.52726200
  -exchange      EXHF   =         0.00000000
  -V(xc)+E(xc)   XCENC  =       367.07045391
  PAW double counting   =     10358.43963780   -11213.34558852
  entropy T*S    EENTRO =        -0.00945681
  eigenvalues    EBANDS =       -80.27535808
  atomic energy  EATOM  =     11152.61838693
  Solvation  Ediel_sol  =         0.00000000
  ---------------------------------------------------
  free energy    TOTEN  =       -30.43048403 eV

  energy without entropy =      -30.42102721  energy(sigma->0) =      -30.42733176


--------------------------------------------------------------------------------------------------------




--------------------------------------- Iteration      1(  13)  ---------------------------------------


    POTLOK:  cpu time      0.0190: real time      0.0193
    SETDIJ:  cpu time      0.0058: real time      0.0058
     EDDAV:  cpu time      0.3649: real time      0.3679
       DOS:  cpu time      0.0009: real time      0.0009
    CHARGE:  cpu time      0.0527: real time      0.0529
    MIXING:  cpu time      0.0010: real time      0.0010
    --------------------------------------------
      LOOP:  cpu time      0.4442: real time      0.4477

 eigenvalue-minimisations  :  1404
 total energy-change (2. order) : 0.2026918E+00  (-0.1531482E+00)
 number of electron      89.9999971 magnetization       5.9578848
 augmentation part       56.1491312 magnetization       4.4525490

 Broyden mixing:
  rms(total) = 0.64927E+00    rms(broyden)= 0.64924E+00
  rms(prec ) = 0.72168E+00
  weight for this iteration     100.00

 eigenvalues of (default mixing * dielectric matrix)
  average eigenvalue GAMMA=   0.6622
  1.4527  1.1783  0.7625  0.7625  0.0812  0.4432  0.3735  0.2437

 Free energy of the ion-electron system (eV)
  ---------------------------------------------------
  alpha Z        PSCENC =       285.34744303
  Ewald energy   TEWEN  =     52357.25125972
  -Hartree energ DENC   =    -63290.94260924
  -exchange      EXHF   =         0.00000000
  -V(xc)+E(xc)   XCENC  =       367.64307675
  PAW double counting   =     10509.34973667   -11372.93174533
  entropy T*S    EENTRO =        -0.01102584
  eigenvalues    EBANDS =       -38.55231494
  atomic energy  EATOM  =     11152.61838693
  Solvation  Ediel_sol  =         0.00000000
  ---------------------------------------------------
  free energy    TOTEN  =       -30.22779225 eV

  energy without entropy =      -30.21676641  energy(sigma->0) =      -30.22411697


--------------------------------------------------------------------------------------------------------




--------------------------------------- Iteration      1(  14)  ---------------------------------------


    POTLOK:  cpu time      0.0189: real time      0.0193
    SETDIJ:  cpu time      0.0060: real time      0.0060
     EDDAV:  cpu time      0.3886: real time      0.3918
       DOS:  cpu time      0.0009: real time      0.0009
    CHARGE:  cpu time      0.0520: real time      0.0522
    MIXING:  cpu time      0.0011: real time      0.0011
    --------------------------------------------
      LOOP:  cpu time      0.4675: real time      0.4713

 eigenvalue-minimisations  :  1528
 total energy-change (2. order) :-0.1641356E+01  (-0.1644801E+00)
 number of electron      89.9999969 magnetization       4.3467301
 augmentation part       56.2186516 magnetization       3.0459915

 Broyden mixing:
  rms(total) = 0.49634E+00    rms(broyden)= 0.49632E+00
  rms(prec ) = 0.54242E+00
  weight for this iteration     100.00

 eigenvalues of (default mixing * dielectric matrix)
  average eigenvalue GAMMA=   0.8445
  3.0746  1.0986  0.7927  0.7927  0.7016  0.0812  0.4330  0.3830  0.2432

 Free energy of the ion-electron system (eV)
  ---------------------------------------------------
  alpha Z        PSCENC =       285.34744303
  Ewald energy   TEWEN  =     52357.25125972
  -Hartree energ DENC   =    -63295.03665983
  -exchange      EXHF   =         0.00000000
  -V(xc)+E(xc)   XCENC  =       366.15507250
  PAW double counting   =     10621.32156863   -11488.23844679
  entropy T*S    EENTRO =        -0.00214227
  eigenvalues    EBANDS =       -31.28563064
  atomic energy  EATOM  =     11152.61838693
  Solvation  Ediel_sol  =         0.00000000
  ---------------------------------------------------
  free energy    TOTEN  =       -31.86914872 eV

  energy without entropy =      -31.86700645  energy(sigma->0) =      -31.86843463


--------------------------------------------------------------------------------------------------------




--------------------------------------- Iteration      1(  15)  ---------------------------------------


    POTLOK:  cpu time      0.0202: real time      0.0205
    SETDIJ:  cpu time      0.0058: real time      0.0058
     EDDAV:  cpu time      0.4020: real time      0.4054
       DOS:  cpu time      0.0008: real time      0.0008
    CHARGE:  cpu time      0.0534: real time      0.0536
    MIXING:  cpu time      0.0012: real time      0.0012
    --------------------------------------------
      LOOP:  cpu time      0.4834: real time      0.4874

 eigenvalue-minimisations  :  1580
 total energy-change (2. order) :-0.1723622E+01  (-0.1908389E+00)
 number of electron      89.9999967 magnetization       3.3129656
 augmentation part       56.5494835 magnetization       2.4519950

 Broyden mixing:
  rms(total) = 0.45263E+00    rms(broyden)= 0.45259E+00
  rms(prec ) = 0.47914E+00
  weight for this iteration     100.00

 eigenvalues of (default mixing * dielectric matrix)
  average eigenvalue GAMMA=   1.0054
  4.3613  1.5344  0.7820  0.7820  0.7338  0.7338  0.0812  0.4010  0.4010  0.2432

 Free energy of the ion-electron system (eV)
  ---------------------------------------------------
  alpha Z        PSCENC =       285.34744303
  Ewald energy   TEWEN  =     52357.25125972
  -Hartree energ DENC   =    -63283.90903459
  -exchange      EXHF   =         0.00000000
  -V(xc)+E(xc)   XCENC  =       364.61102933
  PAW double counting   =     10688.43290819   -11554.81092198
  entropy T*S    EENTRO =        -0.01702293
  eigenvalues    EBANDS =       -43.11681883
  atomic energy  EATOM  =     11152.61838693
  Solvation  Ediel_sol  =         0.00000000
  ---------------------------------------------------
  free energy    TOTEN  =       -33.59277115 eV

  energy without entropy =      -33.57574822  energy(sigma->0) =      -33.58709684


--------------------------------------------------------------------------------------------------------




--------------------------------------- Iteration      1(  16)  ---------------------------------------


    POTLOK:  cpu time      0.0189: real time      0.0192
    SETDIJ:  cpu time      0.0058: real time      0.0058
     EDDAV:  cpu time      0.3678: real time      0.3709
       DOS:  cpu time      0.0009: real time      0.0009
    CHARGE:  cpu time      0.0535: real time      0.0538
    MIXING:  cpu time      0.0013: real time      0.0013
    --------------------------------------------
      LOOP:  cpu time      0.4482: real time      0.4519

 eigenvalue-minimisations  :  1436
 total energy-change (2. order) :-0.1100610E+01  (-0.1159121E+00)
 number of electron      89.9999967 magnetization       2.2335265
 augmentation part       56.5357300 magnetization       1.5201647

 Broyden mixing:
  rms(total) = 0.39400E+00    rms(broyden)= 0.39399E+00
  rms(prec ) = 0.40914E+00
  weight for this iteration     100.00

 eigenvalues of (default mixing * dielectric matrix)
  average eigenvalue GAMMA=   1.2351
  6.7528  1.8475  0.8697  0.8697  0.0812  0.7588  0.7588  0.2432  0.4000  0.4000
  0.6040

 Free energy of the ion-electron system (eV)
  ---------------------------------------------------
  alpha Z        PSCENC =       285.34744303
  Ewald energy   TEWEN  =     52357.25125972
  -Hartree energ DENC   =    -63312.49911404
  -exchange      EXHF   =         0.00000000
  -V(xc)+E(xc)   XCENC  =       363.96718281
  PAW double counting   =     10664.89431740   -11528.51462798
  entropy T*S    EENTRO =        -0.01759459
  eigenvalues    EBANDS =       -17.74063466
  atomic energy  EATOM  =     11152.61838693
  Solvation  Ediel_sol  =         0.00000000
  ---------------------------------------------------
  free energy    TOTEN  =       -34.69338138 eV

  energy without entropy =      -34.67578679  energy(sigma->0) =      -34.68751652


--------------------------------------------------------------------------------------------------------




--------------------------------------- Iteration      1(  17)  ---------------------------------------


    POTLOK:  cpu time      0.0204: real time      0.0207
    SETDIJ:  cpu time      0.0070: real time      0.0070
     EDDAV:  cpu time      0.3304: real time      0.3331
       DOS:  cpu time      0.0009: real time      0.0009
    CHARGE:  cpu time      0.0555: real time      0.0557
    MIXING:  cpu time      0.0015: real time      0.0015
    --------------------------------------------
      LOOP:  cpu time      0.4156: real time      0.4188

 eigenvalue-minimisations  :  1228
 total energy-change (2. order) :-0.5027112E+00  (-0.8109381E-01)
 number of electron      89.9999968 magnetization       1.4464690
 augmentation part       56.3054243 magnetization       0.8531661

 Broyden mixing:
  rms(total) = 0.20795E+00    rms(broyden)= 0.20794E+00
  rms(prec ) = 0.22856E+00
  weight for this iteration     100.00

 eigenvalues of (default mixing * dielectric matrix)
  average eigenvalue GAMMA=   1.4395
  9.3143  1.9449  1.0345  1.0345  0.8014  0.8014  0.0812  0.2432  0.6654  0.3975
  0.3975  0.5585

 Free energy of the ion-electron system (eV)
  ---------------------------------------------------
  alpha Z        PSCENC =       285.34744303
  Ewald energy   TEWEN  =     52357.25125972
  -Hartree energ DENC   =    -63334.54543821
  -exchange      EXHF   =         0.00000000
  -V(xc)+E(xc)   XCENC  =       364.21554773
  PAW double counting   =     10635.80943201   -11498.86802763
  entropy T*S    EENTRO =        -0.01071343
  eigenvalues    EBANDS =         2.98601730
  atomic energy  EATOM  =     11152.61838693
  Solvation  Ediel_sol  =         0.00000000
  ---------------------------------------------------
  free energy    TOTEN  =       -35.19609255 eV

  energy without entropy =      -35.18537912  energy(sigma->0) =      -35.19252141


--------------------------------------------------------------------------------------------------------




--------------------------------------- Iteration      1(  18)  ---------------------------------------


    POTLOK:  cpu time      0.0200: real time      0.0203
    SETDIJ:  cpu time      0.0060: real time      0.0061
     EDDAV:  cpu time      0.3227: real time      0.3254
       DOS:  cpu time      0.0009: real time      0.0009
    CHARGE:  cpu time      0.0533: real time      0.0535
    MIXING:  cpu time      0.0014: real time      0.0014
    --------------------------------------------
      LOOP:  cpu time      0.4044: real time      0.4077

 eigenvalue-minimisations  :  1216
 total energy-change (2. order) :-0.5756184E+00  (-0.6351986E-01)
 number of electron      89.9999969 magnetization       1.1780753
 augmentation part       56.0913586 magnetization       0.6987283

 Broyden mixing:
  rms(total) = 0.13266E+00    rms(broyden)= 0.13265E+00
  rms(prec ) = 0.14491E+00
  weight for this iteration     100.00

 eigenvalues of (default mixing * dielectric matrix)
  average eigenvalue GAMMA=   1.5903
 11.6021  2.2859  1.1398  0.0812  0.8395  0.8395  0.8581  0.8581  0.2432  0.3983
  0.3983  0.5971  0.5333

 Free energy of the ion-electron system (eV)
  ---------------------------------------------------
  alpha Z        PSCENC =       285.34744303
  Ewald energy   TEWEN  =     52357.25125972
  -Hartree energ DENC   =    -63347.10401140
  -exchange      EXHF   =         0.00000000
  -V(xc)+E(xc)   XCENC  =       364.19380994
  PAW double counting   =     10599.62101849   -11462.25215482
  entropy T*S    EENTRO =        -0.00943244
  eigenvalues    EBANDS =        14.56196959
  atomic energy  EATOM  =     11152.61838693
  Solvation  Ediel_sol  =         0.00000000
  ---------------------------------------------------
  free energy    TOTEN  =       -35.77171096 eV

  energy without entropy =      -35.76227853  energy(sigma->0) =      -35.76856682


--------------------------------------------------------------------------------------------------------




--------------------------------------- Iteration      1(  19)  ---------------------------------------


    POTLOK:  cpu time      0.0188: real time      0.0191
    SETDIJ:  cpu time      0.0058: real time      0.0059
     EDDAV:  cpu time      0.3523: real time      0.3549
       DOS:  cpu time      0.0009: real time      0.0009
    CHARGE:  cpu time      0.0544: real time      0.0546
    MIXING:  cpu time      0.0014: real time      0.0014
    --------------------------------------------
      LOOP:  cpu time      0.4337: real time      0.4368

 eigenvalue-minimisations  :  1356
 total energy-change (2. order) :-0.1871856E+00  (-0.1657078E-01)
 number of electron      89.9999969 magnetization       1.0387289
 augmentation part       56.0945273 magnetization       0.6204435

 Broyden mixing:
  rms(total) = 0.10037E+00    rms(broyden)= 0.10036E+00
  rms(prec ) = 0.10963E+00
  weight for this iteration     100.00

 eigenvalues of (default mixing * dielectric matrix)
  average eigenvalue GAMMA=   1.5652
 11.8891  2.4643  1.1582  0.9519  0.9519  0.0812  0.7619  0.7619  0.7580  0.2432
  0.3975  0.3975  0.5478  0.5478

 Free energy of the ion-electron system (eV)
  ---------------------------------------------------
  alpha Z        PSCENC =       285.34744303
  Ewald energy   TEWEN  =     52357.25125972
  -Hartree energ DENC   =    -63344.01767496
  -exchange      EXHF   =         0.00000000
  -V(xc)+E(xc)   XCENC  =       364.01750813
  PAW double counting   =     10581.74504613   -11443.67259198
  entropy T*S    EENTRO =        -0.01244546
  eigenvalues    EBANDS =        10.76417189
  atomic energy  EATOM  =     11152.61838693
  Solvation  Ediel_sol  =         0.00000000
  ---------------------------------------------------
  free energy    TOTEN  =       -35.95889657 eV

  energy without entropy =      -35.94645111  energy(sigma->0) =      -35.95474808


--------------------------------------------------------------------------------------------------------




--------------------------------------- Iteration      1(  20)  ---------------------------------------


    POTLOK:  cpu time      0.0190: real time      0.0193
    SETDIJ:  cpu time      0.0060: real time      0.0060
     EDDAV:  cpu time      0.3404: real time      0.3435
       DOS:  cpu time      0.0010: real time      0.0010
    CHARGE:  cpu time      0.0558: real time      0.0561
    MIXING:  cpu time      0.0017: real time      0.0017
    --------------------------------------------
      LOOP:  cpu time      0.4238: real time      0.4275

 eigenvalue-minimisations  :  1300
 total energy-change (2. order) :-0.1362847E+00  (-0.1102112E-01)
 number of electron      89.9999969 magnetization       0.8168512
 augmentation part       56.1668251 magnetization       0.4578559

 Broyden mixing:
  rms(total) = 0.77894E-01    rms(broyden)= 0.77881E-01
  rms(prec ) = 0.80356E-01
  weight for this iteration     100.00

 eigenvalues of (default mixing * dielectric matrix)
  average eigenvalue GAMMA=   1.6430
 12.5740  2.8631  1.7344  1.0370  1.0370  0.9681  0.7911  0.7911  0.0812  0.2432
  0.6779  0.3979  0.3979  0.5254  0.5254

 Free energy of the ion-electron system (eV)
  ---------------------------------------------------
  alpha Z        PSCENC =       285.34744303
  Ewald energy   TEWEN  =     52357.25125972
  -Hartree energ DENC   =    -63335.88650462
  -exchange      EXHF   =         0.00000000
  -V(xc)+E(xc)   XCENC  =       363.76012140
  PAW double counting   =     10570.60399991   -11431.85681011
  entropy T*S    EENTRO =        -0.01652079
  eigenvalues    EBANDS =         2.08344323
  atomic energy  EATOM  =     11152.61838693
  Solvation  Ediel_sol  =         0.00000000
  ---------------------------------------------------
  free energy    TOTEN  =       -36.09518129 eV

  energy without entropy =      -36.07866050  energy(sigma->0) =      -36.08967436


--------------------------------------------------------------------------------------------------------




--------------------------------------- Iteration      1(  21)  ---------------------------------------


    POTLOK:  cpu time      0.0189: real time      0.0192
    SETDIJ:  cpu time      0.0058: real time      0.0058
     EDDAV:  cpu time      0.3516: real time      0.3545
       DOS:  cpu time      0.0009: real time      0.0009
    CHARGE:  cpu time      0.0535: real time      0.0538
    MIXING:  cpu time      0.0017: real time      0.0017
    --------------------------------------------
      LOOP:  cpu time      0.4323: real time      0.4359

 eigenvalue-minimisations  :  1348
 total energy-change (2. order) :-0.1025816E+00  (-0.9152179E-02)
 number of electron      89.9999969 magnetization       0.6706912
 augmentation part       56.2266097 magnetization       0.3918311

 Broyden mixing:
  rms(total) = 0.68000E-01    rms(broyden)= 0.67984E-01
  rms(prec ) = 0.70254E-01
  weight for this iteration     100.00

 eigenvalues of (default mixing * dielectric matrix)
  average eigenvalue GAMMA=   1.6692
 13.1218  3.3171  2.1793  1.0535  0.9790  0.9790  0.0812  0.7736  0.7736  0.2432
  0.7017  0.6150  0.6150  0.3977  0.3977  0.4788

 Free energy of the ion-electron system (eV)
  ---------------------------------------------------
  alpha Z        PSCENC =       285.34744303
  Ewald energy   TEWEN  =     52357.25125972
  -Hartree energ DENC   =    -63325.53033050
  -exchange      EXHF   =         0.00000000
  -V(xc)+E(xc)   XCENC  =       363.59713510
  PAW double counting   =     10561.77401874   -11422.84780524
  entropy T*S    EENTRO =        -0.02132706
  eigenvalues    EBANDS =        -8.38654359
  atomic energy  EATOM  =     11152.61838693
  Solvation  Ediel_sol  =         0.00000000
  ---------------------------------------------------
  free energy    TOTEN  =       -36.19776288 eV

  energy without entropy =      -36.17643582  energy(sigma->0) =      -36.19065386


--------------------------------------------------------------------------------------------------------




--------------------------------------- Iteration      1(  22)  ---------------------------------------


    POTLOK:  cpu time      0.0188: real time      0.0191
    SETDIJ:  cpu time      0.0060: real time      0.0060
     EDDAV:  cpu time      0.2954: real time      0.2977
       DOS:  cpu time      0.0009: real time      0.0009
    CHARGE:  cpu time      0.0521: real time      0.0524
    MIXING:  cpu time      0.0017: real time      0.0017
    --------------------------------------------
      LOOP:  cpu time      0.3750: real time      0.3777

 eigenvalue-minimisations  :  1092
 total energy-change (2. order) :-0.5191305E-01  (-0.4597608E-02)
 number of electron      89.9999968 magnetization       0.5124012
 augmentation part       56.1965226 magnetization       0.2693086

 Broyden mixing:
  rms(total) = 0.54811E-01    rms(broyden)= 0.54804E-01
  rms(prec ) = 0.55998E-01
  weight for this iteration     100.00

 eigenvalues of (default mixing * dielectric matrix)
  average eigenvalue GAMMA=   1.7106
 13.6887  3.8131  2.2250  1.3176  1.0187  1.0187  1.0719  0.7812  0.7812  0.0812
  0.2432  0.6651  0.5778  0.5408  0.3976  0.3976  0.4612

 Free energy of the ion-electron system (eV)
  ---------------------------------------------------
  alpha Z        PSCENC =       285.34744303
  Ewald energy   TEWEN  =     52357.25125972
  -Hartree energ DENC   =    -63325.23922119
  -exchange      EXHF   =         0.00000000
  -V(xc)+E(xc)   XCENC  =       363.61958778
  PAW double counting   =     10565.49192260   -11427.09571473
  entropy T*S    EENTRO =        -0.02311458
  eigenvalues    EBANDS =        -8.22022548
  atomic energy  EATOM  =     11152.61838693
  Solvation  Ediel_sol  =         0.00000000
  ---------------------------------------------------
  free energy    TOTEN  =       -36.24967592 eV

  energy without entropy =      -36.22656134  energy(sigma->0) =      -36.24197106


--------------------------------------------------------------------------------------------------------




--------------------------------------- Iteration      1(  23)  ---------------------------------------


    POTLOK:  cpu time      0.0188: real time      0.0191
    SETDIJ:  cpu time      0.0058: real time      0.0058
     EDDAV:  cpu time      0.3052: real time      0.3078
       DOS:  cpu time      0.0009: real time      0.0009
    CHARGE:  cpu time      0.0554: real time      0.0556
    MIXING:  cpu time      0.0019: real time      0.0019
    --------------------------------------------
      LOOP:  cpu time      0.3879: real time      0.3911

 eigenvalue-minimisations  :  1140
 total energy-change (2. order) :-0.4626891E-01  (-0.3082151E-02)
 number of electron      89.9999969 magnetization       0.3899857
 augmentation part       56.1492764 magnetization       0.1827111

 Broyden mixing:
  rms(total) = 0.41077E-01    rms(broyden)= 0.41070E-01
  rms(prec ) = 0.41847E-01
  weight for this iteration     100.00

 eigenvalues of (default mixing * dielectric matrix)
  average eigenvalue GAMMA=   1.7356
 14.0891  4.5127  2.2695  1.6326  1.0234  1.0234  1.0219  0.7786  0.7786  0.0812
  0.2432  0.7089  0.6886  0.6003  0.3977  0.3977  0.4966  0.4966

 Free energy of the ion-electron system (eV)
  ---------------------------------------------------
  alpha Z        PSCENC =       285.34744303
  Ewald energy   TEWEN  =     52357.25125972
  -Hartree energ DENC   =    -63325.41084928
  -exchange      EXHF   =         0.00000000
  -V(xc)+E(xc)   XCENC  =       363.66439241
  PAW double counting   =     10571.32593666   -11433.59330453
  entropy T*S    EENTRO =        -0.02441618
  eigenvalues    EBANDS =        -7.47479359
  atomic energy  EATOM  =     11152.61838693
  Solvation  Ediel_sol  =         0.00000000
  ---------------------------------------------------
  free energy    TOTEN  =       -36.29594483 eV

  energy without entropy =      -36.27152865  energy(sigma->0) =      -36.28780611


--------------------------------------------------------------------------------------------------------




--------------------------------------- Iteration      1(  24)  ---------------------------------------


    POTLOK:  cpu time      0.0188: real time      0.0191
    SETDIJ:  cpu time      0.0058: real time      0.0058
     EDDAV:  cpu time      0.3016: real time      0.3037
       DOS:  cpu time      0.0009: real time      0.0009
    CHARGE:  cpu time      0.0541: real time      0.0543
    MIXING:  cpu time      0.0019: real time      0.0019
    --------------------------------------------
      LOOP:  cpu time      0.3831: real time      0.3858

 eigenvalue-minimisations  :  1124
 total energy-change (2. order) :-0.1189506E+00  (-0.1969275E-02)
 number of electron      89.9999969 magnetization       0.3022142
 augmentation part       56.1771894 magnetization       0.1438799

 Broyden mixing:
  rms(total) = 0.35301E-01    rms(broyden)= 0.35292E-01
  rms(prec ) = 0.37872E-01
  weight for this iteration     100.00

 eigenvalues of (default mixing * dielectric matrix)
  average eigenvalue GAMMA=   1.7921
 14.5557  5.3345  2.6327  1.8703  1.0241  1.0241  1.0455  1.0455  0.7819  0.7819
  0.0812  0.2432  0.7085  0.3976  0.3976  0.5965  0.5396  0.4988  0.4913

 Free energy of the ion-electron system (eV)
  ---------------------------------------------------
  alpha Z        PSCENC =       285.34744303
  Ewald energy   TEWEN  =     52357.25125972
  -Hartree energ DENC   =    -63320.67490158
  -exchange      EXHF   =         0.00000000
  -V(xc)+E(xc)   XCENC  =       363.49928299
  PAW double counting   =     10573.20409869   -11435.46048133
  entropy T*S    EENTRO =        -0.02455861
  eigenvalues    EBANDS =       -12.17542531
  atomic energy  EATOM  =     11152.61838693
  Solvation  Ediel_sol  =         0.00000000
  ---------------------------------------------------
  free energy    TOTEN  =       -36.41489548 eV

  energy without entropy =      -36.39033687  energy(sigma->0) =      -36.40670927


--------------------------------------------------------------------------------------------------------




--------------------------------------- Iteration      1(  25)  ---------------------------------------


    POTLOK:  cpu time      0.0188: real time      0.0191
    SETDIJ:  cpu time      0.0059: real time      0.0059
     EDDAV:  cpu time      0.3343: real time      0.3373
       DOS:  cpu time      0.0009: real time      0.0009
    CHARGE:  cpu time      0.0538: real time      0.0541
    MIXING:  cpu time      0.0021: real time      0.0021
    --------------------------------------------
      LOOP:  cpu time      0.4159: real time      0.4194

 eigenvalue-minimisations  :  1276
 total energy-change (2. order) :-0.2210600E+00  (-0.1264563E-02)
 number of electron      89.9999969 magnetization       0.1834986
 augmentation part       56.1899105 magnetization       0.0454373

 Broyden mixing:
  rms(total) = 0.32249E-01    rms(broyden)= 0.32242E-01
  rms(prec ) = 0.34005E-01
  weight for this iteration     100.00

 eigenvalues of (default mixing * dielectric matrix)
  average eigenvalue GAMMA=   1.9242
 15.4291  7.0009  3.1258  2.0524  1.4842  1.0374  1.0374  0.0812  0.7812  0.7812
  0.9303  0.9303  0.2432  0.6470  0.6470  0.3977  0.3977  0.5121  0.5121  0.4554

 Free energy of the ion-electron system (eV)
  ---------------------------------------------------
  alpha Z        PSCENC =       285.34744303
  Ewald energy   TEWEN  =     52357.25125972
  -Hartree energ DENC   =    -63319.62087901
  -exchange      EXHF   =         0.00000000
  -V(xc)+E(xc)   XCENC  =       363.25297151
  PAW double counting   =     10575.97670439   -11438.17724350
  entropy T*S    EENTRO =        -0.02507911
  eigenvalues    EBANDS =       -13.25951942
  atomic energy  EATOM  =     11152.61838693
  Solvation  Ediel_sol  =         0.00000000
  ---------------------------------------------------
  free energy    TOTEN  =       -36.63595546 eV

  energy without entropy =      -36.61087635  energy(sigma->0) =      -36.62759576


--------------------------------------------------------------------------------------------------------




--------------------------------------- Iteration      1(  26)  ---------------------------------------


[...]
     14      -0.8694      1.00000
     15      -0.6977      1.00000
     16      -0.6838      1.00000
     17      -0.5408      1.00000
     18      -0.4738      1.00000
     19      -0.4286      1.00000
     20      -0.3404      1.00000
     21      -0.3292      1.00000
     22      -0.2407      1.00000
     23      -0.1240      1.00000
     24      -0.0916      1.00000
     25       0.0544      1.00000
     26       0.1586      1.00000
     27       0.2740      1.00000
     28       0.3628      1.00000
     29       0.4230      1.00000
     30       0.5190      1.00000
     31       0.5248      1.00000
     32       0.6065      1.00000
     33       0.6258      1.00000
     34       0.6762      1.00000
     35       0.7022      1.00000
     36       0.7543      1.00000
     37       0.7875      1.00000
     38       0.7948      1.00000
     39       0.8891      1.00000
     40       0.9138      1.00000
     41       1.0505      1.00000
     42       1.1600      1.00000
     43       1.1615      1.00000
     44       1.1950      1.00000
     45       1.3341      1.00000
     46       1.9676      0.78362
     47       3.0772     -0.00000
     48       4.4309     -0.00000
     49       5.9154     -0.00000
     50       7.1214     -0.00000
     51       8.4202      0.00000
     52       9.0609      0.00000
     53       9.4691      0.00000
     54       9.8394      0.00000
     55      10.1560      0.00000
     56      10.7971      0.00000
     57      10.8808      0.00000
     58      11.5374      0.00000
     59      11.8673      0.00000
     60      12.0928      0.00000

 k-point     4 :      -0.3333    0.3333    0.0000
  band No.  band energies     occupation 
      1      -2.4843      1.00000
      2      -1.5838      1.00000
      3      -1.5687      1.00000
      4      -1.5617      1.00000
      5      -1.5032      1.00000
      6      -1.4671      1.00000
      7      -1.4527      1.00000
      8      -1.4169      1.00000
      9      -1.4035      1.00000
     10      -1.3993      1.00000
     11      -1.3911      1.00000
     12      -1.3564      1.00000
     13      -1.2625      1.00000
     14      -1.1680      1.00000
     15      -1.1227      1.00000
     16      -1.0489      1.00000
     17      -0.7455      1.00000
     18      -0.7007      1.00000
     19      -0.6936      1.00000
     20      -0.6306      1.00000
     21      -0.4722      1.00000
     22      -0.3811      1.00000
     23       0.0256      1.00000
     24       0.0893      1.00000
     25       0.1968      1.00000
     26       0.2119      1.00000
     27       0.2927      1.00000
     28       0.2953      1.00000
     29       0.3246      1.00000
     30       0.3315      1.00000
     31       0.3404      1.00000
     32       0.6137      1.00000
     33       0.6930      1.00000
     34       0.8146      1.00000
     35       0.8246      1.00000
     36       0.8475      1.00000
     37       0.9170      1.00000
     38       0.9727      1.00000
     39       0.9766      1.00000
     40       1.0336      1.00000
     41       1.1051      1.00000
     42       5.7417     -0.00000
     43       5.7449     -0.00000
     44       5.7730     -0.00000
     45       5.9140     -0.00000
     46       5.9355     -0.00000
     47       6.1846     -0.00000
     48       6.3229     -0.00000
     49       6.8678     -0.00000
     50       7.0662     -0.00000
     51       7.6414      0.00000
     52       7.6576      0.00000
     53       7.7804      0.00000
     54       8.1907      0.00000
     55       8.2146      0.00000
     56       8.8170      0.00000
     57       9.1843      0.00000
     58       9.3344      0.00000
     59      10.4378      0.00000
     60      10.7886      0.00000


--------------------------------------------------------------------------------------------------------


 soft charge-density along one line, spin component           1
         0         1         2         3         4         5         6         7         8         9
 total charge-density along one line
 
 soft charge-density along one line, spin component           2
         0         1         2         3         4         5         6         7         8         9
 total charge-density along one line
 
 pseudopotential strength for first ion, spin component:           1
 -6.040  -0.000   0.000  -0.004   0.000  -2.351   0.000  -0.000
 -0.000  -6.092   0.000   0.000  -0.004   0.000  -2.315  -0.000
  0.000   0.000  -6.117   0.000   0.000  -0.000  -0.000  -2.297
 -0.004   0.000   0.000  -6.092   0.000   0.003  -0.000  -0.000
  0.000  -0.004   0.000   0.000  -6.040  -0.000   0.003  -0.000
 -2.351   0.000  -0.000   0.003  -0.000   8.634  -0.000   0.000
  0.000  -2.315  -0.000  -0.000   0.003  -0.000   8.612   0.000
 -0.000  -0.000  -2.297  -0.000  -0.000   0.000   0.000   8.600
  0.003  -0.000  -0.000  -2.315  -0.000  -0.002  -0.000  -0.000
 -0.000   0.003  -0.000  -0.000  -2.351   0.000  -0.002   0.000
  0.000  -0.000   0.003   0.000   0.000   0.000   0.000   0.001
  0.000  -0.000   0.005   0.000   0.000   0.000   0.000   0.003
  0.000  -0.013   0.000  -0.000   0.000   0.000   0.012  -0.000
 -0.000  -0.000  -0.012   0.000   0.000  -0.000   0.000   0.010
  0.000  -0.000  -0.000  -0.013   0.000   0.000  -0.000   0.000
  0.000  -0.014   0.000   0.000   0.000   0.000   0.014  -0.000
  0.000  -0.000  -0.013   0.000   0.000  -0.000   0.000   0.011
  0.000   0.000  -0.000  -0.014   0.000   0.000  -0.000   0.000
 pseudopotential strength for first ion, spin component:           2
 -6.040  -0.000   0.000  -0.004   0.000  -2.351   0.000  -0.000
 -0.000  -6.092   0.000   0.000  -0.004   0.000  -2.315  -0.000
  0.000   0.000  -6.117   0.000   0.000  -0.000  -0.000  -2.297
 -0.004   0.000   0.000  -6.092   0.000   0.003  -0.000  -0.000
  0.000  -0.004   0.000   0.000  -6.040  -0.000   0.003  -0.000
 -2.351   0.000  -0.000   0.003  -0.000   8.634  -0.000   0.000
  0.000  -2.315  -0.000  -0.000   0.003  -0.000   8.612   0.000
 -0.000  -0.000  -2.297  -0.000  -0.000   0.000   0.000   8.600
  0.003  -0.000  -0.000  -2.315  -0.000  -0.002  -0.000  -0.000
 -0.000   0.003  -0.000  -0.000  -2.351   0.000  -0.002   0.000
  0.000  -0.000   0.003   0.000   0.000   0.000   0.000   0.001
  0.000  -0.000   0.005   0.000   0.000   0.000   0.000   0.003
  0.000  -0.013   0.000  -0.000   0.000   0.000   0.012  -0.000
 -0.000  -0.000  -0.012   0.000   0.000  -0.000   0.000   0.010
  0.000  -0.000  -0.000  -0.013   0.000   0.000  -0.000   0.000
  0.000  -0.014   0.000   0.000   0.000   0.000   0.014  -0.000
  0.000  -0.000  -0.013   0.000   0.000  -0.000   0.000   0.011
  0.000   0.000  -0.000  -0.014   0.000   0.000  -0.000   0.000
 total augmentation occupancy for first ion, spin component:           1
  1.932   0.000  -0.000  -0.004   0.000  -0.016  -0.000   0.000   0.005  -0.000   0.000  -0.000  -0.000  -0.000   0.006   0.000
  0.000   1.928   0.000   0.000  -0.004  -0.000  -0.024  -0.000  -0.000   0.005   0.000  -0.000   0.006  -0.000   0.000  -0.013
 -0.000   0.000   1.915   0.000   0.000   0.000  -0.000  -0.018  -0.000  -0.000  -0.066   0.028   0.000   0.075  -0.000  -0.000
 -0.004   0.000   0.000   1.928  -0.000   0.005  -0.000  -0.000  -0.024   0.000   0.000  -0.000   0.000  -0.000   0.006  -0.000
  0.000  -0.004   0.000  -0.000   1.932  -0.000   0.005  -0.000   0.000  -0.016   0.000  -0.000   0.006   0.000   0.000  -0.001
 -0.016  -0.000   0.000   0.005  -0.000   0.013  -0.000  -0.000   0.000   0.000   0.000  -0.000  -0.000  -0.000   0.004   0.000
 -0.000  -0.024  -0.000  -0.000   0.005  -0.000   0.010   0.000   0.000   0.000  -0.000  -0.000   0.019   0.000   0.000  -0.001
  0.000  -0.000  -0.018  -0.000  -0.000  -0.000   0.000   0.012  -0.000   0.000  -0.022   0.001  -0.000   0.021  -0.000   0.000
  0.005  -0.000  -0.000  -0.024   0.000   0.000   0.000  -0.000   0.010   0.000  -0.000  -0.000   0.000   0.000   0.019  -0.000
 -0.000   0.005  -0.000   0.000  -0.016   0.000   0.000   0.000   0.000   0.013  -0.000  -0.000   0.004   0.000   0.000  -0.000
  0.000   0.000  -0.066   0.000   0.000   0.000  -0.000  -0.022  -0.000  -0.000   1.750  -0.149  -0.000   0.175  -0.000  -0.000
 -0.000  -0.000   0.028  -0.000  -0.000  -0.000  -0.000   0.001  -0.000  -0.000  -0.149   0.018   0.000  -0.025   0.000  -0.000
 -0.000   0.006   0.000   0.000   0.006  -0.000   0.019  -0.000   0.000   0.004  -0.000   0.000   0.234  -0.000   0.000  -0.015
 -0.000  -0.000   0.075  -0.000   0.000  -0.000   0.000   0.021   0.000   0.000   0.175  -0.025  -0.000   0.113  -0.000  -0.000
  0.006   0.000  -0.000   0.006   0.000   0.004   0.000  -0.000   0.019   0.000  -0.000   0.000   0.000  -0.000   0.234  -0.000
  0.000  -0.013  -0.000  -0.000  -0.001   0.000  -0.001   0.000  -0.000  -0.000  -0.000  -0.000  -0.015  -0.000  -0.000   0.001
  0.000   0.000  -0.019   0.000  -0.000   0.000  -0.000  -0.001  -0.000   0.000  -0.023   0.003  -0.000  -0.009  -0.000   0.000
 -0.001  -0.000   0.000  -0.013  -0.000  -0.000  -0.000   0.000  -0.001  -0.000  -0.000  -0.000  -0.000  -0.000  -0.015   0.000
 total augmentation occupancy for first ion, spin component:           2
  0.000  -0.000   0.000  -0.000   0.000   0.000  -0.000  -0.000  -0.000   0.000   0.000  -0.000   0.000  -0.000  -0.000   0.000
 -0.000  -0.000   0.000  -0.000   0.000  -0.000   0.000   0.000   0.000   0.000  -0.000  -0.000  -0.000   0.000  -0.000  -0.000
  0.000   0.000   0.000   0.000  -0.000   0.000   0.000   0.000   0.000  -0.000   0.000   0.000  -0.000  -0.000   0.000   0.000
 -0.000  -0.000   0.000  -0.000   0.000  -0.000   0.000   0.000   0.000   0.000  -0.000  -0.000  -0.000   0.000  -0.000  -0.000
  0.000   0.000  -0.000   0.000  -0.000  -0.000   0.000   0.000   0.000   0.000  -0.000  -0.000  -0.000   0.000  -0.000  -0.000
  0.000  -0.000   0.000  -0.000  -0.000   0.000  -0.000  -0.000   0.000  -0.000   0.000   0.000  -0.000  -0.000   0.000   0.000
 -0.000   0.000   0.000   0.000   0.000  -0.000  -0.000   0.000  -0.000  -0.000  -0.000   0.000  -0.000   0.000  -0.000   0.000
 -0.000   0.000   0.000   0.000   0.000  -0.000   0.000  -0.000   0.000   0.000  -0.000  -0.000   0.000   0.000   0.000  -0.000
 -0.000   0.000   0.000   0.000   0.000   0.000  -0.000   0.000   0.000  -0.000  -0.000   0.000  -0.000   0.000  -0.000   0.000
  0.000   0.000  -0.000   0.000   0.000  -0.000  -0.000   0.000  -0.000   0.000  -0.000  -0.000   0.000   0.000   0.000  -0.000
  0.000  -0.000   0.000  -0.000  -0.000   0.000  -0.000  -0.000  -0.000  -0.000   0.000   0.000   0.000   0.000   0.000   0.000
 -0.000  -0.000   0.000  -0.000  -0.000   0.000   0.000  -0.000   0.000  -0.000   0.000   0.000  -0.000  -0.000  -0.000   0.000
  0.000  -0.000  -0.000  -0.000  -0.000  -0.000  -0.000   0.000  -0.000   0.000   0.000  -0.000   0.000   0.000   0.000  -0.000
 -0.000   0.000  -0.000   0.000   0.000  -0.000   0.000   0.000   0.000   0.000   0.000  -0.000   0.000  -0.000   0.000  -0.000
 -0.000  -0.000   0.000  -0.000  -0.000   0.000  -0.000   0.000  -0.000   0.000   0.000  -0.000   0.000   0.000   0.000  -0.000
  0.000  -0.000   0.000  -0.000  -0.000   0.000   0.000  -0.000   0.000  -0.000   0.000   0.000  -0.000  -0.000  -0.000   0.000
  0.000  -0.000  -0.000  -0.000  -0.000   0.000  -0.000   0.000  -0.000  -0.000  -0.000  -0.000  -0.000   0.000  -0.000   0.000
  0.000  -0.000  -0.000  -0.000  -0.000  -0.000   0.000  -0.000   0.000  -0.000   0.000   0.000  -0.000  -0.000  -0.000   0.000


------------------------ aborting loop because EDIFF is reached ----------------------------------------


    CHARGE:  cpu time      0.0533: real time      0.0536
    FORLOC:  cpu time      0.0011: real time      0.0011
    FORNL :  cpu time      0.1225: real time      0.1230
    STRESS:  cpu time      0.1376: real time      0.1382
    FORCOR:  cpu time      0.0188: real time      0.0192
    FORHAR:  cpu time      0.0029: real time      0.0029
    MIXING:  cpu time      0.0004: real time      0.0005
    OFIELD:  cpu time      0.0000: real time      0.0000

 ---------------------------------------------------------------------------------------------

         DFTD3 V3.0 Rev 1        
 Edisp (eV)   -3.66887

 E6    (eV) :    -1.5317
 E8    (eV) :    -2.1372
 % E8        : 58.25
    FORVDW:  cpu time      0.0724: real time      0.0726

  FORCE on cell =-STRESS in cart. coord.  units (eV):
  Direction    XX          YY          ZZ          XY          YZ          ZX
  --------------------------------------------------------------------------------------
  Alpha Z   285.34744   285.34744   285.34744
  Ewald   58964.56009 58962.72755-64845.63642    -0.00000     1.58144    -0.00000
  Hartree 62200.62153 62199.63476-60380.87952     0.00000    -0.12741    -0.00000
  E(xc)    -520.98799  -520.99687  -521.08115    -0.00013     0.02908     0.00000
  Local  ************************124158.00888     0.00400    -0.47555    -0.00000
  n-local  -174.83803  -174.80895  -180.18906     4.01798    -0.14693     1.32017
  augment   759.79014   759.78489   753.57039    -0.00385     0.00451     0.00001
  Kinetic   742.41649   742.48366   734.09475   -15.22809    -0.93653     2.59482
  Fock        0.00000     0.00000     0.00000     0.00000     0.00000     0.00000
  vdW        -4.32739    -4.38500    -3.76563     0.00000     0.01519     0.00000
  -------------------------------------------------------------------------------------
  Total      -4.52363    -4.52453    -0.53033    -0.00000    -0.05619    -0.00000
  in kB     -42.81138   -42.81995    -5.01904    -0.00000    -0.53174    -0.00000
  external pressure =      -30.22 kB  Pullay stress =        0.00 kB


 VOLUME and BASIS-vectors are now :
 -----------------------------------------------------------------------------
  energy-cutoff  :      400.00
  volume of cell :      169.29
      direct lattice vectors                 reciprocal lattice vectors
     2.566797733  0.000000000  0.000000000     0.389590495 -0.224930177  0.000000000
     1.283398867  2.222912043  0.000000000     0.000000000  0.449860355  0.000000000
     0.000000000  0.000000000 29.670471191     0.000000000  0.000000000  0.033703543

  length of vectors
     2.566797733  2.566797733 29.670471191     0.449860355  0.449860355  0.033703543


 FORCES acting on ions
    electron-ion (+dipol)            ewald-force                    non-local-force                 convergence-correction
 -----------------------------------------------------------------------------------------------
   -.705E-05 0.415E-02 0.607E+04   0.104E-07 -.558E-02 -.606E+04   0.198E-13 0.879E-03 -.363E+01   0.204E-06 0.867E-03 -.402E-01
   0.791E-05 -.572E-01 0.436E+04   -.261E-07 0.608E-01 -.436E+04   -.111E-12 -.494E-02 0.217E+00   0.381E-06 0.178E-02 0.168E+00
   -.451E-05 -.665E-01 0.266E+04   0.249E-07 0.690E-01 -.266E+04   -.844E-13 -.375E-02 0.236E-01   0.452E-06 0.231E-02 0.357E+00
   -.765E-05 -.614E-02 0.981E+03   0.479E-09 0.784E-02 -.981E+03   -.280E-13 -.125E-02 -.761E+00   0.242E-08 0.857E-03 0.429E+00
   0.104E-04 -.169E-01 -.721E+03   -.251E-07 0.132E-01 0.719E+03   0.194E-12 0.861E-02 0.835E+00   -.974E-06 -.497E-02 0.439E+00
   0.447E-05 -.188E-01 -.241E+04   0.252E-07 0.191E-01 0.241E+04   0.672E-14 0.299E-03 -.213E-01   -.340E-06 -.795E-03 0.391E+00
   -.176E-04 0.260E+00 -.412E+04   0.945E-09 -.270E+00 0.412E+04   0.301E-12 0.134E-01 0.444E-01   -.669E-06 -.331E-02 0.214E+00
   0.214E-04 0.786E-01 -.583E+04   -.113E-07 -.733E-01 0.583E+04   -.818E-13 -.363E-02 0.439E+01   0.272E-06 0.460E-03 -.174E-01
   -.317E-06 0.215E+01 -.503E+03   0.747E-09 -.279E+01 0.499E+03   0.146E-10 0.648E+00 0.474E+01   0.272E-07 0.215E-03 -.202E-01
   0.169E-06 -.233E+01 -.485E+03   -.217E-09 0.296E+01 0.490E+03   -.148E-10 -.657E+00 -.481E+01   -.395E-07 -.343E-03 -.270E-01
 -----------------------------------------------------------------------------------------------
   0.715E-05 0.226E-02 -.291E+01   0.219E-12 -.560E-13 0.114E-12   0.184E-13 0.821E-03 0.102E+01   -.684E-06 -.293E-02 0.189E+01
 
 
 POSITION                                       TOTAL-FORCE (eV/Angst)
 -----------------------------------------------------------------------------------
      0.00000      0.00191     -0.01173         0.000000      0.000294     -0.003290
      1.28340      0.74267      1.98466         0.000000      0.000582      0.006858
      2.56680      1.48579      4.01045         0.000000      0.001148     -0.010697
      0.00000      0.00882      6.04788         0.000000      0.001278      0.001504
      1.28340      0.75481      8.06642        -0.000000     -0.000036     -0.024165
      2.56680      1.50147     10.09641        -0.000000     -0.000192     -0.005764
      0.00000      0.02571     12.11039        -0.000000     -0.000438      0.007837
      1.28340      0.76304     14.09927        -0.000000     -0.002132      0.005280
      2.56680      0.90569     16.24966         0.000000      0.006772      0.005206
      2.56680      1.00632     17.00199        -0.000000     -0.007276      0.017231
 -----------------------------------------------------------------------------------
    total drift:                                0.000006      0.000152      0.001897


--------------------------------------------------------------------------------------------------------



  FREE ENERGIE OF THE ION-ELECTRON SYSTEM (eV)
  ---------------------------------------------------
  free  energy   TOTEN  =       -40.87978195 eV

  energy  without entropy=      -40.85283729  energy(sigma->0) =      -40.87080040
 
 d Force = 0.8026887E-04[ 0.283E-04, 0.132E-03]  d Energy = 0.9422629E-04-0.140E-04
 d Force =-0.3521872E+01[-0.352E+01,-0.352E+01]  d Ewald  =-0.3521872E+01 0.302E-07


--------------------------------------------------------------------------------------------------------


    POTLOK:  cpu time      0.0262: real time      0.0264


--------------------------------------------------------------------------------------------------------


 stress matrix after NEB project (eV)
     -4.52363     -0.00000     -0.00000
     -0.00000     -4.52453     -0.05619
     -0.00000     -0.05619     -0.53033
  FORCES: max atom, RMS     0.024165    0.011454
  FORCE total and by dimension    0.036220    0.024165
  Stress total and by dimension    6.420452    4.524535
 Conjugate gradient step on ions:
 trial-energy change:   -0.000094  1 .order   -0.000080   -0.000132   -0.000028
  (g-gl).g = 0.299E-03      g.g   = 0.354E-03  gl.gl    = 0.983E-03
 g(Force)  = 0.354E-03   g(Stress)= 0.000E+00 ortho     =-0.273E-04
 gamma     =   0.30439
 trial     =   0.38208
 opt step  =   0.48617  (harmonic =   0.48617) maximal distance =0.00108972
 next E    =   -40.879772   (d E  =  -0.00008)


--------------------------------------------------------------------------------------------------------


  
 reached required accuracy - stopping structural energy minimisation
     LOOP+:  cpu time      1.0427: real time      1.0591
    4ORBIT:  cpu time      0.0000: real time      0.0000

 total amount of memory used by VASP MPI-rank0    34706. kBytes
=======================================================================

   base      :      30000. kBytes
   nonl-proj :        813. kBytes
   fftplans  :        716. kBytes
   grid      :       1856. kBytes
   one-center:         62. kBytes
   wavefun   :       1259. kBytes
 
  
  
 General timing and accounting informations for this job:
 ========================================================
  
                  Total CPU time used (sec):      134.433
                            User time (sec):      133.632
                          System time (sec):        0.801
                         Elapsed time (sec):      138.480
  
                   Maximum memory used (kb):      233740.
                   Average memory used (kb):          N/A
  
                          Minor page faults:       255864
                          Major page faults:         6532
                 Voluntary context switches:         3993
