<?xml version="1.0" encoding="ISO-8859-1"?>
<modeling>
 <generator>
  <i name="program" type="string">vasp </i>
  <i name="version" type="string">6.3.2  </i>
  <i name="subversion" type="string">27Jun22 (build Aug 17 2022 15:43:34) complex                          parallel </i>
  <i name="platform" type="string">tv2STDVTST </i>
  <i name="date" type="string">2025 02 04 </i>
  <i name="time" type="string">14:08:01 </i>
 </generator>
 <incar>
  <i type="int" name="ISTART">     0</i>
  <i type="string" name="PREC">Normal</i>
  <i type="int" name="ISPIN">     2</i>
  <i type="int" name="ICHARG">     2</i>
  <i type="int" name="IBRION">     2</i>
  <i name="EDIFF">      0.00020000</i>
  <i name="EDIFFG">     -0.03000000</i>
  <i type="int" name="NSW">   800</i>
  <i type="int" name="ISIF">     2</i>
  <i type="int" name="ISYM">     1</i>
  <i name="ENCUT">    400.00000000</i>
  <i name="POTIM">      0.50000000</i>
  <i type="logical" name="LREAL"> F  </i>
  <i type="int" name="ISMEAR">     1</i>
  <i name="SIGMA">      0.20000000</i>
  <i type="logical" name="LWAVE"> F  </i>
  <i type="logical" name="LCHARG"> F  </i>
  <i type="string" name="GGA">PE</i>
  <i type="int" name="IVDW">    11</i>
 </incar>
 <primitive_cell>
  <structure name="primitive_cell" >
   <crystal>
    <varray name="basis" >
     <v>       2.56679773       0.00000000       0.00000000 </v>
     <v>       1.28339887       2.22291204       0.00000000 </v>
     <v>       0.00000000       0.00000000      29.67047119 </v>
    </varray>
    <i name="volume">    169.29275369 </i>
    <varray name="rec_basis" >
     <v>       0.38959050      -0.22493018       0.00000000 </v>
     <v>       0.00000000       0.44986035       0.00000000 </v>
     <v>       0.00000000       0.00000000       0.03370354 </v>
    </varray>
   </crystal>
   <varray name="positions" >
    <v>       0.00000000       0.00000000       0.00000000 </v>
    <v>       0.33333333       0.33333333       0.07063526 </v>
    <v>       0.66666667       0.66666667       0.13908594 </v>
    <v>       0.00000000       0.00000000       0.20816512 </v>
    <v>       0.33333333       0.33333333       0.27656240 </v>
    <v>       0.66666667       0.66666667       0.34556034 </v>
    <v>       0.00000000       0.00000000       0.41400593 </v>
    <v>       0.33333333       0.33333333       0.48139269 </v>
    <v>       0.83333333       0.33333333       0.53425930 </v>
    <v>       0.71468229       0.57063542       0.55203798 </v>
   </varray>
  </structure>
  <varray name="primitive_index" >
   <v type="int" >        1 </v>
   <v type="int" >        2 </v>
   <v type="int" >        3 </v>
   <v type="int" >        4 </v>
   <v type="int" >        5 </v>
   <v type="int" >        6 </v>
   <v type="int" >        7 </v>
   <v type="int" >        8 </v>
   <v type="int" >        9 </v>
   <v type="int" >       10 </v>
  </varray>
 </primitive_cell>
 <kpoints>
  <generation param="Monkhorst-Pack">
   <v type="int" name="divisions">       3        3        1 </v>
   <v name="usershift">      0.00000000       0.00000000       0.00000000 </v>
   <v name="genvec1">      0.33333333       0.00000000       0.00000000 </v>
   <v name="genvec2">      0.00000000       0.33333333       0.00000000 </v>
   <v name="genvec3">      0.00000000       0.00000000       1.00000000 </v>
   <v name="shift">      0.00000000       0.00000000       0.00000000 </v>
  </generation>
  <varray name="kpointlist" >
   <v>       0.00000000       0.00000000       0.00000000 </v>
   <v>       0.33333333       0.00000000       0.00000000 </v>
   <v>       0.00000000       0.33333333       0.00000000 </v>
   <v>      -0.33333333       0.33333333       0.00000000 </v>
  </varray>
  <varray name="weights" >
   <v>       0.11111111 </v>
   <v>       0.44444444 </v>
   <v>       0.22222222 </v>
   <v>       0.22222222 </v>
  </varray>
 </kpoints>
 <parameters>
  <separator name="general" >
   <i type="string" name="SYSTEM">unknown system</i>
   <i type="logical" name="LCOMPAT"> F  </i>
  </separator>
  <separator name="electronic" >
   <i type="string" name="PREC">normal</i>
   <i name="ENMAX">    400.00000000</i>
   <i name="ENAUG">    586.98000000</i>
   <i name="EDIFF">      0.00020000</i>
   <i type="int" name="IALGO">    38</i>
   <i type="int" name="IWAVPR">    11</i>
   <i type="int" name="NBANDS">    60</i>
   <i type="int" name="NBANDSLOW">    -1</i>
   <i type="int" name="NBANDSHIGH">    -1</i>
   <i name="NELECT">     90.00000000</i>
   <i type="int" name="TURBO">     0</i>
   <i type="int" name="IRESTART">     0</i>
   <i type="int" name="NREBOOT">     0</i>
   <i type="int" name="NMIN">     0</i>
   <i name="EREF">      0.00000000</i>
   <separator name="electronic smearing" >
    <i type="int" name="ISMEAR">     1</i>
    <i name="SIGMA">      0.20000000</i>
    <i name="KSPACING">      0.50000000</i>
    <i type="logical" name="KGAMMA"> T  </i>
    <i type="logical" name="KBLOWUP"> T  </i>
   </separator>
   <separator name="electronic projectors" >
    <i type="logical" name="LREAL"> F  </i>
    <v name="ROPT">      0.00000000      0.00000000</v>
    <i type="int" name="LMAXPAW">  -100</i>
    <i type="int" name="LMAXMIX">     2</i>
    <i type="logical" name="NLSPLINE"> F  </i>
   </separator>
   <separator name="electronic startup" >
    <i type="int" name="ISTART">     0</i>
    <i type="int" name="ICHARG">     2</i>
    <i type="int" name="INIWAV">     1</i>
   </separator>
   <separator name="electronic spin" >
    <i type="int" name="ISPIN">     2</i>
    <i type="logical" name="LNONCOLLINEAR"> F  </i>
    <v name="MAGMOM">      1.00000000      1.00000000      1.00000000      1.00000000      1.00000000      1.00000000      1.00000000      1.00000000      1.00000000      1.00000000</v>
    <i name="NUPDOWN">     -1.00000000</i>
    <i type="logical" name="LSORBIT"> F  </i>
    <v name="SAXIS">      0.00000000      0.00000000      1.00000000</v>
    <i type="logical" name="LSPIRAL"> F  </i>
    <v name="QSPIRAL">      0.00000000      0.00000000      0.00000000</v>
    <i type="logical" name="LZEROZ"> F  </i>
   </separator>
   <separator name="electronic exchange-correlation" >
    <i type="logical" name="LASPH"> F  </i>
    <i type="logical" name="LMETAGGA"> F  </i>
   </separator>
   <separator name="electronic convergence" >
    <i type="int" name="NELM">    60</i>
    <i type="int" name="NELMDL">    -5</i>
    <i type="int" name="NELMIN">     2</i>
    <i name="ENINI">    400.00000000</i>
    <separator name="electronic convergence detail" >
     <i type="logical" name="LDIAG"> T  </i>
     <i type="logical" name="LSUBROT"> F  </i>
     <i name="WEIMIN">      0.00100000</i>
     <i name="EBREAK">      0.00000083</i>
     <i name="DEPER">      0.30000000</i>
     <i type="int" name="NRMM">     4</i>
     <i name="TIME">      0.40000000</i>
    </separator>
   </separator>
   <separator name="electronic mixer" >
    <i name="AMIX">      0.40000000</i>
    <i name="BMIX">      1.00000000</i>
    <i name="AMIN">      0.10000000</i>
    <i name="AMIX_MAG">      1.60000000</i>
    <i name="BMIX_MAG">      1.00000000</i>
    <separator name="electronic mixer details" >
     <i type="int" name="IMIX">     4</i>
     <i type="logical" name="MIXFIRST"> F  </i>
     <i type="int" name="MAXMIX">   -45</i>
     <i name="WC">    100.00000000</i>
     <i type="int" name="INIMIX">     1</i>
     <i type="int" name="MIXPRE">     1</i>
     <i type="int" name="MREMOVE">     5</i>
    </separator>
   </separator>
   <separator name="electronic dipolcorrection" >
    <i type="logical" name="LDIPOL"> F  </i>
    <i type="logical" name="LMONO"> F  </i>
    <i type="int" name="IDIPOL">     0</i>
    <i name="EPSILON">      1.00000000</i>
    <v name="DIPOL">   -100.00000000   -100.00000000   -100.00000000</v>
    <i name="EFIELD">      0.00000000</i>
   </separator>
  </separator>
  <separator name="grids" >
   <i type="int" name="NGX">    14</i>
   <i type="int" name="NGY">    14</i>
   <i type="int" name="NGZ">   150</i>
   <i type="int" name="NGXF">    28</i>
   <i type="int" name="NGYF">    28</i>
   <i type="int" name="NGZF">   300</i>
   <i type="logical" name="ADDGRID"> F  </i>
  </separator>
  <separator name="ionic" >
   <i type="int" name="NSW">   800</i>
   <i type="int" name="IBRION">     2</i>
   <i type="int" name="MDALGO">     0</i>
   <i type="int" name="ISIF">     2</i>
   <i name="PSTRESS">      0.00000000</i>
   <i name="EDIFFG">     -0.03000000</i>
   <i type="int" name="NFREE">     1</i>
   <i name="POTIM">      0.50000000</i>
   <i name="SMASS">     -3.00000000</i>
   <i name="SCALEE">      1.00000000</i>
  </separator>
  <separator name="ionic md" >
   <i name="TEBEG">      0.00010000</i>
   <i name="TEEND">      0.00010000</i>
   <i type="int" name="NBLOCK">     1</i>
   <i type="int" name="KBLOCK">   800</i>
   <i type="int" name="NPACO">   256</i>
   <i name="APACO">     10.00000000</i>
  </separator>
  <separator name="symmetry" >
   <i type="int" name="ISYM">     1</i>
   <i name="SYMPREC">      0.00001000</i>
  </separator>
  <separator name="dos" >
   <i type="int" name="LORBIT">     0</i>
   <v name="RWIGS">     -1.00000000     -1.00000000</v>
   <i type="int" name="NEDOS">   301</i>
   <i name="EMIN">     10.00000000</i>
   <i name="EMAX">    -10.00000000</i>
   <i name="EFERMI">      0.00000000</i>
  </separator>
  <separator name="writing" >
   <i type="int" name="NWRITE">     2</i>
   <i type="logical" name="LWAVE"> F  </i>
   <i type="logical" name="LDOWNSAMPLE"> F  </i>
   <i type="logical" name="LCHARG"> F  </i>
   <i type="logical" name="LPARD"> F  </i>
   <i type="logical" name="LVTOT"> F  </i>
   <i type="logical" name="LVHAR"> F  </i>
   <i type="logical" name="LELF"> F  </i>
   <i type="logical" name="LOPTICS"> F  </i>
   <v name="STM">      0.00000000      0.00000000      0.00000000      0.00000000      0.00000000      0.00000000      0.00000000</v>
  </separator>
  <separator name="performance" >
   <i type="int" name="NPAR">     4</i>
   <i type="int" name="NSIM">     4</i>
   <i type="int" name="NBLK">    -1</i>
   <i type="logical" name="LPLANE"> T  </i>
   <i type="logical" name="LSCALAPACK"> T  </i>
   <i type="logical" name="LSCAAWARE"> F  </i>
   <i type="logical" name="LSCALU"> F  </i>
   <i type="logical" name="LASYNC"> F  </i>
   <i type="logical" name="LORBITALREAL"> F  </i>
  </separator>
  <separator name="miscellaneous" >
   <i type="int" name="IDIOT">     3</i>
   <i type="int" name="PHON_NSTRUCT">    -1</i>
   <i type="logical" name="LMUSIC"> F  </i>
   <v name="POMASS">     63.54600000      1.00000000</v>
   <v name="DARWINR">      0.00000000      0.00000000</v>
   <v name="DARWINV">      1.00000000      1.00000000</v>
   <i type="logical" name="LCORR"> T  </i>
  </separator>
  <i type="logical" name="GGA_COMPAT"> T  </i>
  <i type="logical" name="LBERRY"> F  </i>
  <i type="int" name="ICORELEVEL">     0</i>
  <i type="logical" name="LDAU"> F  </i>
  <i type="int" name="I_CONSTRAINED_M">     0</i>
  <separator name="electronic exchange-correlation" >
   <i type="string" name="GGA">PE</i>
   <i type="int" name="VOSKOWN">     0</i>
   <i type="logical" name="LHFCALC"> F  </i>
   <i type="string" name="PRECFOCK"></i>
   <i type="logical" name="LSYMGRAD"> F  </i>
   <i type="logical" name="LHFONE"> F  </i>
   <i type="logical" name="LRHFCALC"> F  </i>
   <i type="logical" name="LTHOMAS"> F  </i>
   <i type="logical" name="LMODELHF"> F  </i>
   <i type="logical" name="LFOCKACE"> F  </i>
   <i name="ENCUT4O">     -1.00000000</i>
   <i type="int" name="EXXOEP">     0</i>
   <i type="int" name="FOURORBIT">     0</i>
   <i name="AEXX">      0.00000000</i>
   <i name="HFALPHA">      0.00000000</i>
   <i name="MCALPHA">      0.00000000</i>
   <i name="ALDAX">      1.00000000</i>
   <i name="AGGAX">      1.00000000</i>
   <i name="ALDAC">      1.00000000</i>
   <i name="AGGAC">      1.00000000</i>
   <i type="int" name="NKREDX">     1</i>
   <i type="int" name="NKREDY">     1</i>
   <i type="int" name="NKREDZ">     1</i>
   <i type="logical" name="SHIFTRED"> F  </i>
   <i type="logical" name="ODDONLY"> F  </i>
   <i type="logical" name="EVENONLY"> F  </i>
   <i type="int" name="LMAXFOCK">     0</i>
   <i type="int" name="NMAXFOCKAE">     0</i>
   <i type="logical" name="LFOCKAEDFT"> F  </i>
   <i name="HFSCREEN">      0.00000000</i>
   <i name="HFSCREENC">      0.00000000</i>
   <i type="int" name="NBANDSGWLOW">     0</i>
  </separator>
  <separator name="vdW DFT" >
   <i type="logical" name="LUSE_VDW"> F  </i>
   <i name="Zab_VDW">     -0.84910000</i>
   <i name="PARAM1">      0.12340000</i>
   <i name="PARAM2">      1.00000000</i>
   <i name="PARAM3">      0.00000000</i>
  </separator>
  <separator name="model GW" >
   <i type="int" name="MODEL_GW">     0</i>
   <i name="MODEL_EPS0">     10.15756522</i>
   <i name="MODEL_ALPHA">      1.00000000</i>
  </separator>
  <separator name="linear response parameters" >
   <i type="logical" name="LEPSILON"> F  </i>
   <i type="logical" name="LRPA"> F  </i>
   <i type="logical" name="LNABLA"> F  </i>
   <i type="logical" name="LVEL"> F  </i>
   <i name="CSHIFT">      0.10000000</i>
   <i name="OMEGAMAX">     -1.00000000</i>
   <i name="DEG_THRESHOLD">      0.00200000</i>
   <i name="RTIME">     -0.10000000</i>
   <i name="WPLASMAI">      0.00000000</i>
   <v name="DFIELD">      0.00000000      0.00000000      0.00000000</v>
   <v name="WPLASMA">      0.00000000      0.00000000      0.00000000      0.00000000      0.00000000      0.00000000      0.00000000      0.00000000      0.00000000</v>
  </separator>
  <separator name="orbital magnetization" >
   <i type="logical" name="NUCIND"> F  </i>
   <v name="MAGPOS">      0.00000000      0.00000000      0.00000000</v>
   <i type="logical" name="LNICSALL"> T  </i>
   <i type="logical" name="ORBITALMAG"> F  </i>
   <i type="logical" name="LMAGBLOCH"> F  </i>
   <i type="logical" name="LCHIMAG"> F  </i>
   <i type="logical" name="LGAUGE"> T  </i>
   <i type="int" name="MAGATOM">     0</i>
   <v name="MAGDIPOL">      0.00000000      0.00000000      0.00000000</v>
   <v name="AVECCONST">      0.00000000      0.00000000      0.00000000</v>
  </separator>
  <separator name="response functions" >
   <i type="logical" name="LFINITE_TEMPERATURE"> F  </i>
   <i type="logical" name="LADDER"> F  </i>
   <i type="logical" name="LRPAFORCE"> F  </i>
   <i type="logical" name="LFXC"> F  </i>
   <i type="logical" name="LHARTREE"> T  </i>
   <i type="int" name="IBSE">     0</i>
   <v type="int" name="KPOINT">    -1     0     0     0</v>
   <i type="logical" name="LTCTC"> F  </i>
   <i type="logical" name="LTCTE"> F  </i>
   <i type="logical" name="LTETE"> F  </i>
   <i type="logical" name="LTRIPLET"> F  </i>
   <i type="logical" name="LFXCEPS"> F  </i>
   <i type="logical" name="LFXHEG"> F  </i>
   <i type="int" name="NATURALO">     2</i>
   <i type="logical" name="LHOLEGF"> F  </i>
   <i type="logical" name="L2ORDER"> F  </i>
   <i type="logical" name="LDMP1"> F  </i>
   <i type="logical" name="LMP2LT"> F  </i>
   <i type="logical" name="LSMP2LT"> F  </i>
   <i type="logical" name="LGWLF"> F  </i>
   <i name="ENCUTGW">     -2.00000000</i>
   <i name="ENCUTGWSOFT">     -2.00000000</i>
   <i name="ENCUTLF">     -1.00000000</i>
   <i type="logical" name="LESF_SPLINES"> F  </i>
   <i type="int" name="LMAXMP2">    -1</i>
   <i name="SCISSOR">      0.00000000</i>
   <i type="int" name="NOMEGA">     0</i>
   <i type="int" name="NOMEGAR">     0</i>
   <i type="int" name="NBANDSGW">    -1</i>
   <i type="int" name="NBANDSO">    -1</i>
   <i type="int" name="NBANDSV">    -1</i>
   <i type="int" name="NELMGW">     1</i>
   <i type="int" name="NELMHF">     1</i>
   <i type="int" name="DIM">     3</i>
   <i type="int" name="IESPILON">     4</i>
   <i type="int" name="ANTIRES">     0</i>
   <i name="OMEGAMAX">    -30.00000000</i>
   <i name="OMEGAMIN">    -30.00000000</i>
   <i name="OMEGATL">   -200.00000000</i>
   <i type="int" name="OMEGAGRID">     0</i>
   <i name="CSHIFT">     -0.10000000</i>
   <i type="logical" name="LSELFENERGY"> F  </i>
   <i type="logical" name="LSPECTRAL"> F  </i>
   <i type="logical" name="LSPECTRALGW"> F  </i>
   <i type="logical" name="LSINGLES"> F  </i>
   <i type="logical" name="LFERMIGW"> F  </i>
   <i type="logical" name="ODDONLYGW"> F  </i>
   <i type="logical" name="EVENONLYGW"> F  </i>
   <i type="int" name="NKREDLFX">     1</i>
   <i type="int" name="NKREDLFY">     1</i>
   <i type="int" name="NKREDLFZ">     1</i>
   <i type="int" name="MAXMEM">  2800</i>
   <i type="int" name="TELESCOPE">     0</i>
   <i type="int" name="NTAUPAR">    -1</i>
   <i type="int" name="NOMEGAPAR">    -1</i>
   <i name="DAMP_NEWTON">      0.80000001</i>
   <i name="LAMBDA">      1.00000000</i>
  </separator>
  <separator name="External order field" >
   <i name="OFIELD_KAPPA">      0.00000000</i>
   <v name="OFIELD_K">      0.00000000      0.00000000      0.00000000</v>
   <i name="OFIELD_Q6_NEAR">      0.00000000</i>
   <i name="OFIELD_Q6_FAR">      0.00000000</i>
   <i name="OFIELD_A">      0.00000000</i>
  </separator>
  <separator name="optional k-points parameters" >
   <i type="int" name="KPOINTS_OPT_MODE">     1</i>
   <i type="logical" name="LKPOINTS_OPT"> F  </i>
  </separator>
 </parameters>
 <atominfo>
  <atoms>      10 </atoms>
  <types>       2 </types>
  <array name="atoms" >
   <dimension dim="1">ion</dimension>
   <field type="string">element</field>
   <field type="int">atomtype</field>
   <set>
    <rc><c>Cu</c><c>   1</c></rc>
    <rc><c>Cu</c><c>   1</c></rc>
    <rc><c>Cu</c><c>   1</c></rc>
    <rc><c>Cu</c><c>   1</c></rc>
    <rc><c>Cu</c><c>   1</c></rc>
    <rc><c>Cu</c><c>   1</c></rc>
    <rc><c>Cu</c><c>   1</c></rc>
    <rc><c>Cu</c><c>   1</c></rc>
    <rc><c>H </c><c>   2</c></rc>
    <rc><c>H </c><c>   2</c></rc>
   </set>
  </array>
  <array name="atomtypes" >
   <dimension dim="1">type</dimension>
   <field type="int">atomspertype</field>
   <field type="string">element</field>
   <field>mass</field>
   <field>valence</field>
   <field type="string">pseudopotential</field>
   <set>
    <rc><c>   8</c><c>Cu</c><c>     63.54600000</c><c>     11.00000000</c><c>  PAW_PBE Cu 22Jun2005                  </c></rc>
    <rc><c>   2</c><c>H </c><c>      1.00000000</c><c>      1.00000000</c><c>  PAW_PBE H 15Jun2001                   </c></rc>
   </set>
  </array>
 </atominfo>
 <structure name="initialpos" >
  <crystal>
   <varray name="basis" >
    <v>       2.56679773       0.00000000       0.00000000 </v>
    <v>       1.28339887       2.22291204       0.00000000 </v>
    <v>       0.00000000       0.00000000      29.67047119 </v>
   </varray>
   <i name="volume">    169.29275369 </i>
   <varray name="rec_basis" >
    <v>       0.38959050      -0.22493018       0.00000000 </v>
    <v>       0.00000000       0.44986035       0.00000000 </v>
    <v>       0.00000000       0.00000000       0.03370354 </v>
   </varray>
  </crystal>
  <varray name="positions" >
   <v>       0.00000000       0.00000000       0.00000000 </v>
   <v>       0.33333333       0.33333333       0.07063526 </v>
   <v>       0.66666667       0.66666667       0.13908594 </v>
   <v>       0.00000000       0.00000000       0.20816512 </v>
   <v>       0.33333333       0.33333333       0.27656240 </v>
   <v>       0.66666667       0.66666667       0.34556034 </v>
   <v>       0.00000000       0.00000000       0.41400593 </v>
   <v>       0.33333333       0.33333333       0.48139269 </v>
   <v>       0.83333333       0.33333333       0.53425930 </v>
   <v>       0.71468229       0.57063542       0.55203798 </v>
  </varray>
 </structure>
 <calculation>
  <scstep>
   <time name="dav">    0.28    0.29</time>
   <time name="total">    0.31    0.32</time>
   <energy>
    <i name="alphaZ">    285.34744303 </i>
    <i name="ewald">  52357.25125972 </i>
    <i name="hartreedc"> -63409.94293158 </i>
    <i name="XCdc">    372.60741242 </i>
    <i name="pawpsdc">   9828.36862813 </i>
    <i name="pawaedc"> -10674.97285505 </i>
    <i name="eentropy">     -0.00996079 </i>
    <i name="bandstr">    885.46916722 </i>
    <i name="atom">  11152.61838693 </i>
    <i name="e_fr_energy">    796.73655003 </i>
    <i name="e_wo_entrp">    796.74651082 </i>
    <i name="e_0_energy">    796.73987029 </i>
   </energy>
  </scstep>
  <scstep>
   <time name="dav">    0.27    0.28</time>
   <time name="total">    0.27    0.28</time>
   <energy>
    <i name="e_fr_energy">     73.31551295 </i>
    <i name="e_wo_entrp">     73.31737606 </i>
    <i name="e_0_energy">     73.31613399 </i>
   </energy>
  </scstep>
  <scstep>
   <time name="dav">    0.28    0.28</time>
   <time name="total">    0.28    0.28</time>
   <energy>
    <i name="e_fr_energy">    -32.70978741 </i>
    <i name="e_wo_entrp">    -32.72772078 </i>
    <i name="e_0_energy">    -32.71576520 </i>
   </energy>
  </scstep>
  <scstep>
   <time name="dav">    0.29    0.29</time>
   <time name="total">    0.29    0.30</time>
   <energy>
    <i name="e_fr_energy">    -37.30162305 </i>
    <i name="e_wo_entrp">    -37.33148964 </i>
    <i name="e_0_energy">    -37.31157858 </i>
   </energy>
  </scstep>
  <scstep>
   <time name="dav">    0.32    0.32</time>
   <time name="total">    0.38    0.38</time>
   <energy>
    <i name="e_fr_energy">    -37.40395507 </i>
    <i name="e_wo_entrp">    -37.43411769 </i>
    <i name="e_0_energy">    -37.41400928 </i>
   </energy>
  </scstep>
  <scstep>
   <time name="dav">    0.35    0.35</time>
   <time name="total">    0.43    0.44</time>
   <energy>
    <i name="e_fr_energy">    -34.93465315 </i>
    <i name="e_wo_entrp">    -34.89550783 </i>
    <i name="e_0_energy">    -34.92160471 </i>
   </energy>
  </scstep>
  <scstep>
   <time name="dav">    0.36    0.37</time>
   <time name="total">    0.44    0.45</time>
   <energy>
    <i name="e_fr_energy">    -95.03469614 </i>
    <i name="e_wo_entrp">    -95.05176838 </i>
    <i name="e_0_energy">    -95.04038689 </i>
   </energy>
  </scstep>
  <scstep>
   <time name="dav">    0.42    0.42</time>
   <time name="total">    0.50    0.50</time>
   <energy>
    <i name="e_fr_energy">    -40.74983710 </i>
    <i name="e_wo_entrp">    -40.69366406 </i>
    <i name="e_0_energy">    -40.73111275 </i>
   </energy>
  </scstep>
  <scstep>
   <time name="dav">    0.41    0.41</time>
   <time name="total">    0.49    0.49</time>
   <energy>
    <i name="e_fr_energy">    -34.09997259 </i>
    <i name="e_wo_entrp">    -34.07729617 </i>
    <i name="e_0_energy">    -34.09241378 </i>
   </energy>
  </scstep>
  <scstep>
   <time name="dav">    0.38    0.38</time>
   <time name="total">    0.46    0.46</time>
   <energy>
    <i name="e_fr_energy">    -31.62600002 </i>
    <i name="e_wo_entrp">    -31.61337020 </i>
    <i name="e_0_energy">    -31.62179008 </i>
   </energy>
  </scstep>
  <scstep>
   <time name="dav">    0.35    0.35</time>
   <time name="total">    0.43    0.44</time>
   <energy>
    <i name="e_fr_energy">    -31.22350907 </i>
    <i name="e_wo_entrp">    -31.21572896 </i>
    <i name="e_0_energy">    -31.22091570 </i>
   </energy>
  </scstep>
  <scstep>
   <time name="dav">    0.31    0.32</time>
   <time name="total">    0.40    0.40</time>
   <energy>
    <i name="e_fr_energy">    -30.43048403 </i>
    <i name="e_wo_entrp">    -30.42102721 </i>
    <i name="e_0_energy">    -30.42733176 </i>
   </energy>
  </scstep>
  <scstep>
   <time name="dav">    0.36    0.37</time>
   <time name="total">    0.44    0.45</time>
   <energy>
    <i name="e_fr_energy">    -30.22779225 </i>
    <i name="e_wo_entrp">    -30.21676641 </i>
    <i name="e_0_energy">    -30.22411697 </i>
   </energy>
  </scstep>
  <scstep>
   <time name="dav">    0.39    0.39</time>
   <time name="total">    0.47    0.47</time>
   <energy>
    <i name="e_fr_energy">    -31.86914872 </i>
    <i name="e_wo_entrp">    -31.86700645 </i>
    <i name="e_0_energy">    -31.86843463 </i>
   </energy>
  </scstep>
  <scstep>
   <time name="dav">    0.40    0.41</time>
   <time name="total">    0.48    0.49</time>
   <energy>
    <i name="e_fr_energy">    -33.59277115 </i>
    <i name="e_wo_entrp">    -33.57574822 </i>
    <i name="e_0_energy">    -33.58709684 </i>
   </energy>
  </scstep>
  <scstep>
   <time name="dav">    0.37    0.37</time>
   <time name="total">    0.45    0.45</time>
   <energy>
    <i name="e_fr_energy">    -34.69338138 </i>
    <i name="e_wo_entrp">    -34.67578679 </i>
    <i name="e_0_energy">    -34.68751652 </i>
   </energy>
  </scstep>
  <scstep>
   <time name="dav">    0.33    0.33</time>
   <time name="total">    0.42    0.42</time>
   <energy>
    <i name="e_fr_energy">    -35.19609255 </i>
    <i name="e_wo_entrp">    -35.18537912 </i>
    <i name="e_0_energy">    -35.19252141 </i>
   </energy>
  </scstep>
  <scstep>
   <time name="dav">    0.32    0.33</time>
   <time name="total">    0.40    0.41</time>
   <energy>
    <i name="e_fr_energy">    -35.77171096 </i>
    <i name="e_wo_entrp">    -35.76227853 </i>
    <i name="e_0_energy">    -35.76856682 </i>
   </energy>
  </scstep>
  <scstep>
   <time name="dav">    0.35    0.35</time>
   <time name="total">    0.43    0.44</time>
   <energy>
    <i name="e_fr_energy">    -35.95889657 </i>
    <i name="e_wo_entrp">    -35.94645111 </i>
    <i name="e_0_energy">    -35.95474808 </i>
   </energy>
  </scstep>
  <scstep>
   <time name="dav">    0.34    0.34</time>
   <time name="total">    0.42    0.43</time>
   <energy>
    <i name="e_fr_energy">    -36.09518129 </i>
    <i name="e_wo_entrp">    -36.07866050 </i>
    <i name="e_0_energy">    -36.08967436 </i>
   </energy>
  </scstep>
  <scstep>
   <time name="dav">    0.35    0.35</time>
   <time name="total">    0.43    0.44</time>
   <energy>
    <i name="e_fr_energy">    -36.19776288 </i>
    <i name="e_wo_entrp">    -36.17643582 </i>
    <i name="e_0_energy">    -36.19065386 </i>
   </energy>
  </scstep>
  <scstep>
   <time name="dav">    0.30    0.30</time>
   <time name="total">    0.37    0.38</time>
   <energy>
    <i name="e_fr_energy">    -36.24967592 </i>
    <i name="e_wo_entrp">    -36.22656134 </i>
    <i name="e_0_energy">    -36.24197106 </i>
   </energy>
  </scstep>
  <scstep>
   <time name="dav">    0.31    0.31</time>
   <time name="total">    0.39    0.39</time>
   <energy>
    <i name="e_fr_energy">    -36.29594483 </i>
    <i name="e_wo_entrp">    -36.27152865 </i>
    <i name="e_0_energy">    -36.28780611 </i>
   </energy>
  </scstep>
  <scstep>
   <time name="dav">    0.30    0.30</time>
   <time name="total">    0.38    0.39</time>
   <energy>
    <i name="e_fr_energy">    -36.41489548 </i>
    <i name="e_wo_entrp">    -36.39033687 </i>
    <i name="e_0_energy">    -36.40670927 </i>
   </energy>
  </scstep>
  <scstep>
   <time name="dav">    0.33    0.34</time>
   <time name="total">    0.42    0.42</time>
   <energy>
    <i name="e_fr_energy">    -36.63595546 </i>
    <i name="e_wo_entrp">    -36.61087635 </i>
    <i name="e_0_energy">    -36.62759576 </i>
   </energy>
  </scstep>
  <scstep>
   <time name="dav">    0.35    0.36</time>
   <time name="total">    0.44    0.44</time>
   <energy>
    <i name="e_fr_energy">    -36.83274954 </i>
    <i name="e_wo_entrp">    -36.80935891 </i>
    <i name="e_0_energy">    -36.82495266 </i>
   </energy>
  </scstep>
  <scstep>
   <time name="dav">    0.32    0.32</time>
   <time name="total">    0.41    0.41</time>
   <energy>
    <i name="e_fr_energy">    -36.86557137 </i>
    <i name="e_wo_entrp">    -36.84303604 </i>
    <i name="e_0_energy">    -36.85805959 </i>
   </energy>
  </scstep>
  <scstep>
   <time name="dav">    0.31    0.32</time>
   <time name="total">    0.40    0.40</time>
   <energy>
    <i name="e_fr_energy">    -36.87157629 </i>
    <i name="e_wo_entrp">    -36.84858860 </i>
    <i name="e_0_energy">    -36.86391373 </i>
   </energy>
  </scstep>
  <scstep>
   <time name="dav">    0.29    0.30</time>
   <time name="total">    0.38    0.38</time>
   <energy>
    <i name="e_fr_energy">    -36.87597298 </i>
    <i name="e_wo_entrp">    -36.85230985 </i>
    <i name="e_0_energy">    -36.86808527 </i>
   </energy>
  </scstep>
  <scstep>
   <time name="dav">    0.25    0.25</time>
   <time name="total">    0.33    0.34</time>
   <energy>
    <i name="e_fr_energy">    -36.87717951 </i>
    <i name="e_wo_entrp">    -36.85329820 </i>
    <i name="e_0_energy">    -36.86921907 </i>
   </energy>
  </scstep>
  <scstep>
   <time name="dav">    0.24    0.24</time>
   <time name="total">    0.32    0.32</time>
   <energy>
    <i name="e_fr_energy">    -36.87843983 </i>
    <i name="e_wo_entrp">    -36.85394092 </i>
    <i name="e_0_energy">    -36.87027353 </i>
   </energy>
  </scstep>
  <scstep>
   <time name="dav">    0.23    0.23</time>
   <time name="total">    0.31    0.31</time>
   <energy>
    <i name="e_fr_energy">    -36.87995180 </i>
    <i name="e_wo_entrp">    -36.85606609 </i>
    <i name="e_0_energy">    -36.87198990 </i>
   </energy>
  </scstep>
  <scstep>
   <time name="dav">    0.22    0.22</time>
   <time name="total">    0.30    0.31</time>
   <energy>
    <i name="e_fr_energy">    -36.88113357 </i>
    <i name="e_wo_entrp">    -36.85684043 </i>
    <i name="e_0_energy">    -36.87303586 </i>
   </energy>
  </scstep>
  <scstep>
   <time name="dav">    0.22    0.22</time>
   <time name="total">    0.31    0.31</time>
   <energy>
    <i name="e_fr_energy">    -36.88218274 </i>
    <i name="e_wo_entrp">    -36.85790571 </i>
    <i name="e_0_energy">    -36.87409040 </i>
   </energy>
  </scstep>
  <scstep>
   <time name="dav">    0.21    0.22</time>
   <time name="total">    0.30    0.30</time>
   <energy>
    <i name="e_fr_energy">    -36.88273121 </i>
    <i name="e_wo_entrp">    -36.85843286 </i>
    <i name="e_0_energy">    -36.87463176 </i>
   </energy>
  </scstep>
  <scstep>
   <time name="dav">    0.21    0.21</time>
   <time name="total">    0.29    0.29</time>
   <energy>
    <i name="e_fr_energy">    -36.88303983 </i>
    <i name="e_wo_entrp">    -36.85865866 </i>
    <i name="e_0_energy">    -36.87491277 </i>
   </energy>
  </scstep>
  <scstep>
   <time name="dav">    0.21    0.21</time>
   <time name="total">    0.23    0.23</time>
   <energy>
    <i name="alphaZ">    285.34744303 </i>
    <i name="ewald">  52357.25125972 </i>
    <i name="hartreedc"> -63317.45019677 </i>
    <i name="XCdc">    363.09141646 </i>
    <i name="pawpsdc">  10576.68022687 </i>
    <i name="pawaedc"> -11438.83776990 </i>
    <i name="eentropy">     -0.02432135 </i>
    <i name="bandstr">    -15.55955197 </i>
    <i name="atom">  11152.61838693 </i>
    <i name="e_fr_energy">    -36.88310700 </i>
    <i name="e_wo_entrp">    -36.85878564 </i>
    <i name="e_0_energy">    -36.87499988 </i>
   </energy>
  </scstep>
  <structure>
   <crystal>
    <varray name="basis" >
     <v>       2.56679773       0.00000000       0.00000000 </v>
     <v>       1.28339887       2.22291204       0.00000000 </v>
     <v>       0.00000000       0.00000000      29.67047119 </v>
    </varray>
    <i name="volume">    169.29275369 </i>
    <varray name="rec_basis" >
     <v>       0.38959050      -0.22493018       0.00000000 </v>
     <v>       0.00000000       0.44986035       0.00000000 </v>
     <v>       0.00000000       0.00000000       0.03370354 </v>
    </varray>
   </crystal>
   <varray name="positions" >
    <v>       0.00000000       0.00000000       0.00000000 </v>
    <v>       0.33333333       0.33333333       0.07063526 </v>
    <v>       0.66666667       0.66666667       0.13908594 </v>
    <v>       0.00000000       0.00000000       0.20816512 </v>
    <v>       0.33333333       0.33333333       0.27656240 </v>
    <v>       0.66666667       0.66666667       0.34556034 </v>
    <v>       0.00000000       0.00000000       0.41400593 </v>
    <v>       0.33333333       0.33333333       0.48139269 </v>
    <v>       0.83333333       0.33333333       0.53425930 </v>
    <v>       0.71468229       0.57063542       0.55203798 </v>
   </varray>
  </structure>
  <varray name="forces" >
   <v>      -0.00000000      -0.00025748       0.47166110 </v>
   <v>       0.00000000       0.00061639      -0.39523877 </v>
   <v>      -0.00000000      -0.00059325       0.00370132 </v>
   <v>       0.00000000       0.00074347      -0.00311727 </v>
   <v>      -0.00000000      -0.00033380      -0.02388536 </v>
   <v>       0.00000000       0.00002548      -0.02298085 </v>
   <v>      -0.00000000      -0.00010315      -0.11235965 </v>
   <v>       0.00000000       0.07990307      -0.82680223 </v>
   <v>      -0.00000000      -0.59972296      -0.32945262 </v>
   <v>       0.00000000       0.51972225       1.23847432 </v>
  </varray>
  <varray name="stress" >
   <v>     -44.71467439      -0.00000000       0.00000000 </v>
   <v>      -0.00000000     -40.85445106       1.24522534 </v>
   <v>       0.00000000       1.24523122      -0.62743205 </v>
  </varray>
  <energy>
   <i name="e_fr_energy">    -40.56336405 </i>
   <i name="e_wo_entrp">    -40.53904269 </i>
   <i name="e_0_energy">    -40.55525693 </i>
  </energy>
  <time name="totalsc">   14.70   14.87</time>
 </calculation>
 <calculation>
  <scstep>
   <time name="dav">    0.28    0.28</time>
   <time name="total">    0.36    0.37</time>
   <energy>
    <i name="alphaZ">    285.34744303 </i>
    <i name="ewald">  52641.82044228 </i>
    <i name="hartreedc"> -63603.08771669 </i>
    <i name="XCdc">    363.06932357 </i>
    <i name="pawpsdc">  10576.64872029 </i>
    <i name="pawaedc"> -11438.80401291 </i>
    <i name="eentropy">     -0.02445378 </i>
    <i name="bandstr">    -14.46989152 </i>
    <i name="atom">  11152.61838693 </i>
    <i name="e_fr_energy">    -36.88175881 </i>
    <i name="e_wo_entrp">    -36.85730503 </i>
    <i name="e_0_energy">    -36.87360755 </i>
   </energy>
  </scstep>
  <scstep>
   <time name="dav">    0.37    0.37</time>
   <time name="total">    0.45    0.45</time>
   <energy>
    <i name="e_fr_energy">    -36.90857221 </i>
    <i name="e_wo_entrp">    -36.87965126 </i>
    <i name="e_0_energy">    -36.89893189 </i>
   </energy>
  </scstep>
  <scstep>
   <time name="dav">    0.33    0.33</time>
   <time name="total">    0.41    0.42</time>
   <energy>
    <i name="e_fr_energy">    -36.91678945 </i>
    <i name="e_wo_entrp">    -36.90189237 </i>
    <i name="e_0_energy">    -36.91182376 </i>
   </energy>
  </scstep>
  <scstep>
   <time name="dav">    0.35    0.35</time>
   <time name="total">    0.43    0.43</time>
   <energy>
    <i name="e_fr_energy">    -36.90552339 </i>
    <i name="e_wo_entrp">    -36.87694281 </i>
    <i name="e_0_energy">    -36.89599653 </i>
   </energy>
  </scstep>
  <scstep>
   <time name="dav">    0.40    0.40</time>
   <time name="total">    0.47    0.48</time>
   <energy>
    <i name="e_fr_energy">    -36.90362128 </i>
    <i name="e_wo_entrp">    -36.87913963 </i>
    <i name="e_0_energy">    -36.89546073 </i>
   </energy>
  </scstep>
  <scstep>
   <time name="dav">    0.43    0.43</time>
   <time name="total">    0.51    0.51</time>
   <energy>
    <i name="e_fr_energy">    -36.90272995 </i>
    <i name="e_wo_entrp">    -36.87866573 </i>
    <i name="e_0_energy">    -36.89470854 </i>
   </energy>
  </scstep>
  <scstep>
   <time name="dav">    0.34    0.34</time>
   <time name="total">    0.42    0.42</time>
   <energy>
    <i name="e_fr_energy">    -36.90252483 </i>
    <i name="e_wo_entrp">    -36.87720153 </i>
    <i name="e_0_energy">    -36.89408373 </i>
   </energy>
  </scstep>
  <scstep>
   <time name="dav">    0.24    0.24</time>
   <time name="total">    0.27    0.27</time>
   <energy>
    <i name="alphaZ">    285.34744303 </i>
    <i name="ewald">  52641.82044228 </i>
    <i name="hartreedc"> -63596.89791260 </i>
    <i name="XCdc">    362.95222932 </i>
    <i name="pawpsdc">  10580.56378985 </i>
    <i name="pawaedc"> -11442.86947568 </i>
    <i name="eentropy">     -0.02485378 </i>
    <i name="bandstr">    -20.41261930 </i>
    <i name="atom">  11152.61838693 </i>
    <i name="e_fr_energy">    -36.90256995 </i>
    <i name="e_wo_entrp">    -36.87771617 </i>
    <i name="e_0_energy">    -36.89428536 </i>
   </energy>
  </scstep>
  <structure>
   <crystal>
    <varray name="basis" >
     <v>       2.56679773       0.00000000       0.00000000 </v>
     <v>       1.28339887       2.22291204       0.00000000 </v>
     <v>       0.00000000       0.00000000      29.67047119 </v>
    </varray>
    <i name="volume">    169.29275369 </i>
    <varray name="rec_basis" >
     <v>       0.38959050      -0.22493018       0.00000000 </v>
     <v>       0.00000000       0.44986035       0.00000000 </v>
     <v>       0.00000000       0.00000000       0.03370354 </v>
    </varray>
   </crystal>
   <varray name="positions" >
    <v>       0.00000279      -0.00000559       0.00076690 </v>
    <v>       0.33332664       0.33334671       0.06999263 </v>
    <v>       0.66667310       0.66665379       0.13909196 </v>
    <v>      -0.00000807       0.00001614       0.20816005 </v>
    <v>       0.33333696       0.33332609       0.27652356 </v>
    <v>       0.66666639       0.66666722       0.34552297 </v>
    <v>       0.00000112      -0.00000224       0.41382324 </v>
    <v>       0.33246629       0.33506743       0.48004836 </v>
    <v>       0.83984106       0.32031787       0.53372363 </v>
    <v>       0.70904267       0.58191467       0.55405167 </v>
   </varray>
  </structure>
  <varray name="forces" >
   <v>       0.00000000       0.00027758       0.29799220 </v>
   <v>       0.00000000       0.00073643      -0.14176338 </v>
   <v>       0.00000000       0.00044062      -0.07882220 </v>
   <v>       0.00000000       0.00055986      -0.01178029 </v>
   <v>       0.00000000       0.00075791      -0.01943911 </v>
   <v>       0.00000000       0.00020777      -0.05489005 </v>
   <v>       0.00000000       0.00574289      -0.27929139 </v>
   <v>       0.00000000       0.06032037      -0.40700196 </v>
   <v>       0.00000000       0.62157329       0.77275651 </v>
   <v>      -0.00000000      -0.69061671      -0.07776034 </v>
  </varray>
  <varray name="stress" >
   <v>     -42.77638629      -0.00000000      -0.00000000 </v>
   <v>      -0.00000000     -45.23834950      -5.20064249 </v>
   <v>      -0.00000000      -5.20063668      -2.73214796 </v>
  </varray>
  <energy>
   <i name="e_fr_energy">    -40.61120762 </i>
   <i name="e_wo_entrp">    -40.58635383 </i>
   <i name="e_0_energy">    -40.60292302 </i>
  </energy>
  <time name="totalsc">    3.79    3.87</time>
 </calculation>
 <calculation>
  <scstep>
   <time name="dav">    0.28    0.28</time>
   <time name="total">    0.36    0.36</time>
   <energy>
    <i name="alphaZ">    285.34744303 </i>
    <i name="ewald">  52567.26538623 </i>
    <i name="hartreedc"> -63522.04609189 </i>
    <i name="XCdc">    362.95728297 </i>
    <i name="pawpsdc">  10580.89982854 </i>
    <i name="pawaedc"> -11443.21473625 </i>
    <i name="eentropy">     -0.02485796 </i>
    <i name="bandstr">    -20.72083742 </i>
    <i name="atom">  11152.61838693 </i>
    <i name="e_fr_energy">    -36.91819582 </i>
    <i name="e_wo_entrp">    -36.89333786 </i>
    <i name="e_0_energy">    -36.90990983 </i>
   </energy>
  </scstep>
  <scstep>
   <time name="dav">    0.34    0.34</time>
   <time name="total">    0.42    0.42</time>
   <energy>
    <i name="e_fr_energy">    -36.91996229 </i>
    <i name="e_wo_entrp">    -36.89614475 </i>
    <i name="e_0_energy">    -36.91202311 </i>
   </energy>
  </scstep>
  <scstep>
   <time name="dav">    0.30    0.31</time>
   <time name="total">    0.38    0.39</time>
   <energy>
    <i name="e_fr_energy">    -36.92083274 </i>
    <i name="e_wo_entrp">    -36.89305079 </i>
    <i name="e_0_energy">    -36.91157209 </i>
   </energy>
  </scstep>
  <scstep>
   <time name="dav">    0.23    0.23</time>
   <time name="total">    0.30    0.31</time>
   <energy>
    <i name="e_fr_energy">    -36.91982396 </i>
    <i name="e_wo_entrp">    -36.89586271 </i>
    <i name="e_0_energy">    -36.91183687 </i>
   </energy>
  </scstep>
  <scstep>
   <time name="dav">    0.23    0.23</time>
   <time name="total">    0.25    0.26</time>
   <energy>
    <i name="alphaZ">    285.34744303 </i>
    <i name="ewald">  52567.26538623 </i>
    <i name="hartreedc"> -63523.46581002 </i>
    <i name="XCdc">    362.98315889 </i>
    <i name="pawpsdc">  10579.81180874 </i>
    <i name="pawaedc"> -11442.08400973 </i>
    <i name="eentropy">     -0.02497815 </i>
    <i name="bandstr">    -19.37113250 </i>
    <i name="atom">  11152.61838693 </i>
    <i name="e_fr_energy">    -36.91974658 </i>
    <i name="e_wo_entrp">    -36.89476844 </i>
    <i name="e_0_energy">    -36.91142053 </i>
   </energy>
  </scstep>
  <structure>
   <crystal>
    <varray name="basis" >
     <v>       2.56679773       0.00000000       0.00000000 </v>
     <v>       1.28339887       2.22291204       0.00000000 </v>
     <v>       0.00000000       0.00000000      29.67047119 </v>
    </varray>
    <i name="volume">    169.29275369 </i>
    <varray name="rec_basis" >
     <v>       0.38959050      -0.22493018       0.00000000 </v>
     <v>       0.00000000       0.44986035       0.00000000 </v>
     <v>       0.00000000       0.00000000       0.03370354 </v>
    </varray>
   </crystal>
   <varray name="positions" >
    <v>       0.00000206      -0.00000413       0.00056676 </v>
    <v>       0.33332839       0.33334322       0.07016033 </v>
    <v>       0.66667142       0.66665715       0.13909039 </v>
    <v>      -0.00000596       0.00001192       0.20816137 </v>
    <v>       0.33333601       0.33332798       0.27653369 </v>
    <v>       0.66666646       0.66666708       0.34553272 </v>
    <v>       0.00000083      -0.00000165       0.41387092 </v>
    <v>       0.33269256       0.33461489       0.48039918 </v>
    <v>       0.83814278       0.32371445       0.53386342 </v>
    <v>       0.71051441       0.57897118       0.55352617 </v>
   </varray>
  </structure>
  <varray name="forces" >
   <v>      -0.00000000      -0.00029236       0.36511300 </v>
   <v>      -0.00000000      -0.00007343      -0.22299606 </v>
   <v>      -0.00000000      -0.00062459      -0.04566611 </v>
   <v>       0.00000000       0.00023860      -0.00067085 </v>
   <v>      -0.00000000      -0.00018700      -0.01731073 </v>
   <v>      -0.00000000      -0.00038122      -0.04223099 </v>
   <v>       0.00000000       0.00372495      -0.23878668 </v>
   <v>       0.00000000       0.06954478      -0.54945009 </v>
   <v>       0.00000000       0.50073997       0.67407401 </v>
   <v>      -0.00000000      -0.57268969       0.07792449 </v>
  </varray>
  <varray name="stress" >
   <v>     -44.22469519      -0.00000000      -0.00000000 </v>
   <v>      -0.00000000     -45.91139729      -4.44259740 </v>
   <v>      -0.00000000      -4.44259170      -4.17190906 </v>
  </varray>
  <energy>
   <i name="e_fr_energy">    -40.61488527 </i>
   <i name="e_wo_entrp">    -40.58990712 </i>
   <i name="e_0_energy">    -40.60655922 </i>
  </energy>
  <time name="totalsc">    2.18    2.23</time>
 </calculation>
 <calculation>
  <scstep>
   <time name="dav">    0.28    0.28</time>
   <time name="total">    0.35    0.36</time>
   <energy>
    <i name="alphaZ">    285.34744303 </i>
    <i name="ewald">  52921.10477568 </i>
    <i name="hartreedc"> -63876.62881590 </i>
    <i name="XCdc">    363.05056984 </i>
    <i name="pawpsdc">  10579.72460547 </i>
    <i name="pawaedc"> -11441.99263743 </i>
    <i name="eentropy">     -0.02268013 </i>
    <i name="bandstr">    -20.14114266 </i>
    <i name="atom">  11152.61838693 </i>
    <i name="e_fr_energy">    -36.93949517 </i>
    <i name="e_wo_entrp">    -36.91681504 </i>
    <i name="e_0_energy">    -36.93193513 </i>
   </energy>
  </scstep>
  <scstep>
   <time name="dav">    0.39    0.40</time>
   <time name="total">    0.47    0.48</time>
   <energy>
    <i name="e_fr_energy">    -36.98304592 </i>
    <i name="e_wo_entrp">    -36.94978857 </i>
    <i name="e_0_energy">    -36.97196013 </i>
   </energy>
  </scstep>
  <scstep>
   <time name="dav">    0.43    0.43</time>
   <time name="total">    0.51    0.51</time>
   <energy>
    <i name="e_fr_energy">    -36.97626496 </i>
    <i name="e_wo_entrp">    -36.95626471 </i>
    <i name="e_0_energy">    -36.96959821 </i>
   </energy>
  </scstep>
  <scstep>
   <time name="dav">    0.39    0.40</time>
   <time name="total">    0.47    0.48</time>
   <energy>
    <i name="e_fr_energy">    -36.97311365 </i>
    <i name="e_wo_entrp">    -36.94885458 </i>
    <i name="e_0_energy">    -36.96502730 </i>
   </energy>
  </scstep>
  <scstep>
   <time name="dav">    0.37    0.37</time>
   <time name="total">    0.45    0.45</time>
   <energy>
    <i name="e_fr_energy">    -36.97308406 </i>
    <i name="e_wo_entrp">    -36.94680971 </i>
    <i name="e_0_energy">    -36.96432595 </i>
   </energy>
  </scstep>
  <scstep>
   <time name="dav">    0.32    0.32</time>
   <time name="total">    0.40    0.40</time>
   <energy>
    <i name="e_fr_energy">    -36.97262155 </i>
    <i name="e_wo_entrp">    -36.94716082 </i>
    <i name="e_0_energy">    -36.96413464 </i>
   </energy>
  </scstep>
  <scstep>
   <time name="dav">    0.33    0.33</time>
   <time name="total">    0.41    0.41</time>
   <energy>
    <i name="e_fr_energy">    -36.97244199 </i>
    <i name="e_wo_entrp">    -36.94740074 </i>
    <i name="e_0_energy">    -36.96409491 </i>
   </energy>
  </scstep>
  <scstep>
   <time name="dav">    0.24    0.24</time>
   <time name="total">    0.27    0.27</time>
   <energy>
    <i name="alphaZ">    285.34744303 </i>
    <i name="ewald">  52921.10477568 </i>
    <i name="hartreedc"> -63875.29399452 </i>
    <i name="XCdc">    363.04868371 </i>
    <i name="pawpsdc">  10592.78299016 </i>
    <i name="pawaedc"> -11455.27730893 </i>
    <i name="eentropy">     -0.02467773 </i>
    <i name="bandstr">    -21.27874960 </i>
    <i name="atom">  11152.61838693 </i>
    <i name="e_fr_energy">    -36.97245127 </i>
    <i name="e_wo_entrp">    -36.94777354 </i>
    <i name="e_0_energy">    -36.96422536 </i>
   </energy>
  </scstep>
  <structure>
   <crystal>
    <varray name="basis" >
     <v>       2.56679773       0.00000000       0.00000000 </v>
     <v>       1.28339887       2.22291204       0.00000000 </v>
     <v>       0.00000000       0.00000000      29.67047119 </v>
    </varray>
    <i name="volume">    169.29275369 </i>
    <varray name="rec_basis" >
     <v>       0.38959050      -0.22493018       0.00000000 </v>
     <v>       0.00000000       0.44986035       0.00000000 </v>
     <v>       0.00000000       0.00000000       0.03370354 </v>
    </varray>
   </crystal>
   <varray name="positions" >
    <v>       0.00000631      -0.00001262       0.00146863 </v>
    <v>       0.33332619       0.33334763       0.06953244 </v>
    <v>       0.66668070       0.66663861       0.13902267 </v>
    <v>      -0.00001198       0.00002397       0.20815809 </v>
    <v>       0.33333954       0.33332093       0.27648984 </v>
    <v>       0.66667026       0.66665948       0.34545112 </v>
    <v>      -0.00003699       0.00007398       0.41342212 </v>
    <v>       0.33159380       0.33681239       0.47895784 </v>
    <v>       0.83587108       0.32825785       0.53466530 </v>
    <v>       0.71391007       0.57217987       0.55453691 </v>
   </varray>
  </structure>
  <varray name="forces" >
   <v>       0.00000000       0.00049917       0.14579236 </v>
   <v>       0.00000000       0.00032044       0.05928950 </v>
   <v>       0.00000000       0.00008366      -0.11082640 </v>
   <v>      -0.00000000      -0.00003713      -0.02427278 </v>
   <v>       0.00000000       0.00071474      -0.02487464 </v>
   <v>       0.00000000       0.00009914      -0.09659872 </v>
   <v>       0.00000000       0.01049724      -0.34114662 </v>
   <v>       0.00000000       0.04466715      -0.24115177 </v>
   <v>       0.00000000       0.41742996       0.56736960 </v>
   <v>      -0.00000000      -0.47427437       0.06641947 </v>
  </varray>
  <varray name="stress" >
   <v>     -44.47561647      -0.00000000      -0.00000000 </v>
   <v>      -0.00000000     -45.86363475      -3.87079249 </v>
   <v>      -0.00000000      -3.87078681      -0.08686312 </v>
  </varray>
  <energy>
   <i name="e_fr_energy">    -40.67295176 </i>
   <i name="e_wo_entrp">    -40.64827402 </i>
   <i name="e_0_energy">    -40.66472584 </i>
  </energy>
  <time name="totalsc">    3.80    3.87</time>
 </calculation>
 <calculation>
  <scstep>
   <time name="dav">    0.28    0.28</time>
   <time name="total">    0.36    0.36</time>
   <energy>
    <i name="alphaZ">    285.34744303 </i>
    <i name="ewald">  53498.58635404 </i>
    <i name="hartreedc"> -64451.97896777 </i>
    <i name="XCdc">    363.18323345 </i>
    <i name="pawpsdc">  10592.79877054 </i>
    <i name="pawaedc"> -11455.28015202 </i>
    <i name="eentropy">     -0.02164001 </i>
    <i name="bandstr">    -22.16663060 </i>
    <i name="atom">  11152.61838693 </i>
    <i name="e_fr_energy">    -36.91320241 </i>
    <i name="e_wo_entrp">    -36.89156240 </i>
    <i name="e_0_energy">    -36.90598907 </i>
   </energy>
  </scstep>
  <scstep>
   <time name="dav">    0.39    0.40</time>
   <time name="total">    0.48    0.48</time>
   <energy>
    <i name="e_fr_energy">    -37.02426223 </i>
    <i name="e_wo_entrp">    -36.98939151 </i>
    <i name="e_0_energy">    -37.01263866 </i>
   </energy>
  </scstep>
  <scstep>
   <time name="dav">    0.41    0.41</time>
   <time name="total">    0.49    0.49</time>
   <energy>
    <i name="e_fr_energy">    -37.01035999 </i>
    <i name="e_wo_entrp">    -36.99270071 </i>
    <i name="e_0_energy">    -37.00447356 </i>
   </energy>
  </scstep>
  <scstep>
   <time name="dav">    0.40    0.41</time>
   <time name="total">    0.48    0.49</time>
   <energy>
    <i name="e_fr_energy">    -37.00196309 </i>
    <i name="e_wo_entrp">    -36.97839358 </i>
    <i name="e_0_energy">    -36.99410658 </i>
   </energy>
  </scstep>
  <scstep>
   <time name="dav">    0.37    0.37</time>
   <time name="total">    0.45    0.45</time>
   <energy>
    <i name="e_fr_energy">    -37.00187374 </i>
    <i name="e_wo_entrp">    -36.97524175 </i>
    <i name="e_0_energy">    -36.99299641 </i>
   </energy>
  </scstep>
  <scstep>
   <time name="dav">    0.33    0.34</time>
   <time name="total">    0.41    0.46</time>
   <energy>
    <i name="e_fr_energy">    -37.00068402 </i>
    <i name="e_wo_entrp">    -36.97539228 </i>
    <i name="e_0_energy">    -36.99225344 </i>
   </energy>
  </scstep>
  <scstep>
   <time name="dav">    0.39    0.40</time>
   <time name="total">    0.47    0.48</time>
   <energy>
    <i name="e_fr_energy">    -37.00015304 </i>
    <i name="e_wo_entrp">    -36.97504985 </i>
    <i name="e_0_energy">    -36.99178531 </i>
   </energy>
  </scstep>
  <scstep>
   <time name="dav">    0.28    0.28</time>
   <time name="total">    0.31    0.31</time>
   <energy>
    <i name="alphaZ">    285.34744303 </i>
    <i name="ewald">  53498.58635404 </i>
    <i name="hartreedc"> -64449.60314617 </i>
    <i name="XCdc">    363.17054555 </i>
    <i name="pawpsdc">  10617.42153841 </i>
    <i name="pawaedc"> -11480.31996169 </i>
    <i name="eentropy">     -0.02417062 </i>
    <i name="bandstr">    -24.19714956 </i>
    <i name="atom">  11152.61838693 </i>
    <i name="e_fr_energy">    -37.00016006 </i>
    <i name="e_wo_entrp">    -36.97598944 </i>
    <i name="e_0_energy">    -36.99210319 </i>
   </energy>
  </scstep>
  <structure>
   <crystal>
    <varray name="basis" >
     <v>       2.56679773       0.00000000       0.00000000 </v>
     <v>       1.28339887       2.22291204       0.00000000 </v>
     <v>       0.00000000       0.00000000      29.67047119 </v>
    </varray>
    <i name="volume">    169.29275369 </i>
    <varray name="rec_basis" >
     <v>       0.38959050      -0.22493018       0.00000000 </v>
     <v>       0.00000000       0.44986035       0.00000000 </v>
     <v>       0.00000000       0.00000000       0.03370354 </v>
    </varray>
   </crystal>
   <varray name="positions" >
    <v>       0.00001316      -0.00002632       0.00292516 </v>
    <v>       0.33332263       0.33335474       0.06851838 </v>
    <v>       0.66669567       0.66660866       0.13891331 </v>
    <v>      -0.00002171       0.00004342       0.20815280 </v>
    <v>       0.33334523       0.33330954       0.27641901 </v>
    <v>       0.66667640       0.66664721       0.34531932 </v>
    <v>      -0.00009806       0.00019612       0.41269731 </v>
    <v>       0.32981930       0.34036141       0.47663003 </v>
    <v>       0.83220222       0.33559556       0.53596036 </v>
    <v>       0.71939413       0.56121173       0.55616927 </v>
   </varray>
  </structure>
  <varray name="forces" >
   <v>       0.00000000       0.00060826      -0.26708336 </v>
   <v>      -0.00000000      -0.00055242       0.56676289 </v>
   <v>       0.00000000       0.00114453      -0.19087993 </v>
   <v>      -0.00000000      -0.00038317      -0.04961744 </v>
   <v>       0.00000000       0.00117744      -0.03211095 </v>
   <v>       0.00000000       0.00007158      -0.19052614 </v>
   <v>       0.00000000       0.02474897      -0.54548057 </v>
   <v>       0.00000000       0.01456190       0.24275455 </v>
   <v>       0.00000000       0.23278105       0.34021585 </v>
   <v>      -0.00000000      -0.27415814       0.12596510 </v>
  </varray>
  <varray name="stress" >
   <v>     -39.62042526      -0.00000000      -0.00000000 </v>
   <v>      -0.00000000     -40.07760786      -2.82666346 </v>
   <v>      -0.00000000      -2.82665802      12.68771655 </v>
  </varray>
  <energy>
   <i name="e_fr_energy">    -40.70882650 </i>
   <i name="e_wo_entrp">    -40.68465588 </i>
   <i name="e_0_energy">    -40.70076962 </i>
  </energy>
  <time name="totalsc">    3.91    4.03</time>
 </calculation>
 <calculation>
  <scstep>
   <time name="dav">    0.28    0.28</time>
   <time name="total">    0.36    0.36</time>
   <energy>
    <i name="alphaZ">    285.34744303 </i>
    <i name="ewald">  53811.99889971 </i>
    <i name="hartreedc"> -64762.90935790 </i>
    <i name="XCdc">    363.18390701 </i>
    <i name="pawpsdc">  10617.45756759 </i>
    <i name="pawaedc"> -11480.35186921 </i>
    <i name="eentropy">     -0.02444864 </i>
    <i name="bandstr">    -24.32496537 </i>
    <i name="atom">  11152.61838693 </i>
    <i name="e_fr_energy">    -37.00443684 </i>
    <i name="e_wo_entrp">    -36.97998820 </i>
    <i name="e_0_energy">    -36.99628729 </i>
   </energy>
  </scstep>
  <scstep>
   <time name="dav">    0.35    0.36</time>
   <time name="total">    0.44    0.44</time>
   <energy>
    <i name="e_fr_energy">    -37.03736147 </i>
    <i name="e_wo_entrp">    -37.01477341 </i>
    <i name="e_0_energy">    -37.02983211 </i>
   </energy>
  </scstep>
  <scstep>
   <time name="dav">    0.33    0.33</time>
   <time name="total">    0.41    0.41</time>
   <energy>
    <i name="e_fr_energy">    -37.03726072 </i>
    <i name="e_wo_entrp">    -37.01377872 </i>
    <i name="e_0_energy">    -37.02943339 </i>
   </energy>
  </scstep>
  <scstep>
   <time name="dav">    0.34    0.34</time>
   <time name="total">    0.42    0.43</time>
   <energy>
    <i name="e_fr_energy">    -37.03705079 </i>
    <i name="e_wo_entrp">    -37.01125032 </i>
    <i name="e_0_energy">    -37.02845064 </i>
   </energy>
  </scstep>
  <scstep>
   <time name="dav">    0.39    0.39</time>
   <time name="total">    0.47    0.48</time>
   <energy>
    <i name="e_fr_energy">    -37.03881361 </i>
    <i name="e_wo_entrp">    -37.02015159 </i>
    <i name="e_0_energy">    -37.03259293 </i>
   </energy>
  </scstep>
  <scstep>
   <time name="dav">    0.39    0.40</time>
   <time name="total">    0.48    0.48</time>
   <energy>
    <i name="e_fr_energy">    -37.03571168 </i>
    <i name="e_wo_entrp">    -37.01090831 </i>
    <i name="e_0_energy">    -37.02744389 </i>
   </energy>
  </scstep>
  <scstep>
   <time name="dav">    0.31    0.32</time>
   <time name="total">    0.40    0.40</time>
   <energy>
    <i name="e_fr_energy">    -37.03549547 </i>
    <i name="e_wo_entrp">    -37.01186659 </i>
    <i name="e_0_energy">    -37.02761918 </i>
   </energy>
  </scstep>
  <scstep>
   <time name="dav">    0.25    0.25</time>
   <time name="total">    0.28    0.28</time>
   <energy>
    <i name="alphaZ">    285.34744303 </i>
    <i name="ewald">  53811.99889971 </i>
    <i name="hartreedc"> -64761.81425478 </i>
    <i name="XCdc">    363.22573599 </i>
    <i name="pawpsdc">  10619.41967505 </i>
    <i name="pawaedc"> -11482.32418930 </i>
    <i name="eentropy">     -0.02373273 </i>
    <i name="bandstr">    -25.48351614 </i>
    <i name="atom">  11152.61838693 </i>
    <i name="e_fr_energy">    -37.03555224 </i>
    <i name="e_wo_entrp">    -37.01181951 </i>
    <i name="e_0_energy">    -37.02764133 </i>
   </energy>
  </scstep>
  <structure>
   <crystal>
    <varray name="basis" >
     <v>       2.56679773       0.00000000       0.00000000 </v>
     <v>       1.28339887       2.22291204       0.00000000 </v>
     <v>       0.00000000       0.00000000      29.67047119 </v>
    </varray>
    <i name="volume">    169.29275369 </i>
    <varray name="rec_basis" >
     <v>       0.38959050      -0.22493018       0.00000000 </v>
     <v>       0.00000000       0.44986035       0.00000000 </v>
     <v>       0.00000000       0.00000000       0.03370354 </v>
    </varray>
   </crystal>
   <varray name="positions" >
    <v>       0.00000765      -0.00001529       0.00296808 </v>
    <v>       0.33332871       0.33334258       0.06926493 </v>
    <v>       0.66668613       0.66662773       0.13848003 </v>
    <v>      -0.00002042       0.00004084       0.20804951 </v>
    <v>       0.33333150       0.33333699       0.27632498 </v>
    <v>       0.66667790       0.66664421       0.34487770 </v>
    <v>      -0.00045945       0.00091890       0.41129281 </v>
    <v>       0.32890544       0.34218912       0.47618610 </v>
    <v>       0.82755502       0.34488996       0.53717635 </v>
    <v>       0.72533648       0.54932705       0.55708448 </v>
   </varray>
  </structure>
  <varray name="forces" >
   <v>       0.00000000       0.00043304      -0.14907288 </v>
   <v>      -0.00000000      -0.00029076       0.30557231 </v>
   <v>       0.00000000       0.00097743      -0.00818158 </v>
   <v>      -0.00000000      -0.00035767      -0.08377597 </v>
   <v>       0.00000000       0.00111540      -0.08555198 </v>
   <v>       0.00000000       0.00241562      -0.29265222 </v>
   <v>       0.00000000       0.02432405      -0.18421458 </v>
   <v>       0.00000000       0.00571698       0.07010419 </v>
   <v>      -0.00000000      -0.36094542      -0.40017092 </v>
   <v>       0.00000000       0.32661132       0.82794363 </v>
  </varray>
  <varray name="stress" >
   <v>     -41.10327206      -0.00000000       0.00000000 </v>
   <v>      -0.00000000     -39.12361259       0.58474301 </v>
   <v>       0.00000000       0.58474688      15.10386282 </v>
  </varray>
  <energy>
   <i name="e_fr_energy">    -40.74757055 </i>
   <i name="e_wo_entrp">    -40.72383782 </i>
   <i name="e_0_energy">    -40.73965964 </i>
  </energy>
  <time name="totalsc">    3.73    3.82</time>
 </calculation>
 <calculation>
  <scstep>
   <time name="dav">    0.28    0.28</time>
   <time name="total">    0.36    0.37</time>
   <energy>
    <i name="alphaZ">    285.34744303 </i>
    <i name="ewald">  53859.37732872 </i>
    <i name="hartreedc"> -64809.32190704 </i>
    <i name="XCdc">    363.22708076 </i>
    <i name="pawpsdc">  10619.40905532 </i>
    <i name="pawaedc"> -11482.30295294 </i>
    <i name="eentropy">     -0.02376802 </i>
    <i name="bandstr">    -25.36568806 </i>
    <i name="atom">  11152.61838693 </i>
    <i name="e_fr_energy">    -37.03502131 </i>
    <i name="e_wo_entrp">    -37.01125329 </i>
    <i name="e_0_energy">    -37.02709864 </i>
   </energy>
  </scstep>
  <scstep>
   <time name="dav">    0.37    0.38</time>
   <time name="total">    0.45    0.46</time>
   <energy>
    <i name="e_fr_energy">    -37.03570891 </i>
    <i name="e_wo_entrp">    -37.01204785 </i>
    <i name="e_0_energy">    -37.02782189 </i>
   </energy>
  </scstep>
  <scstep>
   <time name="dav">    0.24    0.24</time>
   <time name="total">    0.27    0.27</time>
   <energy>
    <i name="alphaZ">    285.34744303 </i>
    <i name="ewald">  53859.37732872 </i>
    <i name="hartreedc"> -64809.26621602 </i>
    <i name="XCdc">    363.22952280 </i>
    <i name="pawpsdc">  10619.46388909 </i>
    <i name="pawaedc"> -11482.33799217 </i>
    <i name="eentropy">     -0.02331283 </i>
    <i name="bandstr">    -25.44477184 </i>
    <i name="atom">  11152.61838693 </i>
    <i name="e_fr_energy">    -37.03572230 </i>
    <i name="e_wo_entrp">    -37.01240947 </i>
    <i name="e_0_energy">    -37.02795135 </i>
   </energy>
  </scstep>
  <structure>
   <crystal>
    <varray name="basis" >
     <v>       2.56679773       0.00000000       0.00000000 </v>
     <v>       1.28339887       2.22291204       0.00000000 </v>
     <v>       0.00000000       0.00000000      29.67047119 </v>
    </varray>
    <i name="volume">    169.29275369 </i>
    <varray name="rec_basis" >
     <v>       0.38959050      -0.22493018       0.00000000 </v>
     <v>       0.00000000       0.44986035       0.00000000 </v>
     <v>       0.00000000       0.00000000       0.03370354 </v>
    </varray>
   </crystal>
   <varray name="positions" >
    <v>       0.00000682      -0.00001363       0.00297454 </v>
    <v>       0.33332963       0.33334075       0.06937726 </v>
    <v>       0.66668470       0.66663060       0.13841483 </v>
    <v>      -0.00002023       0.00004045       0.20803396 </v>
    <v>       0.33332944       0.33334112       0.27631083 </v>
    <v>       0.66667812       0.66664376       0.34481125 </v>
    <v>      -0.00051383       0.00102766       0.41108148 </v>
    <v>       0.32876793       0.34246414       0.47611930 </v>
    <v>       0.82685576       0.34628848       0.53735931 </v>
    <v>       0.72623062       0.54753876       0.55722219 </v>
   </varray>
  </structure>
  <varray name="forces" >
   <v>       0.00000000       0.00021267      -0.12102359 </v>
   <v>      -0.00000000      -0.00032471       0.25533956 </v>
   <v>       0.00000000       0.00035603       0.02881983 </v>
   <v>      -0.00000000      -0.00059806      -0.09411419 </v>
   <v>       0.00000000       0.00079149      -0.10461450 </v>
   <v>       0.00000000       0.00247606      -0.31583397 </v>
   <v>       0.00000000       0.02344031      -0.12774283 </v>
   <v>       0.00000000       0.00358569       0.04254082 </v>
   <v>      -0.00000000      -0.45383101      -0.52517482 </v>
   <v>       0.00000000       0.42389155       0.96180368 </v>
  </varray>
  <varray name="stress" >
   <v>     -36.74154600      -0.00000000       0.00000000 </v>
   <v>      -0.00000000     -34.44547121       1.10545116 </v>
   <v>       0.00000000       1.10545492      20.00458824 </v>
  </varray>
  <energy>
   <i name="e_fr_energy">    -40.74848908 </i>
   <i name="e_wo_entrp">    -40.72517626 </i>
   <i name="e_0_energy">    -40.74071814 </i>
  </energy>
  <time name="totalsc">    1.55    1.62</time>
 </calculation>
 <calculation>
  <scstep>
   <time name="dav">    0.28    0.28</time>
   <time name="total">    0.36    0.36</time>
   <energy>
    <i name="alphaZ">    285.34744303 </i>
    <i name="ewald">  54018.55200091 </i>
    <i name="hartreedc"> -64968.94356232 </i>
    <i name="XCdc">    363.21134084 </i>
    <i name="pawpsdc">  10619.57127399 </i>
    <i name="pawaedc"> -11482.45780941 </i>
    <i name="eentropy">     -0.02513798 </i>
    <i name="bandstr">    -24.92295912 </i>
    <i name="atom">  11152.61838693 </i>
    <i name="e_fr_energy">    -37.04902314 </i>
    <i name="e_wo_entrp">    -37.02388516 </i>
    <i name="e_0_energy">    -37.04064381 </i>
   </energy>
  </scstep>
  <scstep>
   <time name="dav">    0.40    0.40</time>
   <time name="total">    0.48    0.48</time>
   <energy>
    <i name="e_fr_energy">    -37.05899580 </i>
    <i name="e_wo_entrp">    -37.03965864 </i>
    <i name="e_0_energy">    -37.05255008 </i>
   </energy>
  </scstep>
  <scstep>
   <time name="dav">    0.41    0.41</time>
   <time name="total">    0.49    0.49</time>
   <energy>
    <i name="e_fr_energy">    -37.05799244 </i>
    <i name="e_wo_entrp">    -37.03219618 </i>
    <i name="e_0_energy">    -37.04939369 </i>
   </energy>
  </scstep>
  <scstep>
   <time name="dav">    0.30    0.30</time>
   <time name="total">    0.38    0.39</time>
   <energy>
    <i name="e_fr_energy">    -37.05722792 </i>
    <i name="e_wo_entrp">    -37.03400501 </i>
    <i name="e_0_energy">    -37.04948695 </i>
   </energy>
  </scstep>
  <scstep>
   <time name="dav">    0.30    0.30</time>
   <time name="total">    0.38    0.39</time>
   <energy>
    <i name="e_fr_energy">    -37.05712210 </i>
    <i name="e_wo_entrp">    -37.03384197 </i>
    <i name="e_0_energy">    -37.04936205 </i>
   </energy>
  </scstep>
  <scstep>
   <time name="dav">    0.31    0.31</time>
   <time name="total">    0.39    0.39</time>
   <energy>
    <i name="e_fr_energy">    -37.05692718 </i>
    <i name="e_wo_entrp">    -37.03284400 </i>
    <i name="e_0_energy">    -37.04889945 </i>
   </energy>
  </scstep>
  <scstep>
   <time name="dav">    0.24    0.24</time>
   <time name="total">    0.26    0.27</time>
   <energy>
    <i name="alphaZ">    285.34744303 </i>
    <i name="ewald">  54018.55200091 </i>
    <i name="hartreedc"> -64967.20328773 </i>
    <i name="XCdc">    363.19589684 </i>
    <i name="pawpsdc">  10618.43964210 </i>
    <i name="pawaedc"> -11481.30658165 </i>
    <i name="eentropy">     -0.02378535 </i>
    <i name="bandstr">    -26.67663324 </i>
    <i name="atom">  11152.61838693 </i>
    <i name="e_fr_energy">    -37.05691817 </i>
    <i name="e_wo_entrp">    -37.03313282 </i>
    <i name="e_0_energy">    -37.04898972 </i>
   </energy>
  </scstep>
  <structure>
   <crystal>
    <varray name="basis" >
     <v>       2.56679773       0.00000000       0.00000000 </v>
     <v>       1.28339887       2.22291204       0.00000000 </v>
     <v>       0.00000000       0.00000000      29.67047119 </v>
    </varray>
    <i name="volume">    169.29275369 </i>
    <varray name="rec_basis" >
     <v>       0.38959050      -0.22493018       0.00000000 </v>
     <v>       0.00000000       0.44986035       0.00000000 </v>
     <v>       0.00000000       0.00000000       0.03370354 </v>
    </varray>
   </crystal>
   <varray name="positions" >
    <v>       0.00000360      -0.00000719       0.00292639 </v>
    <v>       0.33333351       0.33333298       0.06984827 </v>
    <v>       0.66667917       0.66664165       0.13823959 </v>
    <v>      -0.00001744       0.00003489       0.20793621 </v>
    <v>       0.33332045       0.33335909       0.27621134 </v>
    <v>       0.66666962       0.66666075       0.34444128 </v>
    <v>      -0.00076004       0.00152007       0.41039084 </v>
    <v>       0.32835137       0.34329726       0.47594697 </v>
    <v>       0.82648387       0.34703226       0.53760482 </v>
    <v>       0.72728484       0.54543032       0.55815926 </v>
   </varray>
  </structure>
  <varray name="forces" >
   <v>       0.00000000       0.00029627      -0.04385935 </v>
   <v>      -0.00000000      -0.00027653       0.09771475 </v>
   <v>       0.00000000       0.00072662       0.11883766 </v>
   <v>      -0.00000000      -0.00002093      -0.09507100 </v>
   <v>       0.00000000       0.00091315      -0.13595421 </v>
   <v>       0.00000000       0.00424482      -0.33192020 </v>
   <v>       0.00000000       0.02258723       0.02648676 </v>
   <v>       0.00000000       0.00305754      -0.01581184 </v>
   <v>      -0.00000000      -0.20227571      -0.22865116 </v>
   <v>       0.00000000       0.17074751       0.60822859 </v>
  </varray>
  <varray name="stress" >
   <v>     -39.49787164      -0.00000000      -0.00000000 </v>
   <v>      -0.00000000     -38.22610609      -0.26233967 </v>
   <v>      -0.00000000      -0.26233508      14.81669787 </v>
  </varray>
  <energy>
   <i name="e_fr_energy">    -40.77301455 </i>
   <i name="e_wo_entrp">    -40.74922920 </i>
   <i name="e_0_energy">    -40.76508610 </i>
  </energy>
  <time name="totalsc">    3.21    3.29</time>
 </calculation>
 <calculation>
  <scstep>
   <time name="dav">    0.28    0.28</time>
   <time name="total">    0.36    0.36</time>
   <energy>
    <i name="alphaZ">    285.34744303 </i>
    <i name="ewald">  54281.85909787 </i>
    <i name="hartreedc"> -65231.02714305 </i>
    <i name="XCdc">    363.16778039 </i>
    <i name="pawpsdc">  10618.46171319 </i>
    <i name="pawaedc"> -11481.33266070 </i>
    <i name="eentropy">     -0.02524640 </i>
    <i name="bandstr">    -26.11224860 </i>
    <i name="atom">  11152.61838693 </i>
    <i name="e_fr_energy">    -37.04287735 </i>
    <i name="e_wo_entrp">    -37.01763094 </i>
    <i name="e_0_energy">    -37.03446188 </i>
   </energy>
  </scstep>
  <scstep>
   <time name="dav">    0.36    0.36</time>
   <time name="total">    0.44    0.44</time>
   <energy>
    <i name="e_fr_energy">    -37.06784606 </i>
    <i name="e_wo_entrp">    -37.04796742 </i>
    <i name="e_0_energy">    -37.06121985 </i>
   </energy>
  </scstep>
  <scstep>
   <time name="dav">    0.31    0.32</time>
   <time name="total">    0.39    0.39</time>
   <energy>
    <i name="e_fr_energy">    -37.06787315 </i>
    <i name="e_wo_entrp">    -37.04087831 </i>
    <i name="e_0_energy">    -37.05887487 </i>
   </energy>
  </scstep>
  <scstep>
   <time name="dav">    0.32    0.32</time>
   <time name="total">    0.40    0.40</time>
   <energy>
    <i name="e_fr_energy">    -37.06676967 </i>
    <i name="e_wo_entrp">    -37.04472097 </i>
    <i name="e_0_energy">    -37.05942010 </i>
   </energy>
  </scstep>
  <scstep>
   <time name="dav">    0.36    0.36</time>
   <time name="total">    0.44    0.44</time>
   <energy>
    <i name="e_fr_energy">    -37.06635734 </i>
    <i name="e_wo_entrp">    -37.04266435 </i>
    <i name="e_0_energy">    -37.05845968 </i>
   </energy>
  </scstep>
  <scstep>
   <time name="dav">    0.39    0.40</time>
   <time name="total">    0.47    0.47</time>
   <energy>
    <i name="e_fr_energy">    -37.06573756 </i>
    <i name="e_wo_entrp">    -37.04157613 </i>
    <i name="e_0_energy">    -37.05768375 </i>
   </energy>
  </scstep>
  <scstep>
   <time name="dav">    0.29    0.29</time>
   <time name="total">    0.31    0.31</time>
   <energy>
    <i name="alphaZ">    285.34744303 </i>
    <i name="ewald">  54281.85909787 </i>
    <i name="hartreedc"> -65227.73804849 </i>
    <i name="XCdc">    363.13785438 </i>
    <i name="pawpsdc">  10616.93586284 </i>
    <i name="pawaedc"> -11479.80140218 </i>
    <i name="eentropy">     -0.02352744 </i>
    <i name="bandstr">    -29.40128188 </i>
    <i name="atom">  11152.61838693 </i>
    <i name="e_fr_energy">    -37.06561494 </i>
    <i name="e_wo_entrp">    -37.04208750 </i>
    <i name="e_0_energy">    -37.05777246 </i>
   </energy>
  </scstep>
  <structure>
   <crystal>
    <varray name="basis" >
     <v>       2.56679773       0.00000000       0.00000000 </v>
     <v>       1.28339887       2.22291204       0.00000000 </v>
     <v>       0.00000000       0.00000000      29.67047119 </v>
    </varray>
    <i name="volume">    169.29275369 </i>
    <varray name="rec_basis" >
     <v>       0.38959050      -0.22493018       0.00000000 </v>
     <v>       0.00000000       0.44986035       0.00000000 </v>
     <v>       0.00000000       0.00000000       0.03370354 </v>
    </varray>
   </crystal>
   <varray name="positions" >
    <v>      -0.00000170       0.00000339       0.00284723 </v>
    <v>       0.33333990       0.33332020       0.07062264 </v>
    <v>       0.66667009       0.66665982       0.13795149 </v>
    <v>      -0.00001287       0.00002574       0.20777549 </v>
    <v>       0.33330568       0.33338864       0.27604776 </v>
    <v>       0.66665565       0.66668870       0.34383302 </v>
    <v>      -0.00116481       0.00232963       0.40925539 </v>
    <v>       0.32766651       0.34466697       0.47566364 </v>
    <v>       0.82587246       0.34825508       0.53800844 </v>
    <v>       0.72901804       0.54196392       0.55969985 </v>
   </varray>
  </structure>
  <varray name="forces" >
   <v>       0.00000000       0.00126122       0.08600676 </v>
   <v>       0.00000000       0.00085020      -0.21339037 </v>
   <v>       0.00000000       0.00113567       0.29105309 </v>
   <v>       0.00000000       0.00071138      -0.11140841 </v>
   <v>       0.00000000       0.00155660      -0.21009274 </v>
   <v>       0.00000000       0.00703659      -0.35268544 </v>
   <v>       0.00000000       0.01896407       0.31345905 </v>
   <v>      -0.00000000      -0.00236914      -0.09814146 </v>
   <v>       0.00000000       0.14541664       0.23291847 </v>
   <v>      -0.00000000      -0.17456322       0.06228105 </v>
  </varray>
  <varray name="stress" >
   <v>     -37.08053200      -0.00000000      -0.00000000 </v>
   <v>      -0.00000000     -37.19096452      -2.32026810 </v>
   <v>      -0.00000000      -2.32026328      13.58689149 </v>
  </varray>
  <energy>
   <i name="e_fr_energy">    -40.78795706 </i>
   <i name="e_wo_entrp">    -40.76442962 </i>
   <i name="e_0_energy">    -40.78011458 </i>
  </energy>
  <time name="totalsc">    3.27    3.35</time>
 </calculation>
 <calculation>
  <scstep>
   <time name="dav">    0.27    0.28</time>
   <time name="total">    0.35    0.36</time>
   <energy>
    <i name="alphaZ">    285.34744303 </i>
    <i name="ewald">  54371.95107242 </i>
    <i name="hartreedc"> -65318.00437826 </i>
    <i name="XCdc">    363.13723564 </i>
    <i name="pawpsdc">  10617.05176158 </i>
    <i name="pawaedc"> -11479.93507570 </i>
    <i name="eentropy">     -0.02401338 </i>
    <i name="bandstr">    -29.21499896 </i>
    <i name="atom">  11152.61838693 </i>
    <i name="e_fr_energy">    -37.07256669 </i>
    <i name="e_wo_entrp">    -37.04855331 </i>
    <i name="e_0_energy">    -37.06456223 </i>
   </energy>
  </scstep>
  <scstep>
   <time name="dav">    0.35    0.35</time>
   <time name="total">    0.43    0.43</time>
   <energy>
    <i name="e_fr_energy">    -37.07572379 </i>
    <i name="e_wo_entrp">    -37.05226095 </i>
    <i name="e_0_energy">    -37.06790284 </i>
   </energy>
  </scstep>
  <scstep>
   <time name="dav">    0.30    0.31</time>
   <time name="total">    0.33    0.33</time>
   <energy>
    <i name="alphaZ">    285.34744303 </i>
    <i name="ewald">  54371.95107242 </i>
    <i name="hartreedc"> -65317.57570258 </i>
    <i name="XCdc">    363.13538809 </i>
    <i name="pawpsdc">  10617.18718627 </i>
    <i name="pawaedc"> -11480.04511194 </i>
    <i name="eentropy">     -0.02407731 </i>
    <i name="bandstr">    -29.67024418 </i>
    <i name="atom">  11152.61838693 </i>
    <i name="e_fr_energy">    -37.07565925 </i>
    <i name="e_wo_entrp">    -37.05158195 </i>
    <i name="e_0_energy">    -37.06763348 </i>
   </energy>
  </scstep>
  <structure>
   <crystal>
    <varray name="basis" >
     <v>       2.56679773       0.00000000       0.00000000 </v>
     <v>       1.28339887       2.22291204       0.00000000 </v>
     <v>       0.00000000       0.00000000      29.67047119 </v>
    </varray>
    <i name="volume">    169.29275369 </i>
    <varray name="rec_basis" >
     <v>       0.38959050      -0.22493018       0.00000000 </v>
     <v>       0.00000000       0.44986035       0.00000000 </v>
     <v>       0.00000000       0.00000000       0.03370354 </v>
    </varray>
   </crystal>
   <varray name="positions" >
    <v>      -0.00000954       0.00001909       0.00288594 </v>
    <v>       0.33333771       0.33332458       0.07070654 </v>
    <v>       0.66666168       0.66667664       0.13807619 </v>
    <v>      -0.00001494       0.00002988       0.20764338 </v>
    <v>       0.33329343       0.33341314       0.27584208 </v>
    <v>       0.66661671       0.66676658       0.34338385 </v>
    <v>      -0.00138407       0.00276813       0.40913277 </v>
    <v>       0.32746494       0.34507013       0.47550314 </v>
    <v>       0.82496723       0.35006554       0.53830568 </v>
    <v>       0.73041582       0.53916836       0.56022538 </v>
   </varray>
  </structure>
  <varray name="forces" >
   <v>       0.00000000       0.00020669       0.08124274 </v>
   <v>      -0.00000000      -0.00000906      -0.20124655 </v>
   <v>       0.00000000       0.00052229       0.22915716 </v>
   <v>      -0.00000000      -0.00039539      -0.09316240 </v>
   <v>       0.00000000       0.00111733      -0.21921132 </v>
   <v>       0.00000000       0.00773743      -0.23466378 </v>
   <v>       0.00000000       0.01675381       0.22327166 </v>
   <v>      -0.00000000      -0.00573345      -0.06839149 </v>
   <v>       0.00000000       0.15276603       0.24528011 </v>
   <v>      -0.00000000      -0.17296566       0.03772389 </v>
  </varray>
  <varray name="stress" >
   <v>     -38.13643475      -0.00000000      -0.00000000 </v>
   <v>      -0.00000000     -38.32902558      -2.35036597 </v>
   <v>      -0.00000000      -2.35036182      11.85005162 </v>
  </varray>
  <energy>
   <i name="e_fr_energy">    -40.79857356 </i>
   <i name="e_wo_entrp">    -40.77449625 </i>
   <i name="e_0_energy">    -40.79054779 </i>
  </energy>
  <time name="totalsc">    1.57    1.61</time>
 </calculation>
 <calculation>
  <scstep>
   <time name="dav">    0.28    0.28</time>
   <time name="total">    0.36    0.37</time>
   <energy>
    <i name="alphaZ">    285.34744303 </i>
    <i name="ewald">  54643.74812256 </i>
    <i name="hartreedc"> -65588.95844680 </i>
    <i name="XCdc">    363.13249071 </i>
    <i name="pawpsdc">  10617.15170790 </i>
    <i name="pawaedc"> -11480.00858233 </i>
    <i name="eentropy">     -0.02492379 </i>
    <i name="bandstr">    -30.07536341 </i>
    <i name="atom">  11152.61838693 </i>
    <i name="e_fr_energy">    -37.06916520 </i>
    <i name="e_wo_entrp">    -37.04424140 </i>
    <i name="e_0_energy">    -37.06085727 </i>
   </energy>
  </scstep>
  <scstep>
   <time name="dav">    0.35    0.36</time>
   <time name="total">    0.43    0.44</time>
   <energy>
    <i name="e_fr_energy">    -37.09778885 </i>
    <i name="e_wo_entrp">    -37.07230121 </i>
    <i name="e_0_energy">    -37.08929297 </i>
   </energy>
  </scstep>
  <scstep>
   <time name="dav">    0.35    0.36</time>
   <time name="total">    0.43    0.44</time>
   <energy>
    <i name="e_fr_energy">    -37.09808706 </i>
    <i name="e_wo_entrp">    -37.07572447 </i>
    <i name="e_0_energy">    -37.09063286 </i>
   </energy>
  </scstep>
  <scstep>
   <time name="dav">    0.33    0.33</time>
   <time name="total">    0.41    0.41</time>
   <energy>
    <i name="e_fr_energy">    -37.09657923 </i>
    <i name="e_wo_entrp">    -37.07047503 </i>
    <i name="e_0_energy">    -37.08787783 </i>
   </energy>
  </scstep>
  <scstep>
   <time name="dav">    0.43    0.43</time>
   <time name="total">    0.51    0.51</time>
   <energy>
    <i name="e_fr_energy">    -37.09593022 </i>
    <i name="e_wo_entrp">    -37.07394075 </i>
    <i name="e_0_energy">    -37.08860040 </i>
   </energy>
  </scstep>
  <scstep>
   <time name="dav">    0.34    0.35</time>
   <time name="total">    0.42    0.42</time>
   <energy>
    <i name="e_fr_energy">    -37.09534951 </i>
    <i name="e_wo_entrp">    -37.06956143 </i>
    <i name="e_0_energy">    -37.08675348 </i>
   </energy>
  </scstep>
  <scstep>
   <time name="dav">    0.29    0.29</time>
   <time name="total">    0.37    0.37</time>
   <energy>
    <i name="e_fr_energy">    -37.09504562 </i>
[...]
       <r>    11.2102     1.0232    57.6535 </r>
       <r>    11.3003     0.1244    57.6647 </r>
       <r>    11.3904    -0.0900    57.6566 </r>
       <r>    11.4806     0.7014    57.7198 </r>
       <r>    11.5707     2.3275    57.9296 </r>
       <r>    11.6608     3.7755    58.2698 </r>
       <r>    11.7509     3.8198    58.6140 </r>
       <r>    11.8410     2.5804    58.8465 </r>
       <r>    11.9311     1.3148    58.9650 </r>
       <r>    12.0212     0.9003    59.0461 </r>
       <r>    12.1113     1.3807    59.1706 </r>
       <r>    12.2015     2.0989    59.3597 </r>
       <r>    12.2916     2.1038    59.5493 </r>
       <r>    12.3817     1.2181    59.6591 </r>
       <r>    12.4718     0.2846    59.6847 </r>
       <r>    12.5619    -0.0862    59.6769 </r>
       <r>    12.6520    -0.0825    59.6695 </r>
       <r>    12.7421    -0.0265    59.6671 </r>
       <r>    12.8322    -0.0060    59.6666 </r>
       <r>    12.9224    -0.0091    59.6658 </r>
       <r>    13.0125    -0.0300    59.6631 </r>
       <r>    13.1026    -0.0411    59.6594 </r>
       <r>    13.1927     0.0848    59.6670 </r>
       <r>    13.2828     0.4614    59.7086 </r>
       <r>    13.3729     0.8467    59.7849 </r>
       <r>    13.4630     0.8019    59.8571 </r>
       <r>    13.5531     0.3835    59.8917 </r>
       <r>    13.6433     0.0458    59.8958 </r>
       <r>    13.7334    -0.0439    59.8919 </r>
       <r>    13.8235    -0.0254    59.8896 </r>
       <r>    13.9136    -0.0065    59.8890 </r>
       <r>    14.0037    -0.0010    59.8889 </r>
       <r>    14.0938    -0.0001    59.8889 </r>
       <r>    14.1839    -0.0000    59.8889 </r>
       <r>    14.2740    -0.0000    59.8889 </r>
       <r>    14.3642    -0.0000    59.8889 </r>
       <r>    14.4543    -0.0000    59.8889 </r>
       <r>    14.5444    -0.0000    59.8889 </r>
       <r>    14.6345    -0.0000    59.8889 </r>
       <r>    14.7246    -0.0000    59.8889 </r>
       <r>    14.8147    -0.0000    59.8889 </r>
       <r>    14.9048    -0.0000    59.8889 </r>
       <r>    14.9949    -0.0000    59.8889 </r>
       <r>    15.0851    -0.0000    59.8889 </r>
       <r>    15.1752    -0.0000    59.8889 </r>
       <r>    15.2653    -0.0000    59.8889 </r>
       <r>    15.3554    -0.0000    59.8889 </r>
       <r>    15.4455    -0.0000    59.8889 </r>
       <r>    15.5356    -0.0000    59.8889 </r>
       <r>    15.6257    -0.0001    59.8889 </r>
       <r>    15.7159    -0.0008    59.8888 </r>
       <r>    15.8060    -0.0047    59.8884 </r>
       <r>    15.8961    -0.0165    59.8869 </r>
       <r>    15.9862    -0.0213    59.8850 </r>
       <r>    16.0763     0.0516    59.8896 </r>
       <r>    16.1664     0.2560    59.9127 </r>
       <r>    16.2565     0.4436    59.9527 </r>
       <r>    16.3466     0.3902    59.9878 </r>
       <r>    16.4368     0.1646    60.0027 </r>
       <r>    16.5269     0.0078    60.0034 </r>
       <r>    16.6170    -0.0235    60.0012 </r>
       <r>    16.7071    -0.0110    60.0003 </r>
       <r>    16.7972    -0.0025    60.0000 </r>
       <r>    16.8873    -0.0003    60.0000 </r>
       <r>    16.9774    -0.0000    60.0000 </r>
       <r>    17.0675    -0.0000    60.0000 </r>
       <r>    17.1577    -0.0000    60.0000 </r>
       <r>    17.2478    -0.0000    60.0000 </r>
       <r>    17.3379    -0.0000    60.0000 </r>
       <r>    17.4280    -0.0000    60.0000 </r>
       <r>    17.5181    -0.0000    60.0000 </r>
       <r>    17.6082     0.0000    60.0000 </r>
       <r>    17.6983     0.0000    60.0000 </r>
       <r>    17.7884     0.0000    60.0000 </r>
       <r>    17.8786     0.0000    60.0000 </r>
       <r>    17.9687     0.0000    60.0000 </r>
       <r>    18.0588     0.0000    60.0000 </r>
       <r>    18.1489     0.0000    60.0000 </r>
       <r>    18.2390     0.0000    60.0000 </r>
      </set>
      <set comment="spin 2">
       <r>    -8.7948     0.0000     0.0000 </r>
       <r>    -8.7047     0.0000     0.0000 </r>
       <r>    -8.6146     0.0000     0.0000 </r>
       <r>    -8.5245     0.0000     0.0000 </r>
       <r>    -8.4344    -0.0000    -0.0000 </r>
       <r>    -8.3443    -0.0000    -0.0000 </r>
       <r>    -8.2541    -0.0000    -0.0000 </r>
       <r>    -8.1640    -0.0000    -0.0000 </r>
       <r>    -8.0739    -0.0000    -0.0000 </r>
       <r>    -7.9838    -0.0000    -0.0000 </r>
       <r>    -7.8937    -0.0000    -0.0000 </r>
       <r>    -7.8036    -0.0000    -0.0000 </r>
       <r>    -7.7135    -0.0000    -0.0000 </r>
       <r>    -7.6234    -0.0000    -0.0000 </r>
       <r>    -7.5332    -0.0000    -0.0000 </r>
       <r>    -7.4431    -0.0000    -0.0000 </r>
       <r>    -7.3530    -0.0003    -0.0000 </r>
       <r>    -7.2629    -0.0025    -0.0003 </r>
       <r>    -7.1728    -0.0110    -0.0012 </r>
       <r>    -7.0827    -0.0235    -0.0034 </r>
       <r>    -6.9926     0.0076    -0.0027 </r>
       <r>    -6.9025     0.1629     0.0120 </r>
       <r>    -6.8123     0.3814     0.0464 </r>
       <r>    -6.7222     0.4213     0.0843 </r>
       <r>    -6.6321     0.2511     0.1070 </r>
       <r>    -6.5420     0.1785     0.1230 </r>
       <r>    -6.4519     0.3306     0.1528 </r>
       <r>    -6.3618     0.4221     0.1909 </r>
       <r>    -6.2717     0.2706     0.2153 </r>
       <r>    -6.1816     0.1240     0.2264 </r>
       <r>    -6.0914     0.2291     0.2471 </r>
       <r>    -6.0013     0.4161     0.2846 </r>
       <r>    -5.9112     0.3737     0.3183 </r>
       <r>    -5.8211     0.1510     0.3319 </r>
       <r>    -5.7310     0.0662     0.3378 </r>
       <r>    -5.6409     0.2386     0.3593 </r>
       <r>    -5.5508     0.4342     0.3985 </r>
       <r>    -5.4607     0.3829     0.4330 </r>
       <r>    -5.3705     0.1585     0.4472 </r>
       <r>    -5.2804     0.0051     0.4477 </r>
       <r>    -5.1903    -0.0268     0.4453 </r>
       <r>    -5.1002    -0.0243     0.4431 </r>
       <r>    -5.0101    -0.0258     0.4408 </r>
       <r>    -4.9200     0.0263     0.4431 </r>
       <r>    -4.8299     0.2088     0.4619 </r>
       <r>    -4.7398     0.4210     0.4999 </r>
       <r>    -4.6496     0.4217     0.5379 </r>
       <r>    -4.5595     0.2096     0.5568 </r>
       <r>    -4.4694     0.0225     0.5588 </r>
       <r>    -4.3793    -0.0524     0.5541 </r>
       <r>    -4.2892    -0.1149     0.5437 </r>
       <r>    -4.1991    -0.1430     0.5309 </r>
       <r>    -4.1090     0.2590     0.5542 </r>
       <r>    -4.0188     1.4186     0.6820 </r>
       <r>    -3.9287     2.6444     0.9203 </r>
       <r>    -3.8386     3.0377     1.1941 </r>
       <r>    -3.7485     3.0151     1.4657 </r>
       <r>    -3.6584     2.9399     1.7307 </r>
       <r>    -3.5683     2.4933     1.9554 </r>
       <r>    -3.4782     2.3013     2.1627 </r>
       <r>    -3.3881     2.5637     2.3938 </r>
       <r>    -3.2979     2.0472     2.5782 </r>
       <r>    -3.2078     0.9047     2.6598 </r>
       <r>    -3.1177     0.9311     2.7437 </r>
       <r>    -3.0276     2.3339     2.9540 </r>
       <r>    -2.9375     3.0242     3.2265 </r>
       <r>    -2.8474     1.8578     3.3939 </r>
       <r>    -2.7573     0.5478     3.4433 </r>
       <r>    -2.6672     1.1533     3.5472 </r>
       <r>    -2.5770     3.2181     3.8372 </r>
       <r>    -2.4869     4.1776     4.2136 </r>
       <r>    -2.3968     2.9366     4.4783 </r>
       <r>    -2.3067     1.6078     4.6231 </r>
       <r>    -2.2166     1.8831     4.7928 </r>
       <r>    -2.1265     2.3927     5.0084 </r>
       <r>    -2.0364     1.8047     5.1711 </r>
       <r>    -1.9463     1.3065     5.2888 </r>
       <r>    -1.8561     1.9486     5.4644 </r>
       <r>    -1.7660     3.3604     5.7672 </r>
       <r>    -1.6759     6.0186     6.3096 </r>
       <r>    -1.5858    10.3818     7.2451 </r>
       <r>    -1.4957    14.3071     8.5343 </r>
       <r>    -1.4056    14.6650     9.8558 </r>
       <r>    -1.3155    11.3216    10.8761 </r>
       <r>    -1.2254     7.7088    11.5707 </r>
       <r>    -1.1352     6.1753    12.1272 </r>
       <r>    -1.0451     5.7158    12.6423 </r>
       <r>    -0.9550     5.0725    13.0994 </r>
       <r>    -0.8649     4.9352    13.5441 </r>
       <r>    -0.7748     6.7227    14.1499 </r>
       <r>    -0.6847     9.9115    15.0430 </r>
       <r>    -0.5946    12.6852    16.1861 </r>
       <r>    -0.5044    15.1397    17.5504 </r>
       <r>    -0.4143    17.3795    19.1165 </r>
       <r>    -0.3242    17.1194    20.6592 </r>
       <r>    -0.2341    13.6825    21.8922 </r>
       <r>    -0.1440     9.9663    22.7903 </r>
       <r>    -0.0539     8.3681    23.5443 </r>
       <r>     0.0362     8.7726    24.3349 </r>
       <r>     0.1263    10.2956    25.2626 </r>
       <r>     0.2165    12.3824    26.3784 </r>
       <r>     0.3066    14.4644    27.6819 </r>
       <r>     0.3967    15.4031    29.0699 </r>
       <r>     0.4868    15.5010    30.4667 </r>
       <r>     0.5769    17.0007    31.9987 </r>
       <r>     0.6670    20.1502    33.8145 </r>
       <r>     0.7571    22.3406    35.8277 </r>
       <r>     0.8472    21.3385    37.7505 </r>
       <r>     0.9374    17.6481    39.3409 </r>
       <r>     1.0275    14.3993    40.6384 </r>
       <r>     1.1176    13.6213    41.8659 </r>
       <r>     1.2077    12.9749    43.0351 </r>
       <r>     1.2978     9.6674    43.9062 </r>
       <r>     1.3879     4.9776    44.3548 </r>
       <r>     1.4780     1.5067    44.4905 </r>
       <r>     1.5681    -0.0695    44.4843 </r>
       <r>     1.6583    -0.4303    44.4455 </r>
       <r>     1.7484    -0.2149    44.4261 </r>
       <r>     1.8385     0.6549    44.4852 </r>
       <r>     1.9286     2.1230    44.6765 </r>
       <r>     2.0187     2.9602    44.9432 </r>
       <r>     2.1088     2.2478    45.1458 </r>
       <r>     2.1989     0.9260    45.2292 </r>
       <r>     2.2890     0.2689    45.2535 </r>
       <r>     2.3792     0.3010    45.2806 </r>
       <r>     2.4693     0.3725    45.3141 </r>
       <r>     2.5594     0.2124    45.3333 </r>
       <r>     2.6495     0.0036    45.3336 </r>
       <r>     2.7396    -0.1317    45.3217 </r>
       <r>     2.8297    -0.1284    45.3102 </r>
       <r>     2.9198     0.4059    45.3468 </r>
       <r>     3.0099     1.6944    45.4994 </r>
       <r>     3.1001     2.7085    45.7435 </r>
       <r>     3.1902     2.2141    45.9430 </r>
       <r>     3.2803     0.8440    46.0191 </r>
       <r>     3.3704    -0.0038    46.0187 </r>
       <r>     3.4605    -0.1365    46.0064 </r>
       <r>     3.5506    -0.0577    46.0012 </r>
       <r>     3.6407    -0.0122    46.0001 </r>
       <r>     3.7309    -0.0016    46.0000 </r>
       <r>     3.8210    -0.0007    45.9999 </r>
       <r>     3.9111    -0.0053    45.9995 </r>
       <r>     4.0012    -0.0320    45.9966 </r>
       <r>     4.0913    -0.1057    45.9871 </r>
       <r>     4.1814    -0.1186    45.9764 </r>
       <r>     4.2715     0.3764    46.0103 </r>
       <r>     4.3616     1.6441    46.1585 </r>
       <r>     4.4518     2.6958    46.4014 </r>
       <r>     4.5419     2.2565    46.6047 </r>
       <r>     4.6320     0.8894    46.6849 </r>
       <r>     4.7221     0.0113    46.6859 </r>
       <r>     4.8122    -0.1381    46.6734 </r>
       <r>     4.9023    -0.0603    46.6680 </r>
       <r>     4.9924    -0.0130    46.6668 </r>
       <r>     5.0825    -0.0017    46.6667 </r>
       <r>     5.1727    -0.0013    46.6666 </r>
       <r>     5.2628    -0.0100    46.6657 </r>
       <r>     5.3529    -0.0521    46.6610 </r>
       <r>     5.4430    -0.1515    46.6473 </r>
       <r>     5.5331    -0.1561    46.6332 </r>
       <r>     5.6232     0.4392    46.6728 </r>
       <r>     5.7133     2.0599    46.8584 </r>
       <r>     5.8034     4.3088    47.2467 </r>
       <r>     5.8936     5.9070    47.7790 </r>
       <r>     5.9837     5.4467    48.2698 </r>
       <r>     6.0738     3.2408    48.5619 </r>
       <r>     6.1639     1.4917    48.6963 </r>
       <r>     6.2540     1.1616    48.8010 </r>
       <r>     6.3441     1.1982    48.9089 </r>
       <r>     6.4342     0.8728    48.9876 </r>
       <r>     6.5243     0.5037    49.0330 </r>
       <r>     6.6145     0.3703    49.0663 </r>
       <r>     6.7046     0.3631    49.0991 </r>
       <r>     6.7947     0.4879    49.1430 </r>
       <r>     6.8848     0.8030    49.2154 </r>
       <r>     6.9749     1.4441    49.3455 </r>
       <r>     7.0650     2.6100    49.5807 </r>
       <r>     7.1551     3.4900    49.8952 </r>
       <r>     7.2452     2.9101    50.1574 </r>
       <r>     7.3354     1.4062    50.2842 </r>
       <r>     7.4255     0.3870    50.3190 </r>
       <r>     7.5156     0.4347    50.3582 </r>
       <r>     7.6057     1.3481    50.4797 </r>
       <r>     7.6958     2.2267    50.6803 </r>
       <r>     7.7859     2.1122    50.8707 </r>
       <r>     7.8760     1.1384    50.9733 </r>
       <r>     7.9662     0.2526    50.9960 </r>
       <r>     8.0563     0.2164    51.0155 </r>
       <r>     8.1464     1.0508    51.1102 </r>
       <r>     8.2365     1.9756    51.2882 </r>
       <r>     8.3266     2.4167    51.5060 </r>
       <r>     8.4167     2.6864    51.7481 </r>
       <r>     8.5068     2.7004    51.9914 </r>
       <r>     8.5969     1.9032    52.1629 </r>
       <r>     8.6871     0.9275    52.2465 </r>
       <r>     8.7772     0.8248    52.3208 </r>
       <r>     8.8673     1.4451    52.4511 </r>
       <r>     8.9574     2.2656    52.6552 </r>
       <r>     9.0475     2.9440    52.9205 </r>
       <r>     9.1376     2.9243    53.1840 </r>
       <r>     9.2277     2.5240    53.4115 </r>
       <r>     9.3178     2.7746    53.6615 </r>
       <r>     9.4080     3.2612    53.9554 </r>
       <r>     9.4981     2.6779    54.1967 </r>
       <r>     9.5882     1.4426    54.3267 </r>
       <r>     9.6783     1.2109    54.4358 </r>
       <r>     9.7684     2.0434    54.6199 </r>
       <r>     9.8585     2.3004    54.8272 </r>
       <r>     9.9486     1.5702    54.9687 </r>
       <r>    10.0387     1.3736    55.0925 </r>
       <r>    10.1289     2.1746    55.2885 </r>
       <r>    10.2190     2.4309    55.5075 </r>
       <r>    10.3091     1.7548    55.6657 </r>
       <r>    10.3992     1.6828    55.8173 </r>
       <r>    10.4893     2.4007    56.0336 </r>
       <r>    10.5794     2.4908    56.2581 </r>
       <r>    10.6695     2.0049    56.4388 </r>
       <r>    10.7596     2.2013    56.6371 </r>
       <r>    10.8498     2.8651    56.8953 </r>
       <r>    10.9399     2.9391    57.1602 </r>
       <r>    11.0300     2.5166    57.3869 </r>
       <r>    11.1201     1.9348    57.5613 </r>
       <r>    11.2102     1.0235    57.6535 </r>
       <r>    11.3003     0.1246    57.6647 </r>
       <r>    11.3904    -0.0900    57.6566 </r>
       <r>    11.4806     0.7013    57.7198 </r>
       <r>    11.5707     2.3271    57.9295 </r>
       <r>    11.6608     3.7751    58.2697 </r>
       <r>    11.7509     3.8198    58.6139 </r>
       <r>    11.8410     2.5807    58.8465 </r>
       <r>    11.9311     1.3150    58.9650 </r>
       <r>    12.0212     0.9002    59.0461 </r>
       <r>    12.1113     1.3803    59.1705 </r>
       <r>    12.2015     2.0987    59.3596 </r>
       <r>    12.2916     2.1041    59.5492 </r>
       <r>    12.3817     1.2186    59.6590 </r>
       <r>    12.4718     0.2849    59.6847 </r>
       <r>    12.5619    -0.0861    59.6769 </r>
       <r>    12.6520    -0.0825    59.6695 </r>
       <r>    12.7421    -0.0265    59.6671 </r>
       <r>    12.8322    -0.0060    59.6666 </r>
       <r>    12.9224    -0.0090    59.6658 </r>
       <r>    13.0125    -0.0300    59.6631 </r>
       <r>    13.1026    -0.0411    59.6594 </r>
       <r>    13.1927     0.0847    59.6670 </r>
       <r>    13.2828     0.4612    59.7085 </r>
       <r>    13.3729     0.8466    59.7848 </r>
       <r>    13.4630     0.8020    59.8571 </r>
       <r>    13.5531     0.3837    59.8917 </r>
       <r>    13.6433     0.0459    59.8958 </r>
       <r>    13.7334    -0.0439    59.8919 </r>
       <r>    13.8235    -0.0254    59.8896 </r>
       <r>    13.9136    -0.0065    59.8890 </r>
       <r>    14.0037    -0.0010    59.8889 </r>
       <r>    14.0938    -0.0001    59.8889 </r>
       <r>    14.1839    -0.0000    59.8889 </r>
       <r>    14.2740    -0.0000    59.8889 </r>
       <r>    14.3642    -0.0000    59.8889 </r>
       <r>    14.4543    -0.0000    59.8889 </r>
       <r>    14.5444    -0.0000    59.8889 </r>
       <r>    14.6345    -0.0000    59.8889 </r>
       <r>    14.7246    -0.0000    59.8889 </r>
       <r>    14.8147    -0.0000    59.8889 </r>
       <r>    14.9048    -0.0000    59.8889 </r>
       <r>    14.9949    -0.0000    59.8889 </r>
       <r>    15.0851    -0.0000    59.8889 </r>
       <r>    15.1752    -0.0000    59.8889 </r>
       <r>    15.2653    -0.0000    59.8889 </r>
       <r>    15.3554    -0.0000    59.8889 </r>
       <r>    15.4455    -0.0000    59.8889 </r>
       <r>    15.5356    -0.0000    59.8889 </r>
       <r>    15.6257    -0.0001    59.8889 </r>
       <r>    15.7159    -0.0008    59.8888 </r>
       <r>    15.8060    -0.0047    59.8884 </r>
       <r>    15.8961    -0.0165    59.8869 </r>
       <r>    15.9862    -0.0214    59.8850 </r>
       <r>    16.0763     0.0515    59.8896 </r>
       <r>    16.1664     0.2559    59.9127 </r>
       <r>    16.2565     0.4435    59.9526 </r>
       <r>    16.3466     0.3903    59.9878 </r>
       <r>    16.4368     0.1647    60.0027 </r>
       <r>    16.5269     0.0078    60.0034 </r>
       <r>    16.6170    -0.0235    60.0012 </r>
       <r>    16.7071    -0.0110    60.0003 </r>
       <r>    16.7972    -0.0025    60.0000 </r>
       <r>    16.8873    -0.0003    60.0000 </r>
       <r>    16.9774    -0.0000    60.0000 </r>
       <r>    17.0675    -0.0000    60.0000 </r>
       <r>    17.1577    -0.0000    60.0000 </r>
       <r>    17.2478    -0.0000    60.0000 </r>
       <r>    17.3379    -0.0000    60.0000 </r>
       <r>    17.4280    -0.0000    60.0000 </r>
       <r>    17.5181    -0.0000    60.0000 </r>
       <r>    17.6082     0.0000    60.0000 </r>
       <r>    17.6983     0.0000    60.0000 </r>
       <r>    17.7884     0.0000    60.0000 </r>
       <r>    17.8786     0.0000    60.0000 </r>
       <r>    17.9687     0.0000    60.0000 </r>
       <r>    18.0588     0.0000    60.0000 </r>
       <r>    18.1489     0.0000    60.0000 </r>
       <r>    18.2390     0.0000    60.0000 </r>
      </set>
     </set>
    </array>
   </total>
  </dos>
 </calculation>
 <structure name="finalpos" >
  <crystal>
   <varray name="basis" >
    <v>       2.56679773       0.00000000       0.00000000 </v>
    <v>       1.28339887       2.22291204       0.00000000 </v>
    <v>       0.00000000       0.00000000      29.67047119 </v>
   </varray>
   <i name="volume">    169.29275369 </i>
   <varray name="rec_basis" >
    <v>       0.38959050      -0.22493018       0.00000000 </v>
    <v>       0.00000000       0.44986035       0.00000000 </v>
    <v>       0.00000000       0.00000000       0.03370354 </v>
   </varray>
  </crystal>
  <varray name="positions" >
   <v>      -0.00042949       0.00085898      -0.00039528 </v>
   <v>       0.33295103       0.33409794       0.06689014 </v>
   <v>       0.66580146       0.66839708       0.13516626 </v>
   <v>      -0.00198483       0.00396966       0.20383491 </v>
   <v>       0.33022025       0.33955951       0.27186708 </v>
   <v>       0.66227457       0.67545085       0.34028472 </v>
   <v>      -0.00578373       0.01156746       0.40816313 </v>
   <v>       0.32836848       0.34326305       0.47519530 </v>
   <v>       0.79628187       0.40743625       0.54767123 </v>
   <v>       0.77364935       0.45270129       0.57302747 </v>
  </varray>
 </structure>
</modeling>
