unknown system                          
           1
     2.566798    0.000000    0.000000
     1.283399    2.222912    0.000000
     0.000000    0.000000   29.670471
   Cu   H 
     8     2
Direct configuration=     1
   0.00000000  0.00000000  0.00000000
   0.33333333  0.33333333  0.07063526
   0.66666667  0.66666667  0.13908594
   0.00000000  0.00000000  0.20816512
   0.33333333  0.33333333  0.27656240
   0.66666667  0.66666667  0.34556034
   0.00000000  0.00000000  0.41400593
   0.33333333  0.33333333  0.48139269
   0.83333333  0.33333333  0.53425930
   0.71468229  0.57063542  0.55203798
Direct configuration=     2
   0.00000279 -0.00000559  0.00076690
   0.33332664  0.33334671  0.06999263
   0.66667310  0.66665379  0.13909196
  -0.00000807  0.00001614  0.20816005
   0.33333696  0.33332609  0.27652356
   0.66666639  0.66666722  0.34552297
   0.00000112 -0.00000224  0.41382324
   0.33246629  0.33506743  0.48004836
   0.83984106  0.32031787  0.53372363
   0.70904267  0.58191467  0.55405167
Direct configuration=     3
   0.00000206 -0.00000413  0.00056676
   0.33332839  0.33334322  0.07016033
   0.66667142  0.66665715  0.13909039
  -0.00000596  0.00001192  0.20816137
   0.33333601  0.33332798  0.27653369
   0.66666646  0.66666708  0.34553272
   0.00000083 -0.00000165  0.41387092
   0.33269256  0.33461489  0.48039918
   0.83814278  0.32371445  0.53386342
   0.71051441  0.57897118  0.55352617
Direct configuration=     4
   0.00000631 -0.00001262  0.00146863
   0.33332619  0.33334763  0.06953244
   0.66668070  0.66663861  0.13902267
  -0.00001198  0.00002397  0.20815809
   0.33333954  0.33332093  0.27648984
   0.66667026  0.66665948  0.34545112
  -0.00003699  0.00007398  0.41342212
   0.33159380  0.33681239  0.47895784
   0.83587108  0.32825785  0.53466530
   0.71391007  0.57217987  0.55453691
Direct configuration=     5
   0.00001316 -0.00002632  0.00292516
   0.33332263  0.33335474  0.06851838
   0.66669567  0.66660866  0.13891331
  -0.00002171  0.00004342  0.20815280
   0.33334523  0.33330954  0.27641901
   0.66667640  0.66664721  0.34531932
  -0.00009806  0.00019612  0.41269731
   0.32981930  0.34036141  0.47663003
   0.83220222  0.33559556  0.53596036
   0.71939413  0.56121173  0.55616927
Direct configuration=     6
   0.00000765 -0.00001529  0.00296808
   0.33332871  0.33334258  0.06926493
   0.66668613  0.66662773  0.13848003
  -0.00002042  0.00004084  0.20804951
   0.33333150  0.33333699  0.27632498
   0.66667790  0.66664421  0.34487770
  -0.00045945  0.00091890  0.41129281
   0.32890544  0.34218912  0.47618610
   0.82755502  0.34488996  0.53717635
   0.72533648  0.54932705  0.55708448
Direct configuration=     7
   0.00000682 -0.00001363  0.00297454
   0.33332963  0.33334075  0.06937726
   0.66668470  0.66663060  0.13841483
  -0.00002023  0.00004045  0.20803396
   0.33332944  0.33334112  0.27631083
   0.66667812  0.66664376  0.34481125
  -0.00051383  0.00102766  0.41108148
   0.32876793  0.34246414  0.47611930
   0.82685576  0.34628848  0.53735931
   0.72623062  0.54753876  0.55722219
Direct configuration=     8
   0.00000360 -0.00000719  0.00292639
   0.33333351  0.33333298  0.06984827
   0.66667917  0.66664165  0.13823959
  -0.00001744  0.00003489  0.20793621
   0.33332045  0.33335909  0.27621134
   0.66666962  0.66666075  0.34444128
  -0.00076004  0.00152007  0.41039084
   0.32835137  0.34329726  0.47594697
   0.82648387  0.34703226  0.53760482
   0.72728484  0.54543032  0.55815926
Direct configuration=     9
  -0.00000170  0.00000339  0.00284723
   0.33333990  0.33332020  0.07062264
   0.66667009  0.66665982  0.13795149
  -0.00001287  0.00002574  0.20777549
   0.33330568  0.33338864  0.27604776
   0.66665565  0.66668870  0.34383302
  -0.00116481  0.00232963  0.40925539
   0.32766651  0.34466697  0.47566364
   0.82587246  0.34825508  0.53800844
   0.72901804  0.54196392  0.55969985
Direct configuration=    10
  -0.00000954  0.00001909  0.00288594
   0.33333771  0.33332458  0.07070654
   0.66666168  0.66667664  0.13807619
  -0.00001494  0.00002988  0.20764338
   0.33329343  0.33341314  0.27584208
   0.66661671  0.66676658  0.34338385
  -0.00138407  0.00276813  0.40913277
   0.32746494  0.34507013  0.47550314
   0.82496723  0.35006554  0.53830568
   0.73041582  0.53916836  0.56022538
Direct configuration=    11
  -0.00003309  0.00006618  0.00300207
   0.33333114  0.33333773  0.07095826
   0.66663645  0.66672710  0.13845028
  -0.00002116  0.00004232  0.20724707
   0.33325668  0.33348665  0.27522502
   0.66649988  0.66700023  0.34203634
  -0.00204182  0.00408365  0.40876493
   0.32686020  0.34627959  0.47502163
   0.82225153  0.35549694  0.53919740
   0.73460916  0.53078168  0.56180197
Direct configuration=    12
  -0.00008018  0.00016036  0.00323432
   0.33331799  0.33336402  0.07146170
   0.66658598  0.66682804  0.13919846
  -0.00003360  0.00006720  0.20645444
   0.33318317  0.33363367  0.27399091
   0.66626623  0.66746754  0.33934131
  -0.00335734  0.00671468  0.40802925
   0.32565074  0.34869852  0.47405861
   0.81682013  0.36635974  0.54098083
   0.74299584  0.51400832  0.56495514
Direct configuration=    13
  -0.00005530  0.00011059  0.00311160
   0.33332494  0.33335013  0.07119568
   0.66661265  0.66677470  0.13880312
  -0.00002703  0.00005405  0.20687326
   0.33322201  0.33355598  0.27464302
   0.66638969  0.66722061  0.34076536
  -0.00266222  0.00532444  0.40841798
   0.32628982  0.34742036  0.47456747
   0.81969009  0.36061983  0.54003846
   0.73856431  0.52287139  0.56328900
Direct configuration=    14
  -0.00006915  0.00013829  0.00337252
   0.33332229  0.33335541  0.07103036
   0.66659637  0.66680726  0.13901877
  -0.00002787  0.00005574  0.20668640
   0.33318680  0.33362639  0.27373613
   0.66622610  0.66754781  0.34049343
  -0.00319917  0.00639834  0.40804738
   0.32606124  0.34787752  0.47437157
   0.81626472  0.36747057  0.54107265
   0.74298762  0.51402476  0.56387577
Direct configuration=    15
  -0.00006814  0.00013628  0.00335359
   0.33332249  0.33335503  0.07104235
   0.66659755  0.66680490  0.13900312
  -0.00002781  0.00005561  0.20669995
   0.33318936  0.33362129  0.27380192
   0.66623796  0.66752407  0.34051316
  -0.00316022  0.00632043  0.40807426
   0.32607782  0.34784435  0.47438578
   0.81651322  0.36697357  0.54099762
   0.74266673  0.51466655  0.56383320
Direct configuration=    16
  -0.00007430  0.00014860  0.00364349
   0.33332490  0.33335019  0.07079480
   0.66659215  0.66681570  0.13898896
  -0.00002649  0.00005298  0.20655516
   0.33314542  0.33370917  0.27296702
   0.66601293  0.66797415  0.34064480
  -0.00365898  0.00731797  0.40771478
   0.32603145  0.34793710  0.47428264
   0.81545882  0.36908236  0.54132239
   0.74454307  0.51091386  0.56479091
Direct configuration=    17
  -0.00007427  0.00014855  0.00364232
   0.33332489  0.33335021  0.07079580
   0.66659217  0.66681566  0.13898902
  -0.00002650  0.00005299  0.20655574
   0.33314559  0.33370881  0.27297039
   0.66601383  0.66797233  0.34064427
  -0.00365697  0.00731394  0.40771623
   0.32603164  0.34793673  0.47428306
   0.81546307  0.36907386  0.54132108
   0.74453551  0.51092899  0.56478705
Direct configuration=    18
  -0.00007430  0.00014860  0.00364346
   0.33332490  0.33335020  0.07079483
   0.66659215  0.66681570  0.13898896
  -0.00002649  0.00005298  0.20655517
   0.33314542  0.33370916  0.27296711
   0.66601295  0.66797410  0.34064478
  -0.00365893  0.00731786  0.40771482
   0.32603145  0.34793709  0.47428265
   0.81545893  0.36908214  0.54132236
   0.74454287  0.51091426  0.56479081
Direct configuration=    19
  -0.00007429  0.00014857  0.00364289
   0.33332490  0.33335020  0.07079532
   0.66659216  0.66681568  0.13898899
  -0.00002649  0.00005299  0.20655546
   0.33314551  0.33370898  0.27296875
   0.66601339  0.66797322  0.34064453
  -0.00365795  0.00731590  0.40771553
   0.32603154  0.34793691  0.47428285
   0.81546100  0.36907800  0.54132172
   0.74453919  0.51092162  0.56478893
Direct configuration=    20
  -0.00007359  0.00014718  0.00369306
   0.33332320  0.33335359  0.07076807
   0.66659357  0.66681286  0.13873715
  -0.00002922  0.00005843  0.20635990
   0.33310669  0.33378662  0.27293275
   0.66582533  0.66834933  0.34064789
  -0.00386271  0.00772543  0.40768269
   0.32610835  0.34778330  0.47425853
   0.81484903  0.37030195  0.54151426
   0.74550831  0.50898338  0.56511066
Direct configuration=    21
  -0.00007150  0.00014300  0.00384357
   0.33331812  0.33336377  0.07068632
   0.66659779  0.66680442  0.13798163
  -0.00003738  0.00007476  0.20577323
   0.33299023  0.33401954  0.27282477
   0.66526116  0.66947767  0.34065800
  -0.00447701  0.00895401  0.40758417
   0.32633877  0.34732246  0.47418556
   0.81301311  0.37397378  0.54209189
   0.74841567  0.50316866  0.56607583
Direct configuration=    22
  -0.00008641  0.00017282  0.00371863
   0.33330401  0.33339198  0.07052873
   0.66658714  0.66682573  0.13780596
  -0.00008034  0.00016069  0.20557024
   0.33287800  0.33424400  0.27283561
   0.66499094  0.67001811  0.34049202
  -0.00460751  0.00921502  0.40769157
   0.32642247  0.34715506  0.47419511
   0.81151107  0.37697787  0.54258635
   0.75042959  0.49914081  0.56628075
Direct configuration=    23
  -0.00008189  0.00016377  0.00375655
   0.33330829  0.33338341  0.07057656
   0.66659037  0.66681926  0.13785928
  -0.00006730  0.00013461  0.20563185
   0.33291206  0.33417588  0.27283232
   0.66507296  0.66985408  0.34054240
  -0.00456790  0.00913580  0.40765897
   0.32639707  0.34720587  0.47419221
   0.81196696  0.37606608  0.54243627
   0.74981833  0.50036333  0.56621855
Direct configuration=    24
  -0.00008375  0.00016749  0.00374095
   0.33330653  0.33338694  0.07055688
   0.66658904  0.66682192  0.13783735
  -0.00007267  0.00014534  0.20560651
   0.33289805  0.33420390  0.27283367
   0.66503922  0.66992155  0.34052168
  -0.00458419  0.00916838  0.40767238
   0.32640752  0.34718497  0.47419340
   0.81177944  0.37644113  0.54249801
   0.75006977  0.49986046  0.56624414
Direct configuration=    25
  -0.00008313  0.00016626  0.00374612
   0.33330712  0.33338577  0.07056340
   0.66658948  0.66682104  0.13784461
  -0.00007089  0.00014178  0.20561491
   0.33290269  0.33419461  0.27283322
   0.66505040  0.66989919  0.34052854
  -0.00457879  0.00915758  0.40766793
   0.32640405  0.34719189  0.47419301
   0.81184158  0.37631684  0.54247755
   0.74998644  0.50002711  0.56623566
Direct configuration=    26
  -0.00008361  0.00016722  0.00374210
   0.33330666  0.33338668  0.07055833
   0.66658914  0.66682172  0.13783896
  -0.00007227  0.00014455  0.20560838
   0.33289908  0.33420183  0.27283357
   0.66504171  0.66991657  0.34052320
  -0.00458299  0.00916598  0.40767139
   0.32640675  0.34718651  0.47419332
   0.81179327  0.37641346  0.54249345
   0.75005122  0.49989756  0.56624225
Direct configuration=    27
  -0.00008337  0.00016674  0.00374411
   0.33330689  0.33338622  0.07056087
   0.66658931  0.66682138  0.13784179
  -0.00007158  0.00014316  0.20561164
   0.33290089  0.33419822  0.27283340
   0.66504606  0.66990788  0.34052587
  -0.00458089  0.00916178  0.40766966
   0.32640540  0.34718920  0.47419316
   0.81181743  0.37636515  0.54248550
   0.75001883  0.49996234  0.56623896
Direct configuration=    28
  -0.00008868  0.00017735  0.00361999
   0.33330180  0.33339639  0.07043674
   0.66658666  0.66682668  0.13775753
  -0.00009809  0.00019617  0.20551165
   0.33281744  0.33436511  0.27283209
   0.66485991  0.67028018  0.34042743
  -0.00466132  0.00932263  0.40774907
   0.32648209  0.34703583  0.47422010
   0.81126104  0.37747791  0.54266301
   0.75088809  0.49822383  0.56648737
Direct configuration=    29
  -0.00009485  0.00018971  0.00347546
   0.33329588  0.33340823  0.07029220
   0.66658358  0.66683284  0.13765943
  -0.00012895  0.00025789  0.20539522
   0.33272028  0.33455943  0.27283057
   0.66464317  0.67071365  0.34031280
  -0.00475496  0.00950992  0.40784152
   0.32657138  0.34685724  0.47425146
   0.81061322  0.37877355  0.54286969
   0.75190020  0.49619960  0.56677661
Direct configuration=    30
  -0.00010721  0.00021442  0.00318642
   0.33328404  0.33343191  0.07000314
   0.66657742  0.66684517  0.13746322
  -0.00019067  0.00038133  0.20516236
   0.33252596  0.33494807  0.27282753
   0.66420969  0.67158061  0.34008354
  -0.00494225  0.00988450  0.40802644
   0.32674996  0.34650007  0.47431418
   0.80931758  0.38136484  0.54328304
   0.75392442  0.49215116  0.56735510
Direct configuration=    31
  -0.00011347  0.00022693  0.00299467
   0.33328119  0.33343762  0.06984333
   0.66657336  0.66685328  0.13735542
  -0.00022995  0.00045990  0.20510529
   0.33240487  0.33519026  0.27272494
   0.66399461  0.67201077  0.34008102
  -0.00504642  0.01009285  0.40802432
   0.32685808  0.34628384  0.47439740
   0.80887485  0.38225031  0.54339891
   0.75475184  0.49049632  0.56777966
Direct configuration=    32
  -0.00011882  0.00023765  0.00283052
   0.33327874  0.33344251  0.06970653
   0.66656989  0.66686023  0.13726313
  -0.00026358  0.00052716  0.20505644
   0.33230121  0.33539758  0.27263711
   0.66381049  0.67237903  0.34007885
  -0.00513561  0.01027121  0.40802250
   0.32695064  0.34609873  0.47446864
   0.80849583  0.38300834  0.54349810
   0.75546018  0.48907965  0.56814312
Direct configuration=    33
  -0.00012070  0.00024140  0.00277306
   0.33327789  0.33344423  0.06965864
   0.66656867  0.66686266  0.13723083
  -0.00027535  0.00055071  0.20503934
   0.33226492  0.33547016  0.27260636
   0.66374603  0.67250794  0.34007809
  -0.00516683  0.01033365  0.40802187
   0.32698304  0.34603393  0.47449358
   0.80836315  0.38327369  0.54353283
   0.75570814  0.48858373  0.56827035
Direct configuration=    34
  -0.00013576  0.00027152  0.00253681
   0.33326733  0.33346533  0.06947379
   0.66655147  0.66689705  0.13710343
  -0.00033285  0.00066570  0.20501559
   0.33211574  0.33576852  0.27243767
   0.66356563  0.67286874  0.34016472
  -0.00525962  0.01051923  0.40795347
   0.32707766  0.34584469  0.47460901
   0.80752435  0.38495129  0.54381823
   0.75697500  0.48605000  0.56859224
Direct configuration=    35
  -0.00017158  0.00034315  0.00197509
   0.33324224  0.33351551  0.06903426
   0.66651059  0.66697882  0.13680052
  -0.00046955  0.00093911  0.20495912
   0.33176103  0.33647795  0.27203658
   0.66313669  0.67372663  0.34037068
  -0.00548024  0.01096048  0.40779085
   0.32730263  0.34539474  0.47488345
   0.80552996  0.38894008  0.54449683
   0.75998720  0.48002561  0.56935757
Direct configuration=    36
  -0.00017691  0.00035382  0.00189142
   0.33323851  0.33352299  0.06896879
   0.66650450  0.66699100  0.13675540
  -0.00048992  0.00097984  0.20495070
   0.33170819  0.33658363  0.27197683
   0.66307279  0.67385442  0.34040136
  -0.00551311  0.01102621  0.40776663
   0.32733614  0.34532771  0.47492433
   0.80523287  0.38953427  0.54459792
   0.76043590  0.47912820  0.56947158
Direct configuration=    37
  -0.00019000  0.00038000  0.00172812
   0.33322728  0.33354544  0.06884538
   0.66648107  0.66703786  0.13668462
  -0.00055486  0.00110973  0.20484358
   0.33160431  0.33679137  0.27200500
   0.66298083  0.67403833  0.34034694
  -0.00555590  0.01111180  0.40781711
   0.32740133  0.34519734  0.47494027
   0.80448594  0.39102812  0.54488374
   0.76146896  0.47706209  0.56961021
Direct configuration=    38
  -0.00019649  0.00039299  0.00164708
   0.33322171  0.33355659  0.06878414
   0.66646944  0.66706112  0.13664949
  -0.00058709  0.00117418  0.20479043
   0.33155277  0.33689447  0.27201898
   0.66293520  0.67412960  0.34031993
  -0.00557714  0.01115427  0.40784216
   0.32743368  0.34513265  0.47494817
   0.80411528  0.39176943  0.54502558
   0.76198160  0.47603680  0.56967900
Direct configuration=    39
  -0.00020952  0.00041904  0.00150968
   0.33320976  0.33358047  0.06868375
   0.66644242  0.66711516  0.13658732
  -0.00065526  0.00131052  0.20467917
   0.33147207  0.33705587  0.27208538
   0.66287885  0.67424229  0.34025060
  -0.00560328  0.01120657  0.40791379
   0.32748510  0.34502980  0.47493206
   0.80369101  0.39261799  0.54515102
   0.76263781  0.47472439  0.56991220
Direct configuration=    40
  -0.00022230  0.00044460  0.00137484
   0.33319804  0.33360392  0.06858523
   0.66641590  0.66716819  0.13652631
  -0.00072216  0.00144431  0.20456998
   0.33139287  0.33721426  0.27215055
   0.66282355  0.67435289  0.34018256
  -0.00562894  0.01125789  0.40798408
   0.32753557  0.34492886  0.47491624
   0.80327463  0.39345075  0.54527412
   0.76328180  0.47343641  0.57014105
Direct configuration=    41
  -0.00024787  0.00049573  0.00110516
   0.33317460  0.33365081  0.06838818
   0.66636287  0.66727427  0.13640428
  -0.00085595  0.00171190  0.20435161
   0.33123447  0.33753105  0.27228088
   0.66271295  0.67457409  0.34004648
  -0.00568026  0.01136053  0.40812467
   0.32763651  0.34472699  0.47488461
   0.80244186  0.39511627  0.54552032
   0.76456978  0.47086044  0.57059877
Direct configuration=    42
  -0.00023449  0.00046898  0.00124627
   0.33318686  0.33362627  0.06849129
   0.66639062  0.66721876  0.13646813
  -0.00078594  0.00157188  0.20446588
   0.33131736  0.33736529  0.27221268
   0.66277083  0.67445835  0.34011768
  -0.00565341  0.01130682  0.40805111
   0.32758369  0.34483262  0.47490116
   0.80287761  0.39424478  0.54539150
   0.76389583  0.47220834  0.57035926
Direct configuration=    43
  -0.00023950  0.00047899  0.00119346
   0.33318227  0.33363545  0.06845269
   0.66638023  0.66723954  0.13644424
  -0.00081214  0.00162429  0.20442311
   0.33128633  0.33742733  0.27223821
   0.66274917  0.67450167  0.34009103
  -0.00566346  0.01132692  0.40807864
   0.32760346  0.34479308  0.47489496
   0.80271452  0.39457097  0.54543971
   0.76414808  0.47170383  0.57044891
Direct configuration=    44
  -0.00023632  0.00047264  0.00122695
   0.33318519  0.33362963  0.06847717
   0.66638682  0.66722636  0.13645939
  -0.00079553  0.00159105  0.20445023
   0.33130601  0.33738798  0.27222202
   0.66276290  0.67447419  0.34010794
  -0.00565709  0.01131417  0.40806118
   0.32759092  0.34481816  0.47489889
   0.80281796  0.39436409  0.54540913
   0.76398810  0.47202381  0.57039205
Direct configuration=    45
  -0.00023870  0.00047739  0.00120188
   0.33318301  0.33363399  0.06845885
   0.66638189  0.66723622  0.13644805
  -0.00080796  0.00161593  0.20442993
   0.33129129  0.33741743  0.27223414
   0.66275262  0.67449475  0.34009528
  -0.00566186  0.01132371  0.40807425
   0.32760030  0.34479939  0.47489595
   0.80274054  0.39451891  0.54543202
   0.76410783  0.47178434  0.57043460
Direct configuration=    46
  -0.00023719  0.00047438  0.00121776
   0.33318439  0.33363123  0.06847046
   0.66638501  0.66722998  0.13645523
  -0.00080009  0.00160017  0.20444279
   0.33130061  0.33739878  0.27222646
   0.66275913  0.67448173  0.34010330
  -0.00565884  0.01131767  0.40806597
   0.32759436  0.34481128  0.47489781
   0.80278958  0.39442085  0.54541752
   0.76403199  0.47193602  0.57040765
Direct configuration=    47
  -0.00024848  0.00049696  0.00109759
   0.33317268  0.33365465  0.06836954
   0.66634982  0.66730035  0.13635022
  -0.00087953  0.00175907  0.20440845
   0.33121650  0.33756701  0.27221211
   0.66272451  0.67455098  0.34012094
  -0.00567490  0.01134980  0.40808212
   0.32765128  0.34469743  0.47490601
   0.80236769  0.39526463  0.54555575
   0.76466940  0.47066121  0.57060224
Direct configuration=    48
  -0.00028234  0.00056468  0.00073707
   0.33313755  0.33372490  0.06806679
   0.66624427  0.66751147  0.13603517
  -0.00111788  0.00223576  0.20430541
   0.33096415  0.33807170  0.27216906
   0.66262063  0.67475874  0.34017386
  -0.00572309  0.01144619  0.40813056
   0.32782206  0.34435589  0.47493060
   0.80110201  0.39779598  0.54597043
   0.76658161  0.46683677  0.57118601
Direct configuration=    49
  -0.00035006  0.00070013  0.00001602
   0.33306730  0.33386540  0.06746129
   0.66603315  0.66793371  0.13540508
  -0.00159458  0.00318916  0.20409935
   0.33045945  0.33908109  0.27208297
   0.66241288  0.67517424  0.34027969
  -0.00581948  0.01163896  0.40822745
   0.32816360  0.34367280  0.47497977
   0.79857065  0.40285869  0.54679980
   0.77040605  0.45918790  0.57235355
Direct configuration=    50
  -0.00035643  0.00071285 -0.00004355
   0.33305971  0.33388058  0.06740366
   0.66601279  0.66797441  0.13535538
  -0.00163715  0.00327430  0.20408070
   0.33041813  0.33916374  0.27206985
   0.66239577  0.67520847  0.34029021
  -0.00582531  0.01165062  0.40822999
   0.32819170  0.34361660  0.47498981
   0.79832148  0.40335703  0.54689522
   0.77076826  0.45846348  0.57243369
Direct configuration=    51
  -0.00037552  0.00075104 -0.00022225
   0.33303693  0.33392613  0.06723074
   0.66595174  0.66809652  0.13520627
  -0.00176486  0.00352972  0.20402477
   0.33029417  0.33941167  0.27203048
   0.66234444  0.67531113  0.34032175
  -0.00584281  0.01168561  0.40823761
   0.32827600  0.34344801  0.47501995
   0.79757397  0.40485206  0.54718151
   0.77185490  0.45629020  0.57267413
Direct configuration=    52
  -0.00041370  0.00082741 -0.00057964
   0.33299138  0.33401723  0.06688492
   0.66582963  0.66834074  0.13490804
  -0.00202028  0.00404056  0.20391290
   0.33004624  0.33990753  0.27195174
   0.66224177  0.67551645  0.34038484
  -0.00587779  0.01175558  0.40825285
   0.32844459  0.34311082  0.47508023
   0.79607895  0.40784211  0.54775408
   0.77402818  0.45194365  0.57315500
Direct configuration=    53
  -0.00041506  0.00083012 -0.00055804
   0.33298774  0.33402451  0.06688452
   0.66582776  0.66834448  0.13493885
  -0.00201498  0.00402996  0.20390389
   0.33006494  0.33987013  0.27194489
   0.66224556  0.67550888  0.34037451
  -0.00586873  0.01173746  0.40824282
   0.32843531  0.34312939  0.47509126
   0.79610391  0.40779218  0.54774622
   0.77398251  0.45203498  0.57313604
Direct configuration=    54
  -0.00041758  0.00083516 -0.00051788
   0.33298097  0.33403805  0.06688377
   0.66582429  0.66835143  0.13499614
  -0.00200513  0.00401026  0.20388714
   0.33009972  0.33980056  0.27193217
   0.66225260  0.67549480  0.34035532
  -0.00585188  0.01170376  0.40822417
   0.32841804  0.34316392  0.47511178
   0.79615034  0.40769932  0.54773159
   0.77389759  0.45220483  0.57310077
Direct configuration=    55
  -0.00042262  0.00084524 -0.00043756
   0.33296744  0.33406513  0.06688226
   0.66581734  0.66836533  0.13511073
  -0.00198543  0.00397085  0.20385363
   0.33016928  0.33966143  0.27190672
   0.66226668  0.67546663  0.34031692
  -0.00581817  0.01163634  0.40818687
   0.32838351  0.34323299  0.47515282
   0.79624320  0.40751359  0.54770234
   0.77372773  0.45254454  0.57303023
Direct configuration=    56
  -0.00042461  0.00084921 -0.00040592
   0.33296210  0.33407579  0.06688167
   0.66581460  0.66837080  0.13515586
  -0.00197767  0.00395533  0.20384043
   0.33019668  0.33960663  0.27189669
   0.66227223  0.67545554  0.34030180
  -0.00580490  0.01160979  0.40817218
   0.32836990  0.34326020  0.47516898
   0.79627978  0.40744044  0.54769082
   0.77366083  0.45267834  0.57300245
Direct configuration=    57
  -0.00042360  0.00084720 -0.00042195
   0.33296481  0.33407039  0.06688197
   0.66581598  0.66836803  0.13513299
  -0.00198160  0.00396319  0.20384712
   0.33018280  0.33963440  0.27190177
   0.66226942  0.67546116  0.34030946
  -0.00581162  0.01162325  0.40817963
   0.32837679  0.34324641  0.47516079
   0.79626125  0.40747750  0.54769665
   0.77369473  0.45261055  0.57301652
Direct configuration=    58
  -0.00042442  0.00084884 -0.00040890
   0.33296261  0.33407479  0.06688173
   0.66581486  0.66837029  0.13515161
  -0.00197840  0.00395679  0.20384168
   0.33019410  0.33961180  0.27189763
   0.66227171  0.67545658  0.34030322
  -0.00580615  0.01161229  0.40817357
   0.32837118  0.34325763  0.47516746
   0.79627633  0.40744733  0.54769190
   0.77366713  0.45266573  0.57300507
Direct configuration=    59
  -0.00042401  0.00084802 -0.00041542
   0.33296371  0.33407259  0.06688185
   0.66581542  0.66836916  0.13514230
  -0.00198000  0.00395999  0.20384440
   0.33018845  0.33962310  0.27189970
   0.66227056  0.67545887  0.34030634
  -0.00580888  0.01161777  0.40817660
   0.32837399  0.34325202  0.47516412
   0.79626879  0.40746242  0.54769428
   0.77368093  0.45263814  0.57301080
Direct configuration=    60
  -0.00042439  0.00084878 -0.00040936
   0.33296269  0.33407463  0.06688173
   0.66581490  0.66837021  0.13515095
  -0.00197851  0.00395702  0.20384187
   0.33019370  0.33961260  0.27189778
   0.66227163  0.67545675  0.34030344
  -0.00580634  0.01161268  0.40817378
   0.32837138  0.34325723  0.47516722
   0.79627580  0.40744840  0.54769207
   0.77366811  0.45266378  0.57300547
Direct configuration=    61
  -0.00042420  0.00084840 -0.00041239
   0.33296320  0.33407361  0.06688179
   0.66581516  0.66836968  0.13514662
  -0.00197925  0.00395851  0.20384313
   0.33019108  0.33961785  0.27189874
   0.66227110  0.67545781  0.34030489
  -0.00580761  0.01161523  0.40817519
   0.32837269  0.34325463  0.47516567
   0.79627229  0.40745541  0.54769317
   0.77367452  0.45265096  0.57300813
Direct configuration=    62
  -0.00042429  0.00084859 -0.00041090
   0.33296294  0.33407411  0.06688176
   0.66581503  0.66836994  0.13514876
  -0.00197889  0.00395777  0.20384251
   0.33019237  0.33961526  0.27189827
   0.66227136  0.67545729  0.34030418
  -0.00580699  0.01161397  0.40817450
   0.32837204  0.34325591  0.47516644
   0.79627402  0.40745195  0.54769263
   0.77367136  0.45265728  0.57300682
Direct configuration=    63
  -0.00042949  0.00085898 -0.00039528
   0.33295103  0.33409794  0.06689014
   0.66580146  0.66839708  0.13516626
  -0.00198483  0.00396966  0.20383491
   0.33022025  0.33955951  0.27186708
   0.66227457  0.67545085  0.34028472
  -0.00578373  0.01156746  0.40816313
   0.32836848  0.34326305  0.47519530
   0.79628187  0.40743625  0.54767123
   0.77364935  0.45270129  0.57302747
