  20  20   0   0
  0.2668373E+02  0.5133596E-09  0.5133596E-09  0.2338313E-08  0.5000000E-15
  1.000000000000000E-004
  CAR 
 unknown system                          
     11.94979419    -10.28403761  301      0.89481560      1.00000000
    -10.284  0.0000E+00  0.0000E+00  0.0000E+00  0.0000E+00
    -10.210  0.0000E+00  0.0000E+00  0.0000E+00  0.0000E+00
    -10.136  0.0000E+00  0.0000E+00  0.0000E+00  0.0000E+00
    -10.062  0.0000E+00  0.0000E+00  0.0000E+00  0.0000E+00
     -9.988  0.0000E+00  0.0000E+00  0.0000E+00  0.0000E+00
     -9.913 -0.6414E-31 -0.6415E-31 -0.4754E-32 -0.4754E-32
     -9.839 -0.2230E-28 -0.2231E-28 -0.1658E-29 -0.1658E-29
     -9.765 -0.5890E-26 -0.5891E-26 -0.4382E-27 -0.4383E-27
     -9.691 -0.1179E-23 -0.1179E-23 -0.8781E-25 -0.8782E-25
     -9.617 -0.1787E-21 -0.1787E-21 -0.1333E-22 -0.1333E-22
     -9.543 -0.2051E-19 -0.2051E-19 -0.1533E-20 -0.1534E-20
     -9.469 -0.1781E-17 -0.1781E-17 -0.1335E-18 -0.1336E-18
     -9.395 -0.1132E-15 -0.1132E-15 -0.8525E-17 -0.8526E-17
     -9.321 -0.5591E-14 -0.5591E-14 -0.4229E-15 -0.4229E-15
     -9.246 -0.2081E-12 -0.2081E-12 -0.1585E-13 -0.1585E-13
     -9.172 -0.5828E-11 -0.5828E-11 -0.4478E-12 -0.4478E-12
     -9.098 -0.1225E-09 -0.1225E-09 -0.9527E-11 -0.9528E-11
     -9.024 -0.1926E-08 -0.1926E-08 -0.1523E-09 -0.1523E-09
     -8.950 -0.2254E-07 -0.2254E-07 -0.1823E-08 -0.1823E-08
     -8.876 -0.1948E-06 -0.1948E-06 -0.1626E-07 -0.1626E-07
     -8.802 -0.1227E-05 -0.1227E-05 -0.1072E-06 -0.1072E-06
     -8.728 -0.5511E-05 -0.5511E-05 -0.5156E-06 -0.5156E-06
     -8.654 -0.1679E-04 -0.1679E-04 -0.1760E-05 -0.1760E-05
     -8.579 -0.2997E-04 -0.2997E-04 -0.3981E-05 -0.3981E-05
     -8.505 -0.8018E-05 -0.8016E-05 -0.4575E-05 -0.4575E-05
     -8.431  0.1146E-03  0.1146E-03  0.3918E-05  0.3919E-05
     -8.357  0.3454E-03  0.3454E-03  0.2951E-04  0.2952E-04
     -8.283  0.5470E-03  0.5470E-03  0.7006E-04  0.7006E-04
     -8.209  0.5436E-03  0.5436E-03  0.1103E-03  0.1103E-03
     -8.135  0.3383E-03  0.3383E-03  0.1354E-03  0.1354E-03
     -8.061  0.1091E-03  0.1091E-03  0.1435E-03  0.1435E-03
     -7.987 -0.1204E-04 -0.1204E-04  0.1426E-03  0.1426E-03
     -7.912 -0.4302E-04 -0.4302E-04  0.1394E-03  0.1394E-03
     -7.838 -0.6947E-04 -0.6947E-04  0.1343E-03  0.1343E-03
     -7.764 -0.1469E-03 -0.1469E-03  0.1234E-03  0.1234E-03
     -7.690 -0.2024E-03 -0.2024E-03  0.1084E-03  0.1084E-03
     -7.616  0.8811E-04  0.8813E-04  0.1149E-03  0.1149E-03
     -7.542  0.1138E-02  0.1138E-02  0.1993E-03  0.1993E-03
     -7.468  0.2774E-02  0.2774E-02  0.4049E-03  0.4049E-03
     -7.394  0.3895E-02  0.3896E-02  0.6936E-03  0.6936E-03
     -7.320  0.3513E-02  0.3513E-02  0.9539E-03  0.9540E-03
     -7.245  0.1989E-02  0.1989E-02  0.1101E-02  0.1101E-02
     -7.171  0.5546E-03  0.5545E-03  0.1142E-02  0.1142E-02
     -7.097 -0.1075E-03 -0.1075E-03  0.1135E-02  0.1135E-02
     -7.023 -0.1958E-03 -0.1958E-03  0.1120E-02  0.1120E-02
     -6.949 -0.1405E-03 -0.1405E-03  0.1110E-02  0.1110E-02
     -6.875 -0.1539E-03 -0.1539E-03  0.1098E-02  0.1098E-02
     -6.801 -0.1878E-03 -0.1878E-03  0.1084E-02  0.1084E-02
     -6.727  0.6379E-04  0.6380E-04  0.1089E-02  0.1089E-02
     -6.653  0.9880E-03  0.9881E-03  0.1162E-02  0.1162E-02
     -6.578  0.2437E-02  0.2437E-02  0.1343E-02  0.1343E-02
     -6.504  0.3414E-02  0.3414E-02  0.1596E-02  0.1596E-02
     -6.430  0.3023E-02  0.3023E-02  0.1820E-02  0.1820E-02
     -6.356  0.1621E-02  0.1621E-02  0.1940E-02  0.1940E-02
     -6.282  0.3394E-03  0.3393E-03  0.1965E-02  0.1965E-02
     -6.208 -0.1996E-03 -0.1996E-03  0.1950E-02  0.1950E-02
     -6.134 -0.1116E-03 -0.1116E-03  0.1942E-02  0.1942E-02
     -6.060  0.4200E-03  0.4201E-03  0.1973E-02  0.1973E-02
     -5.985  0.1437E-02  0.1437E-02  0.2080E-02  0.2080E-02
     -5.911  0.2758E-02  0.2758E-02  0.2284E-02  0.2284E-02
     -5.837  0.3580E-02  0.3580E-02  0.2549E-02  0.2549E-02
     -5.763  0.3129E-02  0.3128E-02  0.2781E-02  0.2781E-02
     -5.689  0.1674E-02  0.1674E-02  0.2905E-02  0.2905E-02
     -5.615  0.2344E-03  0.2343E-03  0.2923E-02  0.2923E-02
     -5.541 -0.5088E-03 -0.5088E-03  0.2885E-02  0.2885E-02
     -5.467 -0.2706E-03 -0.2706E-03  0.2865E-02  0.2865E-02
     -5.393  0.1360E-02  0.1360E-02  0.2966E-02  0.2966E-02
     -5.318  0.4345E-02  0.4345E-02  0.3288E-02  0.3288E-02
     -5.244  0.7280E-02  0.7280E-02  0.3827E-02  0.3827E-02
     -5.170  0.8294E-02  0.8294E-02  0.4442E-02  0.4442E-02
     -5.096  0.6931E-02  0.6931E-02  0.4956E-02  0.4956E-02
     -5.022  0.4294E-02  0.4294E-02  0.5274E-02  0.5274E-02
     -4.948  0.1823E-02  0.1823E-02  0.5409E-02  0.5409E-02
     -4.874  0.5674E-03  0.5674E-03  0.5451E-02  0.5451E-02
     -4.800  0.9252E-03  0.9252E-03  0.5520E-02  0.5520E-02
     -4.726  0.2366E-02  0.2366E-02  0.5695E-02  0.5695E-02
     -4.651  0.3554E-02  0.3554E-02  0.5958E-02  0.5958E-02
     -4.577  0.3331E-02  0.3331E-02  0.6205E-02  0.6205E-02
     -4.503  0.1810E-02  0.1810E-02  0.6339E-02  0.6339E-02
     -4.429  0.1887E-03  0.1886E-03  0.6353E-02  0.6353E-02
     -4.355 -0.3059E-03 -0.3059E-03  0.6331E-02  0.6331E-02
     -4.281  0.1188E-02  0.1189E-02  0.6419E-02  0.6419E-02
     -4.207  0.5062E-02  0.5063E-02  0.6794E-02  0.6794E-02
     -4.133  0.1043E-01  0.1043E-01  0.7567E-02  0.7567E-02
     -4.059  0.1487E-01  0.1487E-01  0.8669E-02  0.8669E-02
     -3.984  0.1624E-01  0.1624E-01  0.9872E-02  0.9872E-02
     -3.910  0.1491E-01  0.1491E-01  0.1098E-01  0.1098E-01
     -3.836  0.1354E-01  0.1354E-01  0.1198E-01  0.1198E-01
     -3.762  0.1385E-01  0.1385E-01  0.1301E-01  0.1301E-01
     -3.688  0.1493E-01  0.1493E-01  0.1411E-01  0.1411E-01
     -3.614  0.1539E-01  0.1539E-01  0.1525E-01  0.1525E-01
     -3.540  0.1539E-01  0.1539E-01  0.1639E-01  0.1639E-01
     -3.466  0.1651E-01  0.1651E-01  0.1762E-01  0.1762E-01
     -3.392  0.2009E-01  0.2009E-01  0.1911E-01  0.1911E-01
     -3.317  0.2475E-01  0.2475E-01  0.2094E-01  0.2094E-01
     -3.243  0.2719E-01  0.2719E-01  0.2296E-01  0.2296E-01
     -3.169  0.2662E-01  0.2662E-01  0.2493E-01  0.2493E-01
     -3.095  0.2554E-01  0.2554E-01  0.2682E-01  0.2682E-01
     -3.021  0.2531E-01  0.2531E-01  0.2870E-01  0.2870E-01
     -2.947  0.2467E-01  0.2467E-01  0.3053E-01  0.3053E-01
     -2.873  0.2344E-01  0.2344E-01  0.3226E-01  0.3226E-01
     -2.799  0.2353E-01  0.2353E-01  0.3401E-01  0.3401E-01
     -2.725  0.2547E-01  0.2547E-01  0.3590E-01  0.3590E-01
     -2.650  0.2747E-01  0.2747E-01  0.3793E-01  0.3793E-01
     -2.576  0.2906E-01  0.2906E-01  0.4009E-01  0.4009E-01
     -2.502  0.3189E-01  0.3189E-01  0.4245E-01  0.4245E-01
     -2.428  0.3617E-01  0.3617E-01  0.4513E-01  0.4513E-01
     -2.354  0.3952E-01  0.3952E-01  0.4806E-01  0.4806E-01
     -2.280  0.4106E-01  0.4106E-01  0.5110E-01  0.5110E-01
     -2.206  0.4320E-01  0.4320E-01  0.5430E-01  0.5430E-01
     -2.132  0.4733E-01  0.4733E-01  0.5781E-01  0.5781E-01
     -2.058  0.5089E-01  0.5089E-01  0.6158E-01  0.6158E-01
     -1.983  0.5118E-01  0.5118E-01  0.6538E-01  0.6538E-01
     -1.909  0.4913E-01  0.4913E-01  0.6902E-01  0.6902E-01
     -1.835  0.4764E-01  0.4764E-01  0.7255E-01  0.7255E-01
     -1.761  0.4787E-01  0.4787E-01  0.7609E-01  0.7609E-01
     -1.687  0.4813E-01  0.4813E-01  0.7966E-01  0.7966E-01
     -1.613  0.4629E-01  0.4629E-01  0.8309E-01  0.8309E-01
     -1.539  0.4291E-01  0.4291E-01  0.8627E-01  0.8627E-01
     -1.465  0.4055E-01  0.4055E-01  0.8928E-01  0.8928E-01
     -1.391  0.3971E-01  0.3971E-01  0.9222E-01  0.9222E-01
     -1.316  0.3910E-01  0.3910E-01  0.9512E-01  0.9512E-01
     -1.242  0.4038E-01  0.4038E-01  0.9811E-01  0.9811E-01
     -1.168  0.4699E-01  0.4699E-01  0.1016E+00  0.1016E+00
     -1.094  0.5728E-01  0.5728E-01  0.1058E+00  0.1058E+00
     -1.020  0.6406E-01  0.6406E-01  0.1106E+00  0.1106E+00
     -0.946  0.6307E-01  0.6307E-01  0.1153E+00  0.1153E+00
     -0.872  0.5767E-01  0.5767E-01  0.1195E+00  0.1195E+00
     -0.798  0.5260E-01  0.5260E-01  0.1234E+00  0.1234E+00
     -0.723  0.4652E-01  0.4652E-01  0.1269E+00  0.1269E+00
     -0.649  0.3551E-01  0.3551E-01  0.1295E+00  0.1295E+00
     -0.575  0.2138E-01  0.2138E-01  0.1311E+00  0.1311E+00
     -0.501  0.1077E-01  0.1077E-01  0.1319E+00  0.1319E+00
     -0.427  0.7061E-02  0.7061E-02  0.1324E+00  0.1324E+00
     -0.353  0.7352E-02  0.7352E-02  0.1330E+00  0.1330E+00
     -0.279  0.7158E-02  0.7158E-02  0.1335E+00  0.1335E+00
     -0.205  0.5040E-02  0.5040E-02  0.1339E+00  0.1339E+00
     -0.131  0.2330E-02  0.2330E-02  0.1340E+00  0.1340E+00
     -0.056  0.4804E-03  0.4804E-03  0.1341E+00  0.1341E+00
      0.018 -0.2568E-03 -0.2568E-03  0.1341E+00  0.1341E+00
      0.092 -0.3714E-03 -0.3714E-03  0.1340E+00  0.1340E+00
      0.166 -0.2715E-03 -0.2715E-03  0.1340E+00  0.1340E+00
      0.240  0.5802E-05  0.5817E-05  0.1340E+00  0.1340E+00
      0.314  0.6344E-03  0.6344E-03  0.1341E+00  0.1341E+00
      0.388  0.1870E-02  0.1870E-02  0.1342E+00  0.1342E+00
      0.462  0.3933E-02  0.3933E-02  0.1345E+00  0.1345E+00
      0.536  0.6372E-02  0.6372E-02  0.1350E+00  0.1350E+00
      0.611  0.7771E-02  0.7771E-02  0.1355E+00  0.1355E+00
      0.685  0.7327E-02  0.7326E-02  0.1361E+00  0.1361E+00
      0.759  0.6299E-02  0.6299E-02  0.1365E+00  0.1365E+00
      0.833  0.6473E-02  0.6473E-02  0.1370E+00  0.1370E+00
      0.907  0.7820E-02  0.7820E-02  0.1376E+00  0.1376E+00
      0.981  0.8903E-02  0.8903E-02  0.1383E+00  0.1383E+00
      1.055  0.8949E-02  0.8949E-02  0.1389E+00  0.1389E+00
      1.129  0.8348E-02  0.8348E-02  0.1395E+00  0.1395E+00
      1.203  0.7359E-02  0.7359E-02  0.1401E+00  0.1401E+00
      1.278  0.5677E-02  0.5677E-02  0.1405E+00  0.1405E+00
      1.352  0.3366E-02  0.3366E-02  0.1408E+00  0.1408E+00
      1.426  0.1166E-02  0.1166E-02  0.1408E+00  0.1408E+00
      1.500 -0.2566E-03 -0.2566E-03  0.1408E+00  0.1408E+00
      1.574 -0.5818E-03 -0.5818E-03  0.1408E+00  0.1408E+00
      1.648  0.6420E-03  0.6420E-03  0.1408E+00  0.1408E+00
      1.722  0.3680E-02  0.3680E-02  0.1411E+00  0.1411E+00
      1.796  0.7179E-02  0.7179E-02  0.1416E+00  0.1416E+00
      1.870  0.8397E-02  0.8397E-02  0.1423E+00  0.1423E+00
      1.945  0.6235E-02  0.6235E-02  0.1427E+00  0.1427E+00
      2.019  0.2838E-02  0.2838E-02  0.1429E+00  0.1429E+00
      2.093  0.1093E-02  0.1093E-02  0.1430E+00  0.1430E+00
      2.167  0.1819E-02  0.1819E-02  0.1431E+00  0.1431E+00
      2.241  0.3856E-02  0.3856E-02  0.1434E+00  0.1434E+00
      2.315  0.5433E-02  0.5433E-02  0.1438E+00  0.1438E+00
      2.389  0.5248E-02  0.5248E-02  0.1442E+00  0.1442E+00
      2.463  0.3438E-02  0.3438E-02  0.1445E+00  0.1445E+00
      2.537  0.1634E-02  0.1634E-02  0.1446E+00  0.1446E+00
      2.612  0.1370E-02  0.1370E-02  0.1447E+00  0.1447E+00
      2.686  0.2448E-02  0.2448E-02  0.1449E+00  0.1449E+00
      2.760  0.3252E-02  0.3252E-02  0.1451E+00  0.1451E+00
      2.834  0.2651E-02  0.2650E-02  0.1453E+00  0.1453E+00
      2.908  0.1089E-02  0.1089E-02  0.1454E+00  0.1454E+00
      2.982 -0.2449E-03 -0.2449E-03  0.1454E+00  0.1454E+00
      3.056 -0.3936E-03 -0.3936E-03  0.1454E+00  0.1454E+00
      3.130  0.1407E-02  0.1407E-02  0.1455E+00  0.1455E+00
      3.204  0.5199E-02  0.5199E-02  0.1458E+00  0.1458E+00
      3.279  0.9010E-02  0.9010E-02  0.1465E+00  0.1465E+00
      3.353  0.9827E-02  0.9827E-02  0.1472E+00  0.1472E+00
      3.427  0.6956E-02  0.6956E-02  0.1478E+00  0.1478E+00
      3.501  0.2898E-02  0.2898E-02  0.1480E+00  0.1480E+00
      3.575  0.2837E-03  0.2837E-03  0.1480E+00  0.1480E+00
      3.649 -0.4831E-03 -0.4831E-03  0.1480E+00  0.1480E+00
      3.723 -0.3946E-03 -0.3946E-03  0.1479E+00  0.1479E+00
      3.797 -0.2404E-03 -0.2404E-03  0.1479E+00  0.1479E+00
      3.872 -0.1611E-03 -0.1611E-03  0.1479E+00  0.1479E+00
      3.946  0.9821E-04  0.9822E-04  0.1479E+00  0.1479E+00
      4.020  0.8080E-03  0.8080E-03  0.1480E+00  0.1480E+00
      4.094  0.1813E-02  0.1813E-02  0.1481E+00  0.1481E+00
      4.168  0.2489E-02  0.2489E-02  0.1483E+00  0.1483E+00
      4.242  0.2428E-02  0.2428E-02  0.1485E+00  0.1485E+00
      4.316  0.2053E-02  0.2053E-02  0.1486E+00  0.1486E+00
      4.390  0.2203E-02  0.2204E-02  0.1488E+00  0.1488E+00
      4.464  0.3082E-02  0.3082E-02  0.1490E+00  0.1490E+00
      4.539  0.3948E-02  0.3948E-02  0.1493E+00  0.1493E+00
      4.613  0.4330E-02  0.4330E-02  0.1496E+00  0.1496E+00
      4.687  0.4974E-02  0.4974E-02  0.1500E+00  0.1500E+00
      4.761  0.6445E-02  0.6445E-02  0.1505E+00  0.1505E+00
      4.835  0.7662E-02  0.7663E-02  0.1510E+00  0.1510E+00
      4.909  0.7359E-02  0.7359E-02  0.1516E+00  0.1516E+00
      4.983  0.5847E-02  0.5847E-02  0.1520E+00  0.1520E+00
      5.057  0.4130E-02  0.4129E-02  0.1523E+00  0.1523E+00
      5.131  0.2729E-02  0.2728E-02  0.1525E+00  0.1525E+00
      5.206  0.2094E-02  0.2095E-02  0.1527E+00  0.1527E+00
      5.280  0.2545E-02  0.2545E-02  0.1529E+00  0.1529E+00
      5.354  0.3339E-02  0.3339E-02  0.1531E+00  0.1531E+00
      5.428  0.3313E-02  0.3313E-02  0.1534E+00  0.1534E+00
      5.502  0.2750E-02  0.2752E-02  0.1536E+00  0.1536E+00
      5.576  0.3208E-02  0.3212E-02  0.1538E+00  0.1538E+00
      5.650  0.5290E-02  0.5293E-02  0.1542E+00  0.1542E+00
      5.724  0.7806E-02  0.7805E-02  0.1548E+00  0.1548E+00
      5.798  0.9030E-02  0.9026E-02  0.1554E+00  0.1554E+00
      5.873  0.8032E-02  0.8030E-02  0.1560E+00  0.1560E+00
      5.947  0.5532E-02  0.5533E-02  0.1564E+00  0.1564E+00
      6.021  0.3691E-02  0.3695E-02  0.1567E+00  0.1567E+00
      6.095  0.3893E-02  0.3898E-02  0.1570E+00  0.1570E+00
      6.169  0.4993E-02  0.4994E-02  0.1574E+00  0.1574E+00
      6.243  0.5106E-02  0.5102E-02  0.1578E+00  0.1578E+00
      6.317  0.4526E-02  0.4520E-02  0.1581E+00  0.1581E+00
      6.391  0.5055E-02  0.5051E-02  0.1585E+00  0.1585E+00
      6.465  0.6881E-02  0.6881E-02  0.1590E+00  0.1590E+00
      6.540  0.8211E-02  0.8215E-02  0.1596E+00  0.1596E+00
      6.614  0.7930E-02  0.7936E-02  0.1602E+00  0.1602E+00
      6.688  0.6564E-02  0.6567E-02  0.1607E+00  0.1607E+00
      6.762  0.4699E-02  0.4697E-02  0.1610E+00  0.1610E+00
      6.836  0.2562E-02  0.2557E-02  0.1612E+00  0.1612E+00
      6.910  0.9404E-03  0.9367E-03  0.1613E+00  0.1613E+00
      6.984  0.7389E-03  0.7394E-03  0.1613E+00  0.1613E+00
      7.058  0.1728E-02  0.1730E-02  0.1614E+00  0.1614E+00
      7.132  0.2928E-02  0.2929E-02  0.1617E+00  0.1617E+00
      7.207  0.4353E-02  0.4352E-02  0.1620E+00  0.1620E+00
      7.281  0.7021E-02  0.7019E-02  0.1625E+00  0.1625E+00
      7.355  0.1046E-01  0.1046E-01  0.1633E+00  0.1633E+00
      7.429  0.1203E-01  0.1203E-01  0.1642E+00  0.1642E+00
      7.503  0.1001E-01  0.1002E-01  0.1649E+00  0.1649E+00
      7.577  0.5883E-02  0.5883E-02  0.1654E+00  0.1654E+00
      7.651  0.2528E-02  0.2529E-02  0.1655E+00  0.1655E+00
      7.725  0.1674E-02  0.1677E-02  0.1657E+00  0.1657E+00
      7.799  0.3033E-02  0.3036E-02  0.1659E+00  0.1659E+00
      7.874  0.4811E-02  0.4811E-02  0.1662E+00  0.1662E+00
      7.948  0.5180E-02  0.5176E-02  0.1666E+00  0.1666E+00
      8.022  0.4203E-02  0.4201E-02  0.1669E+00  0.1669E+00
      8.096  0.4220E-02  0.4225E-02  0.1673E+00  0.1673E+00
      8.170  0.7289E-02  0.7299E-02  0.1678E+00  0.1678E+00
      8.244  0.1207E-01  0.1208E-01  0.1687E+00  0.1687E+00
      8.318  0.1470E-01  0.1471E-01  0.1698E+00  0.1698E+00
      8.392  0.1332E-01  0.1332E-01  0.1708E+00  0.1708E+00
      8.466  0.9857E-02  0.9849E-02  0.1715E+00  0.1715E+00
      8.541  0.6967E-02  0.6960E-02  0.1720E+00  0.1720E+00
      8.615  0.5266E-02  0.5263E-02  0.1724E+00  0.1724E+00
      8.689  0.4382E-02  0.4383E-02  0.1727E+00  0.1727E+00
      8.763  0.4416E-02  0.4419E-02  0.1731E+00  0.1731E+00
      8.837  0.4940E-02  0.4941E-02  0.1734E+00  0.1734E+00
      8.911  0.4547E-02  0.4544E-02  0.1738E+00  0.1738E+00
      8.985  0.2801E-02  0.2795E-02  0.1740E+00  0.1740E+00
      9.059  0.1143E-02  0.1140E-02  0.1741E+00  0.1741E+00
      9.134  0.1011E-02  0.1013E-02  0.1741E+00  0.1741E+00
      9.208  0.2075E-02  0.2078E-02  0.1743E+00  0.1743E+00
      9.282  0.2933E-02  0.2934E-02  0.1745E+00  0.1745E+00
      9.356  0.3179E-02  0.3176E-02  0.1747E+00  0.1747E+00
      9.430  0.3873E-02  0.3870E-02  0.1750E+00  0.1750E+00
      9.504  0.5663E-02  0.5661E-02  0.1754E+00  0.1754E+00
      9.578  0.7965E-02  0.7966E-02  0.1760E+00  0.1760E+00
      9.652  0.1035E-01  0.1036E-01  0.1768E+00  0.1768E+00
      9.726  0.1242E-01  0.1243E-01  0.1777E+00  0.1777E+00
      9.801  0.1256E-01  0.1257E-01  0.1786E+00  0.1786E+00
      9.875  0.9786E-02  0.9789E-02  0.1794E+00  0.1794E+00
      9.949  0.5687E-02  0.5687E-02  0.1798E+00  0.1798E+00
     10.023  0.2483E-02  0.2479E-02  0.1800E+00  0.1800E+00
     10.097  0.7491E-03  0.7436E-03  0.1800E+00  0.1800E+00
     10.171  0.1545E-05 -0.2274E-05  0.1800E+00  0.1800E+00
     10.245 -0.2068E-03 -0.2080E-03  0.1800E+00  0.1800E+00
     10.319 -0.1641E-03 -0.1640E-03  0.1800E+00  0.1800E+00
     10.393 -0.7505E-04 -0.7472E-04  0.1800E+00  0.1800E+00
     10.468 -0.2307E-04 -0.2291E-04  0.1800E+00  0.1800E+00
     10.542 -0.5007E-05 -0.4963E-05  0.1800E+00  0.1800E+00
     10.616 -0.7860E-06 -0.7777E-06  0.1800E+00  0.1800E+00
     10.690 -0.9053E-07 -0.8942E-07  0.1800E+00  0.1800E+00
     10.764 -0.7720E-08 -0.7613E-08  0.1800E+00  0.1800E+00
     10.838 -0.4905E-09 -0.4829E-09  0.1800E+00  0.1800E+00
     10.912 -0.2332E-10 -0.2293E-10  0.1800E+00  0.1800E+00
     10.986 -0.8326E-12 -0.8173E-12  0.1800E+00  0.1800E+00
     11.060 -0.2237E-13 -0.2192E-13  0.1800E+00  0.1800E+00
     11.135 -0.4527E-15 -0.4427E-15  0.1800E+00  0.1800E+00
     11.209 -0.6658E-17 -0.6658E-17  0.1800E+00  0.1800E+00
     11.283  0.0000E+00  0.0000E+00  0.1800E+00  0.1800E+00
     11.357  0.0000E+00  0.0000E+00  0.1800E+00  0.1800E+00
     11.431  0.0000E+00  0.0000E+00  0.1800E+00  0.1800E+00
     11.505  0.0000E+00  0.0000E+00  0.1800E+00  0.1800E+00
     11.579  0.0000E+00  0.0000E+00  0.1800E+00  0.1800E+00
     11.653  0.0000E+00  0.0000E+00  0.1800E+00  0.1800E+00
     11.727  0.0000E+00  0.0000E+00  0.1800E+00  0.1800E+00
     11.802  0.0000E+00  0.0000E+00  0.1800E+00  0.1800E+00
     11.876  0.0000E+00  0.0000E+00  0.1800E+00  0.1800E+00
     11.950  0.0000E+00  0.0000E+00  0.1800E+00  0.1800E+00
