 vasp.6.3.2 27Jun22 (build Aug 17 2022 15:43:34) complex                        
  
 executed on           tv2STDVTST date 2025.01.17  13:54:46
 running   20 mpi-ranks, with    1 threads/rank
 distrk:  each k-point on   20 cores,    1 groups
 distr:  one band on NCORE=   5 cores,    4 groups


--------------------------------------------------------------------------------------------------------


 -----------------------------------------------------------------------------
|                                                                             |
|           W    W    AA    RRRRR   N    N  II  N    N   GGGG   !!!           |
|           W    W   A  A   R    R  NN   N  II  NN   N  G    G  !!!           |
|           W    W  A    A  R    R  N N  N  II  N N  N  G       !!!           |
|           W WW W  AAAAAA  RRRRR   N  N N  II  N  N N  G  GGG   !            |
|           WW  WW  A    A  R   R   N   NN  II  N   NN  G    G                |
|           W    W  A    A  R    R  N    N  II  N    N   GGGG   !!!           |
|                                                                             |
|     Found issues when parsing the INCAR file                                |
|     In line 64: Tagname --- R W I G S contains invalid characters.          |
|     Please check if the interpretation in the OUTCAR file is correct.       |
|                                                                             |
 -----------------------------------------------------------------------------

 INCAR:
    = \=\=\=\=\=\=\=\=\=\=\=\=\=\=\=\=\=\=\=\=\=\=\=\=\=\=\=\=\=\=\=\=\=\=\=\=\=\=\=\=\=\=\=\=\=\=\=\=\=\=\=\=\=\=\=\=\=\=\=\=\=\=\=\=\=\=\=\=\=\=\=\=
    = \=\=\=\=\=\=\=\=\=\=\=\=\=\=\=\=\=\=\=\=\=\=\=\=\=\=\=\=\=\=\=\=\=\=\=\=\=\=\=\=\=\=\=\=\=\=\=\=\=\=\=\=\=\=\=\=\=\=\=\=\=\=\=\=\=\=\=\=\=\=\=\=
   ISTART = 0
   ICHARG = 2
   IPIPOL = 3
   IVDW = 11
   IDIPOL = 3
   IVDW = 11
    = \=\=\=\=\=\=\=\=\=\=\=\=\=\=\=\=\=\=\=\=\=\=\=\=\=\=\=\=\=\=\=\=\=\=\=\=\=\=\=\=\=\=\=\=\=\=\=\=\=\=\=\=\=\=\=\=\=\=\=\=\=\=\=\=\=\=\=\=\=\=\=\=
    = \=\=\=\=\=\=\=\=\=\=\=\=\=\=\=\=\=\=\=\=\=\=\=\=\=\=\=\=\=\=\=\=\=\=\=\=\=\=\=\=\=\=\=\=\=\=\=\=\=\=\=\=\=\=\=\=\=\=\=\=\=\=\=\=\=\=\=\=\=\=\=\=
   ISPIN = 2
    = \=\=\=\=\=\=\=\=\=\=\=\=\=\=\=\=\=\=\=\=\=\=\=\=\=\=\=\=\=\=\=\=\=\=\=\=\=\=\=\=\=\=\=\=\=\=\=\=\=\=\=\=\=\=\=\=\=\=\=\=\=\=\=\=\=\=\=\=\=\=\=\=
    = \=\=\=\=\=\=\=\=\=\=\=\=\=\=\=\=\=\=\=\=\=\=\=\=\=\=\=\=\=\=\=\=\=\=\=\=\=\=\=\=\=\=\=\=\=\=\=\=\=\=\=\=\=\=\=\=\=\=\=\=\=\=\=\=\=\=\=\=\=\=\=\=
   ENCUT = 400
   PREC = Normal
   EDIFF = 2E-04
   GGA = PE
   ISMEAR = 1
   SIGMA = 0.2
   LREAL = .FALSE.
    = \=\=\=\=\=\=\=\=\=\=\=\=\=\=\=\=\=\=\=\=\=\=\=\=\=\=\=\=\=\=\=\=\=\=\=\=\=\=\=\=\=\=\=\=\=\=\=\=\=\=\=\=\=\=\=\=\=\=\=\=\=\=\=\=\=\=\=\=\=\=\=\=
    = \=\=\=\=\=\=\=\=\=\=\=\=\=\=\=\=\=\=\=\=\=\=\=\=\=\=\=\=\=\=\=\=\=\=\=\=\=\=\=\=\=\=\=\=\=\=\=\=\=\=\=\=\=\=\=\=\=\=\=\=\=\=\=\=\=\=\=\=\=\=\=\=
   ISYM = 1
   NSW = 800
   IBRION = 2
   POTIM = 0.5
   ISIF = 2
   EDIFFG = -.03
    = \=\=\=\=\=\=\=\=\=\=\=\=\=\=\=\=\=\=\=\=\=\=\=\=\=\=\=\=\=\=\=\=\=\=\=\=\=\=\=\=\=\=\=\=\=\=\=\=\=\=\=\=\=\=\=\=\=\=\=\=\=\=\=\=\=\=\=\=\=\=\=\=
    = \=\=\=\=\=\=\=\=\=\=\=\=\=\=\=\=\=\=\=\=\=\=\=\=\=\=\=\=\=\=\=\=\=\=\=\=\=\=\=\=\=\=\=\=\=\=\=\=\=\=\=\=\=\=\=\=\=\=\=\=\=\=\=\=\=\=\=\=\=\=\=\=
   NPAR = 4
   LWAVE = .FALSE.
   LCHARG = .FALSE.

 POTCAR:    PAW_PBE Cu 22Jun2005                  
 -----------------------------------------------------------------------------
|                                                                             |
|           W    W    AA    RRRRR   N    N  II  N    N   GGGG   !!!           |
|           W    W   A  A   R    R  NN   N  II  NN   N  G    G  !!!           |
|           W    W  A    A  R    R  N N  N  II  N N  N  G       !!!           |
|           W WW W  AAAAAA  RRRRR   N  N N  II  N  N N  G  GGG   !            |
|           WW  WW  A    A  R   R   N   NN  II  N   NN  G    G                |
|           W    W  A    A  R    R  N    N  II  N    N   GGGG   !!!           |
|                                                                             |
|     You use a magnetic or noncollinear calculation, but did not specify     |
|     the initial magnetic moment with the MAGMOM tag. Note that a            |
|     default of 1 will be used for all atoms. This ferromagnetic setup       |
|     may break the symmetry of the crystal, in particular it may rule        |
|     out finding an antiferromagnetic solution. Thence, we recommend         |
|     setting the initial magnetic moment manually or verifying carefully     |
|     that this magnetic setup is desired.                                    |
|                                                                             |
 -----------------------------------------------------------------------------

 POTCAR:    PAW_PBE Cu 22Jun2005                  
   SHA256 =  0e71e558f37a4e8407882b4609ceaae59938afaad9ced71dfe8490308a0ab630 Cu/POTCAR             
   COPYR  = (c) Copyright 22Jun2005 Georg Kresse                                                    
   COPYR  = This file is part of the software VASP. Any use, copying, and all other rights are regul
   COPYR  = If you do not have a valid VASP license, you may not use, copy or distribute this file. 
   VRHFIN =Cu: d10 p1                                                                               
   LEXCH  = PE                                                                                      
   EATOM  =  1390.9808 eV,  102.2342 Ry                                                             
                                                                                                    
   TITEL  = PAW_PBE Cu 22Jun2005                                                                    
   LULTRA =        F    use ultrasoft PP ?                                                          
   IUNSCR =        1    unscreen: 0-lin 1-nonlin 2-no                                               
   RPACOR =    2.000    partial core radius                                                         
   POMASS =   63.546; ZVAL   =   11.000    mass and valenz                                          
   RCORE  =    2.300    outmost cutoff radius                                                       
   RWIGS  =    2.200; RWIGS  =    1.164    wigner-seitz radius (au A)                               
   ENMAX  =  295.446; ENMIN  =  221.585 eV                                                          
   ICORE  =        3    local potential                                                             
   LCOR   =        T    correct aug charges                                                         
   LPAW   =        T    paw PP                                                                      
   EAUG   =  586.980                                                                                
   DEXC   =    0.000                                                                                
   RMAX   =    2.344    core radius for proj-oper                                                   
   RAUG   =    1.300    factor for augmentation sphere                                              
   RDEP   =    2.302    radius for radial grids                                                     
   RDEPT  =    1.771    core radius for aug-charge                                                  
                                                                                                    
   Atomic configuration                                                                             
    9 entries                                                                                       
     n  l   j            E        occ.                                                              
     1  0  0.50     -8850.2468   2.0000                                                             
     2  0  0.50     -1062.3498   2.0000                                                             
     2  1  1.50      -916.8226   6.0000                                                             
     3  0  0.50      -114.6929   2.0000                                                             
     3  1  1.50       -72.1325   6.0000                                                             
     3  2  2.50        -5.0394  10.0000                                                             
     4  0  0.50        -4.6097   1.0000                                                             
     4  1  0.50        -4.0817   0.0000                                                             
     4  3  2.50        -1.3606   0.0000                                                             
   Description                                                                                      
     l       E           TYP  RCUT    TYP  RCUT                                                     
     2     -5.0393973     23  2.200                                                                 
     2     10.8846608     23  2.200                                                                 
     0     -4.6097109     23  2.200                                                                 
     0      8.2520465     23  2.200                                                                 
     1     -2.7211652     23  2.200                                                                 
     1     21.7055443     23  2.200                                                                 
     3      2.7211652     23  2.300                                                                 
  local pseudopotential read in
  partial core-charges read in
  partial kinetic energy density read in
  atomic valenz-charges read in
  non local Contribution for L=           2  read in
    real space projection operators read in
  non local Contribution for L=           2  read in
    real space projection operators read in
  non local Contribution for L=           0  read in
    real space projection operators read in
  non local Contribution for L=           0  read in
    real space projection operators read in
  non local Contribution for L=           1  read in
    real space projection operators read in
  non local Contribution for L=           1  read in
    real space projection operators read in
    PAW grid and wavefunctions read in
 
   number of l-projection  operators is LMAX  =           6
   number of lm-projection operators is LMMAX =          18
 
 -----------------------------------------------------------------------------
|                                                                             |
|               ----> ADVICE to this user running VASP <----                  |
|                                                                             |
|     You have a (more or less) 'large supercell' and for larger cells it     |
|     might be more efficient to use real-space projection operators.         |
|     Therefore, try LREAL= Auto in the INCAR file.                           |
|     Mind: For very accurate calculation, you might also keep the            |
|     reciprocal projection scheme (i.e. LREAL=.FALSE.).                      |
|                                                                             |
 -----------------------------------------------------------------------------

  PAW_PBE Cu 22Jun2005                  :
 energy of atom  1       EATOM=-1390.9808
 kinetic energy error for atom=    0.0232 (will be added to EATOM!!)
 
 
 POSCAR: FCC Cu
  positions in cartesian coordinates
  velocities in cartesian coordinates
  No initial velocities read in
 exchange correlation table for  LEXCH =        8
   RHO(1)=    0.500       N(1)  =     2000
   RHO(2)=  100.500       N(2)  =     4000

 VTST: version 4.2, (08/11/21)

 CHAIN: initializing optimizer
 
 OPT: Using VASP Conjugate-Gradient optimizer
 CHAIN: Read ICHAIN            0
 
 POSCAR: FCC Cu
  positions in cartesian coordinates
  velocities in cartesian coordinates
  No initial velocities read in
 


--------------------------------------------------------------------------------------------------------


 ion  position               nearest neighbor table
   1  0.000  0.000  0.000-   7 2.57   5 2.57   6 2.57   4 2.57   3 2.57   2 2.57   2 2.57   3 2.57
                             4 2.57
   2  0.000  0.500  0.000-   5 2.57   8 2.57   6 2.57   3 2.57   4 2.57   1 2.57   1 2.57   4 2.57
                             3 2.57
   3  0.500  0.000  0.000-   5 2.57   7 2.57   8 2.57   2 2.57   1 2.57   4 2.57   4 2.57   1 2.57
                             2 2.57
   4  0.500  0.500  0.000-   6 2.57   7 2.57   8 2.57   1 2.57   2 2.57   3 2.57   3 2.57   2 2.57
                             1 2.57
   5  0.167  0.167  0.090-   3 2.57   2 2.57   1 2.57   9 2.57  10 2.57  11 2.57   8 2.57   7 2.57
                             6 2.57   6 2.57   7 2.57   8 2.57
   6  0.167  0.667  0.090-   4 2.57   2 2.57   1 2.57  10 2.57   9 2.57  12 2.57   7 2.57   8 2.57
                             5 2.57   5 2.57   8 2.57   7 2.57
   7  0.667  0.167  0.090-   4 2.57   1 2.57   3 2.57  11 2.57   9 2.57  12 2.57   6 2.57   5 2.57
                             8 2.57   8 2.57   5 2.57   6 2.57
   8  0.667  0.667  0.090-   2 2.57   4 2.57   3 2.57  12 2.57  11 2.57  10 2.57   5 2.57   6 2.57
                             7 2.57   7 2.57   6 2.57   5 2.57
   9  0.333  0.333  0.179-   5 2.57  14 2.57   6 2.57  15 2.57   7 2.57  16 2.57  12 2.57  11 2.57
                            10 2.57  10 2.57  11 2.57  12 2.57
  10  0.333  0.833  0.179-   6 2.57  16 2.57  15 2.57   8 2.57  13 2.57   5 2.57  11 2.57  12 2.57
                             9 2.57   9 2.57  12 2.57  11 2.57
  11  0.833  0.333  0.179-   7 2.57  16 2.57  13 2.57   8 2.57  14 2.57   5 2.57  10 2.57   9 2.57
                            12 2.57  12 2.57   9 2.57  10 2.57
  12  0.833  0.833  0.179-   8 2.57  14 2.57  15 2.57   7 2.57  13 2.57   6 2.57   9 2.57  10 2.57
                            11 2.57  11 2.57  10 2.57   9 2.57
  13  0.000  0.000  0.269-  11 2.57  19 2.57  17 2.57  10 2.57  18 2.57  12 2.57  16 2.57  15 2.57
                            14 2.57  14 2.57  15 2.57  16 2.57
  14  0.000  0.500  0.269-   9 2.57  17 2.57  12 2.57  20 2.57  18 2.57  11 2.57  15 2.57  16 2.57
                            13 2.57  13 2.57  16 2.57  15 2.57
  15  0.500  0.000  0.269-  17 2.57   9 2.57  10 2.57  19 2.57  12 2.57  20 2.57  14 2.57  13 2.57
                            16 2.57  16 2.57  13 2.57  14 2.57
  16  0.500  0.500  0.269-  18 2.57  11 2.57  19 2.57  10 2.57  20 2.57   9 2.57  13 2.57  14 2.57
                            15 2.57  15 2.57  14 2.57  13 2.57
  17  0.167  0.167  0.359-  15 2.57  14 2.57  13 2.57  20 2.57  19 2.57  18 2.57  18 2.57  19 2.57
                            20 2.57
  18  0.167  0.667  0.359-  16 2.57  14 2.57  13 2.57  19 2.57  20 2.57  17 2.57  17 2.57  20 2.57
                            19 2.57
  19  0.667  0.167  0.359-  16 2.57  13 2.57  15 2.57  18 2.57  17 2.57  20 2.57  20 2.57  17 2.57
                            18 2.57
  20  0.667  0.667  0.359-  14 2.57  16 2.57  15 2.57  17 2.57  18 2.57  19 2.57  19 2.57  18 2.57
                            17 2.57
 
  LATTYP: Found a hexagonal cell.
 ALAT       =     5.1335954666
 C/A-ratio  =     4.5549216835
  
  Lattice vectors:
  
 A1 = (  -2.5667977333,  -4.4458240868,   0.0000000000)
 A2 = (   5.1335954666,   0.0000000000,   0.0000000000)
 A3 = (   0.0000000000,   0.0000000000,  23.3831253052)


Analysis of symmetry for initial positions (statically):
=====================================================================
 Subroutine PRICEL returns following result:
 
  LATTYP: Found a hexagonal cell.
 ALAT       =     2.5667977331
 C/A-ratio  =     9.1098433677
  
  Lattice vectors:
  
 A1 = (  -1.2833988670,  -2.2229120430,   0.0000000000)
 A2 = (   2.5667977330,   0.0000000000,   0.0000000000)
 A3 = (   0.0000000000,   0.0000000000,  23.3831253052)
 
   4 primitive cells build up your supercell.
 

 Routine SETGRP: Setting up the symmetry group for a 
 hexagonal supercell.


 Subroutine GETGRP returns: Found 12 space group operations
 (whereof  6 operations were pure point group operations)
 out of a pool of 24 trial point group operations.


The static configuration has the point symmetry C_3v.
 The point group associated with its full space group is D_3d.


Analysis of symmetry for dynamics (positions and initial velocities):
=====================================================================
 Subroutine PRICEL returns following result:
 
  LATTYP: Found a hexagonal cell.
 ALAT       =     2.5667977331
 C/A-ratio  =     9.1098433677
  
  Lattice vectors:
  
 A1 = (  -1.2833988670,  -2.2229120430,   0.0000000000)
 A2 = (   2.5667977330,   0.0000000000,   0.0000000000)
 A3 = (   0.0000000000,   0.0000000000,  23.3831253052)
 
   4 primitive cells build up your supercell.
 

 Routine SETGRP: Setting up the symmetry group for a 
 hexagonal supercell.


 Subroutine GETGRP returns: Found 12 space group operations
 (whereof  6 operations were pure point group operations)
 out of a pool of 24 trial point group operations.


The dynamic configuration has the point symmetry C_3v.
 The point group associated with its full space group is D_3d.


Analysis of constrained symmetry for selective dynamics:
=====================================================================
 Subroutine PRICEL returns following result:
 
  LATTYP: Found a hexagonal cell.
 ALAT       =     2.5667977331
 C/A-ratio  =     9.1098433677
  
  Lattice vectors:
  
 A1 = (  -1.2833988670,  -2.2229120430,   0.0000000000)
 A2 = (   2.5667977330,   0.0000000000,   0.0000000000)
 A3 = (   0.0000000000,   0.0000000000,  23.3831253052)
 
   4 primitive cells build up your supercell.
 

 Routine SETGRP: Setting up the symmetry group for a 
 hexagonal supercell.


 Subroutine GETGRP returns: Found  6 space group operations
 (whereof  6 operations were pure point group operations)
 out of a pool of 24 trial point group operations.


The constrained configuration has the point symmetry C_3v.


Analysis of structural, dynamic, and magnetic symmetry:
=====================================================================
 Subroutine PRICEL returns following result:
 
  LATTYP: Found a hexagonal cell.
 ALAT       =     2.5667977331
 C/A-ratio  =     9.1098433677
  
  Lattice vectors:
  
 A1 = (  -1.2833988670,  -2.2229120430,   0.0000000000)
 A2 = (   2.5667977330,   0.0000000000,   0.0000000000)
 A3 = (   0.0000000000,   0.0000000000,  23.3831253052)
 
   4 primitive cells build up your supercell.
 

 Routine SETGRP: Setting up the symmetry group for a 
 hexagonal supercell.


 Subroutine GETGRP returns: Found  6 space group operations
 (whereof  6 operations were pure point group operations)
 out of a pool of 24 trial point group operations.


The overall configuration has the point symmetry C_3v.


 Subroutine INISYM returns: Found  6 space group operations
 (whereof  6 operations are pure point group operations),
 and found     4 'primitive' translations


----------------------------------------------------------------------------------------

                                     Primitive cell                                     

  volume of cell :     133.4186

  direct lattice vectors                    reciprocal lattice vectors
    -1.283398867 -2.222912043  0.000000000     0.000000000 -0.449860355  0.000000000
     2.566797733  0.000000000  0.000000000     0.389590495 -0.224930177  0.000000000
     0.000000000  0.000000000 23.383125305     0.000000000  0.000000000  0.042765883

  length of vectors
     2.566797733  2.566797733 23.383125305     0.449860355  0.449860355  0.042765883

  position of ions in fractional coordinates (direct lattice)
     0.000000000  0.000000000  0.000000000
     0.666666667  0.333333333  0.089627945
     0.333333333  0.666666667  0.179255889
     0.000000000  0.000000000  0.268883834
     0.666666667  0.333333333  0.358511779

  ion indices of the primitive-cell ions
   primitive index   ion index
                 1           1
                 2           5
                 3          12
                 4          13
                 5          17

----------------------------------------------------------------------------------------

 
 
 KPOINTS: Auto-mesh                               

Automatic generation of k-mesh.
 Grid dimensions read from file:
 generate k-points for:    3    3    1

 Generating k-lattice:

  Cartesian coordinates                     Fractional coordinates (reciprocal lattice)
     0.064931749 -0.037488363  0.000000000     0.333333333  0.000000000  0.000000000
     0.000000000  0.074976726  0.000000000     0.000000000  0.333333333  0.000000000
     0.000000000  0.000000000  0.042765883     0.000000000  0.000000000  1.000000000

  Length of vectors
     0.074976726  0.074976726  0.042765883

  Shift w.r.t. Gamma in fractional coordinates (k-lattice)
     0.000000000  0.000000000  0.000000000

 
 Subroutine IBZKPT returns following result:
 ===========================================
 
 Found      3 irreducible k-points:
 
 Following reciprocal coordinates:
            Coordinates               Weight
  0.000000  0.000000  0.000000      1.000000
  0.333333 -0.000000  0.000000      6.000000
 -0.333333  0.333333  0.000000      2.000000
 
 Following cartesian coordinates:
            Coordinates               Weight
  0.000000  0.000000  0.000000      1.000000
  0.064932 -0.037488  0.000000      6.000000
 -0.064932  0.112465  0.000000      2.000000
 


--------------------------------------------------------------------------------------------------------




 Dimension of arrays:
   k-points           NKPTS =      3   k-points in BZ     NKDIM =      3   number of bands    NBANDS=    144
   number of dos      NEDOS =    301   number of ions     NIONS =     20
   non local maximal  LDIM  =      6   non local SUM 2l+1 LMDIM =     18
   total plane-waves  NPLWV =  94080
   max r-space proj   IRMAX =      1   max aug-charges    IRDMAX=   5305
   dimension x,y,z NGX =    28 NGY =   28 NGZ =  120
   dimension x,y,z NGXF=    56 NGYF=   56 NGZF=  240
   support grid    NGXF=    56 NGYF=   56 NGZF=  240
   ions per type =              20
   NGX,Y,Z   is equivalent  to a cutoff of   9.07,  9.07,  8.53 a.u.
   NGXF,Y,Z  is equivalent  to a cutoff of  18.13, 18.13, 17.06 a.u.

 SYSTEM =  unknown system                          
 POSCAR =  FCC Cu                                  

 Startparameter for this run:
   NWRITE =      2    write-flag & timer
   PREC   = normal    normal or accurate (medium, high low for compatibility)
   ISTART =      0    job   : 0-new  1-cont  2-samecut
   ICHARG =      2    charge: 1-file 2-atom 10-const
   ISPIN  =      2    spin polarized calculation?
   LNONCOLLINEAR =      F non collinear calculations
   LSORBIT =      F    spin-orbit coupling
   INIWAV =      1    electr: 0-lowe 1-rand  2-diag
   LASPH  =      F    aspherical Exc in radial PAW
 Electronic Relaxation 1
   ENCUT  =  400.0 eV  29.40 Ry    5.42 a.u.   8.37  8.37 38.13*2*pi/ulx,y,z
   ENINI  =  400.0     initial cutoff
   ENAUG  =  587.0 eV  augmentation charge cutoff
   NELM   =     60;   NELMIN=  2; NELMDL= -5     # of ELM steps 
   EDIFF  = 0.2E-03   stopping-criterion for ELM
   LREAL  =      F    real-space projection
   NLSPLINE    = F    spline interpolate recip. space projectors
   LCOMPAT=      F    compatible to vasp.4.4
   GGA_COMPAT  = T    GGA compatible to vasp.4.4-vasp.4.6
   LMAXPAW     = -100 max onsite density
   LMAXMIX     =    2 max onsite mixed and CHGCAR
   VOSKOWN=      0    Vosko Wilk Nusair interpolation
   ROPT   =    0.00000
 Ionic relaxation
   EDIFFG = -.3E-01   stopping-criterion for IOM
   NSW    =    800    number of steps for IOM
   NBLOCK =      1;   KBLOCK =    800    inner block; outer block 
   IBRION =      2    ionic relax: 0-MD 1-quasi-New 2-CG
   NFREE  =      1    steps in history (QN), initial steepest desc. (CG)
   ISIF   =      2    stress and relaxation
   IWAVPR =     11    prediction:  0-non 1-charg 2-wave 3-comb
   ISYM   =      1    0-nonsym 1-usesym 2-fastsym
   LCORR  =      T    Harris-Foulkes like correction to forces

   POTIM  = 0.5000    time-step for ionic-motion
   TEIN   =    0.0    initial temperature
   TEBEG  =    0.0;   TEEND  =   0.0 temperature during run
   SMASS  =  -3.00    Nose mass-parameter (am)
   estimated Nose-frequenzy (Omega)   =  0.10E-29 period in steps = 0.13E+47 mass=  -0.602E-27a.u.
   SCALEE = 1.0000    scale energy and forces
   NPACO  =    256;   APACO  = 10.0  distance and # of slots for P.C.
   PSTRESS=    0.0 pullay stress

  Mass of Ions in am
   POMASS =  63.55
  Ionic Valenz
   ZVAL   =  11.00
  Atomic Wigner-Seitz radii
   RWIGS  =  -1.00
  virtual crystal weights 
   VCA    =   1.00
   NELECT =     220.0000    total number of electrons
   NUPDOWN=      -1.0000    fix difference up-down

 DOS related values:
   EMIN   =  10.00;   EMAX   =-10.00  energy-range for DOS
   EFERMI =   0.00
   ISMEAR =     1;   SIGMA  =   0.20  broadening in eV -4-tet -1-fermi 0-gaus

 Electronic relaxation 2 (details)
   IALGO  =     38    algorithm
   LDIAG  =      T    sub-space diagonalisation (order eigenvalues)
   LSUBROT=      F    optimize rotation matrix (better conditioning)
   TURBO    =      0    0=normal 1=particle mesh
   IRESTART =      0    0=no restart 2=restart with 2 vectors
   NREBOOT  =      0    no. of reboots
   NMIN     =      0    reboot dimension
   EREF     =   0.00    reference energy to select bands
   IMIX   =      4    mixing-type and parameters
     AMIX     =   0.40;   BMIX     =  1.00
     AMIX_MAG =   1.60;   BMIX_MAG =  1.00
     AMIN     =   0.10
     WC   =   100.;   INIMIX=   1;  MIXPRE=   1;  MAXMIX= -45

 Intra band minimization:
   WEIMIN = 0.0010     energy-eigenvalue tresh-hold
   EBREAK =  0.35E-06  absolut break condition
   DEPER  =   0.30     relativ break condition  

   TIME   =   0.40     timestep for ELM

  volume/ion in A,a.u.               =      26.68       180.07
  Fermi-wavevector in a.u.,A,eV,Ry     =   1.218401  2.302444 20.197861  1.484501
  Thomas-Fermi vector in A             =   2.353689
 
 Write flags
   LWAVE        =      F    write WAVECAR
   LDOWNSAMPLE  =      F    k-point downsampling of WAVECAR
   LCHARG       =      F    write CHGCAR
   LVTOT        =      F    write LOCPOT, total local potential
   LVHAR        =      F    write LOCPOT, Hartree potential only
   LELF         =      F    write electronic localiz. function (ELF)
   LORBIT       =      0    0 simple, 1 ext, 2 COOP (PROOUT), +10 PAW based schemes


 Dipole corrections
   LMONO  =      F    monopole corrections only (constant potential shift)
   LDIPOL =      F    correct potential (dipole corrections)
   IDIPOL =      3    1-x, 2-y, 3-z, 4-all directions 
   EPSILON=  1.0000000 bulk dielectric constant

 Exchange correlation treatment:
   GGA     =    PE    GGA type
   LEXCH   =     8    internal setting for exchange type
   LIBXC   =     F    Libxc                    
   VOSKOWN =     0    Vosko Wilk Nusair interpolation
   LHFCALC =     F    Hartree Fock is set to
   LHFONE  =     F    Hartree Fock one center treatment
   AEXX    =    0.0000 exact exchange contribution

 Linear response parameters
   LEPSILON=     F    determine dielectric tensor
   LRPA    =     F    only Hartree local field effects (RPA)
   LNABLA  =     F    use nabla operator in PAW spheres
   LVEL    =     F    velocity operator in full k-point grid
   CSHIFT  =0.1000    complex shift for real part using Kramers Kronig
   OMEGAMAX=  -1.0    maximum frequency
   DEG_THRESHOLD= 0.2000000E-02 threshold for treating states as degnerate
   RTIME   =   -0.100 relaxation time in fs
  (WPLASMAI=    0.000 imaginary part of plasma frequency in eV, 0.658/RTIME)
   DFIELD  = 0.0000000 0.0000000 0.0000000 field for delta impulse in time
 
  Optional k-point grid parameters
   LKPOINTS_OPT  =     F    use optional k-point grid
   KPOINTS_OPT_MODE=     1    mode for optional k-point grid
 
 Orbital magnetization related:
   ORBITALMAG=     F  switch on orbital magnetization
   LCHIMAG   =     F  perturbation theory with respect to B field
   DQ        =  0.001000  dq finite difference perturbation B field
   LLRAUG    =     F  two centre corrections for induced B field



--------------------------------------------------------------------------------------------------------


 conjugate gradient relaxation of ions
   using selective dynamics as specified on POSCAR
   WARNING: If single coordinates had been selected the selection of coordinates
            is made according to the corresponding   d i r e c t   coordinates!
            Don't support selection of single cartesian coordinates -- sorry ...
  !
 charge density and potential will be updated during run
 spin polarized calculation
 Variant of blocked Davidson
 Davidson routine will perform the subspace rotation
 perform sub-space diagonalisation
    after iterative eigenvector-optimisation
 modified Broyden-mixing scheme, WC =      100.0
 initial mixing is a Kerker type mixing with AMIX =  0.4000 and BMIX =      1.0000
 Hartree-type preconditioning will be used
 using additional bands           34
 reciprocal scheme for non local part
 use partial core corrections
 calculate Harris-corrections to forces 
   (improved forces if not selfconsistent)
 use gradient corrections 
 use of overlap-Matrix (Vanderbilt PP)
 Methfessel and Paxton  Order N= 1 SIGMA  =   0.20


--------------------------------------------------------------------------------------------------------


  energy-cutoff  :      400.00
  volume of cell :      533.67
      direct lattice vectors                 reciprocal lattice vectors
     5.133595467  0.000000000  0.000000000     0.194795248 -0.112465089  0.000000000
     2.566797733  4.445824087  0.000000000     0.000000000  0.224930177  0.000000000
     0.000000000  0.000000000 23.383125305     0.000000000  0.000000000  0.042765883

  length of vectors
     5.133595467  5.133595467 23.383125305     0.224930177  0.224930177  0.042765883


 
 k-points in units of 2pi/SCALE and weight: Auto-mesh                               
   0.00000000  0.00000000  0.00000000       0.111
   0.06493175 -0.03748836  0.00000000       0.667
  -0.06493175  0.11246509  0.00000000       0.222
 
 k-points in reciprocal lattice and weights: Auto-mesh                               
   0.00000000  0.00000000  0.00000000       0.111
   0.33333333 -0.00000000  0.00000000       0.667
  -0.33333333  0.33333333  0.00000000       0.222
 
 position of ions in fractional coordinates (direct lattice) 
   0.00000000  0.00000000  0.00000000
   0.00000000  0.50000000  0.00000000
   0.50000000  0.00000000  0.00000000
   0.50000000  0.50000000  0.00000000
   0.16666667  0.16666667  0.08962794
   0.16666667  0.66666667  0.08962794
   0.66666667  0.16666667  0.08962794
   0.66666667  0.66666667  0.08962794
   0.33333333  0.33333333  0.17925589
   0.33333333  0.83333333  0.17925589
   0.83333333  0.33333333  0.17925589
   0.83333333  0.83333333  0.17925589
   0.00000000  0.00000000  0.26888383
   0.00000000  0.50000000  0.26888383
   0.50000000  0.00000000  0.26888383
   0.50000000  0.50000000  0.26888383
   0.16666667  0.16666667  0.35851178
   0.16666667  0.66666667  0.35851178
   0.66666667  0.16666667  0.35851178
   0.66666667  0.66666667  0.35851178
 
 position of ions in cartesian coordinates  (Angst):
   0.00000000  0.00000000  0.00000000
   1.28339887  2.22291204  0.00000000
   2.56679773  0.00000000  0.00000000
   3.85019660  2.22291204  0.00000000
   1.28339887  0.74097068  2.09578146
   2.56679773  2.96388272  2.09578146
   3.85019660  0.74097068  2.09578146
   5.13359547  2.96388272  2.09578146
   2.56679773  1.48194136  4.19156292
   3.85019660  3.70485341  4.19156292
   5.13359547  1.48194136  4.19156292
   6.41699433  3.70485341  4.19156292
   0.00000000  0.00000000  6.28734439
   1.28339887  2.22291204  6.28734439
   2.56679773  0.00000000  6.28734439
   3.85019660  2.22291204  6.28734439
   1.28339887  0.74097068  8.38312585
   2.56679773  2.96388272  8.38312585
   3.85019660  0.74097068  8.38312585
   5.13359547  2.96388272  8.38312585
 


--------------------------------------------------------------------------------------------------------


 k-point   1 :   0.0000 0.0000 0.0000  plane waves:    9755
 k-point   2 :   0.3333-0.0000 0.0000  plane waves:    9678
 k-point   3 :  -0.3333 0.3333 0.0000  plane waves:    9684

 maximum and minimum number of plane-waves per node :      1971     1916

 maximum number of plane-waves:      9755
 maximum index in each direction: 
   IXMAX=    8   IYMAX=    8   IZMAX=   38
   IXMIN=   -8   IYMIN=   -8   IZMIN=  -38


 parallel 3D FFT for wavefunctions:
    minimum data exchange during FFTs selected (reduces bandwidth)
 parallel 3D FFT for charge:
    minimum data exchange during FFTs selected (reduces bandwidth)


 total amount of memory used by VASP MPI-rank0    45176. kBytes
=======================================================================

   base      :      30000. kBytes
   nonl-proj :       1482. kBytes
   fftplans  :       1966. kBytes
   grid      :       4540. kBytes
   one-center:        124. kBytes
   wavefun   :       7064. kBytes
 
     INWAV:  cpu time      0.0000: real time      0.0003
 Broyden mixing: mesh for mixing (old mesh)
   NGX = 17   NGY = 17   NGZ = 77
  (NGX  = 56   NGY  = 56   NGZ  =240)
  gives a total of  22253 points

 initial charge density was supplied:
 charge density of overlapping atoms calculated
 number of electron     220.0000000 magnetization      20.0000000
 keeping initial charge density in first step


--------------------------------------------------------------------------------------------------------


 Maximum index for augmentation-charges          330 (set IRDMAX)


--------------------------------------------------------------------------------------------------------


 First call to EWALD:  gamma=   0.219
 Maximum number of real-space cells 5x 5x 1
 Maximum number of reciprocal cells 2x 2x 7

    FEWALD:  cpu time      0.0019: real time      0.0019


--------------------------------------- Iteration      1(   1)  ---------------------------------------


    POTLOK:  cpu time      0.0526: real time      0.0531
    SETDIJ:  cpu time      0.0083: real time      0.0084
     EDDAV:  cpu time      1.6983: real time      1.7133
       DOS:  cpu time      0.0010: real time      0.0011
    --------------------------------------------
      LOOP:  cpu time      1.7603: real time      1.7758

 eigenvalue-minimisations  :  1728
 total energy-change (2. order) : 0.2010586E+04  (-0.8008892E+04)
 number of electron     220.0000000 magnetization      20.0000000
 augmentation part      220.0000000 magnetization      20.0000000

 Free energy of the ion-electron system (eV)
  ---------------------------------------------------
  alpha Z        PSCENC =       548.14535784
  Ewald energy   TEWEN  =     95577.27893823
  -Hartree energ DENC   =   -122606.96449788
  -exchange      EXHF   =         0.00000000
  -V(xc)+E(xc)   XCENC  =       913.41692047
  PAW double counting   =     24561.94992098   -26678.41863050
  entropy T*S    EENTRO =         0.02400658
  eigenvalues    EBANDS =      1876.00139626
  atomic energy  EATOM  =     27819.15280400
  Solvation  Ediel_sol  =         0.00000000
  ---------------------------------------------------
  free energy    TOTEN  =      2010.58621597 eV

  energy without entropy =     2010.56220939  energy(sigma->0) =     2010.57821378


--------------------------------------------------------------------------------------------------------




--------------------------------------- Iteration      1(   2)  ---------------------------------------


     EDDAV:  cpu time      1.6791: real time      1.6944
       DOS:  cpu time      0.0012: real time      0.0012
    --------------------------------------------
      LOOP:  cpu time      1.6804: real time      1.6956

 eigenvalue-minimisations  :  1728
 total energy-change (2. order) :-0.1790028E+04  (-0.1713727E+04)
 number of electron     220.0000000 magnetization      20.0000000
 augmentation part      220.0000000 magnetization      20.0000000

 Free energy of the ion-electron system (eV)
  ---------------------------------------------------
  alpha Z        PSCENC =       548.14535784
  Ewald energy   TEWEN  =     95577.27893823
  -Hartree energ DENC   =   -122606.96449788
  -exchange      EXHF   =         0.00000000
  -V(xc)+E(xc)   XCENC  =       913.41692047
  PAW double counting   =     24561.94992098   -26678.41863050
  entropy T*S    EENTRO =        -0.01685658
  eigenvalues    EBANDS =        86.01403705
  atomic energy  EATOM  =     27819.15280400
  Solvation  Ediel_sol  =         0.00000000
  ---------------------------------------------------
  free energy    TOTEN  =       220.55799360 eV

  energy without entropy =      220.57485019  energy(sigma->0) =      220.56361246


--------------------------------------------------------------------------------------------------------




--------------------------------------- Iteration      1(   3)  ---------------------------------------


     EDDAV:  cpu time      1.6621: real time      1.6768
       DOS:  cpu time      0.0013: real time      0.0013
    --------------------------------------------
      LOOP:  cpu time      1.6634: real time      1.6781

 eigenvalue-minimisations  :  1728
 total energy-change (2. order) :-0.2870282E+03  (-0.2591878E+03)
 number of electron     220.0000000 magnetization      20.0000000
 augmentation part      220.0000000 magnetization      20.0000000

 Free energy of the ion-electron system (eV)
  ---------------------------------------------------
  alpha Z        PSCENC =       548.14535784
  Ewald energy   TEWEN  =     95577.27893823
  -Hartree energ DENC   =   -122606.96449788
  -exchange      EXHF   =         0.00000000
  -V(xc)+E(xc)   XCENC  =       913.41692047
  PAW double counting   =     24561.94992098   -26678.41863050
  entropy T*S    EENTRO =         0.04707803
  eigenvalues    EBANDS =      -201.07809182
  atomic energy  EATOM  =     27819.15280400
  Solvation  Ediel_sol  =         0.00000000
  ---------------------------------------------------
  free energy    TOTEN  =       -66.47020066 eV

  energy without entropy =      -66.51727869  energy(sigma->0) =      -66.48589334


--------------------------------------------------------------------------------------------------------




--------------------------------------- Iteration      1(   4)  ---------------------------------------


     EDDAV:  cpu time      1.8226: real time      1.8382
       DOS:  cpu time      0.0014: real time      0.0014
    --------------------------------------------
      LOOP:  cpu time      1.8240: real time      1.8396

 eigenvalue-minimisations  :  1936
 total energy-change (2. order) :-0.1737714E+02  (-0.1698934E+02)
 number of electron     220.0000000 magnetization      20.0000000
 augmentation part      220.0000000 magnetization      20.0000000

 Free energy of the ion-electron system (eV)
  ---------------------------------------------------
  alpha Z        PSCENC =       548.14535784
  Ewald energy   TEWEN  =     95577.27893823
  -Hartree energ DENC   =   -122606.96449788
  -exchange      EXHF   =         0.00000000
  -V(xc)+E(xc)   XCENC  =       913.41692047
  PAW double counting   =     24561.94992098   -26678.41863050
  entropy T*S    EENTRO =         0.04142506
  eigenvalues    EBANDS =      -218.44957562
  atomic energy  EATOM  =     27819.15280400
  Solvation  Ediel_sol  =         0.00000000
  ---------------------------------------------------
  free energy    TOTEN  =       -83.84733743 eV

  energy without entropy =      -83.88876248  energy(sigma->0) =      -83.86114578


--------------------------------------------------------------------------------------------------------




--------------------------------------- Iteration      1(   5)  ---------------------------------------


     EDDAV:  cpu time      1.8077: real time      1.8235
       DOS:  cpu time      0.0014: real time      0.0014
    CHARGE:  cpu time      0.3053: real time      0.3066
    MIXING:  cpu time      0.0050: real time      0.0053
    --------------------------------------------
      LOOP:  cpu time      2.1195: real time      2.1369

 eigenvalue-minimisations  :  1936
 total energy-change (2. order) :-0.3703412E+00  (-0.3697289E+00)
 number of electron     219.9999594 magnetization      18.3508777
 augmentation part      129.8378743 magnetization      17.5727318

 Broyden mixing:
  rms(total) = 0.40749E+01    rms(broyden)= 0.40748E+01
  rms(prec ) = 0.42270E+01
  weight for this iteration     100.00

 Free energy of the ion-electron system (eV)
  ---------------------------------------------------
  alpha Z        PSCENC =       548.14535784
  Ewald energy   TEWEN  =     95577.27893823
  -Hartree energ DENC   =   -122606.96449788
  -exchange      EXHF   =         0.00000000
  -V(xc)+E(xc)   XCENC  =       913.41692047
  PAW double counting   =     24561.94992098   -26678.41863050
  entropy T*S    EENTRO =         0.04235052
  eigenvalues    EBANDS =      -218.82084229
  atomic energy  EATOM  =     27819.15280400
  Solvation  Ediel_sol  =         0.00000000
  ---------------------------------------------------
  free energy    TOTEN  =       -84.21767863 eV

  energy without entropy =      -84.26002916  energy(sigma->0) =      -84.23179547


--------------------------------------------------------------------------------------------------------




--------------------------------------- Iteration      1(   6)  ---------------------------------------


    POTLOK:  cpu time      0.0543: real time      0.0550
    SETDIJ:  cpu time      0.0094: real time      0.0094
     EDDAV:  cpu time      1.7721: real time      1.7868
       DOS:  cpu time      0.0012: real time      0.0012
    CHARGE:  cpu time      0.2913: real time      0.2927
    MIXING:  cpu time      0.0082: real time      0.0082
    --------------------------------------------
      LOOP:  cpu time      2.1365: real time      2.1533

 eigenvalue-minimisations  :  1864
 total energy-change (2. order) : 0.1417325E+02  (-0.1975373E+02)
 number of electron     219.9999551 magnetization      17.2982962
 augmentation part      147.2549561 magnetization      12.4169636

 Broyden mixing:
  rms(total) = 0.22059E+01    rms(broyden)= 0.22058E+01
  rms(prec ) = 0.22999E+01
  weight for this iteration     100.00

 eigenvalues of (default mixing * dielectric matrix)
  average eigenvalue GAMMA=   0.7782
  0.7782

 Free energy of the ion-electron system (eV)
  ---------------------------------------------------
  alpha Z        PSCENC =       548.14535784
  Ewald energy   TEWEN  =     95577.27893823
  -Hartree energ DENC   =   -122037.00298479
  -exchange      EXHF   =         0.00000000
  -V(xc)+E(xc)   XCENC  =       889.25452919
  PAW double counting   =     24814.40247699   -26819.31963048
  entropy T*S    EENTRO =        -0.07103421
  eigenvalues    EBANDS =      -861.88488788
  atomic energy  EATOM  =     27819.15280400
  Solvation  Ediel_sol  =         0.00000000
  ---------------------------------------------------
  free energy    TOTEN  =       -70.04443112 eV

  energy without entropy =      -69.97339692  energy(sigma->0) =      -70.02075305


--------------------------------------------------------------------------------------------------------




--------------------------------------- Iteration      1(   7)  ---------------------------------------


    POTLOK:  cpu time      0.0495: real time      0.0500
    SETDIJ:  cpu time      0.0072: real time      0.0072
     EDDAV:  cpu time      1.7443: real time      1.7589
       DOS:  cpu time      0.0013: real time      0.0013
    CHARGE:  cpu time      0.2953: real time      0.2970
    MIXING:  cpu time      0.0026: real time      0.0026
    --------------------------------------------
      LOOP:  cpu time      2.1002: real time      2.1171

 eigenvalue-minimisations  :  1848
 total energy-change (2. order) : 0.1064654E+02  (-0.5197357E+01)
 number of electron     219.9999578 magnetization      15.9551733
 augmentation part      140.7301556 magnetization       9.9442736

 Broyden mixing:
  rms(total) = 0.79980E+00    rms(broyden)= 0.79975E+00
  rms(prec ) = 0.80779E+00
  weight for this iteration     100.00

 eigenvalues of (default mixing * dielectric matrix)
  average eigenvalue GAMMA=   0.8084
  0.9533  0.6636

 Free energy of the ion-electron system (eV)
  ---------------------------------------------------
  alpha Z        PSCENC =       548.14535784
  Ewald energy   TEWEN  =     95577.27893823
  -Hartree energ DENC   =   -122313.00556012
  -exchange      EXHF   =         0.00000000
  -V(xc)+E(xc)   XCENC  =       901.24581167
  PAW double counting   =     25346.34954964   -27454.52744345
  entropy T*S    EENTRO =         0.01721014
  eigenvalues    EBANDS =      -484.05455673
  atomic energy  EATOM  =     27819.15280400
  Solvation  Ediel_sol  =         0.00000000
  ---------------------------------------------------
  free energy    TOTEN  =       -59.39788879 eV

  energy without entropy =      -59.41509893  energy(sigma->0) =      -59.40362550


--------------------------------------------------------------------------------------------------------




--------------------------------------- Iteration      1(   8)  ---------------------------------------


    POTLOK:  cpu time      0.0478: real time      0.0482
    SETDIJ:  cpu time      0.0070: real time      0.0071
     EDDAV:  cpu time      1.8913: real time      1.9073
       DOS:  cpu time      0.0013: real time      0.0013
    CHARGE:  cpu time      0.2881: real time      0.2892
    MIXING:  cpu time      0.0031: real time      0.0031
    --------------------------------------------
      LOOP:  cpu time      2.2387: real time      2.2563

 eigenvalue-minimisations  :  2032
 total energy-change (2. order) : 0.5200850E+00  (-0.4477041E+00)
 number of electron     219.9999569 magnetization      15.0201298
 augmentation part      140.2725423 magnetization       9.2408446

 Broyden mixing:
  rms(total) = 0.78208E+00    rms(broyden)= 0.78207E+00
  rms(prec ) = 0.79866E+00
  weight for this iteration     100.00

 eigenvalues of (default mixing * dielectric matrix)
  average eigenvalue GAMMA=   0.7205
  1.0282  0.5666  0.5666

 Free energy of the ion-electron system (eV)
  ---------------------------------------------------
  alpha Z        PSCENC =       548.14535784
  Ewald energy   TEWEN  =     95577.27893823
  -Hartree energ DENC   =   -122319.22088853
  -exchange      EXHF   =         0.00000000
  -V(xc)+E(xc)   XCENC  =       901.14387851
  PAW double counting   =     25723.66760199   -27856.18691280
  entropy T*S    EENTRO =        -0.01612588
  eigenvalues    EBANDS =      -452.84245717
  atomic energy  EATOM  =     27819.15280400
  Solvation  Ediel_sol  =         0.00000000
  ---------------------------------------------------
  free energy    TOTEN  =       -58.87780382 eV

  energy without entropy =      -58.86167794  energy(sigma->0) =      -58.87242853


--------------------------------------------------------------------------------------------------------




--------------------------------------- Iteration      1(   9)  ---------------------------------------


    POTLOK:  cpu time      0.0496: real time      0.0500
    SETDIJ:  cpu time      0.0071: real time      0.0072
     EDDAV:  cpu time      1.8707: real time      1.8869
       DOS:  cpu time      0.0013: real time      0.0013
    CHARGE:  cpu time      0.2932: real time      0.2943
    MIXING:  cpu time      0.0032: real time      0.0032
    --------------------------------------------
      LOOP:  cpu time      2.2251: real time      2.2428

 eigenvalue-minimisations  :  2024
 total energy-change (2. order) : 0.3644725E+00  (-0.1737828E+00)
 number of electron     219.9999581 magnetization      10.4638313
 augmentation part      140.2482337 magnetization       4.7101265

 Broyden mixing:
  rms(total) = 0.67040E+00    rms(broyden)= 0.67039E+00
  rms(prec ) = 0.67713E+00
  weight for this iteration     100.00

 eigenvalues of (default mixing * dielectric matrix)
  average eigenvalue GAMMA=   1.0362
  2.1650  0.8832  0.7291  0.3675

 Free energy of the ion-electron system (eV)
  ---------------------------------------------------
  alpha Z        PSCENC =       548.14535784
  Ewald energy   TEWEN  =     95577.27893823
  -Hartree energ DENC   =   -122334.42861166
  -exchange      EXHF   =         0.00000000
  -V(xc)+E(xc)   XCENC  =       900.69100783
  PAW double counting   =     25890.44676370   -28032.72854013
  entropy T*S    EENTRO =        -0.00135853
  eigenvalues    EBANDS =      -427.06969261
  atomic energy  EATOM  =     27819.15280400
  Solvation  Ediel_sol  =         0.00000000
  ---------------------------------------------------
  free energy    TOTEN  =       -58.51333134 eV

  energy without entropy =      -58.51197280  energy(sigma->0) =      -58.51287849


--------------------------------------------------------------------------------------------------------




--------------------------------------- Iteration      1(  10)  ---------------------------------------


    POTLOK:  cpu time      0.0481: real time      0.0511
    SETDIJ:  cpu time      0.0072: real time      0.0073
     EDDAV:  cpu time      2.2522: real time      2.2721
       DOS:  cpu time      0.0013: real time      0.0013
    CHARGE:  cpu time      0.2885: real time      0.2897
    MIXING:  cpu time      0.0033: real time      0.0033
    --------------------------------------------
      LOOP:  cpu time      2.6006: real time      2.6247

 eigenvalue-minimisations  :  2560
 total energy-change (2. order) : 0.4687971E+00  (-0.2638190E+00)
 number of electron     219.9999587 magnetization       8.0505167
 augmentation part      140.6198769 magnetization       3.3842734

 Broyden mixing:
  rms(total) = 0.50828E+00    rms(broyden)= 0.50825E+00
  rms(prec ) = 0.52932E+00
  weight for this iteration     100.00

 eigenvalues of (default mixing * dielectric matrix)
  average eigenvalue GAMMA=   1.2855
  3.8110  0.9134  0.6602  0.6602  0.3828

 Free energy of the ion-electron system (eV)
  ---------------------------------------------------
  alpha Z        PSCENC =       548.14535784
  Ewald energy   TEWEN  =     95577.27893823
  -Hartree energ DENC   =   -122368.20030918
  -exchange      EXHF   =         0.00000000
  -V(xc)+E(xc)   XCENC  =       898.30866867
  PAW double counting   =     26524.93268394   -28701.14731467
  entropy T*S    EENTRO =        -0.05448282
  eigenvalues    EBANDS =      -356.46088023
  atomic energy  EATOM  =     27819.15280400
  Solvation  Ediel_sol  =         0.00000000
  ---------------------------------------------------
  free energy    TOTEN  =       -58.04453423 eV

  energy without entropy =      -57.99005141  energy(sigma->0) =      -58.02637329


--------------------------------------------------------------------------------------------------------




--------------------------------------- Iteration      1(  11)  ---------------------------------------


    POTLOK:  cpu time      0.0476: real time      0.0481
    SETDIJ:  cpu time      0.0069: real time      0.0070
     EDDAV:  cpu time      1.9209: real time      1.9375
       DOS:  cpu time      0.0013: real time      0.0013
    CHARGE:  cpu time      0.2943: real time      0.2955
    MIXING:  cpu time      0.0035: real time      0.0035
    --------------------------------------------
      LOOP:  cpu time      2.2746: real time      2.2930

 eigenvalue-minimisations  :  2064
 total energy-change (2. order) :-0.2441834E+00  (-0.1338242E+00)
 number of electron     219.9999577 magnetization       6.1698679
 augmentation part      140.6201397 magnetization       1.6203480

 Broyden mixing:
  rms(total) = 0.40819E+00    rms(broyden)= 0.40817E+00
  rms(prec ) = 0.48164E+00
  weight for this iteration     100.00

 eigenvalues of (default mixing * dielectric matrix)
  average eigenvalue GAMMA=   1.4640
  5.4401  1.1136  0.7452  0.7452  0.4053  0.3349

 Free energy of the ion-electron system (eV)
  ---------------------------------------------------
  alpha Z        PSCENC =       548.14535784
  Ewald energy   TEWEN  =     95577.27893823
  -Hartree energ DENC   =   -122409.14401537
  -exchange      EXHF   =         0.00000000
  -V(xc)+E(xc)   XCENC  =       897.61761867
  PAW double counting   =     26679.32625046   -28863.94636384
  entropy T*S    EENTRO =        -0.04886211
  eigenvalues    EBANDS =      -306.67044555
  atomic energy  EATOM  =     27819.15280400
  Solvation  Ediel_sol  =         0.00000000
  ---------------------------------------------------
  free energy    TOTEN  =       -58.28871768 eV

  energy without entropy =      -58.23985557  energy(sigma->0) =      -58.27243031


--------------------------------------------------------------------------------------------------------




--------------------------------------- Iteration      1(  12)  ---------------------------------------


    POTLOK:  cpu time      0.0494: real time      0.0498
    SETDIJ:  cpu time      0.0072: real time      0.0072
     EDDAV:  cpu time      2.1344: real time      2.1524
       DOS:  cpu time      0.0013: real time      0.0013
    CHARGE:  cpu time      0.2868: real time      0.2884
    MIXING:  cpu time      0.0031: real time      0.0031
    --------------------------------------------
      LOOP:  cpu time      2.4821: real time      2.5023

 eigenvalue-minimisations  :  2400
 total energy-change (2. order) :-0.1960780E+01  (-0.3206349E+00)
 number of electron     219.9999575 magnetization       5.1636803
 augmentation part      140.6139684 magnetization       1.7020941

 Broyden mixing:
  rms(total) = 0.44190E+00    rms(broyden)= 0.44183E+00
  rms(prec ) = 0.68883E+00
  weight for this iteration     100.00

 eigenvalues of (default mixing * dielectric matrix)
  average eigenvalue GAMMA=   1.5013
  6.6029  1.2770  0.7857  0.7857  0.4685  0.3795  0.2101

 Free energy of the ion-electron system (eV)
  ---------------------------------------------------
  alpha Z        PSCENC =       548.14535784
  Ewald energy   TEWEN  =     95577.27893823
  -Hartree energ DENC   =   -122411.50961977
  -exchange      EXHF   =         0.00000000
  -V(xc)+E(xc)   XCENC  =       896.43678899
  PAW double counting   =     26621.73336283   -28802.48984857
  entropy T*S    EENTRO =        -0.00792588
  eigenvalues    EBANDS =      -308.98935529
  atomic energy  EATOM  =     27819.15280400
  Solvation  Ediel_sol  =         0.00000000
  ---------------------------------------------------
  free energy    TOTEN  =       -60.24949763 eV

  energy without entropy =      -60.24157174  energy(sigma->0) =      -60.24685567


--------------------------------------------------------------------------------------------------------




--------------------------------------- Iteration      1(  13)  ---------------------------------------


    POTLOK:  cpu time      0.0476: real time      0.0488
    SETDIJ:  cpu time      0.0077: real time      0.0078
     EDDAV:  cpu time      2.1808: real time      2.2000
       DOS:  cpu time      0.0013: real time      0.0013
    CHARGE:  cpu time      0.2892: real time      0.2905
    MIXING:  cpu time      0.0034: real time      0.0034
    --------------------------------------------
      LOOP:  cpu time      2.5301: real time      2.5518

 eigenvalue-minimisations  :  2464
 total energy-change (2. order) :-0.6145327E+00  (-0.3148985E+00)
 number of electron     219.9999581 magnetization       2.7820018
 augmentation part      140.7259145 magnetization      -0.5017640

 Broyden mixing:
  rms(total) = 0.28053E+00    rms(broyden)= 0.28046E+00
  rms(prec ) = 0.32255E+00
  weight for this iteration     100.00

 eigenvalues of (default mixing * dielectric matrix)
  average eigenvalue GAMMA=   1.7559
  9.0331  1.8313  0.8361  0.8361  0.6584  0.3961  0.3035  0.1529

 Free energy of the ion-electron system (eV)
  ---------------------------------------------------
  alpha Z        PSCENC =       548.14535784
  Ewald energy   TEWEN  =     95577.27893823
  -Hartree energ DENC   =   -122407.07726170
  -exchange      EXHF   =         0.00000000
  -V(xc)+E(xc)   XCENC  =       895.91018499
  PAW double counting   =     26550.44448031   -28727.06209808
  entropy T*S    EENTRO =        -0.00002397
  eigenvalues    EBANDS =      -317.65641191
  atomic energy  EATOM  =     27819.15280400
  Solvation  Ediel_sol  =         0.00000000
  ---------------------------------------------------
  free energy    TOTEN  =       -60.86403030 eV

  energy without entropy =      -60.86400633  energy(sigma->0) =      -60.86402231


--------------------------------------------------------------------------------------------------------




--------------------------------------- Iteration      1(  14)  ---------------------------------------


    POTLOK:  cpu time      0.0480: real time      0.0491
    SETDIJ:  cpu time      0.0071: real time      0.0071
     EDDAV:  cpu time      2.0685: real time      2.0864
       DOS:  cpu time      0.0013: real time      0.0013
    CHARGE:  cpu time      0.2851: real time      0.2865
    MIXING:  cpu time      0.0084: real time      0.0085
    --------------------------------------------
      LOOP:  cpu time      2.4184: real time      2.4389

 eigenvalue-minimisations  :  2304
 total energy-change (2. order) :-0.4775016E+01  (-0.3584335E+00)
 number of electron     219.9999575 magnetization       2.5886620
 augmentation part      140.4543562 magnetization       0.2499758

 Broyden mixing:
  rms(total) = 0.12325E+00    rms(broyden)= 0.12317E+00
  rms(prec ) = 0.13627E+00
  weight for this iteration     100.00

 eigenvalues of (default mixing * dielectric matrix)
  average eigenvalue GAMMA=   1.8413
 10.1691  2.3926  0.9105  0.9105  0.6593  0.6593  0.4016  0.3160  0.1528

 Free energy of the ion-electron system (eV)
  ---------------------------------------------------
  alpha Z        PSCENC =       548.14535784
  Ewald energy   TEWEN  =     95577.27893823
  -Hartree energ DENC   =   -122420.39178861
  -exchange      EXHF   =         0.00000000
  -V(xc)+E(xc)   XCENC  =       893.49613159
  PAW double counting   =     26184.64150198   -28341.53663346
  entropy T*S    EENTRO =         0.00063427
  eigenvalues    EBANDS =      -326.42599183
  atomic energy  EATOM  =     27819.15280400
  Solvation  Ediel_sol  =         0.00000000
  ---------------------------------------------------
  free energy    TOTEN  =       -65.63904600 eV

  energy without entropy =      -65.63968027  energy(sigma->0) =      -65.63925742


--------------------------------------------------------------------------------------------------------




--------------------------------------- Iteration      1(  15)  ---------------------------------------


    POTLOK:  cpu time      0.0504: real time      0.0517
    SETDIJ:  cpu time      0.0084: real time      0.0084
     EDDAV:  cpu time      1.7488: real time      1.7638
       DOS:  cpu time      0.0013: real time      0.0013
    CHARGE:  cpu time      0.2869: real time      0.2881
    MIXING:  cpu time      0.0044: real time      0.0044
    --------------------------------------------
      LOOP:  cpu time      2.1002: real time      2.1177

 eigenvalue-minimisations  :  1840
 total energy-change (2. order) :-0.1875482E+01  (-0.1608185E+00)
 number of electron     219.9999574 magnetization       2.3361063
 augmentation part      140.3740676 magnetization       0.7143380

 Broyden mixing:
  rms(total) = 0.98899E-01    rms(broyden)= 0.98831E-01
  rms(prec ) = 0.10973E+00
  weight for this iteration     100.00

 eigenvalues of (default mixing * dielectric matrix)
  average eigenvalue GAMMA=   1.7512
 10.4230  2.5103  0.8394  0.8394  0.7005  0.7005  0.6331  0.4018  0.3115  0.1530

 Free energy of the ion-electron system (eV)
  ---------------------------------------------------
  alpha Z        PSCENC =       548.14535784
  Ewald energy   TEWEN  =     95577.27893823
  -Hartree energ DENC   =   -122404.41920114
  -exchange      EXHF   =         0.00000000
  -V(xc)+E(xc)   XCENC  =       892.63917961
  PAW double counting   =     26066.63771040   -28217.15454576
  entropy T*S    EENTRO =        -0.01394719
  eigenvalues    EBANDS =      -349.78082366
  atomic energy  EATOM  =     27819.15280400
  Solvation  Ediel_sol  =         0.00000000
  ---------------------------------------------------
  free energy    TOTEN  =       -67.51452768 eV

  energy without entropy =      -67.50058049  energy(sigma->0) =      -67.50987861


--------------------------------------------------------------------------------------------------------




--------------------------------------- Iteration      1(  16)  ---------------------------------------


    POTLOK:  cpu time      0.0489: real time      0.0493
    SETDIJ:  cpu time      0.0071: real time      0.0072
     EDDAV:  cpu time      1.7606: real time      1.7759
       DOS:  cpu time      0.0012: real time      0.0013
    CHARGE:  cpu time      0.2845: real time      0.2856
    MIXING:  cpu time      0.0039: real time      0.0039
    --------------------------------------------
      LOOP:  cpu time      2.1062: real time      2.1230

 eigenvalue-minimisations  :  1872
 total energy-change (2. order) :-0.6165043E+00  (-0.2230004E-01)
 number of electron     219.9999574 magnetization       1.5770789
 augmentation part      140.3794993 magnetization       0.2812129

 Broyden mixing:
  rms(total) = 0.83384E-01    rms(broyden)= 0.83361E-01
  rms(prec ) = 0.89603E-01
  weight for this iteration     100.00

 eigenvalues of (default mixing * dielectric matrix)
  average eigenvalue GAMMA=   1.9048
 11.7436  2.8950  1.5216  0.9924  0.9924  0.6817  0.6817  0.5734  0.4032  0.3144
  0.1530

 Free energy of the ion-electron system (eV)
  ---------------------------------------------------
  alpha Z        PSCENC =       548.14535784
  Ewald energy   TEWEN  =     95577.27893823
  -Hartree energ DENC   =   -122390.82711822
  -exchange      EXHF   =         0.00000000
  -V(xc)+E(xc)   XCENC  =       892.26851907
  PAW double counting   =     26035.88325058   -28185.21435524
  entropy T*S    EENTRO =        -0.01682210
  eigenvalues    EBANDS =      -364.80160616
  atomic energy  EATOM  =     27819.15280400
  Solvation  Ediel_sol  =         0.00000000
  ---------------------------------------------------
  free energy    TOTEN  =       -68.13103202 eV

  energy without entropy =      -68.11420992  energy(sigma->0) =      -68.12542465


--------------------------------------------------------------------------------------------------------




--------------------------------------- Iteration      1(  17)  ---------------------------------------


    POTLOK:  cpu time      0.0490: real time      0.0494
    SETDIJ:  cpu time      0.0082: real time      0.0083
     EDDAV:  cpu time      2.1204: real time      2.1386
       DOS:  cpu time      0.0013: real time      0.0013
    CHARGE:  cpu time      0.2898: real time      0.2910
    MIXING:  cpu time      0.0042: real time      0.0042
    --------------------------------------------
      LOOP:  cpu time      2.4729: real time      2.4928

 eigenvalue-minimisations  :  2384
 total energy-change (2. order) :-0.5218594E+00  (-0.3920720E-01)
 number of electron     219.9999574 magnetization       1.1986136
 augmentation part      140.3473194 magnetization       0.5172942

 Broyden mixing:
  rms(total) = 0.76143E-01    rms(broyden)= 0.76108E-01
  rms(prec ) = 0.83464E-01
  weight for this iteration     100.00

 eigenvalues of (default mixing * dielectric matrix)
  average eigenvalue GAMMA=   1.8707
 12.4204  2.9286  1.9404  0.9582  0.9582  0.6600  0.6600  0.3144  0.4039  0.5420
  0.5089  0.1530

 Free energy of the ion-electron system (eV)
  ---------------------------------------------------
  alpha Z        PSCENC =       548.14535784
  Ewald energy   TEWEN  =     95577.27893823
  -Hartree energ DENC   =   -122366.14159142
  -exchange      EXHF   =         0.00000000
  -V(xc)+E(xc)   XCENC  =       891.96458001
  PAW double counting   =     26015.78400823   -28165.89793814
  entropy T*S    EENTRO =        -0.00853215
  eigenvalues    EBANDS =      -388.93051801
  atomic energy  EATOM  =     27819.15280400
  Solvation  Ediel_sol  =         0.00000000
  ---------------------------------------------------
  free energy    TOTEN  =       -68.65289142 eV

  energy without entropy =      -68.64435927  energy(sigma->0) =      -68.65004737


--------------------------------------------------------------------------------------------------------




--------------------------------------- Iteration      1(  18)  ---------------------------------------


    POTLOK:  cpu time      0.0476: real time      0.0480
    SETDIJ:  cpu time      0.0070: real time      0.0070
     EDDAV:  cpu time      2.0401: real time      2.0579
       DOS:  cpu time      0.0013: real time      0.0013
    CHARGE:  cpu time      0.2823: real time      0.2836
    MIXING:  cpu time      0.0042: real time      0.0043
    --------------------------------------------
      LOOP:  cpu time      2.3824: real time      2.4020

 eigenvalue-minimisations  :  2272
 total energy-change (2. order) :-0.9711055E-01  (-0.8368883E-02)
 number of electron     219.9999572 magnetization       0.8070145
 augmentation part      140.3461500 magnetization       0.3194250

 Broyden mixing:
  rms(total) = 0.53706E-01    rms(broyden)= 0.53694E-01
  rms(prec ) = 0.56995E-01
  weight for this iteration     100.00

 eigenvalues of (default mixing * dielectric matrix)
  average eigenvalue GAMMA=   1.9186
 13.2220  2.7356  2.7356  1.1206  0.9370  0.9370  0.7168  0.7168  0.5782  0.1530
  0.3140  0.4047  0.3707

 Free energy of the ion-electron system (eV)
  ---------------------------------------------------
  alpha Z        PSCENC =       548.14535784
  Ewald energy   TEWEN  =     95577.27893823
  -Hartree energ DENC   =   -122357.81662370
  -exchange      EXHF   =         0.00000000
  -V(xc)+E(xc)   XCENC  =       891.83508776
  PAW double counting   =     26031.75601094   -28183.39808511
  entropy T*S    EENTRO =         0.00306608
  eigenvalues    EBANDS =      -395.70655801
  atomic energy  EATOM  =     27819.15280400
  Solvation  Ediel_sol  =         0.00000000
  ---------------------------------------------------
  free energy    TOTEN  =       -68.75000197 eV

  energy without entropy =      -68.75306805  energy(sigma->0) =      -68.75102399


--------------------------------------------------------------------------------------------------------




--------------------------------------- Iteration      1(  19)  ---------------------------------------


    POTLOK:  cpu time      0.0491: real time      0.0495
    SETDIJ:  cpu time      0.0072: real time      0.0073
     EDDAV:  cpu time      2.0431: real time      2.0605
       DOS:  cpu time      0.0013: real time      0.0013
    CHARGE:  cpu time      0.2941: real time      0.2952
    MIXING:  cpu time      0.0048: real time      0.0049
    --------------------------------------------
      LOOP:  cpu time      2.3996: real time      2.4186

 eigenvalue-minimisations  :  2240
 total energy-change (2. order) :-0.2487123E+00  (-0.1145738E-01)
 number of electron     219.9999573 magnetization       0.5171127
 augmentation part      140.3867501 magnetization       0.1810426

 Broyden mixing:
  rms(total) = 0.43929E-01    rms(broyden)= 0.43919E-01
  rms(prec ) = 0.56561E-01
  weight for this iteration     100.00

 eigenvalues of (default mixing * dielectric matrix)
  average eigenvalue GAMMA=   1.9702
 13.9864  3.6306  2.7598  1.4020  0.8559  0.8559  0.7924  0.7924  0.6389  0.6389
  0.1530  0.4031  0.3142  0.3594

 Free energy of the ion-electron system (eV)
  ---------------------------------------------------
  alpha Z        PSCENC =       548.14535784
  Ewald energy   TEWEN  =     95577.27893823
  -Hartree energ DENC   =   -122347.74242310
  -exchange      EXHF   =         0.00000000
  -V(xc)+E(xc)   XCENC  =       891.41928349
  PAW double counting   =     26066.99415049   -28220.63497447
  entropy T*S    EENTRO =         0.01136894
  eigenvalues    EBANDS =      -403.62321971
  atomic energy  EATOM  =     27819.15280400
  Solvation  Ediel_sol  =         0.00000000
  ---------------------------------------------------
  free energy    TOTEN  =       -68.99871430 eV

  energy without entropy =      -69.01008324  energy(sigma->0) =      -69.00250395


--------------------------------------------------------------------------------------------------------




--------------------------------------- Iteration      1(  20)  ---------------------------------------


    POTLOK:  cpu time      0.0495: real time      0.0499
    SETDIJ:  cpu time      0.0072: real time      0.0073
     EDDAV:  cpu time      2.1393: real time      2.1574
       DOS:  cpu time      0.0013: real time      0.0013
    CHARGE:  cpu time      0.2820: real time      0.2836
    MIXING:  cpu time      0.0055: real time      0.0056
    --------------------------------------------
      LOOP:  cpu time      2.4848: real time      2.5051

 eigenvalue-minimisations  :  2408
 total energy-change (2. order) : 0.1419548E-02  (-0.5595886E-02)
 number of electron     219.9999573 magnetization       0.7321132
 augmentation part      140.4386761 magnetization       0.5871551

 Broyden mixing:
  rms(total) = 0.34096E-01    rms(broyden)= 0.34089E-01
  rms(prec ) = 0.38201E-01
  weight for this iteration     100.00

 eigenvalues of (default mixing * dielectric matrix)
  average eigenvalue GAMMA=   1.8925
 13.6794  3.3077  3.0934  1.6730  1.0080  1.0080  0.7646  0.7646  0.6211  0.6211
  0.6211  0.1530  0.4025  0.3143  0.3554

 Free energy of the ion-electron system (eV)
  ---------------------------------------------------
  alpha Z        PSCENC =       548.14535784
  Ewald energy   TEWEN  =     95577.27893823
  -Hartree energ DENC   =   -122328.00412629
  -exchange      EXHF   =         0.00000000
  -V(xc)+E(xc)   XCENC  =       891.38105604
  PAW double counting   =     26055.73151251   -28209.17448217
  entropy T*S    EENTRO =         0.01424703
  eigenvalues    EBANDS =      -423.52260193
  atomic energy  EATOM  =     27819.15280400
  Solvation  Ediel_sol  =         0.00000000
  ---------------------------------------------------
  free energy    TOTEN  =       -68.99729475 eV

  energy without entropy =      -69.01154178  energy(sigma->0) =      -69.00204376


--------------------------------------------------------------------------------------------------------




--------------------------------------- Iteration      1(  21)  ---------------------------------------


    POTLOK:  cpu time      0.0476: real time      0.0480
    SETDIJ:  cpu time      0.0072: real time      0.0073
     EDDAV:  cpu time      2.0609: real time      2.0787
       DOS:  cpu time      0.0013: real time      0.0013
    CHARGE:  cpu time      0.2904: real time      0.2916
    MIXING:  cpu time      0.0045: real time      0.0045
    --------------------------------------------
      LOOP:  cpu time      2.4120: real time      2.4313

 eigenvalue-minimisations  :  2304
 total energy-change (2. order) :-0.5675516E+00  (-0.2726402E-02)
 number of electron     219.9999573 magnetization       0.5099147
 augmentation part      140.3633214 magnetization       0.2737531

 Broyden mixing:
  rms(total) = 0.32498E-01    rms(broyden)= 0.32496E-01
  rms(prec ) = 0.39484E-01
  weight for this iteration     100.00

 eigenvalues of (default mixing * dielectric matrix)
  average eigenvalue GAMMA=   1.9067
 13.7682  3.5494  3.5494  2.2273  0.9647  0.9647  0.9591  0.7635  0.7635  0.6266
  0.5736  0.5736  0.1530  0.4023  0.3142  0.3542

 Free energy of the ion-electron system (eV)
  ---------------------------------------------------
  alpha Z        PSCENC =       548.14535784
  Ewald energy   TEWEN  =     95577.27893823
  -Hartree energ DENC   =   -122330.64496268
  -exchange      EXHF   =         0.00000000
  -V(xc)+E(xc)   XCENC  =       890.97767991
  PAW double counting   =     26060.68528275   -28214.13198281
  entropy T*S    EENTRO =         0.01205847
  eigenvalues    EBANDS =      -421.04002209
  atomic energy  EATOM  =     27819.15280400
  Solvation  Ediel_sol  =         0.00000000
  ---------------------------------------------------
  free energy    TOTEN  =       -69.56484639 eV

  energy without entropy =      -69.57690486  energy(sigma->0) =      -69.56886588


--------------------------------------------------------------------------------------------------------




--------------------------------------- Iteration      1(  22)  ---------------------------------------


    POTLOK:  cpu time      0.0477: real time      0.0492
    SETDIJ:  cpu time      0.0069: real time      0.0070
     EDDAV:  cpu time      1.7238: real time      1.7386
       DOS:  cpu time      0.0019: real time      0.0019
    CHARGE:  cpu time      0.2853: real time      0.2865
    MIXING:  cpu time      0.0076: real time      0.0076
    --------------------------------------------
      LOOP:  cpu time      2.0732: real time      2.0909

 eigenvalue-minimisations  :  1816
 total energy-change (2. order) :-0.1826076E+00  (-0.1225050E-02)
 number of electron     219.9999573 magnetization       0.1055242
 augmentation part      140.3542005 magnetization      -0.0413497

 Broyden mixing:
  rms(total) = 0.24315E-01    rms(broyden)= 0.24314E-01
  rms(prec ) = 0.29990E-01
  weight for this iteration     100.00

 eigenvalues of (default mixing * dielectric matrix)
  average eigenvalue GAMMA=   1.9817
 14.1994  4.4911  3.8972  2.2671  1.5183  0.9843  0.9843  0.8109  0.8109  0.6653
  0.6653  0.5849  0.5849  0.1530  0.4024  0.3142  0.3546

 Free energy of the ion-electron system (eV)
  ---------------------------------------------------
  alpha Z        PSCENC =       548.14535784
  Ewald energy   TEWEN  =     95577.27893823
  -Hartree energ DENC   =   -122320.74589987
  -exchange      EXHF   =         0.00000000
  -V(xc)+E(xc)   XCENC  =       890.83087613
  PAW double counting   =     26051.10737607   -28204.16175517
  entropy T*S    EENTRO =         0.01130863
  eigenvalues    EBANDS =      -431.36645988
  atomic energy  EATOM  =     27819.15280400
  Solvation  Ediel_sol  =         0.00000000
  ---------------------------------------------------
  free energy    TOTEN  =       -69.74745403 eV

  energy without entropy =      -69.75876266  energy(sigma->0) =      -69.75122357


--------------------------------------------------------------------------------------------------------




--------------------------------------- Iteration      1(  23)  ---------------------------------------


    POTLOK:  cpu time      0.0489: real time      0.0507
    SETDIJ:  cpu time      0.0067: real time      0.0068
     EDDAV:  cpu time      1.9900: real time      2.0074
       DOS:  cpu time      0.0013: real time      0.0013
    CHARGE:  cpu time      0.2862: real time      0.2876
    MIXING:  cpu time      0.0035: real time      0.0036
    --------------------------------------------
      LOOP:  cpu time      2.3367: real time      2.3575

 eigenvalue-minimisations  :  2200
 total energy-change (2. order) :-0.1577723E+00  (-0.1085446E-02)
 number of electron     219.9999573 magnetization       0.0632490
 augmentation part      140.3954482 magnetization       0.0496367

 Broyden mixing:
  rms(total) = 0.10689E-01    rms(broyden)= 0.10684E-01
  rms(prec ) = 0.11455E-01
  weight for this iteration     100.00

 eigenvalues of (default mixing * dielectric matrix)
  average eigenvalue GAMMA=   2.0155
 14.2090  5.7990  4.0138  2.3420  1.7662  0.9782  0.9782  0.9960  0.7672  0.7672
  0.6477  0.6477  0.5716  0.5716  0.1530  0.4024  0.3142  0.3545

 Free energy of the ion-electron system (eV)
  ---------------------------------------------------
  alpha Z        PSCENC =       548.14535784
  Ewald energy   TEWEN  =     95577.27893823
  -Hartree energ DENC   =   -122306.12989843
  -exchange      EXHF   =         0.00000000
  -V(xc)+E(xc)   XCENC  =       890.60247543
  PAW double counting   =     26045.05438252   -28197.77761205
  entropy T*S    EENTRO =         0.01198012
  eigenvalues    EBANDS =      -446.24365395
  atomic energy  EATOM  =     27819.15280400
  Solvation  Ediel_sol  =         0.00000000
  ---------------------------------------------------
  free energy    TOTEN  =       -69.90522630 eV

  energy without entropy =      -69.91720642  energy(sigma->0) =      -69.90921967


--------------------------------------------------------------------------------------------------------




--------------------------------------- Iteration      1(  24)  ---------------------------------------


    POTLOK:  cpu time      0.0475: real time      0.0479
    SETDIJ:  cpu time      0.0070: real time      0.0070
     EDDAV:  cpu time      1.7162: real time      1.7306
       DOS:  cpu time      0.0026: real time      0.0026
    CHARGE:  cpu time      0.2862: real time      0.2878
    MIXING:  cpu time      0.0076: real time      0.0076
    --------------------------------------------
      LOOP:  cpu time      2.0670: real time      2.0835

 eigenvalue-minimisations  :  1808
 total energy-change (2. order) :-0.9660702E-01  (-0.2397667E-03)
 number of electron     219.9999573 magnetization       0.0718875
 augmentation part      140.4037418 magnetization       0.0639941

 Broyden mixing:
  rms(total) = 0.68482E-02    rms(broyden)= 0.68475E-02
  rms(prec ) = 0.78631E-02
  weight for this iteration     100.00

 eigenvalues of (default mixing * dielectric matrix)
  average eigenvalue GAMMA=   2.0529
 14.1780  7.1598  3.9946  2.4166  2.0317  1.2020  0.9788  0.9788  0.8318  0.8318
  0.7180  0.6781  0.6372  0.5714  0.5714  0.1530  0.4024  0.3142  0.3545

 Free energy of the ion-electron system (eV)
  ---------------------------------------------------
  alpha Z        PSCENC =       548.14535784
  Ewald energy   TEWEN  =     95577.27893823
  -Hartree energ DENC   =   -122302.29696533
  -exchange      EXHF   =         0.00000000
  -V(xc)+E(xc)   XCENC  =       890.48198908
  PAW double counting   =     26046.64447705   -28199.34736662
  entropy T*S    EENTRO =         0.01239699
  eigenvalues    EBANDS =      -450.07346455
  atomic energy  EATOM  =     27819.15280400
  Solvation  Ediel_sol  =         0.00000000
  ---------------------------------------------------
  free energy    TOTEN  =       -70.00183332 eV

  energy without entropy =      -70.01423031  energy(sigma->0) =      -70.00596565


--------------------------------------------------------------------------------------------------------




--------------------------------------- Iteration      1(  25)  ---------------------------------------


    POTLOK:  cpu time      0.0479: real time      0.0483
    SETDIJ:  cpu time      0.0070: real time      0.0070
     EDDAV:  cpu time      1.3986: real time      1.4102
       DOS:  cpu time      0.0013: real time      0.0013
    CHARGE:  cpu time      0.2864: real time      0.2875
    MIXING:  cpu time      0.0044: real time      0.0044
    --------------------------------------------
      LOOP:  cpu time      1.7456: real time      1.7588

 eigenvalue-minimisations  :  1344
 total energy-change (2. order) :-0.2145933E-01  (-0.8925474E-04)
 number of electron     219.9999573 magnetization       0.0458494
 augmentation part      140.3948478 magnetization       0.0269842

 Broyden mixing:
[...]
     99      -0.8585      1.00000
    100      -0.8584      1.00000
    101      -0.8460      1.00000
    102      -0.8419      1.00000
    103      -0.8284      1.00000
    104      -0.8104      1.00000
    105      -0.8104      1.00000
    106      -0.8104      1.00000
    107      -0.4413      1.00000
    108      -0.4413      1.00000
    109      -0.4413      1.00000
    110       0.7874      0.88989
    111       0.7874      0.88988
    112       0.7874      0.88988
    113       2.7255     -0.00000
    114       2.7255     -0.00000
    115       2.7255     -0.00000
    116       4.1230     -0.00000
    117       4.1374     -0.00000
    118       4.2950     -0.00000
    119       4.5095     -0.00000
    120       4.5095     -0.00000
    121       4.5095     -0.00000
    122       4.5905     -0.00000
    123       5.0489     -0.00000
    124       5.0741     -0.00000
    125       6.1757     -0.00000
    126       6.1798     -0.00000
    127       6.7046      0.00000
    128       7.1072      0.00000
    129       7.1072      0.00000
    130       7.1072      0.00000
    131       7.3781      0.00000
    132       7.8355      0.00000
    133       7.8355      0.00000
    134       7.8355      0.00000
    135       8.2219      0.00000
    136       8.2219      0.00000
    137       8.2219      0.00000
    138       8.4996      0.00000
    139       8.5252      0.00000
    140       9.7554      0.00000
    141       9.7554      0.00000
    142       9.7554      0.00000
    143       9.9494      0.00000
    144       9.9494      0.00000


--------------------------------------------------------------------------------------------------------


 soft charge-density along one line, spin component           1
         0         1         2         3         4         5         6         7         8         9
 total charge-density along one line
 
 soft charge-density along one line, spin component           2
         0         1         2         3         4         5         6         7         8         9
 total charge-density along one line
 
 pseudopotential strength for first ion, spin component:           1
 -7.732  -0.000   0.000  -0.005   0.000  -1.072   0.000  -0.000
 -0.000  -7.681   0.000   0.000  -0.005   0.000  -1.113  -0.000
  0.000   0.000  -7.671   0.000   0.000  -0.000  -0.000  -1.121
 -0.005   0.000   0.000  -7.681  -0.000   0.003  -0.000  -0.000
  0.000  -0.005   0.000  -0.000  -7.732  -0.000   0.003  -0.000
 -1.072   0.000  -0.000   0.003  -0.000   7.738  -0.000   0.000
  0.000  -1.113  -0.000  -0.000   0.003  -0.000   7.767   0.000
 -0.000  -0.000  -1.121  -0.000  -0.000   0.000   0.000   7.773
  0.003  -0.000  -0.000  -1.113   0.000  -0.003  -0.000   0.000
 -0.000   0.003  -0.000   0.000  -1.072   0.000  -0.003   0.000
  0.000   0.000  -0.009   0.000   0.000   0.000   0.000   0.003
  0.000   0.000  -0.017   0.000   0.000   0.000   0.000   0.006
  0.000  -0.009  -0.000  -0.000   0.000  -0.000   0.009   0.000
 -0.000   0.000  -0.009   0.000  -0.000  -0.000   0.000   0.008
  0.000  -0.000  -0.000  -0.009   0.000  -0.000  -0.000   0.000
  0.000  -0.010  -0.000   0.000   0.000  -0.000   0.011   0.000
  0.000   0.000  -0.010   0.000   0.000  -0.000   0.000   0.010
  0.000   0.000  -0.000  -0.010   0.000  -0.000  -0.000   0.000
 pseudopotential strength for first ion, spin component:           2
 -7.732  -0.000   0.000  -0.005   0.000  -1.072   0.000  -0.000
 -0.000  -7.681   0.000   0.000  -0.005   0.000  -1.113  -0.000
  0.000   0.000  -7.671   0.000   0.000  -0.000  -0.000  -1.121
 -0.005   0.000   0.000  -7.681  -0.000   0.003  -0.000  -0.000
  0.000  -0.005   0.000  -0.000  -7.732  -0.000   0.003  -0.000
 -1.072   0.000  -0.000   0.003  -0.000   7.738  -0.000   0.000
  0.000  -1.113  -0.000  -0.000   0.003  -0.000   7.767   0.000
 -0.000  -0.000  -1.121  -0.000  -0.000   0.000   0.000   7.773
  0.003  -0.000  -0.000  -1.113   0.000  -0.003  -0.000   0.000
 -0.000   0.003  -0.000   0.000  -1.072   0.000  -0.003   0.000
  0.000   0.000  -0.009   0.000   0.000   0.000   0.000   0.003
  0.000   0.000  -0.017   0.000   0.000   0.000   0.000   0.006
  0.000  -0.009  -0.000  -0.000   0.000  -0.000   0.009   0.000
 -0.000   0.000  -0.009   0.000  -0.000  -0.000   0.000   0.008
  0.000  -0.000  -0.000  -0.009   0.000  -0.000  -0.000   0.000
  0.000  -0.010  -0.000   0.000   0.000  -0.000   0.011   0.000
  0.000   0.000  -0.010   0.000   0.000  -0.000   0.000   0.010
  0.000   0.000  -0.000  -0.010   0.000  -0.000  -0.000   0.000
 total augmentation occupancy for first ion, spin component:           1
  1.905  -0.000   0.000  -0.006  -0.000  -0.016  -0.000  -0.000   0.005   0.000   0.000   0.000   0.000   0.000   0.008  -0.000
  0.000   1.926   0.000  -0.000  -0.006   0.000  -0.032  -0.000   0.000   0.005  -0.000   0.000   0.010   0.000  -0.000  -0.010
  0.000   0.000   1.929  -0.000  -0.000  -0.000  -0.000  -0.029   0.000   0.000   0.005   0.012  -0.000   0.050   0.000   0.000
 -0.006  -0.000  -0.000   1.926   0.000   0.005   0.000   0.000  -0.032  -0.000   0.000   0.000   0.000  -0.000   0.010   0.000
  0.000  -0.006  -0.000  -0.000   1.905  -0.000   0.005   0.000   0.000  -0.016  -0.000  -0.000   0.008  -0.000  -0.000  -0.001
 -0.016   0.000  -0.000   0.005   0.000   0.014  -0.000   0.000   0.000   0.000  -0.000  -0.000  -0.000   0.000   0.002  -0.000
 -0.000  -0.032  -0.000   0.000   0.005  -0.000   0.009  -0.000  -0.000   0.000  -0.000   0.000   0.016   0.000  -0.000  -0.001
 -0.000  -0.000  -0.029   0.000   0.000   0.000  -0.000   0.013  -0.000  -0.000  -0.044   0.002  -0.000   0.022   0.000   0.000
  0.005   0.000   0.000  -0.032  -0.000   0.000  -0.000   0.000   0.009  -0.000  -0.000  -0.000  -0.000  -0.000   0.016   0.000
  0.000   0.005   0.000  -0.000  -0.016   0.000   0.000  -0.000  -0.000   0.014   0.000  -0.000   0.002  -0.000  -0.000  -0.000
 -0.000  -0.000   0.005   0.000  -0.000  -0.000   0.000  -0.044   0.000   0.000   1.684  -0.132   0.000   0.126  -0.000   0.000
 -0.000   0.000   0.012  -0.000  -0.000   0.000   0.000   0.002  -0.000  -0.000  -0.132   0.016  -0.000  -0.021  -0.000  -0.000
  0.000   0.010  -0.000   0.000   0.008   0.000   0.016  -0.000  -0.000   0.002   0.000  -0.000   0.202   0.000  -0.000  -0.012
  0.000  -0.000   0.050  -0.000  -0.000   0.000   0.000   0.022  -0.000  -0.000   0.126  -0.021   0.000   0.122  -0.000  -0.000
  0.008  -0.000   0.000   0.010  -0.000   0.002  -0.000   0.000   0.016   0.000   0.000  -0.000  -0.000  -0.000   0.202   0.000
 -0.000  -0.010   0.000   0.000  -0.001  -0.000  -0.001   0.000   0.000  -0.000  -0.000   0.000  -0.012   0.000  -0.000   0.001
 -0.000  -0.000  -0.015   0.000   0.000  -0.000  -0.000  -0.001   0.000   0.000  -0.018   0.002  -0.000  -0.008   0.000   0.000
 -0.001   0.000  -0.000  -0.010   0.000  -0.000   0.000  -0.000  -0.001   0.000   0.000   0.000   0.000  -0.000  -0.012   0.000
 total augmentation occupancy for first ion, spin component:           2
 -0.000  -0.000   0.000   0.000  -0.000   0.000  -0.000   0.000   0.000  -0.000  -0.000   0.000  -0.000  -0.000  -0.000  -0.000
  0.000   0.000  -0.000  -0.000   0.000  -0.000   0.000  -0.000  -0.000   0.000   0.000   0.000   0.000   0.000   0.000  -0.000
 -0.000  -0.000  -0.000   0.000   0.000   0.000  -0.000  -0.000   0.000   0.000  -0.000   0.000   0.000   0.000   0.000  -0.000
  0.000   0.000   0.000   0.000  -0.000   0.000  -0.000  -0.000   0.000  -0.000  -0.000  -0.000   0.000  -0.000   0.000  -0.000
 -0.000   0.000   0.000  -0.000  -0.000  -0.000   0.000   0.000  -0.000   0.000   0.000  -0.000  -0.000  -0.000  -0.000   0.000
  0.000   0.000   0.000   0.000   0.000  -0.000   0.000   0.000  -0.000   0.000   0.000   0.000   0.000  -0.000  -0.000   0.000
 -0.000   0.000  -0.000  -0.000   0.000   0.000  -0.000   0.000   0.000  -0.000   0.000  -0.000  -0.000   0.000  -0.000  -0.000
  0.000  -0.000  -0.000  -0.000   0.000   0.000   0.000   0.000   0.000  -0.000  -0.000  -0.000   0.000   0.000   0.000  -0.000
  0.000  -0.000   0.000   0.000   0.000  -0.000   0.000   0.000  -0.000   0.000   0.000  -0.000   0.000   0.000  -0.000   0.000
  0.000   0.000   0.000  -0.000   0.000   0.000  -0.000  -0.000   0.000  -0.000   0.000   0.000  -0.000  -0.000   0.000   0.000
  0.000  -0.000  -0.000  -0.000   0.000  -0.000   0.000  -0.000  -0.000   0.000  -0.000   0.000  -0.000  -0.000   0.000  -0.000
  0.000   0.000   0.000  -0.000  -0.000   0.000  -0.000  -0.000   0.000   0.000   0.000  -0.000   0.000   0.000  -0.000  -0.000
  0.000   0.000   0.000  -0.000  -0.000   0.000  -0.000   0.000   0.000  -0.000  -0.000  -0.000  -0.000  -0.000   0.000  -0.000
  0.000   0.000   0.000  -0.000  -0.000  -0.000   0.000   0.000   0.000  -0.000  -0.000   0.000   0.000  -0.000   0.000   0.000
 -0.000   0.000  -0.000   0.000   0.000  -0.000   0.000  -0.000  -0.000   0.000   0.000   0.000   0.000   0.000  -0.000  -0.000
 -0.000  -0.000  -0.000  -0.000   0.000   0.000  -0.000  -0.000   0.000   0.000  -0.000   0.000  -0.000   0.000  -0.000   0.000
 -0.000   0.000  -0.000   0.000   0.000  -0.000  -0.000   0.000   0.000  -0.000   0.000  -0.000  -0.000   0.000  -0.000   0.000
  0.000   0.000  -0.000  -0.000  -0.000   0.000   0.000  -0.000  -0.000   0.000   0.000   0.000  -0.000   0.000  -0.000  -0.000


------------------------ aborting loop because EDIFF is reached ----------------------------------------



 DIPCOR: dipole corrections for dipol
 direction  3 min pos   171,
 dipolmoment           0.000000      0.000000     -0.003082 electrons x Angstroem
 Tr[quadrupol]     -1060.186754

 energy correction for charged system         0.000000 eV
 dipol+quadrupol energy correction            0.000002 eV
 added-field ion interaction          0.000000 eV  (added to PSCEN)

 
  *************** adding dipol energy to TOTEN NOW **************** 
    CHARGE:  cpu time      0.2832: real time      0.2844
    FORLOC:  cpu time      0.0077: real time      0.0078
    FORNL :  cpu time      1.2849: real time      1.2899
    STRESS:  cpu time      1.0599: real time      1.0660
    FORCOR:  cpu time      0.0503: real time      0.0508
    FORHAR:  cpu time      0.0089: real time      0.0089
    MIXING:  cpu time      0.0015: real time      0.0015
    OFIELD:  cpu time      0.0000: real time      0.0000

 ---------------------------------------------------------------------------------------------

         DFTD3 V3.0 Rev 1        
 Edisp (eV)   -7.67594

 E6    (eV) :    -3.0919
 E8    (eV) :    -4.5841
 % E8        : 59.72
    FORVDW:  cpu time      0.0994: real time      0.0998

  FORCE on cell =-STRESS in cart. coord.  units (eV):
  Direction    XX          YY          ZZ          XY          YZ          ZX
  --------------------------------------------------------------------------------------
  Alpha Z   548.14536   548.14536   548.14536
  Ewald  115701.35786115701.35786************    -0.00000     0.00000    -0.00000
  Hartree123190.58760123190.58759************     0.00000    -0.00000    -0.00000
  E(xc)   -1285.04859 -1285.04823 -1287.03439    -0.00032     0.00001     0.00001
  Local  ************************246439.29553     0.01002    -0.00001    -0.00001
  n-local  -420.30366  -431.58348  -430.49035    -9.76823     0.17357    -0.29219
  augment  1893.30806  1893.31910  1896.34532    -0.00956    -0.00002    -0.00004
  Kinetic  1788.32040  1798.53117  1800.53436     8.84312    -1.85376     3.21100
  Fock        0.00000     0.00000     0.00000     0.00000     0.00000     0.00000
  vdW        -9.45385    -9.45385    -6.72179     0.00000     0.00000    -0.00000
  -------------------------------------------------------------------------------------
  Total      -9.19895    -9.19895    -2.31511    -0.00000     0.00000    -0.00000
  in kB     -27.61673   -27.61673    -6.95033    -0.00000     0.00000    -0.00000
  external pressure =      -20.73 kB  Pullay stress =        0.00 kB


 VOLUME and BASIS-vectors are now :
 -----------------------------------------------------------------------------
  energy-cutoff  :      400.00
  volume of cell :      533.67
      direct lattice vectors                 reciprocal lattice vectors
     5.133595467  0.000000000  0.000000000     0.194795248 -0.112465089  0.000000000
     2.566797733  4.445824087  0.000000000     0.000000000  0.224930177  0.000000000
     0.000000000  0.000000000 23.383125305     0.000000000  0.000000000  0.042765883

  length of vectors
     5.133595467  5.133595467 23.383125305     0.224930177  0.224930177  0.042765883


 FORCES acting on ions
    electron-ion (+dipol)            ewald-force                    non-local-force                 convergence-correction
 -----------------------------------------------------------------------------------------------
   -.403E-05 -.233E-05 0.430E+04   -.127E-06 -.190E-06 -.430E+04   -.104E-16 0.694E-17 -.216E+01   0.549E-09 0.315E-09 0.258E+00
   -.537E-05 -.803E-06 0.430E+04   -.167E-06 0.344E-06 -.430E+04   -.121E-16 0.347E-17 -.216E+01   0.720E-09 0.140E-09 0.258E+00
   -.289E-05 -.233E-05 0.430E+04   0.182E-06 -.349E-06 -.430E+04   -.867E-17 0.347E-17 -.216E+01   0.413E-09 0.304E-09 0.258E+00
   -.422E-05 -.803E-06 0.430E+04   0.142E-06 0.185E-06 -.430E+04   -.694E-17 0.347E-17 -.216E+01   0.589E-09 0.132E-09 0.258E+00
   0.486E-05 0.407E-05 0.220E+04   -.187E-06 -.213E-06 -.220E+04   0.607E-17 -.867E-18 -.176E+01   -.765E-07 -.440E-07 0.180E+00
   0.355E-05 0.558E-05 0.220E+04   -.214E-06 0.402E-06 -.220E+04   0.520E-17 -.867E-18 -.176E+01   -.768E-07 -.443E-07 0.180E+00
   0.600E-05 0.407E-05 0.220E+04   0.165E-06 -.403E-06 -.220E+04   -.867E-18 -.173E-17 -.176E+01   -.766E-07 -.438E-07 0.180E+00
   0.468E-05 0.558E-05 0.220E+04   0.138E-06 0.212E-06 -.220E+04   0.867E-18 -.347E-17 -.176E+01   -.769E-07 -.441E-07 0.180E+00
   -.507E-05 -.257E-05 0.102E+02   -.858E-07 -.169E-06 -.961E+01   -.434E-18 0.379E-18 0.183E+00   -.382E-05 -.221E-05 -.787E+00
   -.638E-05 -.107E-05 0.102E+02   -.156E-06 0.324E-06 -.961E+01   -.108E-18 0.163E-18 0.183E+00   -.382E-05 -.221E-05 -.787E+00
   -.394E-05 -.257E-05 0.102E+02   0.207E-06 -.303E-06 -.961E+01   -.325E-18 0.108E-18 0.183E+00   -.382E-05 -.221E-05 -.787E+00
   -.525E-05 -.107E-05 0.102E+02   0.137E-06 0.190E-06 -.961E+01   -.163E-18 0.325E-18 0.183E+00   -.382E-05 -.221E-05 -.787E+00
   0.190E-05 0.109E-05 -.218E+04   -.110E-06 -.190E-06 0.218E+04   -.434E-17 -.781E-17 0.198E+01   -.542E-05 -.313E-05 -.137E+01
   0.578E-06 0.260E-05 -.218E+04   -.181E-06 0.303E-06 0.218E+04   0.173E-17 -.434E-17 0.198E+01   -.542E-05 -.313E-05 -.137E+01
   0.302E-05 0.109E-05 -.218E+04   0.182E-06 -.324E-06 0.218E+04   0.347E-17 0.173E-17 0.198E+01   -.542E-05 -.313E-05 -.137E+01
   0.171E-05 0.260E-05 -.218E+04   0.111E-06 0.169E-06 0.218E+04   0.260E-17 0.000E+00 0.198E+01   -.542E-05 -.313E-05 -.137E+01
   0.552E-05 0.447E-05 -.433E+04   -.147E-06 -.189E-06 0.433E+04   0.139E-16 -.520E-17 0.248E+01   -.132E-05 -.762E-06 -.494E+00
   0.419E-05 0.599E-05 -.433E+04   -.186E-06 0.358E-06 0.433E+04   0.139E-16 -.867E-17 0.248E+01   -.132E-05 -.762E-06 -.494E+00
   0.666E-05 0.447E-05 -.433E+04   0.169E-06 -.352E-06 0.433E+04   0.867E-17 -.173E-17 0.248E+01   -.132E-05 -.763E-06 -.494E+00
   0.533E-05 0.599E-05 -.433E+04   0.130E-06 0.195E-06 0.433E+04   0.347E-17 -.867E-17 0.248E+01   -.132E-05 -.762E-06 -.494E+00
 -----------------------------------------------------------------------------------------------
   0.108E-04 0.341E-04 0.581E+01   -.317E-13 -.423E-13 0.909E-12   0.154E-16 -.233E-16 0.291E+01   -.425E-04 -.246E-04 -.885E+01
 
 
 POSITION                                       TOTAL-FORCE (eV/Angst)
 -----------------------------------------------------------------------------------
      0.00000      0.00000      0.00000        -0.000000     -0.000000      0.198917
      1.28340      2.22291      0.00000        -0.000000      0.000000      0.198917
      2.56680      0.00000      0.00000        -0.000000      0.000000      0.198917
      3.85020      2.22291      0.00000        -0.000000     -0.000000      0.198917
      1.28340      0.74097      2.09578        -0.000000     -0.000000     -0.192119
      2.56680      2.96388      2.09578         0.000000      0.000000     -0.192119
      3.85020      0.74097      2.09578         0.000000     -0.000000     -0.192119
      5.13360      2.96388      2.09578         0.000000      0.000000     -0.192119
      2.56680      1.48194      4.10413        -0.000000     -0.000000     -0.015790
      3.85020      3.70485      4.10413        -0.000000     -0.000000     -0.015790
      5.13360      1.48194      4.10413        -0.000000      0.000000     -0.015790
      6.41699      3.70485      4.10413        -0.000000      0.000000     -0.015790
      0.00000     -0.00000      6.10889        -0.000000      0.000000      0.016672
      1.28340      2.22291      6.10889         0.000000      0.000000      0.016672
      2.56680     -0.00000      6.10889        -0.000000     -0.000000      0.016672
      3.85020      2.22291      6.10889        -0.000000      0.000000      0.016672
      1.28340      0.74097      8.15204         0.000000     -0.000000     -0.007680
      2.56680      2.96388      8.15204         0.000000      0.000000     -0.007680
      3.85020      0.74097      8.15204         0.000000     -0.000000     -0.007680
      5.13360      2.96388      8.15204         0.000000     -0.000000     -0.007680
 -----------------------------------------------------------------------------------
    total drift:                               -0.000032      0.000009     -0.125248


--------------------------------------------------------------------------------------------------------



  FREE ENERGIE OF THE ION-ELECTRON SYSTEM (eV)
  ---------------------------------------------------
  free  energy   TOTEN  =       -77.66286622 eV

  energy  without entropy=      -77.64632768  energy(sigma->0) =      -77.65735337
 
 d Force = 0.9585954E-03[-0.256E-03, 0.217E-02]  d Energy = 0.1068769E-02-0.110E-03
 d Force =-0.1523658E+03[-0.153E+03,-0.152E+03]  d Ewald  =-0.1523658E+03-0.782E-05


--------------------------------------------------------------------------------------------------------


    POTLOK:  cpu time      0.0571: real time      0.0575


--------------------------------------------------------------------------------------------------------


 stress matrix after NEB project (eV)
     -9.19895     -0.00000     -0.00000
     -0.00000     -9.19895      0.00000
     -0.00000      0.00000     -2.31511
  FORCES: max atom, RMS     0.016672    0.010828
  FORCE total and by dimension    0.048426    0.016672
  Stress total and by dimension   13.213668    9.198949


--------------------------------------------------------------------------------------------------------


  
 reached required accuracy - stopping structural energy minimisation
     LOOP+:  cpu time     13.9365: real time     14.0878
    4ORBIT:  cpu time      0.0000: real time      0.0000

 total amount of memory used by VASP MPI-rank0    45176. kBytes
=======================================================================

   base      :      30000. kBytes
   nonl-proj :       1482. kBytes
   fftplans  :       1966. kBytes
   grid      :       4540. kBytes
   one-center:        124. kBytes
   wavefun   :       7064. kBytes
 
  
  
 General timing and accounting informations for this job:
 ========================================================
  
                  Total CPU time used (sec):      279.961
                            User time (sec):      271.600
                          System time (sec):        8.361
                         Elapsed time (sec):      283.317
  
                   Maximum memory used (kb):      264832.
                   Average memory used (kb):          N/A
  
                          Minor page faults:       409067
                          Major page faults:         6689
                 Voluntary context switches:         4518
