<?xml version="1.0" encoding="ISO-8859-1"?>
<modeling>
 <generator>
  <i name="program" type="string">vasp </i>
  <i name="version" type="string">6.3.2  </i>
  <i name="subversion" type="string">27Jun22 (build Aug 17 2022 15:43:34) complex                          parallel </i>
  <i name="platform" type="string">tv2STDVTST </i>
  <i name="date" type="string">2025 01 17 </i>
  <i name="time" type="string">13:54:46 </i>
 </generator>
 <incar>
  <i type="int" name="ISTART">     0</i>
  <i type="string" name="PREC">Normal</i>
  <i type="int" name="ISPIN">     2</i>
  <i type="int" name="ICHARG">     2</i>
  <i type="int" name="IBRION">     2</i>
  <i name="EDIFF">      0.00020000</i>
  <i name="EDIFFG">     -0.03000000</i>
  <i type="int" name="NSW">   800</i>
  <i type="int" name="ISIF">     2</i>
  <i type="int" name="ISYM">     1</i>
  <i name="ENCUT">    400.00000000</i>
  <i name="POTIM">      0.50000000</i>
  <i type="logical" name="LREAL"> F  </i>
  <i type="int" name="ISMEAR">     1</i>
  <i name="SIGMA">      0.20000000</i>
  <i type="logical" name="LWAVE"> F  </i>
  <i type="logical" name="LCHARG"> F  </i>
  <i type="string" name="GGA">PE</i>
  <i type="int" name="IDIPOL">     3</i>
  <i type="int" name="IVDW">    11</i>
 </incar>
 <primitive_cell>
  <structure name="primitive_cell" >
   <crystal>
    <varray name="basis" >
     <v>      -1.28339887      -2.22291204       0.00000000 </v>
     <v>       2.56679773       0.00000000       0.00000000 </v>
     <v>       0.00000000       0.00000000      23.38312531 </v>
    </varray>
    <i name="volume">    133.41863181 </i>
    <varray name="rec_basis" >
     <v>       0.00000000      -0.44986035       0.00000000 </v>
     <v>       0.38959050      -0.22493018       0.00000000 </v>
     <v>       0.00000000       0.00000000       0.04276588 </v>
    </varray>
   </crystal>
   <varray name="positions" >
    <v>       0.00000000       0.00000000       0.00000000 </v>
    <v>       0.66666667       0.33333333       0.08962794 </v>
    <v>       0.33333333       0.66666667       0.17925589 </v>
    <v>       0.00000000       0.00000000       0.26888383 </v>
    <v>       0.66666667       0.33333333       0.35851178 </v>
   </varray>
  </structure>
  <varray name="primitive_index" >
   <v type="int" >        1 </v>
   <v type="int" >        5 </v>
   <v type="int" >       12 </v>
   <v type="int" >       13 </v>
   <v type="int" >       17 </v>
  </varray>
 </primitive_cell>
 <kpoints>
  <generation param="Monkhorst-Pack">
   <v type="int" name="divisions">       3        3        1 </v>
   <v name="usershift">      0.00000000       0.00000000       0.00000000 </v>
   <v name="genvec1">      0.33333333       0.00000000       0.00000000 </v>
   <v name="genvec2">      0.00000000       0.33333333       0.00000000 </v>
   <v name="genvec3">      0.00000000       0.00000000       1.00000000 </v>
   <v name="shift">      0.00000000       0.00000000       0.00000000 </v>
  </generation>
  <varray name="kpointlist" >
   <v>       0.00000000       0.00000000       0.00000000 </v>
   <v>       0.33333333      -0.00000000       0.00000000 </v>
   <v>      -0.33333333       0.33333333       0.00000000 </v>
  </varray>
  <varray name="weights" >
   <v>       0.11111111 </v>
   <v>       0.66666667 </v>
   <v>       0.22222222 </v>
  </varray>
 </kpoints>
 <parameters>
  <separator name="general" >
   <i type="string" name="SYSTEM">unknown system</i>
   <i type="logical" name="LCOMPAT"> F  </i>
  </separator>
  <separator name="electronic" >
   <i type="string" name="PREC">normal</i>
   <i name="ENMAX">    400.00000000</i>
   <i name="ENAUG">    586.98000000</i>
   <i name="EDIFF">      0.00020000</i>
   <i type="int" name="IALGO">    38</i>
   <i type="int" name="IWAVPR">    11</i>
   <i type="int" name="NBANDS">   144</i>
   <i type="int" name="NBANDSLOW">    -1</i>
   <i type="int" name="NBANDSHIGH">    -1</i>
   <i name="NELECT">    220.00000000</i>
   <i type="int" name="TURBO">     0</i>
   <i type="int" name="IRESTART">     0</i>
   <i type="int" name="NREBOOT">     0</i>
   <i type="int" name="NMIN">     0</i>
   <i name="EREF">      0.00000000</i>
   <separator name="electronic smearing" >
    <i type="int" name="ISMEAR">     1</i>
    <i name="SIGMA">      0.20000000</i>
    <i name="KSPACING">      0.50000000</i>
    <i type="logical" name="KGAMMA"> T  </i>
    <i type="logical" name="KBLOWUP"> T  </i>
   </separator>
   <separator name="electronic projectors" >
    <i type="logical" name="LREAL"> F  </i>
    <v name="ROPT">      0.00000000</v>
    <i type="int" name="LMAXPAW">  -100</i>
    <i type="int" name="LMAXMIX">     2</i>
    <i type="logical" name="NLSPLINE"> F  </i>
   </separator>
   <separator name="electronic startup" >
    <i type="int" name="ISTART">     0</i>
    <i type="int" name="ICHARG">     2</i>
    <i type="int" name="INIWAV">     1</i>
   </separator>
   <separator name="electronic spin" >
    <i type="int" name="ISPIN">     2</i>
    <i type="logical" name="LNONCOLLINEAR"> F  </i>
    <v name="MAGMOM">      1.00000000      1.00000000      1.00000000      1.00000000      1.00000000      1.00000000      1.00000000      1.00000000      1.00000000      1.00000000      1.00000000      1.00000000      1.00000000      1.00000000      1.00000000      1.00000000      1.00000000      1.00000000      1.00000000      1.00000000
</v>
    <i name="NUPDOWN">     -1.00000000</i>
    <i type="logical" name="LSORBIT"> F  </i>
    <v name="SAXIS">      0.00000000      0.00000000      1.00000000</v>
    <i type="logical" name="LSPIRAL"> F  </i>
    <v name="QSPIRAL">      0.00000000      0.00000000      0.00000000</v>
    <i type="logical" name="LZEROZ"> F  </i>
   </separator>
   <separator name="electronic exchange-correlation" >
    <i type="logical" name="LASPH"> F  </i>
    <i type="logical" name="LMETAGGA"> F  </i>
   </separator>
   <separator name="electronic convergence" >
    <i type="int" name="NELM">    60</i>
    <i type="int" name="NELMDL">    -5</i>
    <i type="int" name="NELMIN">     2</i>
    <i name="ENINI">    400.00000000</i>
    <separator name="electronic convergence detail" >
     <i type="logical" name="LDIAG"> T  </i>
     <i type="logical" name="LSUBROT"> F  </i>
     <i name="WEIMIN">      0.00100000</i>
     <i name="EBREAK">      0.00000035</i>
     <i name="DEPER">      0.30000000</i>
     <i type="int" name="NRMM">     4</i>
     <i name="TIME">      0.40000000</i>
    </separator>
   </separator>
   <separator name="electronic mixer" >
    <i name="AMIX">      0.40000000</i>
    <i name="BMIX">      1.00000000</i>
    <i name="AMIN">      0.10000000</i>
    <i name="AMIX_MAG">      1.60000000</i>
    <i name="BMIX_MAG">      1.00000000</i>
    <separator name="electronic mixer details" >
     <i type="int" name="IMIX">     4</i>
     <i type="logical" name="MIXFIRST"> F  </i>
     <i type="int" name="MAXMIX">   -45</i>
     <i name="WC">    100.00000000</i>
     <i type="int" name="INIMIX">     1</i>
     <i type="int" name="MIXPRE">     1</i>
     <i type="int" name="MREMOVE">     5</i>
    </separator>
   </separator>
   <separator name="electronic dipolcorrection" >
    <i type="logical" name="LDIPOL"> F  </i>
    <i type="logical" name="LMONO"> F  </i>
    <i type="int" name="IDIPOL">     3</i>
    <i name="EPSILON">      1.00000000</i>
    <v name="DIPOL">   -100.00000000   -100.00000000   -100.00000000</v>
    <i name="EFIELD">      0.00000000</i>
   </separator>
  </separator>
  <separator name="grids" >
   <i type="int" name="NGX">    28</i>
   <i type="int" name="NGY">    28</i>
   <i type="int" name="NGZ">   120</i>
   <i type="int" name="NGXF">    56</i>
   <i type="int" name="NGYF">    56</i>
   <i type="int" name="NGZF">   240</i>
   <i type="logical" name="ADDGRID"> F  </i>
  </separator>
  <separator name="ionic" >
   <i type="int" name="NSW">   800</i>
   <i type="int" name="IBRION">     2</i>
   <i type="int" name="MDALGO">     0</i>
   <i type="int" name="ISIF">     2</i>
   <i name="PSTRESS">      0.00000000</i>
   <i name="EDIFFG">     -0.03000000</i>
   <i type="int" name="NFREE">     1</i>
   <i name="POTIM">      0.50000000</i>
   <i name="SMASS">     -3.00000000</i>
   <i name="SCALEE">      1.00000000</i>
  </separator>
  <separator name="ionic md" >
   <i name="TEBEG">      0.00010000</i>
   <i name="TEEND">      0.00010000</i>
   <i type="int" name="NBLOCK">     1</i>
   <i type="int" name="KBLOCK">   800</i>
   <i type="int" name="NPACO">   256</i>
   <i name="APACO">     10.00000000</i>
  </separator>
  <separator name="symmetry" >
   <i type="int" name="ISYM">     1</i>
   <i name="SYMPREC">      0.00001000</i>
  </separator>
  <separator name="dos" >
   <i type="int" name="LORBIT">     0</i>
   <v name="RWIGS">     -1.00000000</v>
   <i type="int" name="NEDOS">   301</i>
   <i name="EMIN">     10.00000000</i>
   <i name="EMAX">    -10.00000000</i>
   <i name="EFERMI">      0.00000000</i>
  </separator>
  <separator name="writing" >
   <i type="int" name="NWRITE">     2</i>
   <i type="logical" name="LWAVE"> F  </i>
   <i type="logical" name="LDOWNSAMPLE"> F  </i>
   <i type="logical" name="LCHARG"> F  </i>
   <i type="logical" name="LPARD"> F  </i>
   <i type="logical" name="LVTOT"> F  </i>
   <i type="logical" name="LVHAR"> F  </i>
   <i type="logical" name="LELF"> F  </i>
   <i type="logical" name="LOPTICS"> F  </i>
   <v name="STM">      0.00000000      0.00000000      0.00000000      0.00000000      0.00000000      0.00000000      0.00000000</v>
  </separator>
  <separator name="performance" >
   <i type="int" name="NPAR">     4</i>
   <i type="int" name="NSIM">     4</i>
   <i type="int" name="NBLK">    -1</i>
   <i type="logical" name="LPLANE"> T  </i>
   <i type="logical" name="LSCALAPACK"> T  </i>
   <i type="logical" name="LSCAAWARE"> F  </i>
   <i type="logical" name="LSCALU"> F  </i>
   <i type="logical" name="LASYNC"> F  </i>
   <i type="logical" name="LORBITALREAL"> F  </i>
  </separator>
  <separator name="miscellaneous" >
   <i type="int" name="IDIOT">     3</i>
   <i type="int" name="PHON_NSTRUCT">    -1</i>
   <i type="logical" name="LMUSIC"> F  </i>
   <v name="POMASS">     63.54600000</v>
   <v name="DARWINR">      0.00000000</v>
   <v name="DARWINV">      1.00000000</v>
   <i type="logical" name="LCORR"> T  </i>
  </separator>
  <i type="logical" name="GGA_COMPAT"> T  </i>
  <i type="logical" name="LBERRY"> F  </i>
  <i type="int" name="ICORELEVEL">     0</i>
  <i type="logical" name="LDAU"> F  </i>
  <i type="int" name="I_CONSTRAINED_M">     0</i>
  <separator name="electronic exchange-correlation" >
   <i type="string" name="GGA">PE</i>
   <i type="int" name="VOSKOWN">     0</i>
   <i type="logical" name="LHFCALC"> F  </i>
   <i type="string" name="PRECFOCK"></i>
   <i type="logical" name="LSYMGRAD"> F  </i>
   <i type="logical" name="LHFONE"> F  </i>
   <i type="logical" name="LRHFCALC"> F  </i>
   <i type="logical" name="LTHOMAS"> F  </i>
   <i type="logical" name="LMODELHF"> F  </i>
   <i type="logical" name="LFOCKACE"> F  </i>
   <i name="ENCUT4O">     -1.00000000</i>
   <i type="int" name="EXXOEP">     0</i>
   <i type="int" name="FOURORBIT">     0</i>
   <i name="AEXX">      0.00000000</i>
   <i name="HFALPHA">      0.00000000</i>
   <i name="MCALPHA">      0.00000000</i>
   <i name="ALDAX">      1.00000000</i>
   <i name="AGGAX">      1.00000000</i>
   <i name="ALDAC">      1.00000000</i>
   <i name="AGGAC">      1.00000000</i>
   <i type="int" name="NKREDX">     1</i>
   <i type="int" name="NKREDY">     1</i>
   <i type="int" name="NKREDZ">     1</i>
   <i type="logical" name="SHIFTRED"> F  </i>
   <i type="logical" name="ODDONLY"> F  </i>
   <i type="logical" name="EVENONLY"> F  </i>
   <i type="int" name="LMAXFOCK">     0</i>
   <i type="int" name="NMAXFOCKAE">     0</i>
   <i type="logical" name="LFOCKAEDFT"> F  </i>
   <i name="HFSCREEN">      0.00000000</i>
   <i name="HFSCREENC">      0.00000000</i>
   <i type="int" name="NBANDSGWLOW">     0</i>
  </separator>
  <separator name="vdW DFT" >
   <i type="logical" name="LUSE_VDW"> F  </i>
   <i name="Zab_VDW">     -0.84910000</i>
   <i name="PARAM1">      0.12340000</i>
   <i name="PARAM2">      1.00000000</i>
   <i name="PARAM3">      0.00000000</i>
  </separator>
  <separator name="model GW" >
   <i type="int" name="MODEL_GW">     0</i>
   <i name="MODEL_EPS0">     16.01023582</i>
   <i name="MODEL_ALPHA">      1.00000000</i>
  </separator>
  <separator name="linear response parameters" >
   <i type="logical" name="LEPSILON"> F  </i>
   <i type="logical" name="LRPA"> F  </i>
   <i type="logical" name="LNABLA"> F  </i>
   <i type="logical" name="LVEL"> F  </i>
   <i name="CSHIFT">      0.10000000</i>
   <i name="OMEGAMAX">     -1.00000000</i>
   <i name="DEG_THRESHOLD">      0.00200000</i>
   <i name="RTIME">     -0.10000000</i>
   <i name="WPLASMAI">      0.00000000</i>
   <v name="DFIELD">      0.00000000      0.00000000      0.00000000</v>
   <v name="WPLASMA">      0.00000000      0.00000000      0.00000000      0.00000000      0.00000000      0.00000000      0.00000000      0.00000000      0.00000000</v>
  </separator>
  <separator name="orbital magnetization" >
   <i type="logical" name="NUCIND"> F  </i>
   <v name="MAGPOS">      0.00000000      0.00000000      0.00000000</v>
   <i type="logical" name="LNICSALL"> T  </i>
   <i type="logical" name="ORBITALMAG"> F  </i>
   <i type="logical" name="LMAGBLOCH"> F  </i>
   <i type="logical" name="LCHIMAG"> F  </i>
   <i type="logical" name="LGAUGE"> T  </i>
   <i type="int" name="MAGATOM">     0</i>
   <v name="MAGDIPOL">      0.00000000      0.00000000      0.00000000</v>
   <v name="AVECCONST">      0.00000000      0.00000000      0.00000000</v>
  </separator>
  <separator name="response functions" >
   <i type="logical" name="LFINITE_TEMPERATURE"> F  </i>
   <i type="logical" name="LADDER"> F  </i>
   <i type="logical" name="LRPAFORCE"> F  </i>
   <i type="logical" name="LFXC"> F  </i>
   <i type="logical" name="LHARTREE"> T  </i>
   <i type="int" name="IBSE">     0</i>
   <v type="int" name="KPOINT">    -1     0     0     0</v>
   <i type="logical" name="LTCTC"> F  </i>
   <i type="logical" name="LTCTE"> F  </i>
   <i type="logical" name="LTETE"> F  </i>
   <i type="logical" name="LTRIPLET"> F  </i>
   <i type="logical" name="LFXCEPS"> F  </i>
   <i type="logical" name="LFXHEG"> F  </i>
   <i type="int" name="NATURALO">     2</i>
   <i type="logical" name="LHOLEGF"> F  </i>
   <i type="logical" name="L2ORDER"> F  </i>
   <i type="logical" name="LDMP1"> F  </i>
   <i type="logical" name="LMP2LT"> F  </i>
   <i type="logical" name="LSMP2LT"> F  </i>
   <i type="logical" name="LGWLF"> F  </i>
   <i name="ENCUTGW">     -2.00000000</i>
   <i name="ENCUTGWSOFT">     -2.00000000</i>
   <i name="ENCUTLF">     -1.00000000</i>
   <i type="logical" name="LESF_SPLINES"> F  </i>
   <i type="int" name="LMAXMP2">    -1</i>
   <i name="SCISSOR">      0.00000000</i>
   <i type="int" name="NOMEGA">     0</i>
   <i type="int" name="NOMEGAR">     0</i>
   <i type="int" name="NBANDSGW">    -1</i>
   <i type="int" name="NBANDSO">    -1</i>
   <i type="int" name="NBANDSV">    -1</i>
   <i type="int" name="NELMGW">     1</i>
   <i type="int" name="NELMHF">     1</i>
   <i type="int" name="DIM">     3</i>
   <i type="int" name="IESPILON">     4</i>
   <i type="int" name="ANTIRES">     0</i>
   <i name="OMEGAMAX">    -30.00000000</i>
   <i name="OMEGAMIN">    -30.00000000</i>
   <i name="OMEGATL">   -200.00000000</i>
   <i type="int" name="OMEGAGRID">     0</i>
   <i name="CSHIFT">     -0.10000000</i>
   <i type="logical" name="LSELFENERGY"> F  </i>
   <i type="logical" name="LSPECTRAL"> F  </i>
   <i type="logical" name="LSPECTRALGW"> F  </i>
   <i type="logical" name="LSINGLES"> F  </i>
   <i type="logical" name="LFERMIGW"> F  </i>
   <i type="logical" name="ODDONLYGW"> F  </i>
   <i type="logical" name="EVENONLYGW"> F  </i>
   <i type="int" name="NKREDLFX">     1</i>
   <i type="int" name="NKREDLFY">     1</i>
   <i type="int" name="NKREDLFZ">     1</i>
   <i type="int" name="MAXMEM">  2800</i>
   <i type="int" name="TELESCOPE">     0</i>
   <i type="int" name="NTAUPAR">    -1</i>
   <i type="int" name="NOMEGAPAR">    -1</i>
   <i name="DAMP_NEWTON">      0.80000001</i>
   <i name="LAMBDA">      1.00000000</i>
  </separator>
  <separator name="External order field" >
   <i name="OFIELD_KAPPA">      0.00000000</i>
   <v name="OFIELD_K">      0.00000000      0.00000000      0.00000000</v>
   <i name="OFIELD_Q6_NEAR">      0.00000000</i>
   <i name="OFIELD_Q6_FAR">      0.00000000</i>
   <i name="OFIELD_A">      0.00000000</i>
  </separator>
  <separator name="optional k-points parameters" >
   <i type="int" name="KPOINTS_OPT_MODE">     1</i>
   <i type="logical" name="LKPOINTS_OPT"> F  </i>
  </separator>
 </parameters>
 <atominfo>
  <atoms>      20 </atoms>
  <types>       1 </types>
  <array name="atoms" >
   <dimension dim="1">ion</dimension>
   <field type="string">element</field>
   <field type="int">atomtype</field>
   <set>
    <rc><c>Cu</c><c>   1</c></rc>
    <rc><c>Cu</c><c>   1</c></rc>
    <rc><c>Cu</c><c>   1</c></rc>
    <rc><c>Cu</c><c>   1</c></rc>
    <rc><c>Cu</c><c>   1</c></rc>
    <rc><c>Cu</c><c>   1</c></rc>
    <rc><c>Cu</c><c>   1</c></rc>
    <rc><c>Cu</c><c>   1</c></rc>
    <rc><c>Cu</c><c>   1</c></rc>
    <rc><c>Cu</c><c>   1</c></rc>
    <rc><c>Cu</c><c>   1</c></rc>
    <rc><c>Cu</c><c>   1</c></rc>
    <rc><c>Cu</c><c>   1</c></rc>
    <rc><c>Cu</c><c>   1</c></rc>
    <rc><c>Cu</c><c>   1</c></rc>
    <rc><c>Cu</c><c>   1</c></rc>
    <rc><c>Cu</c><c>   1</c></rc>
    <rc><c>Cu</c><c>   1</c></rc>
    <rc><c>Cu</c><c>   1</c></rc>
    <rc><c>Cu</c><c>   1</c></rc>
   </set>
  </array>
  <array name="atomtypes" >
   <dimension dim="1">type</dimension>
   <field type="int">atomspertype</field>
   <field type="string">element</field>
   <field>mass</field>
   <field>valence</field>
   <field type="string">pseudopotential</field>
   <set>
    <rc><c>  20</c><c>Cu</c><c>     63.54600000</c><c>     11.00000000</c><c>  PAW_PBE Cu 22Jun2005                  </c></rc>
   </set>
  </array>
 </atominfo>
 <structure name="initialpos" >
  <crystal>
   <varray name="basis" >
    <v>       5.13359547       0.00000000       0.00000000 </v>
    <v>       2.56679773       4.44582409       0.00000000 </v>
    <v>       0.00000000       0.00000000      23.38312531 </v>
   </varray>
   <i name="volume">    533.67452742 </i>
   <varray name="rec_basis" >
    <v>       0.19479525      -0.11246509       0.00000000 </v>
    <v>       0.00000000       0.22493018       0.00000000 </v>
    <v>       0.00000000       0.00000000       0.04276588 </v>
   </varray>
  </crystal>
  <varray name="positions" >
   <v>       0.00000000       0.00000000       0.00000000 </v>
   <v>       0.00000000       0.50000000       0.00000000 </v>
   <v>       0.50000000       0.00000000       0.00000000 </v>
   <v>       0.50000000       0.50000000       0.00000000 </v>
   <v>       0.16666667       0.16666667       0.08962794 </v>
   <v>       0.16666667       0.66666667       0.08962794 </v>
   <v>       0.66666667       0.16666667       0.08962794 </v>
   <v>       0.66666667       0.66666667       0.08962794 </v>
   <v>       0.33333333       0.33333333       0.17925589 </v>
   <v>       0.33333333       0.83333333       0.17925589 </v>
   <v>       0.83333333       0.33333333       0.17925589 </v>
   <v>       0.83333333       0.83333333       0.17925589 </v>
   <v>       0.00000000       0.00000000       0.26888383 </v>
   <v>       0.00000000       0.50000000       0.26888383 </v>
   <v>       0.50000000       0.00000000       0.26888383 </v>
   <v>       0.50000000       0.50000000       0.26888383 </v>
   <v>       0.16666667       0.16666667       0.35851178 </v>
   <v>       0.16666667       0.66666667       0.35851178 </v>
   <v>       0.66666667       0.16666667       0.35851178 </v>
   <v>       0.66666667       0.66666667       0.35851178 </v>
  </varray>
  <varray name="selective"  type="logical" >
   <v type="logical" >  F  F  F </v>
   <v type="logical" >  F  F  F </v>
   <v type="logical" >  F  F  F </v>
   <v type="logical" >  F  F  F </v>
   <v type="logical" >  F  F  F </v>
   <v type="logical" >  F  F  F </v>
   <v type="logical" >  F  F  F </v>
   <v type="logical" >  F  F  F </v>
   <v type="logical" >  T  T  T </v>
   <v type="logical" >  T  T  T </v>
   <v type="logical" >  T  T  T </v>
   <v type="logical" >  T  T  T </v>
   <v type="logical" >  T  T  T </v>
   <v type="logical" >  T  T  T </v>
   <v type="logical" >  T  T  T </v>
   <v type="logical" >  T  T  T </v>
   <v type="logical" >  T  T  T </v>
   <v type="logical" >  T  T  T </v>
   <v type="logical" >  T  T  T </v>
   <v type="logical" >  T  T  T </v>
  </varray>
  <nose>
   <v>      -3.00000000       0.00000000       0.00010000       0.00010000 </v>
  </nose>
 </structure>
 <calculation>
  <scstep>
   <time name="dav">    1.70    1.71</time>
   <time name="total">    1.76    1.78</time>
   <energy>
    <i name="alphaZ">    548.14535784 </i>
    <i name="ewald">  95577.27893823 </i>
    <i name="hartreedc">-122606.96449788 </i>
    <i name="XCdc">    913.41692047 </i>
    <i name="pawpsdc">  24561.94992098 </i>
    <i name="pawaedc"> -26678.41863050 </i>
    <i name="eentropy">      0.02400658 </i>
    <i name="bandstr">   1876.00139626 </i>
    <i name="atom">  27819.15280400 </i>
    <i name="e_fr_energy">   2010.58621597 </i>
    <i name="e_wo_entrp">   2010.56220939 </i>
    <i name="e_0_energy">   2010.57821378 </i>
   </energy>
  </scstep>
  <scstep>
   <time name="dav">    1.68    1.69</time>
   <time name="total">    1.68    1.70</time>
   <energy>
    <i name="e_fr_energy">    220.55799360 </i>
    <i name="e_wo_entrp">    220.57485019 </i>
    <i name="e_0_energy">    220.56361246 </i>
   </energy>
  </scstep>
  <scstep>
   <time name="dav">    1.66    1.68</time>
   <time name="total">    1.66    1.68</time>
   <energy>
    <i name="e_fr_energy">    -66.47020066 </i>
    <i name="e_wo_entrp">    -66.51727869 </i>
    <i name="e_0_energy">    -66.48589334 </i>
   </energy>
  </scstep>
  <scstep>
   <time name="dav">    1.82    1.84</time>
   <time name="total">    1.82    1.84</time>
   <energy>
    <i name="e_fr_energy">    -83.84733743 </i>
    <i name="e_wo_entrp">    -83.88876248 </i>
    <i name="e_0_energy">    -83.86114578 </i>
   </energy>
  </scstep>
  <scstep>
   <time name="dav">    1.81    1.82</time>
   <time name="total">    2.12    2.14</time>
   <energy>
    <i name="e_fr_energy">    -84.21767863 </i>
    <i name="e_wo_entrp">    -84.26002916 </i>
    <i name="e_0_energy">    -84.23179547 </i>
   </energy>
  </scstep>
  <scstep>
   <time name="dav">    1.77    1.79</time>
   <time name="total">    2.14    2.15</time>
   <energy>
    <i name="e_fr_energy">    -70.04443112 </i>
    <i name="e_wo_entrp">    -69.97339692 </i>
    <i name="e_0_energy">    -70.02075305 </i>
   </energy>
  </scstep>
  <scstep>
   <time name="dav">    1.74    1.76</time>
   <time name="total">    2.10    2.12</time>
   <energy>
    <i name="e_fr_energy">    -59.39788879 </i>
    <i name="e_wo_entrp">    -59.41509893 </i>
    <i name="e_0_energy">    -59.40362550 </i>
   </energy>
  </scstep>
  <scstep>
   <time name="dav">    1.89    1.91</time>
   <time name="total">    2.24    2.26</time>
   <energy>
    <i name="e_fr_energy">    -58.87780382 </i>
    <i name="e_wo_entrp">    -58.86167794 </i>
    <i name="e_0_energy">    -58.87242853 </i>
   </energy>
  </scstep>
  <scstep>
   <time name="dav">    1.87    1.89</time>
   <time name="total">    2.23    2.24</time>
   <energy>
    <i name="e_fr_energy">    -58.51333134 </i>
    <i name="e_wo_entrp">    -58.51197280 </i>
    <i name="e_0_energy">    -58.51287849 </i>
   </energy>
  </scstep>
  <scstep>
   <time name="dav">    2.25    2.27</time>
   <time name="total">    2.60    2.62</time>
   <energy>
    <i name="e_fr_energy">    -58.04453423 </i>
    <i name="e_wo_entrp">    -57.99005141 </i>
    <i name="e_0_energy">    -58.02637329 </i>
   </energy>
  </scstep>
  <scstep>
   <time name="dav">    1.92    1.94</time>
   <time name="total">    2.27    2.29</time>
   <energy>
    <i name="e_fr_energy">    -58.28871768 </i>
    <i name="e_wo_entrp">    -58.23985557 </i>
    <i name="e_0_energy">    -58.27243031 </i>
   </energy>
  </scstep>
  <scstep>
   <time name="dav">    2.13    2.15</time>
   <time name="total">    2.48    2.50</time>
   <energy>
    <i name="e_fr_energy">    -60.24949763 </i>
    <i name="e_wo_entrp">    -60.24157174 </i>
    <i name="e_0_energy">    -60.24685567 </i>
   </energy>
  </scstep>
  <scstep>
   <time name="dav">    2.18    2.20</time>
   <time name="total">    2.53    2.55</time>
   <energy>
    <i name="e_fr_energy">    -60.86403030 </i>
    <i name="e_wo_entrp">    -60.86400633 </i>
    <i name="e_0_energy">    -60.86402231 </i>
   </energy>
  </scstep>
  <scstep>
   <time name="dav">    2.07    2.09</time>
   <time name="total">    2.42    2.44</time>
   <energy>
    <i name="e_fr_energy">    -65.63904600 </i>
    <i name="e_wo_entrp">    -65.63968027 </i>
    <i name="e_0_energy">    -65.63925742 </i>
   </energy>
  </scstep>
  <scstep>
   <time name="dav">    1.75    1.76</time>
   <time name="total">    2.10    2.12</time>
   <energy>
    <i name="e_fr_energy">    -67.51452768 </i>
    <i name="e_wo_entrp">    -67.50058049 </i>
    <i name="e_0_energy">    -67.50987861 </i>
   </energy>
  </scstep>
  <scstep>
   <time name="dav">    1.76    1.78</time>
   <time name="total">    2.11    2.12</time>
   <energy>
    <i name="e_fr_energy">    -68.13103202 </i>
    <i name="e_wo_entrp">    -68.11420992 </i>
    <i name="e_0_energy">    -68.12542465 </i>
   </energy>
  </scstep>
  <scstep>
   <time name="dav">    2.12    2.14</time>
   <time name="total">    2.47    2.49</time>
   <energy>
    <i name="e_fr_energy">    -68.65289142 </i>
    <i name="e_wo_entrp">    -68.64435927 </i>
    <i name="e_0_energy">    -68.65004737 </i>
   </energy>
  </scstep>
  <scstep>
   <time name="dav">    2.04    2.06</time>
   <time name="total">    2.38    2.40</time>
   <energy>
    <i name="e_fr_energy">    -68.75000197 </i>
    <i name="e_wo_entrp">    -68.75306805 </i>
    <i name="e_0_energy">    -68.75102399 </i>
   </energy>
  </scstep>
  <scstep>
   <time name="dav">    2.04    2.06</time>
   <time name="total">    2.40    2.42</time>
   <energy>
    <i name="e_fr_energy">    -68.99871430 </i>
    <i name="e_wo_entrp">    -69.01008324 </i>
    <i name="e_0_energy">    -69.00250395 </i>
   </energy>
  </scstep>
  <scstep>
   <time name="dav">    2.14    2.16</time>
   <time name="total">    2.48    2.51</time>
   <energy>
    <i name="e_fr_energy">    -68.99729475 </i>
    <i name="e_wo_entrp">    -69.01154178 </i>
    <i name="e_0_energy">    -69.00204376 </i>
   </energy>
  </scstep>
  <scstep>
   <time name="dav">    2.06    2.08</time>
   <time name="total">    2.41    2.43</time>
   <energy>
    <i name="e_fr_energy">    -69.56484639 </i>
    <i name="e_wo_entrp">    -69.57690486 </i>
    <i name="e_0_energy">    -69.56886588 </i>
   </energy>
  </scstep>
  <scstep>
   <time name="dav">    1.72    1.74</time>
   <time name="total">    2.07    2.09</time>
   <energy>
    <i name="e_fr_energy">    -69.74745403 </i>
    <i name="e_wo_entrp">    -69.75876266 </i>
    <i name="e_0_energy">    -69.75122357 </i>
   </energy>
  </scstep>
  <scstep>
   <time name="dav">    1.99    2.01</time>
   <time name="total">    2.34    2.36</time>
   <energy>
    <i name="e_fr_energy">    -69.90522630 </i>
    <i name="e_wo_entrp">    -69.91720642 </i>
    <i name="e_0_energy">    -69.90921967 </i>
   </energy>
  </scstep>
  <scstep>
   <time name="dav">    1.72    1.73</time>
   <time name="total">    2.07    2.08</time>
   <energy>
    <i name="e_fr_energy">    -70.00183332 </i>
    <i name="e_wo_entrp">    -70.01423031 </i>
    <i name="e_0_energy">    -70.00596565 </i>
   </energy>
  </scstep>
  <scstep>
   <time name="dav">    1.40    1.41</time>
   <time name="total">    1.75    1.76</time>
   <energy>
    <i name="e_fr_energy">    -70.02329265 </i>
    <i name="e_wo_entrp">    -70.03528072 </i>
    <i name="e_0_energy">    -70.02728867 </i>
   </energy>
  </scstep>
  <scstep>
   <time name="dav">    1.32    1.33</time>
   <time name="total">    1.68    1.69</time>
   <energy>
    <i name="e_fr_energy">    -70.03221446 </i>
    <i name="e_wo_entrp">    -70.04409245 </i>
    <i name="e_0_energy">    -70.03617379 </i>
   </energy>
  </scstep>
  <scstep>
   <time name="dav">    1.32    1.33</time>
   <time name="total">    1.67    1.68</time>
   <energy>
    <i name="e_fr_energy">    -70.03365762 </i>
    <i name="e_wo_entrp">    -70.04562700 </i>
    <i name="e_0_energy">    -70.03764741 </i>
   </energy>
  </scstep>
  <scstep>
   <time name="dav">    1.24    1.25</time>
   <time name="total">    1.59    1.60</time>
   <energy>
    <i name="e_fr_energy">    -70.03406185 </i>
    <i name="e_wo_entrp">    -70.04605373 </i>
    <i name="e_0_energy">    -70.03805914 </i>
   </energy>
  </scstep>
  <scstep>
   <time name="dav">    1.23    1.24</time>
   <time name="total">    1.29    1.30</time>
   <energy>
    <i name="alphaZ">    548.14535784 </i>
    <i name="ewald">  95577.27893823 </i>
    <i name="hartreedc">-122299.40198149 </i>
    <i name="XCdc">    890.46520901 </i>
    <i name="pawpsdc">  26044.84618308 </i>
    <i name="pawaedc"> -28197.61785989 </i>
    <i name="eentropy">      0.01196422 </i>
    <i name="bandstr">   -452.91475288 </i>
    <i name="atom">  27819.15280400 </i>
    <i name="e_fr_energy">    -70.03413789 </i>
    <i name="e_wo_entrp">    -70.04610211 </i>
    <i name="e_0_energy">    -70.03812596 </i>
   </energy>
  </scstep>
  <dipole>
   <v name="dipole">      0.00000000       0.00000000      -0.01185857 </v>
   <i name="Tr[quadrupol]">  -1060.09711244 </i>
   <i name="Echarged">      0.00000000 </i>
   <i name="Edipol_quadrupol">      0.00000000 </i>
   <i name="Eion">      0.00000000 </i>
  </dipole>
  <structure>
   <crystal>
    <varray name="basis" >
     <v>       5.13359547       0.00000000       0.00000000 </v>
     <v>       2.56679773       4.44582409       0.00000000 </v>
     <v>       0.00000000       0.00000000      23.38312531 </v>
    </varray>
    <i name="volume">    533.67452742 </i>
    <varray name="rec_basis" >
     <v>       0.19479525      -0.11246509       0.00000000 </v>
     <v>       0.00000000       0.22493018       0.00000000 </v>
     <v>       0.00000000       0.00000000       0.04276588 </v>
    </varray>
   </crystal>
   <varray name="positions" >
    <v>       0.00000000       0.00000000       0.00000000 </v>
    <v>       0.00000000       0.50000000       0.00000000 </v>
    <v>       0.50000000       0.00000000       0.00000000 </v>
    <v>       0.50000000       0.50000000       0.00000000 </v>
    <v>       0.16666667       0.16666667       0.08962794 </v>
    <v>       0.16666667       0.66666667       0.08962794 </v>
    <v>       0.66666667       0.16666667       0.08962794 </v>
    <v>       0.66666667       0.66666667       0.08962794 </v>
    <v>       0.33333333       0.33333333       0.17925589 </v>
    <v>       0.33333333       0.83333333       0.17925589 </v>
    <v>       0.83333333       0.33333333       0.17925589 </v>
    <v>       0.83333333       0.83333333       0.17925589 </v>
    <v>       0.00000000       0.00000000       0.26888383 </v>
    <v>       0.00000000       0.50000000       0.26888383 </v>
    <v>       0.50000000       0.00000000       0.26888383 </v>
    <v>       0.50000000       0.50000000       0.26888383 </v>
    <v>       0.16666667       0.16666667       0.35851178 </v>
    <v>       0.16666667       0.66666667       0.35851178 </v>
    <v>       0.66666667       0.16666667       0.35851178 </v>
    <v>       0.66666667       0.66666667       0.35851178 </v>
   </varray>
  </structure>
  <varray name="forces" >
   <v>      -0.00000000       0.00000000       0.18330739 </v>
   <v>      -0.00000000       0.00000000       0.18330739 </v>
   <v>      -0.00000000       0.00000000       0.18330739 </v>
   <v>       0.00000000       0.00000000       0.18330739 </v>
   <v>       0.00000000       0.00000000       0.20320945 </v>
   <v>      -0.00000000       0.00000000       0.20320945 </v>
   <v>      -0.00000000      -0.00000000       0.20320945 </v>
   <v>       0.00000000       0.00000000       0.20320945 </v>
   <v>      -0.00000000      -0.00000000       0.00048025 </v>
   <v>      -0.00000000      -0.00000000       0.00048025 </v>
   <v>      -0.00000000      -0.00000000       0.00048025 </v>
   <v>      -0.00000000      -0.00000000       0.00048025 </v>
   <v>       0.00000000       0.00000000      -0.20432344 </v>
   <v>       0.00000000      -0.00000000      -0.20432344 </v>
   <v>       0.00000000       0.00000000      -0.20432344 </v>
   <v>       0.00000000       0.00000000      -0.20432344 </v>
   <v>       0.00000000      -0.00000000      -0.18267364 </v>
   <v>       0.00000000      -0.00000000      -0.18267364 </v>
   <v>       0.00000000       0.00000000      -0.18267364 </v>
   <v>       0.00000000       0.00000000      -0.18267364 </v>
  </varray>
  <varray name="stress" >
   <v>     -38.95871516       0.00000000      -0.00000000 </v>
   <v>       0.00000000     -38.95871516       0.00000000 </v>
   <v>       0.00000000       0.00000000     -32.50329628 </v>
  </varray>
  <energy>
   <i name="e_fr_energy">    -77.49912644 </i>
   <i name="e_wo_entrp">    -77.51109066 </i>
   <i name="e_0_energy">    -77.50311451 </i>
  </energy>
  <time name="totalsc">   63.91   64.45</time>
 </calculation>
 <calculation>
  <scstep>
   <time name="dav">    1.74    1.75</time>
   <time name="total">    2.09    2.11</time>
   <energy>
    <i name="alphaZ">    548.14535784 </i>
    <i name="ewald">  95809.70950545 </i>
    <i name="hartreedc">-122531.32215924 </i>
    <i name="XCdc">    890.51509814 </i>
    <i name="pawpsdc">  26044.85795707 </i>
    <i name="pawaedc"> -28197.62490370 </i>
    <i name="eentropy">      0.01198523 </i>
    <i name="bandstr">   -453.47835214 </i>
    <i name="atom">  27819.15280400 </i>
    <i name="e_fr_energy">    -70.03270736 </i>
    <i name="e_wo_entrp">    -70.04469258 </i>
    <i name="e_0_energy">    -70.03670243 </i>
   </energy>
  </scstep>
  <scstep>
   <time name="dav">    2.17    2.19</time>
   <time name="total">    2.52    2.54</time>
   <energy>
    <i name="e_fr_energy">    -70.03935124 </i>
    <i name="e_wo_entrp">    -70.05038176 </i>
    <i name="e_0_energy">    -70.04302808 </i>
   </energy>
  </scstep>
  <scstep>
   <time name="dav">    1.71    1.72</time>
   <time name="total">    2.06    2.07</time>
   <energy>
    <i name="e_fr_energy">    -70.03928531 </i>
    <i name="e_wo_entrp">    -70.05125184 </i>
    <i name="e_0_energy">    -70.04327415 </i>
   </energy>
  </scstep>
  <scstep>
   <time name="dav">    1.39    1.40</time>
   <time name="total">    1.73    1.75</time>
   <energy>
    <i name="e_fr_energy">    -70.03927262 </i>
    <i name="e_wo_entrp">    -70.05106571 </i>
    <i name="e_0_energy">    -70.04320365 </i>
   </energy>
  </scstep>
  <scstep>
   <time name="dav">    1.24    1.25</time>
   <time name="total">    1.29    1.31</time>
   <energy>
    <i name="alphaZ">    548.14535784 </i>
    <i name="ewald">  95809.70950545 </i>
    <i name="hartreedc">-122531.56846816 </i>
    <i name="XCdc">    890.50141180 </i>
    <i name="pawpsdc">  26048.23199934 </i>
    <i name="pawaedc"> -28200.97667865 </i>
    <i name="eentropy">      0.01147215 </i>
    <i name="bandstr">   -453.24657679 </i>
    <i name="atom">  27819.15280400 </i>
    <i name="e_fr_energy">    -70.03917303 </i>
    <i name="e_wo_entrp">    -70.05064517 </i>
    <i name="e_0_energy">    -70.04299708 </i>
   </energy>
  </scstep>
  <dipole>
   <v name="dipole">      0.00000000       0.00000000      -0.00601622 </v>
   <i name="Tr[quadrupol]">  -1060.09118222 </i>
   <i name="Echarged">      0.00000000 </i>
   <i name="Edipol_quadrupol">      0.00000000 </i>
   <i name="Eion">      0.00000000 </i>
  </dipole>
  <structure>
   <crystal>
    <varray name="basis" >
     <v>       5.13359547       0.00000000       0.00000000 </v>
     <v>       2.56679773       4.44582409       0.00000000 </v>
     <v>       0.00000000       0.00000000      23.38312531 </v>
    </varray>
    <i name="volume">    533.67452742 </i>
    <varray name="rec_basis" >
     <v>       0.19479525      -0.11246509       0.00000000 </v>
     <v>       0.00000000       0.22493018       0.00000000 </v>
     <v>       0.00000000       0.00000000       0.04276588 </v>
    </varray>
   </crystal>
   <varray name="positions" >
    <v>       0.00000000       0.00000000       0.00000000 </v>
    <v>       0.00000000       0.50000000       0.00000000 </v>
    <v>       0.50000000       0.00000000       0.00000000 </v>
    <v>       0.50000000       0.50000000       0.00000000 </v>
    <v>       0.16666667       0.16666667       0.08962794 </v>
    <v>       0.16666667       0.66666667       0.08962794 </v>
    <v>       0.66666667       0.16666667       0.08962794 </v>
    <v>       0.66666667       0.66666667       0.08962794 </v>
    <v>       0.33333333       0.33333333       0.17925688 </v>
    <v>       0.33333333       0.83333333       0.17925688 </v>
    <v>       0.83333333       0.33333333       0.17925688 </v>
    <v>       0.83333333       0.83333333       0.17925688 </v>
    <v>       0.00000000       0.00000000       0.26846229 </v>
    <v>       0.00000000       0.50000000       0.26846229 </v>
    <v>       0.50000000       0.00000000       0.26846229 </v>
    <v>       0.50000000       0.50000000       0.26846229 </v>
    <v>       0.16666667       0.16666667       0.35813490 </v>
    <v>       0.16666667       0.66666667       0.35813490 </v>
    <v>       0.66666667       0.16666667       0.35813490 </v>
    <v>       0.66666667       0.66666667       0.35813490 </v>
   </varray>
  </structure>
  <varray name="forces" >
   <v>       0.00000000       0.00000000       0.18365826 </v>
   <v>       0.00000000       0.00000000       0.18365826 </v>
   <v>       0.00000000       0.00000000       0.18365826 </v>
   <v>       0.00000000       0.00000000       0.18365826 </v>
   <v>       0.00000000      -0.00000000       0.19865604 </v>
   <v>      -0.00000000      -0.00000000       0.19865604 </v>
   <v>      -0.00000000      -0.00000000       0.19865604 </v>
   <v>       0.00000000      -0.00000000       0.19865604 </v>
   <v>      -0.00000000       0.00000000      -0.04325132 </v>
   <v>      -0.00000000       0.00000000      -0.04325132 </v>
   <v>      -0.00000000      -0.00000000      -0.04325132 </v>
   <v>      -0.00000000      -0.00000000      -0.04325132 </v>
   <v>      -0.00000000       0.00000000      -0.15689078 </v>
   <v>      -0.00000000       0.00000000      -0.15689078 </v>
   <v>      -0.00000000      -0.00000000      -0.15689078 </v>
   <v>      -0.00000000       0.00000000      -0.15689078 </v>
   <v>      -0.00000000       0.00000000      -0.18217219 </v>
   <v>       0.00000000       0.00000000      -0.18217219 </v>
   <v>       0.00000000       0.00000000      -0.18217219 </v>
   <v>      -0.00000000      -0.00000000      -0.18217219 </v>
  </varray>
  <varray name="stress" >
   <v>     -36.23454347       0.00000000      -0.00000000 </v>
   <v>       0.00000000     -36.23454347      -0.00000000 </v>
   <v>       0.00000000       0.00000000     -29.28468528 </v>
  </varray>
  <energy>
   <i name="e_fr_energy">    -77.51323178 </i>
   <i name="e_wo_entrp">    -77.52470393 </i>
   <i name="e_0_energy">    -77.51705583 </i>
  </energy>
  <time name="totalsc">   12.75   12.91</time>
 </calculation>
 <calculation>
  <scstep>
   <time name="dav">    1.75    1.77</time>
   <time name="total">    2.11    2.12</time>
   <energy>
    <i name="alphaZ">    548.14535784 </i>
    <i name="ewald">  96508.97057556 </i>
    <i name="hartreedc">-123229.44464000 </i>
    <i name="XCdc">    890.67115623 </i>
    <i name="pawpsdc">  26050.25523681 </i>
    <i name="pawaedc"> -28203.14397135 </i>
    <i name="eentropy">      0.01118452 </i>
    <i name="bandstr">   -454.60040311 </i>
    <i name="atom">  27819.15280400 </i>
    <i name="e_fr_energy">    -69.98269951 </i>
    <i name="e_wo_entrp">    -69.99388403 </i>
    <i name="e_0_energy">    -69.98642769 </i>
   </energy>
  </scstep>
  <scstep>
   <time name="dav">    2.23    2.25</time>
   <time name="total">    2.57    2.59</time>
   <energy>
    <i name="e_fr_energy">    -70.05219757 </i>
    <i name="e_wo_entrp">    -70.06076043 </i>
    <i name="e_0_energy">    -70.05505186 </i>
   </energy>
  </scstep>
  <scstep>
   <time name="dav">    1.85    1.87</time>
   <time name="total">    2.20    2.22</time>
   <energy>
    <i name="e_fr_energy">    -70.05102017 </i>
    <i name="e_wo_entrp">    -70.06193508 </i>
    <i name="e_0_energy">    -70.05465847 </i>
   </energy>
  </scstep>
  <scstep>
   <time name="dav">    1.93    1.94</time>
   <time name="total">    2.27    2.29</time>
   <energy>
    <i name="e_fr_energy">    -70.04667763 </i>
    <i name="e_wo_entrp">    -70.05824949 </i>
    <i name="e_0_energy">    -70.05053492 </i>
   </energy>
  </scstep>
  <scstep>
   <time name="dav">    1.96    1.98</time>
   <time name="total">    2.31    2.33</time>
   <energy>
    <i name="e_fr_energy">    -70.04616447 </i>
    <i name="e_wo_entrp">    -70.05632239 </i>
    <i name="e_0_energy">    -70.04955044 </i>
   </energy>
  </scstep>
  <scstep>
   <time name="dav">    2.06    2.08</time>
   <time name="total">    2.40    2.42</time>
   <energy>
    <i name="e_fr_energy">    -70.04446008 </i>
    <i name="e_wo_entrp">    -70.05517059 </i>
    <i name="e_0_energy">    -70.04803025 </i>
   </energy>
  </scstep>
  <scstep>
   <time name="dav">    1.87    1.89</time>
   <time name="total">    2.22    2.24</time>
   <energy>
    <i name="e_fr_energy">    -70.04442531 </i>
    <i name="e_wo_entrp">    -70.05588904 </i>
    <i name="e_0_energy">    -70.04824655 </i>
   </energy>
  </scstep>
  <scstep>
   <time name="dav">    1.44    1.45</time>
   <time name="total">    1.49    1.50</time>
   <energy>
    <i name="alphaZ">    548.14535784 </i>
    <i name="ewald">  96508.97057556 </i>
    <i name="hartreedc">-123229.11831230 </i>
    <i name="XCdc">    890.61476018 </i>
    <i name="pawpsdc">  26069.81981079 </i>
    <i name="pawaedc"> -28223.04633476 </i>
    <i name="eentropy">      0.01141554 </i>
    <i name="bandstr">   -454.59437564 </i>
    <i name="atom">  27819.15280400 </i>
    <i name="e_fr_energy">    -70.04429880 </i>
    <i name="e_wo_entrp">    -70.05571433 </i>
    <i name="e_0_energy">    -70.04810398 </i>
   </energy>
  </scstep>
  <dipole>
   <v name="dipole">      0.00000000       0.00000000      -0.00188868 </v>
   <i name="Tr[quadrupol]">  -1060.08129908 </i>
   <i name="Echarged">      0.00000000 </i>
   <i name="Edipol_quadrupol">      0.00000000 </i>
   <i name="Eion">      0.00000000 </i>
  </dipole>
  <structure>
   <crystal>
    <varray name="basis" >
     <v>       5.13359547       0.00000000       0.00000000 </v>
     <v>       2.56679773       4.44582409       0.00000000 </v>
     <v>       0.00000000       0.00000000      23.38312531 </v>
    </varray>
    <i name="volume">    533.67452742 </i>
    <varray name="rec_basis" >
     <v>       0.19479525      -0.11246509       0.00000000 </v>
     <v>       0.00000000       0.22493018       0.00000000 </v>
     <v>       0.00000000       0.00000000       0.04276588 </v>
    </varray>
   </crystal>
   <varray name="positions" >
    <v>       0.00000000       0.00000000       0.00000000 </v>
    <v>       0.00000000       0.50000000       0.00000000 </v>
    <v>       0.50000000       0.00000000       0.00000000 </v>
    <v>       0.50000000       0.50000000       0.00000000 </v>
    <v>       0.16666667       0.16666667       0.08962794 </v>
    <v>       0.16666667       0.66666667       0.08962794 </v>
    <v>       0.66666667       0.16666667       0.08962794 </v>
    <v>       0.66666667       0.66666667       0.08962794 </v>
    <v>       0.33333333       0.33333333       0.17925985 </v>
    <v>       0.33333333       0.83333333       0.17925985 </v>
    <v>       0.83333333       0.33333333       0.17925985 </v>
    <v>       0.83333333       0.83333333       0.17925985 </v>
    <v>       0.00000000       0.00000000       0.26719764 </v>
    <v>       0.00000000       0.50000000       0.26719764 </v>
    <v>       0.50000000       0.00000000       0.26719764 </v>
    <v>       0.50000000       0.50000000       0.26719764 </v>
    <v>       0.16666667       0.16666667       0.35700425 </v>
    <v>       0.16666667       0.66666667       0.35700425 </v>
    <v>       0.66666667       0.16666667       0.35700425 </v>
    <v>       0.66666667       0.66666667       0.35700425 </v>
   </varray>
  </structure>
  <varray name="forces" >
   <v>       0.00000000       0.00000000       0.18879105 </v>
   <v>       0.00000000      -0.00000000       0.18879105 </v>
   <v>       0.00000000      -0.00000000       0.18879105 </v>
   <v>       0.00000000      -0.00000000       0.18879105 </v>
   <v>      -0.00000000       0.00000000       0.19984529 </v>
   <v>      -0.00000000       0.00000000       0.19984529 </v>
   <v>       0.00000000       0.00000000       0.19984529 </v>
   <v>       0.00000000       0.00000000       0.19984529 </v>
   <v>       0.00000000      -0.00000000      -0.14918669 </v>
   <v>      -0.00000000      -0.00000000      -0.14918669 </v>
   <v>      -0.00000000      -0.00000000      -0.14918669 </v>
   <v>       0.00000000      -0.00000000      -0.14918669 </v>
   <v>       0.00000000      -0.00000000      -0.03039133 </v>
   <v>      -0.00000000      -0.00000000      -0.03039133 </v>
   <v>       0.00000000       0.00000000      -0.03039133 </v>
   <v>       0.00000000       0.00000000      -0.03039133 </v>
   <v>      -0.00000000       0.00000000      -0.20905833 </v>
   <v>      -0.00000000      -0.00000000      -0.20905833 </v>
   <v>       0.00000000       0.00000000      -0.20905833 </v>
   <v>       0.00000000       0.00000000      -0.20905833 </v>
  </varray>
  <varray name="stress" >
   <v>     -37.74023459       0.00000000      -0.00000000 </v>
   <v>      -0.00000000     -37.74023459       0.00000000 </v>
   <v>       0.00000000       0.00000000     -28.88219290 </v>
  </varray>
  <energy>
   <i name="e_fr_energy">    -77.54575315 </i>
   <i name="e_wo_entrp">    -77.55716869 </i>
   <i name="e_0_energy">    -77.54955833 </i>
  </energy>
  <time name="totalsc">   20.63   20.83</time>
 </calculation>
 <calculation>
  <scstep>
   <time name="dav">    1.81    1.83</time>
   <time name="total">    2.16    2.18</time>
   <energy>
    <i name="alphaZ">    548.14535784 </i>
    <i name="ewald">  97916.31061510 </i>
    <i name="hartreedc">-124635.40305960 </i>
    <i name="XCdc">    890.99839770 </i>
    <i name="pawpsdc">  26070.21174561 </i>
    <i name="pawaedc"> -28223.45410077 </i>
    <i name="eentropy">      0.00704350 </i>
    <i name="bandstr">   -455.70227131 </i>
    <i name="atom">  27819.15280400 </i>
    <i name="e_fr_energy">    -69.73346793 </i>
    <i name="e_wo_entrp">    -69.74051143 </i>
    <i name="e_0_energy">    -69.73581576 </i>
   </energy>
  </scstep>
  <scstep>
   <time name="dav">    2.34    2.36</time>
   <time name="total">    2.68    2.71</time>
   <energy>
    <i name="e_fr_energy">    -70.04750900 </i>
    <i name="e_wo_entrp">    -70.04915798 </i>
    <i name="e_0_energy">    -70.04805866 </i>
   </energy>
  </scstep>
  <scstep>
   <time name="dav">    2.14    2.16</time>
   <time name="total">    2.49    2.51</time>
   <energy>
    <i name="e_fr_energy">    -70.03431518 </i>
    <i name="e_wo_entrp">    -70.04051593 </i>
    <i name="e_0_energy">    -70.03638210 </i>
   </energy>
  </scstep>
  <scstep>
   <time name="dav">    1.94    1.95</time>
   <time name="total">    2.28    2.30</time>
   <energy>
    <i name="e_fr_energy">    -70.01487354 </i>
    <i name="e_wo_entrp">    -70.02261727 </i>
    <i name="e_0_energy">    -70.01745478 </i>
   </energy>
  </scstep>
  <scstep>
   <time name="dav">    1.86    1.88</time>
   <time name="total">    2.22    2.23</time>
   <energy>
    <i name="e_fr_energy">    -70.01320867 </i>
    <i name="e_wo_entrp">    -70.01975873 </i>
    <i name="e_0_energy">    -70.01539202 </i>
   </energy>
  </scstep>
  <scstep>
   <time name="dav">    1.84    1.86</time>
   <time name="total">    2.19    2.21</time>
   <energy>
    <i name="e_fr_energy">    -70.00734180 </i>
    <i name="e_wo_entrp">    -70.01419203 </i>
    <i name="e_0_energy">    -70.00962521 </i>
   </energy>
  </scstep>
  <scstep>
   <time name="dav">    2.07    2.09</time>
   <time name="total">    2.43    2.45</time>
   <energy>
    <i name="e_fr_energy">    -70.00603369 </i>
    <i name="e_wo_entrp">    -70.01426017 </i>
    <i name="e_0_energy">    -70.00877585 </i>
   </energy>
  </scstep>
  <scstep>
   <time name="dav">    2.07    2.09</time>
   <time name="total">    2.42    2.44</time>
   <energy>
    <i name="e_fr_energy">    -70.00542623 </i>
    <i name="e_wo_entrp">    -70.01350930 </i>
    <i name="e_0_energy">    -70.00812058 </i>
   </energy>
  </scstep>
  <scstep>
   <time name="dav">    1.65    1.66</time>
   <time name="total">    1.71    1.72</time>
   <energy>
    <i name="alphaZ">    548.14535784 </i>
    <i name="ewald">  97916.31061510 </i>
    <i name="hartreedc">-124634.01723796 </i>
    <i name="XCdc">    890.86960376 </i>
    <i name="pawpsdc">  26113.13756701 </i>
    <i name="pawaedc"> -28267.13813595 </i>
    <i name="eentropy">      0.00788793 </i>
    <i name="bandstr">   -456.47392397 </i>
    <i name="atom">  27819.15280400 </i>
    <i name="e_fr_energy">    -70.00546224 </i>
    <i name="e_wo_entrp">    -70.01335017 </i>
    <i name="e_0_energy">    -70.00809155 </i>
   </energy>
  </scstep>
  <dipole>
   <v name="dipole">      0.00000000       0.00000000      -0.00075373 </v>
   <i name="Tr[quadrupol]">  -1060.10873462 </i>
   <i name="Echarged">      0.00000000 </i>
   <i name="Edipol_quadrupol">      0.00000000 </i>
   <i name="Eion">      0.00000000 </i>
  </dipole>
  <structure>
   <crystal>
    <varray name="basis" >
     <v>       5.13359547       0.00000000       0.00000000 </v>
     <v>       2.56679773       4.44582409       0.00000000 </v>
     <v>       0.00000000       0.00000000      23.38312531 </v>
    </varray>
    <i name="volume">    533.67452742 </i>
    <varray name="rec_basis" >
     <v>       0.19479525      -0.11246509       0.00000000 </v>
     <v>       0.00000000       0.22493018       0.00000000 </v>
     <v>       0.00000000       0.00000000       0.04276588 </v>
    </varray>
   </crystal>
   <varray name="positions" >
    <v>       0.00000000       0.00000000       0.00000000 </v>
    <v>       0.00000000       0.50000000       0.00000000 </v>
    <v>       0.50000000       0.00000000       0.00000000 </v>
    <v>       0.50000000       0.50000000       0.00000000 </v>
    <v>       0.16666667       0.16666667       0.08962794 </v>
    <v>       0.16666667       0.66666667       0.08962794 </v>
    <v>       0.66666667       0.16666667       0.08962794 </v>
    <v>       0.66666667       0.66666667       0.08962794 </v>
    <v>       0.33333333       0.33333333       0.17926580 </v>
    <v>       0.33333333       0.83333333       0.17926580 </v>
    <v>       0.83333333       0.33333333       0.17926580 </v>
    <v>       0.83333333       0.83333333       0.17926580 </v>
    <v>       0.00000000       0.00000000       0.26466836 </v>
    <v>       0.00000000       0.50000000       0.26466836 </v>
    <v>       0.50000000       0.00000000       0.26466836 </v>
    <v>       0.50000000       0.50000000       0.26466836 </v>
    <v>       0.16666667       0.16666667       0.35474297 </v>
    <v>       0.16666667       0.66666667       0.35474297 </v>
    <v>       0.66666667       0.16666667       0.35474297 </v>
    <v>       0.66666667       0.66666667       0.35474297 </v>
   </varray>
  </structure>
  <varray name="forces" >
   <v>       0.00000000       0.00000000       0.18390936 </v>
   <v>       0.00000000       0.00000000       0.18390936 </v>
   <v>       0.00000000      -0.00000000       0.18390936 </v>
   <v>       0.00000000      -0.00000000       0.18390936 </v>
   <v>      -0.00000000      -0.00000000       0.18984570 </v>
   <v>      -0.00000000       0.00000000       0.18984570 </v>
   <v>      -0.00000000       0.00000000       0.18984570 </v>
   <v>      -0.00000000       0.00000000       0.18984570 </v>
   <v>       0.00000000       0.00000000      -0.42947740 </v>
   <v>      -0.00000000      -0.00000000      -0.42947740 </v>
   <v>      -0.00000000       0.00000000      -0.42947740 </v>
   <v>      -0.00000000      -0.00000000      -0.42947740 </v>
   <v>       0.00000000      -0.00000000       0.27037622 </v>
   <v>       0.00000000      -0.00000000       0.27037622 </v>
   <v>       0.00000000      -0.00000000       0.27037622 </v>
   <v>       0.00000000      -0.00000000       0.27037622 </v>
   <v>      -0.00000000      -0.00000000      -0.21465388 </v>
   <v>      -0.00000000      -0.00000000      -0.21465388 </v>
   <v>       0.00000000       0.00000000      -0.21465388 </v>
   <v>      -0.00000000       0.00000000      -0.21465388 </v>
  </varray>
  <varray name="stress" >
   <v>     -36.66491280       0.00000000       0.00000000 </v>
   <v>      -0.00000000     -36.66491280       0.00000000 </v>
   <v>      -0.00000000      -0.00000000     -23.83556496 </v>
  </varray>
  <energy>
   <i name="e_fr_energy">    -77.56281149 </i>
   <i name="e_wo_entrp">    -77.57069942 </i>
   <i name="e_0_energy">    -77.56544080 </i>
  </energy>
  <time name="totalsc">   23.62   23.83</time>
 </calculation>
 <calculation>
  <scstep>
   <time name="dav">    1.75    1.77</time>
   <time name="total">    2.10    2.11</time>
   <energy>
    <i name="alphaZ">    548.14535784 </i>
    <i name="ewald">  97537.83003443 </i>
    <i name="hartreedc">-124256.28447706 </i>
    <i name="XCdc">    890.78056318 </i>
    <i name="pawpsdc">  26112.99816527 </i>
    <i name="pawaedc"> -28266.98151197 </i>
    <i name="eentropy">      0.00924314 </i>
    <i name="bandstr">   -455.65660752 </i>
    <i name="atom">  27819.15280400 </i>
    <i name="e_fr_energy">    -70.00642869 </i>
    <i name="e_wo_entrp">    -70.01567183 </i>
    <i name="e_0_energy">    -70.00950974 </i>
   </energy>
  </scstep>
  <scstep>
   <time name="dav">    2.18    2.20</time>
   <time name="total">    2.53    2.55</time>
   <energy>
    <i name="e_fr_energy">    -70.02484143 </i>
    <i name="e_wo_entrp">    -70.03444375 </i>
    <i name="e_0_energy">    -70.02804220 </i>
   </energy>
  </scstep>
  <scstep>
   <time name="dav">    1.72    1.73</time>
   <time name="total">    2.06    2.08</time>
   <energy>
    <i name="e_fr_energy">    -70.02443550 </i>
    <i name="e_wo_entrp">    -70.03380733 </i>
    <i name="e_0_energy">    -70.02755944 </i>
   </energy>
  </scstep>
  <scstep>
   <time name="dav">    1.70    1.72</time>
   <time name="total">    2.05    2.07</time>
   <energy>
    <i name="e_fr_energy">    -70.02384949 </i>
    <i name="e_wo_entrp">    -70.03313272 </i>
    <i name="e_0_energy">    -70.02694390 </i>
   </energy>
  </scstep>
  <scstep>
   <time name="dav">    1.56    1.57</time>
   <time name="total">    1.61    1.63</time>
   <energy>
    <i name="alphaZ">    548.14535784 </i>
    <i name="ewald">  97537.83003443 </i>
    <i name="hartreedc">-124255.56901524 </i>
    <i name="XCdc">    890.77857806 </i>
    <i name="pawpsdc">  26106.22760103 </i>
    <i name="pawaedc"> -28259.94029746 </i>
    <i name="eentropy">      0.00938670 </i>
    <i name="bandstr">   -456.65812450 </i>
    <i name="atom">  27819.15280400 </i>
    <i name="e_fr_energy">    -70.02367514 </i>
    <i name="e_wo_entrp">    -70.03306184 </i>
    <i name="e_0_energy">    -70.02680404 </i>
   </energy>
  </scstep>
  <dipole>
   <v name="dipole">      0.00000000       0.00000000       0.00238507 </v>
   <i name="Tr[quadrupol]">  -1060.09389794 </i>
   <i name="Echarged">      0.00000000 </i>
   <i name="Edipol_quadrupol">      0.00000000 </i>
   <i name="Eion">      0.00000000 </i>
  </dipole>
  <structure>
   <crystal>
    <varray name="basis" >
     <v>       5.13359547       0.00000000       0.00000000 </v>
     <v>       2.56679773       4.44582409       0.00000000 </v>
     <v>       0.00000000       0.00000000      23.38312531 </v>
    </varray>
    <i name="volume">    533.67452742 </i>
    <varray name="rec_basis" >
     <v>       0.19479525      -0.11246509       0.00000000 </v>
     <v>       0.00000000       0.22493018       0.00000000 </v>
     <v>       0.00000000       0.00000000       0.04276588 </v>
    </varray>
   </crystal>
   <varray name="positions" >
    <v>       0.00000000       0.00000000       0.00000000 </v>
    <v>       0.00000000       0.50000000       0.00000000 </v>
    <v>       0.50000000       0.00000000       0.00000000 </v>
    <v>       0.50000000       0.50000000       0.00000000 </v>
    <v>       0.16666667       0.16666667       0.08962794 </v>
    <v>       0.16666667       0.66666667       0.08962794 </v>
    <v>       0.66666667       0.16666667       0.08962794 </v>
    <v>       0.66666667       0.66666667       0.08962794 </v>
    <v>       0.33333333       0.33333333       0.17926420 </v>
    <v>       0.33333333       0.83333333       0.17926420 </v>
    <v>       0.83333333       0.33333333       0.17926420 </v>
    <v>       0.83333333       0.83333333       0.17926420 </v>
    <v>       0.00000000       0.00000000       0.26534650 </v>
    <v>       0.00000000       0.50000000       0.26534650 </v>
    <v>       0.50000000       0.00000000       0.26534650 </v>
    <v>       0.50000000       0.50000000       0.26534650 </v>
    <v>       0.16666667       0.16666667       0.35534926 </v>
    <v>       0.16666667       0.66666667       0.35534926 </v>
    <v>       0.66666667       0.16666667       0.35534926 </v>
    <v>       0.66666667       0.66666667       0.35534926 </v>
   </varray>
  </structure>
  <varray name="forces" >
   <v>      -0.00000000      -0.00000000       0.18118590 </v>
   <v>      -0.00000000      -0.00000000       0.18118590 </v>
   <v>      -0.00000000      -0.00000000       0.18118590 </v>
   <v>      -0.00000000      -0.00000000       0.18118590 </v>
   <v>       0.00000000       0.00000000       0.19162938 </v>
   <v>       0.00000000       0.00000000       0.19162938 </v>
   <v>      -0.00000000       0.00000000       0.19162938 </v>
   <v>      -0.00000000      -0.00000000       0.19162938 </v>
   <v>      -0.00000000       0.00000000      -0.34581348 </v>
   <v>      -0.00000000      -0.00000000      -0.34581348 </v>
   <v>       0.00000000      -0.00000000      -0.34581348 </v>
   <v>       0.00000000      -0.00000000      -0.34581348 </v>
   <v>       0.00000000      -0.00000000       0.18016429 </v>
   <v>      -0.00000000      -0.00000000       0.18016429 </v>
   <v>      -0.00000000      -0.00000000       0.18016429 </v>
   <v>      -0.00000000      -0.00000000       0.18016429 </v>
   <v>      -0.00000000       0.00000000      -0.20716609 </v>
   <v>      -0.00000000       0.00000000      -0.20716609 </v>
   <v>       0.00000000       0.00000000      -0.20716609 </v>
   <v>       0.00000000       0.00000000      -0.20716609 </v>
  </varray>
  <varray name="stress" >
   <v>     -29.27514305       0.00000000      -0.00000000 </v>
   <v>       0.00000000     -29.27514305       0.00000000 </v>
   <v>       0.00000000       0.00000000     -17.54666899 </v>
  </varray>
  <energy>
   <i name="e_fr_energy">    -77.56588415 </i>
   <i name="e_wo_entrp">    -77.57527085 </i>
   <i name="e_0_energy">    -77.56901305 </i>
  </energy>
  <time name="totalsc">   13.39   13.53</time>
 </calculation>
 <calculation>
  <scstep>
   <time name="dav">    1.77    1.79</time>
   <time name="total">    2.12    2.14</time>
   <energy>
    <i name="alphaZ">    548.14535784 </i>
    <i name="ewald">  97724.07558066 </i>
    <i name="hartreedc">-124442.35082179 </i>
    <i name="XCdc">    890.84343664 </i>
    <i name="pawpsdc">  26102.32518844 </i>
    <i name="pawaedc"> -28256.15065554 </i>
    <i name="eentropy">      0.00778302 </i>
    <i name="bandstr">   -456.07061279 </i>
    <i name="atom">  27819.15280400 </i>
    <i name="e_fr_energy">    -70.02193951 </i>
    <i name="e_wo_entrp">    -70.02972253 </i>
    <i name="e_0_energy">    -70.02453385 </i>
   </energy>
  </scstep>
  <scstep>
   <time name="dav">    2.58    2.60</time>
   <time name="total">    2.92    2.95</time>
   <energy>
    <i name="e_fr_energy">    -70.02998422 </i>
    <i name="e_wo_entrp">    -70.03789259 </i>
    <i name="e_0_energy">    -70.03262035 </i>
   </energy>
  </scstep>
  <scstep>
   <time name="dav">    2.26    2.28</time>
   <time name="total">    2.60    2.63</time>
   <energy>
    <i name="e_fr_energy">    -70.02608187 </i>
    <i name="e_wo_entrp">    -70.03423056 </i>
    <i name="e_0_energy">    -70.02879810 </i>
   </energy>
  </scstep>
  <scstep>
   <time name="dav">    1.71    1.72</time>
   <time name="total">    2.05    2.07</time>
   <energy>
    <i name="e_fr_energy">    -70.02605957 </i>
    <i name="e_wo_entrp">    -70.03414788 </i>
    <i name="e_0_energy">    -70.02875567 </i>
   </energy>
  </scstep>
  <scstep>
   <time name="dav">    1.63    1.64</time>
   <time name="total">    1.69    1.70</time>
   <energy>
    <i name="alphaZ">    548.14535784 </i>
    <i name="ewald">  97724.07558066 </i>
    <i name="hartreedc">-124442.08846296 </i>
    <i name="XCdc">    890.82968020 </i>
    <i name="pawpsdc">  26104.67087743 </i>
    <i name="pawaedc"> -28258.44516198 </i>
    <i name="eentropy">      0.00806437 </i>
    <i name="bandstr">   -456.37487335 </i>
    <i name="atom">  27819.15280400 </i>
    <i name="e_fr_energy">    -70.02613380 </i>
    <i name="e_wo_entrp">    -70.03419817 </i>
    <i name="e_0_energy">    -70.02882192 </i>
   </energy>
  </scstep>
  <dipole>
   <v name="dipole">      0.00000000       0.00000000      -0.00014468 </v>
   <i name="Tr[quadrupol]">  -1060.10005931 </i>
   <i name="Echarged">      0.00000000 </i>
   <i name="Edipol_quadrupol">      0.00000000 </i>
   <i name="Eion">      0.00000000 </i>
  </dipole>
  <structure>
   <crystal>
    <varray name="basis" >
     <v>       5.13359547       0.00000000       0.00000000 </v>
     <v>       2.56679773       4.44582409       0.00000000 </v>
     <v>       0.00000000       0.00000000      23.38312531 </v>
    </varray>
    <i name="volume">    533.67452742 </i>
    <varray name="rec_basis" >
     <v>       0.19479525      -0.11246509       0.00000000 </v>
     <v>       0.00000000       0.22493018       0.00000000 </v>
     <v>       0.00000000       0.00000000       0.04276588 </v>
    </varray>
   </crystal>
   <varray name="positions" >
    <v>       0.00000000       0.00000000       0.00000000 </v>
    <v>       0.00000000       0.50000000       0.00000000 </v>
    <v>       0.50000000       0.00000000       0.00000000 </v>
    <v>       0.50000000       0.50000000       0.00000000 </v>
    <v>       0.16666667       0.16666667       0.08962794 </v>
    <v>       0.16666667       0.66666667       0.08962794 </v>
    <v>       0.66666667       0.16666667       0.08962794 </v>
    <v>       0.66666667       0.66666667       0.08962794 </v>
    <v>       0.33333333       0.33333333       0.17907540 </v>
    <v>       0.33333333       0.83333333       0.17907540 </v>
    <v>       0.83333333       0.33333333       0.17907540 </v>
    <v>       0.83333333       0.83333333       0.17907540 </v>
    <v>       0.00000000       0.00000000       0.26515594 </v>
    <v>       0.00000000       0.50000000       0.26515594 </v>
    <v>       0.50000000       0.00000000       0.26515594 </v>
    <v>       0.50000000       0.50000000       0.26515594 </v>
    <v>       0.16666667       0.16666667       0.35497712 </v>
    <v>       0.16666667       0.66666667       0.35497712 </v>
    <v>       0.66666667       0.16666667       0.35497712 </v>
    <v>       0.66666667       0.66666667       0.35497712 </v>
   </varray>
  </structure>
  <varray name="forces" >
   <v>       0.00000000      -0.00000000       0.18820021 </v>
   <v>       0.00000000      -0.00000000       0.18820021 </v>
   <v>       0.00000000       0.00000000       0.18820021 </v>
   <v>       0.00000000       0.00000000       0.18820021 </v>
   <v>      -0.00000000       0.00000000       0.18128751 </v>
   <v>      -0.00000000      -0.00000000       0.18128751 </v>
   <v>      -0.00000000       0.00000000       0.18128751 </v>
   <v>       0.00000000      -0.00000000       0.18128751 </v>
   <v>      -0.00000000      -0.00000000      -0.33613222 </v>
   <v>      -0.00000000      -0.00000000      -0.33613222 </v>
   <v>      -0.00000000      -0.00000000      -0.33613222 </v>
   <v>      -0.00000000      -0.00000000      -0.33613222 </v>
   <v>       0.00000000      -0.00000000       0.16642304 </v>
   <v>       0.00000000       0.00000000       0.16642304 </v>
   <v>       0.00000000      -0.00000000       0.16642304 </v>
   <v>       0.00000000       0.00000000       0.16642304 </v>
   <v>      -0.00000000       0.00000000      -0.19977855 </v>
   <v>      -0.00000000       0.00000000      -0.19977855 </v>
   <v>       0.00000000       0.00000000      -0.19977855 </v>
   <v>      -0.00000000       0.00000000      -0.19977855 </v>
  </varray>
  <varray name="stress" >
   <v>     -34.40658651       0.00000000       0.00000000 </v>
   <v>       0.00000000     -34.40658651      -0.00000000 </v>
   <v>       0.00000000       0.00000000     -22.18149240 </v>
  </varray>
  <energy>
   <i name="e_fr_energy">    -77.57520039 </i>
   <i name="e_wo_entrp">    -77.58326476 </i>
   <i name="e_0_energy">    -77.57788852 </i>
  </energy>
  <time name="totalsc">   14.43   14.59</time>
 </calculation>
 <calculation>
  <scstep>
   <time name="dav">    1.77    1.78</time>
   <time name="total">    2.12    2.14</time>
   <energy>
    <i name="alphaZ">    548.14535784 </i>
    <i name="ewald">  98283.82404561 </i>
    <i name="hartreedc">-125001.14188342 </i>
    <i name="XCdc">    890.98751479 </i>
    <i name="pawpsdc">  26105.46528561 </i>
    <i name="pawaedc"> -28259.28000459 </i>
    <i name="eentropy">      0.00471483 </i>
    <i name="bandstr">   -457.15241874 </i>
    <i name="atom">  27819.15280400 </i>
    <i name="e_fr_energy">    -69.99458408 </i>
    <i name="e_wo_entrp">    -69.99929892 </i>
    <i name="e_0_energy">    -69.99615569 </i>
   </energy>
  </scstep>
  <scstep>
   <time name="dav">    2.38    2.40</time>
   <time name="total">    2.72    2.75</time>
   <energy>
    <i name="e_fr_energy">    -70.04287424 </i>
    <i name="e_wo_entrp">    -70.04704642 </i>
    <i name="e_0_energy">    -70.04426497 </i>
   </energy>
  </scstep>
  <scstep>
   <time name="dav">    2.17    2.19</time>
   <time name="total">    2.52    2.54</time>
   <energy>
    <i name="e_fr_energy">    -70.03657709 </i>
    <i name="e_wo_entrp">    -70.04145700 </i>
    <i name="e_0_energy">    -70.03820372 </i>
   </energy>
  </scstep>
  <scstep>
   <time name="dav">    1.89    1.91</time>
   <time name="total">    2.23    2.25</time>
   <energy>
    <i name="e_fr_energy">    -70.03403908 </i>
    <i name="e_wo_entrp">    -70.03916692 </i>
    <i name="e_0_energy">    -70.03574836 </i>
   </energy>
  </scstep>
  <scstep>
   <time name="dav">    1.79    1.80</time>
   <time name="total">    2.13    2.15</time>
   <energy>
    <i name="e_fr_energy">    -70.03380565 </i>
    <i name="e_wo_entrp">    -70.03846002 </i>
    <i name="e_0_energy">    -70.03535711 </i>
   </energy>
  </scstep>
  <scstep>
   <time name="dav">    1.90    1.92</time>
   <time name="total">    2.24    2.26</time>
   <energy>
    <i name="e_fr_energy">    -70.03259536 </i>
    <i name="e_wo_entrp">    -70.03762009 </i>
    <i name="e_0_energy">    -70.03427027 </i>
   </energy>
  </scstep>
  <scstep>
   <time name="dav">    1.90    1.92</time>
   <time name="total">    2.24    2.26</time>
   <energy>
    <i name="e_fr_energy">    -70.03257819 </i>
    <i name="e_wo_entrp">    -70.03725546 </i>
    <i name="e_0_energy">    -70.03413728 </i>
   </energy>
  </scstep>
  <scstep>
   <time name="dav">    1.37    1.38</time>
   <time name="total">    1.42    1.43</time>
   <energy>
    <i name="alphaZ">    548.14535784 </i>
    <i name="ewald">  98283.82404561 </i>
    <i name="hartreedc">-125000.60751998 </i>
    <i name="XCdc">    890.93426717 </i>
    <i name="pawpsdc">  26123.86416536 </i>
    <i name="pawaedc"> -28278.02266090 </i>
    <i name="eentropy">      0.00504294 </i>
    <i name="bandstr">   -457.32798431 </i>
    <i name="atom">  27819.15280400 </i>
    <i name="e_fr_energy">    -70.03248227 </i>
    <i name="e_wo_entrp">    -70.03752522 </i>
    <i name="e_0_energy">    -70.03416325 </i>
   </energy>
  </scstep>
  <dipole>
   <v name="dipole">      0.00000000       0.00000000      -0.00007353 </v>
   <i name="Tr[quadrupol]">  -1060.11065056 </i>
   <i name="Echarged">      0.00000000 </i>
   <i name="Edipol_quadrupol">      0.00000000 </i>
   <i name="Eion">      0.00000000 </i>
  </dipole>
  <structure>
   <crystal>
    <varray name="basis" >
     <v>       5.13359547       0.00000000       0.00000000 </v>
     <v>       2.56679773       4.44582409       0.00000000 </v>
     <v>       0.00000000       0.00000000      23.38312531 </v>
    </varray>
    <i name="volume">    533.67452742 </i>
    <varray name="rec_basis" >
     <v>       0.19479525      -0.11246509       0.00000000 </v>
     <v>       0.00000000       0.22493018       0.00000000 </v>
     <v>       0.00000000       0.00000000       0.04276588 </v>
    </varray>
   </crystal>
   <varray name="positions" >
    <v>       0.00000000       0.00000000       0.00000000 </v>
    <v>       0.00000000       0.50000000       0.00000000 </v>
    <v>       0.50000000       0.00000000       0.00000000 </v>
    <v>       0.50000000       0.50000000       0.00000000 </v>
    <v>       0.16666667       0.16666667       0.08962794 </v>
    <v>       0.16666667       0.66666667       0.08962794 </v>
    <v>       0.66666667       0.16666667       0.08962794 </v>
    <v>       0.66666667       0.66666667       0.08962794 </v>
    <v>       0.33333333       0.33333333       0.17850901 </v>
    <v>       0.33333333       0.83333333       0.17850901 </v>
    <v>       0.83333333       0.33333333       0.17850901 </v>
    <v>       0.83333333       0.83333333       0.17850901 </v>
    <v>       0.00000000       0.00000000       0.26458425 </v>
    <v>       0.00000000       0.50000000       0.26458425 </v>
    <v>       0.50000000       0.00000000       0.26458425 </v>
    <v>       0.50000000       0.50000000       0.26458425 </v>
    <v>       0.16666667       0.16666667       0.35386071 </v>
    <v>       0.16666667       0.66666667       0.35386071 </v>
    <v>       0.66666667       0.16666667       0.35386071 </v>
    <v>       0.66666667       0.66666667       0.35386071 </v>
   </varray>
  </structure>
  <varray name="forces" >
   <v>      -0.00000000      -0.00000000       0.18919050 </v>
   <v>       0.00000000      -0.00000000       0.18919050 </v>
   <v>      -0.00000000      -0.00000000       0.18919050 </v>
   <v>      -0.00000000      -0.00000000       0.18919050 </v>
   <v>      -0.00000000       0.00000000       0.12218668 </v>
   <v>      -0.00000000      -0.00000000       0.12218668 </v>
   <v>      -0.00000000      -0.00000000       0.12218668 </v>
   <v>      -0.00000000      -0.00000000       0.12218668 </v>
   <v>       0.00000000      -0.00000000      -0.28676040 </v>
   <v>       0.00000000       0.00000000      -0.28676040 </v>
   <v>       0.00000000       0.00000000      -0.28676040 </v>
   <v>       0.00000000       0.00000000      -0.28676040 </v>
   <v>      -0.00000000       0.00000000       0.14019406 </v>
   <v>      -0.00000000       0.00000000       0.14019406 </v>
   <v>      -0.00000000      -0.00000000       0.14019406 </v>
   <v>      -0.00000000      -0.00000000       0.14019406 </v>
   <v>       0.00000000      -0.00000000      -0.16481084 </v>
   <v>       0.00000000      -0.00000000      -0.16481084 </v>
   <v>      -0.00000000      -0.00000000      -0.16481084 </v>
   <v>       0.00000000       0.00000000      -0.16481084 </v>
  </varray>
  <varray name="stress" >
   <v>     -34.56531069       0.00000000      -0.00000000 </v>
   <v>      -0.00000000     -34.56531069      -0.00000000 </v>
   <v>       0.00000000       0.00000000     -21.04953757 </v>
  </varray>
  <energy>
   <i name="e_fr_energy">    -77.60221072 </i>
   <i name="e_wo_entrp">    -77.60725366 </i>
   <i name="e_0_energy">    -77.60389170 </i>
  </energy>
  <time name="totalsc">   20.67   20.88</time>
 </calculation>
 <calculation>
  <scstep>
   <time name="dav">    1.77    1.78</time>
   <time name="total">    2.15    2.16</time>
   <energy>
    <i name="alphaZ">    548.14535784 </i>
    <i name="ewald">  99407.86649642 </i>
    <i name="hartreedc">-126123.50472086 </i>
    <i name="XCdc">    891.27116822 </i>
    <i name="pawpsdc">  26124.01079359 </i>
    <i name="pawaedc"> -28278.17599412 </i>
    <i name="eentropy">     -0.00394296 </i>
    <i name="bandstr">   -458.62434425 </i>
    <i name="atom">  27819.15280400 </i>
    <i name="e_fr_energy">    -69.86238212 </i>
    <i name="e_wo_entrp">    -69.85843916 </i>
    <i name="e_0_energy">    -69.86106780 </i>
   </energy>
  </scstep>
  <scstep>
   <time name="dav">    2.43    2.45</time>
   <time name="total">    2.78    2.80</time>
   <energy>
    <i name="e_fr_energy">    -70.08308754 </i>
    <i name="e_wo_entrp">    -70.07814396 </i>
    <i name="e_0_energy">    -70.08143968 </i>
   </energy>
  </scstep>
  <scstep>
   <time name="dav">    2.43    2.45</time>
   <time name="total">    2.78    2.80</time>
   <energy>
    <i name="e_fr_energy">    -70.05029209 </i>
    <i name="e_wo_entrp">    -70.04715517 </i>
    <i name="e_0_energy">    -70.04924645 </i>
   </energy>
  </scstep>
  <scstep>
   <time name="dav">    2.02    2.04</time>
   <time name="total">    2.36    2.38</time>
   <energy>
    <i name="e_fr_energy">    -70.03706544 </i>
    <i name="e_wo_entrp">    -70.03430932 </i>
    <i name="e_0_energy">    -70.03614673 </i>
   </energy>
  </scstep>
  <scstep>
   <time name="dav">    1.82    1.83</time>
   <time name="total">    2.16    2.18</time>
   <energy>
    <i name="e_fr_energy">    -70.03651426 </i>
    <i name="e_wo_entrp">    -70.03310114 </i>
    <i name="e_0_energy">    -70.03537656 </i>
   </energy>
  </scstep>
  <scstep>
   <time name="dav">    1.77    1.78</time>
   <time name="total">    2.11    2.13</time>
   <energy>
    <i name="e_fr_energy">    -70.03298862 </i>
    <i name="e_wo_entrp">    -70.03052015 </i>
    <i name="e_0_energy">    -70.03216580 </i>
   </energy>
  </scstep>
  <scstep>
   <time name="dav">    2.40    2.42</time>
   <time name="total">    2.74    2.76</time>
   <energy>
    <i name="e_fr_energy">    -70.03193264 </i>
    <i name="e_wo_entrp">    -70.02823730 </i>
    <i name="e_0_energy">    -70.03070086 </i>
   </energy>
  </scstep>
  <scstep>
   <time name="dav">    2.00    2.02</time>
   <time name="total">    2.34    2.36</time>
   <energy>
    <i name="e_fr_energy">    -70.03159698 </i>
    <i name="e_wo_entrp">    -70.02862867 </i>
    <i name="e_0_energy">    -70.03060755 </i>
   </energy>
  </scstep>
  <scstep>
   <time name="dav">    1.38    1.39</time>
   <time name="total">    1.44    1.45</time>
   <energy>
    <i name="alphaZ">    548.14535784 </i>
    <i name="ewald">  99407.86649642 </i>
    <i name="hartreedc">-126123.30159809 </i>
    <i name="XCdc">    891.16370934 </i>
    <i name="pawpsdc">  26160.31531853 </i>
    <i name="pawaedc"> -28315.16150041 </i>
    <i name="eentropy">     -0.00304990 </i>
    <i name="bandstr">   -458.20908599 </i>
    <i name="atom">  27819.15280400 </i>
    <i name="e_fr_energy">    -70.03154826 </i>
    <i name="e_wo_entrp">    -70.02849837 </i>
    <i name="e_0_energy">    -70.03053163 </i>
   </energy>
  </scstep>
  <dipole>
   <v name="dipole">      0.00000000       0.00000000      -0.00186009 </v>
   <i name="Tr[quadrupol]">  -1060.15233673 </i>
   <i name="Echarged">      0.00000000 </i>
   <i name="Edipol_quadrupol">      0.00000000 </i>
   <i name="Eion">      0.00000000 </i>
  </dipole>
  <structure>
   <crystal>
    <varray name="basis" >
     <v>       5.13359547       0.00000000       0.00000000 </v>
     <v>       2.56679773       4.44582409       0.00000000 </v>
     <v>       0.00000000       0.00000000      23.38312531 </v>
    </varray>
    <i name="volume">    533.67452742 </i>
    <varray name="rec_basis" >
     <v>       0.19479525      -0.11246509       0.00000000 </v>
     <v>       0.00000000       0.22493018       0.00000000 </v>
     <v>       0.00000000       0.00000000       0.04276588 </v>
    </varray>
   </crystal>
   <varray name="positions" >
    <v>       0.00000000       0.00000000       0.00000000 </v>
    <v>       0.00000000       0.50000000       0.00000000 </v>
    <v>       0.50000000       0.00000000       0.00000000 </v>
    <v>       0.50000000       0.50000000       0.00000000 </v>
    <v>       0.16666667       0.16666667       0.08962794 </v>
    <v>       0.16666667       0.66666667       0.08962794 </v>
    <v>       0.66666667       0.16666667       0.08962794 </v>
    <v>       0.66666667       0.66666667       0.08962794 </v>
    <v>       0.33333333       0.33333333       0.17737621 </v>
    <v>       0.33333333       0.83333333       0.17737621 </v>
    <v>       0.83333333       0.33333333       0.17737621 </v>
    <v>       0.83333333       0.83333333       0.17737621 </v>
    <v>       0.00000000      -0.00000000       0.26344088 </v>
    <v>       0.00000000       0.50000000       0.26344088 </v>
    <v>       0.50000000      -0.00000000       0.26344088 </v>
    <v>       0.50000000       0.50000000       0.26344088 </v>
    <v>       0.16666667       0.16666667       0.35162788 </v>
    <v>       0.16666667       0.66666667       0.35162788 </v>
    <v>       0.66666667       0.16666667       0.35162788 </v>
    <v>       0.66666667       0.66666667       0.35162788 </v>
   </varray>
  </structure>
  <varray name="forces" >
   <v>      -0.00000000       0.00000000       0.18810959 </v>
   <v>      -0.00000000       0.00000000       0.18810959 </v>
   <v>      -0.00000000       0.00000000       0.18810959 </v>
   <v>      -0.00000000       0.00000000       0.18810959 </v>
   <v>       0.00000000       0.00000000       0.00756234 </v>
   <v>      -0.00000000      -0.00000000       0.00756234 </v>
   <v>       0.00000000      -0.00000000       0.00756234 </v>
   <v>       0.00000000      -0.00000000       0.00756234 </v>
   <v>       0.00000000      -0.00000000      -0.18763118 </v>
   <v>       0.00000000      -0.00000000      -0.18763118 </v>
   <v>       0.00000000       0.00000000      -0.18763118 </v>
   <v>      -0.00000000       0.00000000      -0.18763118 </v>
   <v>       0.00000000       0.00000000       0.05585204 </v>
   <v>      -0.00000000       0.00000000       0.05585204 </v>
   <v>       0.00000000       0.00000000       0.05585204 </v>
   <v>      -0.00000000       0.00000000       0.05585204 </v>
   <v>      -0.00000000       0.00000000      -0.06389278 </v>
[...]
       <r>     8.5406     5.5737   137.6105 </r>
       <r>     8.6147     4.2129   137.9227 </r>
       <r>     8.6888     3.5057   138.1825 </r>
       <r>     8.7629     3.5328   138.4443 </r>
       <r>     8.8371     3.9518   138.7372 </r>
       <r>     8.9112     3.6377   139.0068 </r>
       <r>     8.9853     2.2408   139.1729 </r>
       <r>     9.0594     0.9144   139.2407 </r>
       <r>     9.1335     0.8085   139.3006 </r>
       <r>     9.2076     1.6598   139.4236 </r>
       <r>     9.2817     2.3464   139.5975 </r>
       <r>     9.3558     2.5434   139.7860 </r>
       <r>     9.4300     3.0986   140.0156 </r>
       <r>     9.5041     4.5301   140.3514 </r>
       <r>     9.5782     6.3718   140.8236 </r>
       <r>     9.6523     8.2839   141.4375 </r>
       <r>     9.7264     9.9388   142.1741 </r>
       <r>     9.8005    10.0514   142.9191 </r>
       <r>     9.8746     7.8289   143.4993 </r>
       <r>     9.9487     4.5495   143.8365 </r>
       <r>    10.0229     1.9860   143.9837 </r>
       <r>    10.0970     0.5992   144.0281 </r>
       <r>    10.1711     0.0012   144.0282 </r>
       <r>    10.2452    -0.1654   144.0159 </r>
       <r>    10.3193    -0.1313   144.0062 </r>
       <r>    10.3934    -0.0600   144.0017 </r>
       <r>    10.4675    -0.0185   144.0003 </r>
       <r>    10.5417    -0.0040   144.0001 </r>
       <r>    10.6158    -0.0006   144.0000 </r>
       <r>    10.6899    -0.0001   144.0000 </r>
       <r>    10.7640    -0.0000   144.0000 </r>
       <r>    10.8381    -0.0000   144.0000 </r>
       <r>    10.9122    -0.0000   144.0000 </r>
       <r>    10.9863    -0.0000   144.0000 </r>
       <r>    11.0604    -0.0000   144.0000 </r>
       <r>    11.1346    -0.0000   144.0000 </r>
       <r>    11.2087    -0.0000   144.0000 </r>
       <r>    11.2828     0.0000   144.0000 </r>
       <r>    11.3569     0.0000   144.0000 </r>
       <r>    11.4310     0.0000   144.0000 </r>
       <r>    11.5051     0.0000   144.0000 </r>
       <r>    11.5792     0.0000   144.0000 </r>
       <r>    11.6533     0.0000   144.0000 </r>
       <r>    11.7275     0.0000   144.0000 </r>
       <r>    11.8016     0.0000   144.0000 </r>
       <r>    11.8757     0.0000   144.0000 </r>
       <r>    11.9498     0.0000   144.0000 </r>
      </set>
      <set comment="spin 2">
       <r>   -10.2840     0.0000     0.0000 </r>
       <r>   -10.2099     0.0000     0.0000 </r>
       <r>   -10.1358     0.0000     0.0000 </r>
       <r>   -10.0617     0.0000     0.0000 </r>
       <r>    -9.9876     0.0000     0.0000 </r>
       <r>    -9.9135    -0.0000    -0.0000 </r>
       <r>    -9.8394    -0.0000    -0.0000 </r>
       <r>    -9.7652    -0.0000    -0.0000 </r>
       <r>    -9.6911    -0.0000    -0.0000 </r>
       <r>    -9.6170    -0.0000    -0.0000 </r>
       <r>    -9.5429    -0.0000    -0.0000 </r>
       <r>    -9.4688    -0.0000    -0.0000 </r>
       <r>    -9.3947    -0.0000    -0.0000 </r>
       <r>    -9.3206    -0.0000    -0.0000 </r>
       <r>    -9.2465    -0.0000    -0.0000 </r>
       <r>    -9.1723    -0.0000    -0.0000 </r>
       <r>    -9.0982    -0.0000    -0.0000 </r>
       <r>    -9.0241    -0.0000    -0.0000 </r>
       <r>    -8.9500    -0.0000    -0.0000 </r>
       <r>    -8.8759    -0.0002    -0.0000 </r>
       <r>    -8.8018    -0.0010    -0.0001 </r>
       <r>    -8.7277    -0.0044    -0.0004 </r>
       <r>    -8.6536    -0.0134    -0.0014 </r>
       <r>    -8.5794    -0.0240    -0.0032 </r>
       <r>    -8.5053    -0.0064    -0.0037 </r>
       <r>    -8.4312     0.0917     0.0031 </r>
       <r>    -8.3571     0.2763     0.0236 </r>
       <r>    -8.2830     0.4376     0.0560 </r>
       <r>    -8.2089     0.4349     0.0883 </r>
       <r>    -8.1348     0.2706     0.1083 </r>
       <r>    -8.0607     0.0873     0.1148 </r>
       <r>    -7.9865    -0.0096     0.1141 </r>
       <r>    -7.9124    -0.0344     0.1115 </r>
       <r>    -7.8383    -0.0556     0.1074 </r>
       <r>    -7.7642    -0.1175     0.0987 </r>
       <r>    -7.6901    -0.1619     0.0867 </r>
       <r>    -7.6160     0.0705     0.0919 </r>
       <r>    -7.5419     0.9107     0.1594 </r>
       <r>    -7.4678     2.2191     0.3239 </r>
       <r>    -7.3936     3.1164     0.5549 </r>
       <r>    -7.3195     2.8106     0.7632 </r>
       <r>    -7.2454     1.5915     0.8811 </r>
       <r>    -7.1713     0.4436     0.9140 </r>
       <r>    -7.0972    -0.0860     0.9076 </r>
       <r>    -7.0231    -0.1567     0.8960 </r>
       <r>    -6.9490    -0.1124     0.8877 </r>
       <r>    -6.8749    -0.1231     0.8786 </r>
       <r>    -6.8007    -0.1503     0.8674 </r>
       <r>    -6.7266     0.0510     0.8712 </r>
       <r>    -6.6525     0.7904     0.9298 </r>
       <r>    -6.5784     1.9498     1.0743 </r>
       <r>    -6.5043     2.7310     1.2767 </r>
       <r>    -6.4302     2.4187     1.4559 </r>
       <r>    -6.3561     1.2965     1.5520 </r>
       <r>    -6.2819     0.2715     1.5722 </r>
       <r>    -6.2078    -0.1597     1.5603 </r>
       <r>    -6.1337    -0.0892     1.5537 </r>
       <r>    -6.0596     0.3361     1.5786 </r>
       <r>    -5.9855     1.1495     1.6638 </r>
       <r>    -5.9114     2.2061     1.8273 </r>
       <r>    -5.8373     2.8639     2.0396 </r>
       <r>    -5.7632     2.5028     2.2250 </r>
       <r>    -5.6890     1.3389     2.3243 </r>
       <r>    -5.6149     0.1875     2.3382 </r>
       <r>    -5.5408    -0.4070     2.3080 </r>
       <r>    -5.4667    -0.2164     2.2920 </r>
       <r>    -5.3926     1.0880     2.3726 </r>
       <r>    -5.3185     3.4763     2.6302 </r>
       <r>    -5.2444     5.8237     3.0618 </r>
       <r>    -5.1703     6.6350     3.5536 </r>
       <r>    -5.0961     5.5446     3.9645 </r>
       <r>    -5.0220     3.4348     4.2191 </r>
       <r>    -4.9479     1.4581     4.3271 </r>
       <r>    -4.8738     0.4539     4.3608 </r>
       <r>    -4.7997     0.7402     4.4156 </r>
       <r>    -4.7256     1.8925     4.5559 </r>
       <r>    -4.6515     2.8433     4.7666 </r>
       <r>    -4.5774     2.6650     4.9641 </r>
       <r>    -4.5032     1.4477     5.0714 </r>
       <r>    -4.4291     0.1509     5.0826 </r>
       <r>    -4.3550    -0.2448     5.0645 </r>
       <r>    -4.2809     0.9508     5.1349 </r>
       <r>    -4.2068     4.0501     5.4351 </r>
       <r>    -4.1327     8.3407     6.0532 </r>
       <r>    -4.0586    11.8965     6.9349 </r>
       <r>    -3.9845    12.9881     7.8975 </r>
       <r>    -3.9103    11.9271     8.7815 </r>
       <r>    -3.8362    10.8359     9.5845 </r>
       <r>    -3.7621    11.0793    10.4057 </r>
       <r>    -3.6880    11.9403    11.2906 </r>
       <r>    -3.6139    12.3099    12.2029 </r>
       <r>    -3.5398    12.3125    13.1154 </r>
       <r>    -3.4657    13.2085    14.0943 </r>
       <r>    -3.3915    16.0694    15.2853 </r>
       <r>    -3.3174    19.8018    16.7529 </r>
       <r>    -3.2433    21.7537    18.3651 </r>
       <r>    -3.1692    21.2956    19.9434 </r>
       <r>    -3.0951    20.4327    21.4577 </r>
       <r>    -3.0210    20.2473    22.9583 </r>
       <r>    -2.9469    19.7388    24.4212 </r>
       <r>    -2.8728    18.7506    25.8108 </r>
       <r>    -2.7986    18.8264    27.2061 </r>
       <r>    -2.7245    20.3737    28.7161 </r>
       <r>    -2.6504    21.9793    30.3450 </r>
       <r>    -2.5763    23.2489    32.0680 </r>
       <r>    -2.5022    25.5128    33.9589 </r>
       <r>    -2.4281    28.9343    36.1033 </r>
       <r>    -2.3540    31.6172    38.4465 </r>
       <r>    -2.2799    32.8465    40.8808 </r>
       <r>    -2.2057    34.5631    43.4424 </r>
       <r>    -2.1316    37.8632    46.2486 </r>
       <r>    -2.0575    40.7100    49.2657 </r>
       <r>    -1.9834    40.9440    52.3002 </r>
       <r>    -1.9093    39.3014    55.2129 </r>
       <r>    -1.8352    38.1091    58.0373 </r>
       <r>    -1.7611    38.2937    60.8753 </r>
       <r>    -1.6870    38.5038    63.7289 </r>
       <r>    -1.6128    37.0337    66.4736 </r>
       <r>    -1.5387    34.3296    69.0179 </r>
       <r>    -1.4646    32.4400    71.4221 </r>
       <r>    -1.3905    31.7662    73.7764 </r>
       <r>    -1.3164    31.2775    76.0944 </r>
       <r>    -1.2423    32.3010    78.4884 </r>
       <r>    -1.1682    37.5956    81.2747 </r>
       <r>    -1.0941    45.8211    84.6706 </r>
       <r>    -1.0199    51.2505    88.4689 </r>
       <r>    -0.9458    50.4576    92.2085 </r>
       <r>    -0.8717    46.1335    95.6276 </r>
       <r>    -0.7976    42.0778    98.7461 </r>
       <r>    -0.7235    37.2136   101.5041 </r>
       <r>    -0.6494    28.4053   103.6093 </r>
       <r>    -0.5753    17.1005   104.8766 </r>
       <r>    -0.5012     8.6154   105.5151 </r>
       <r>    -0.4270     5.6490   105.9338 </r>
       <r>    -0.3529     5.8818   106.3697 </r>
       <r>    -0.2788     5.7265   106.7941 </r>
       <r>    -0.2047     4.0321   107.0929 </r>
       <r>    -0.1306     1.8640   107.2311 </r>
       <r>    -0.0565     0.3843   107.2596 </r>
       <r>     0.0176    -0.2054   107.2444 </r>
       <r>     0.0918    -0.2971   107.2223 </r>
       <r>     0.1659    -0.2172   107.2062 </r>
       <r>     0.2400     0.0047   107.2066 </r>
       <r>     0.3141     0.5075   107.2442 </r>
       <r>     0.3882     1.4958   107.3550 </r>
       <r>     0.4623     3.1463   107.5882 </r>
       <r>     0.5364     5.0974   107.9660 </r>
       <r>     0.6105     6.2166   108.4267 </r>
       <r>     0.6847     5.8612   108.8611 </r>
       <r>     0.7588     5.0395   109.2346 </r>
       <r>     0.8329     5.1782   109.6184 </r>
       <r>     0.9070     6.2559   110.0820 </r>
       <r>     0.9811     7.1224   110.6099 </r>
       <r>     1.0552     7.1594   111.1405 </r>
       <r>     1.1293     6.6781   111.6354 </r>
       <r>     1.2034     5.8874   112.0718 </r>
       <r>     1.2776     4.5415   112.4083 </r>
       <r>     1.3517     2.6930   112.6079 </r>
       <r>     1.4258     0.9326   112.6770 </r>
       <r>     1.4999    -0.2053   112.6618 </r>
       <r>     1.5740    -0.4654   112.6273 </r>
       <r>     1.6481     0.5136   112.6654 </r>
       <r>     1.7222     2.9443   112.8836 </r>
       <r>     1.7963     5.7435   113.3093 </r>
       <r>     1.8705     6.7180   113.8072 </r>
       <r>     1.9446     4.9878   114.1768 </r>
       <r>     2.0187     2.2703   114.3451 </r>
       <r>     2.0928     0.8745   114.4099 </r>
       <r>     2.1669     1.4550   114.5177 </r>
       <r>     2.2410     3.0847   114.7464 </r>
       <r>     2.3151     4.3466   115.0685 </r>
       <r>     2.3892     4.1987   115.3797 </r>
       <r>     2.4634     2.7507   115.5835 </r>
       <r>     2.5375     1.3074   115.6804 </r>
       <r>     2.6116     1.0962   115.7617 </r>
       <r>     2.6857     1.9583   115.9068 </r>
       <r>     2.7598     2.6016   116.0996 </r>
       <r>     2.8339     2.1204   116.2568 </r>
       <r>     2.9080     0.8709   116.3213 </r>
       <r>     2.9821    -0.1959   116.3068 </r>
       <r>     3.0563    -0.3149   116.2835 </r>
       <r>     3.1304     1.1256   116.3669 </r>
       <r>     3.2045     4.1589   116.6751 </r>
       <r>     3.2786     7.2081   117.2093 </r>
       <r>     3.3527     7.8619   117.7920 </r>
       <r>     3.4268     5.5646   118.2044 </r>
       <r>     3.5009     2.3182   118.3762 </r>
       <r>     3.5751     0.2269   118.3930 </r>
       <r>     3.6492    -0.3865   118.3644 </r>
       <r>     3.7233    -0.3157   118.3410 </r>
       <r>     3.7974    -0.1923   118.3267 </r>
       <r>     3.8715    -0.1289   118.3172 </r>
       <r>     3.9456     0.0786   118.3230 </r>
       <r>     4.0197     0.6464   118.3709 </r>
       <r>     4.0938     1.4506   118.4784 </r>
       <r>     4.1680     1.9909   118.6260 </r>
       <r>     4.2421     1.9426   118.7699 </r>
       <r>     4.3162     1.6427   118.8917 </r>
       <r>     4.3903     1.7628   119.0223 </r>
       <r>     4.4644     2.4658   119.2051 </r>
       <r>     4.5385     3.1586   119.4392 </r>
       <r>     4.6126     3.4640   119.6959 </r>
       <r>     4.6867     3.9795   119.9908 </r>
       <r>     4.7609     5.1562   120.3730 </r>
       <r>     4.8350     6.1302   120.8273 </r>
       <r>     4.9091     5.8872   121.2636 </r>
       <r>     4.9832     4.6774   121.6103 </r>
       <r>     5.0573     3.3031   121.8551 </r>
       <r>     5.1314     2.1826   122.0168 </r>
       <r>     5.2055     1.6760   122.1411 </r>
       <r>     5.2796     2.0361   122.2920 </r>
       <r>     5.3538     2.6710   122.4899 </r>
       <r>     5.4279     2.6505   122.6863 </r>
       <r>     5.5020     2.2016   122.8495 </r>
       <r>     5.5761     2.5694   123.0399 </r>
       <r>     5.6502     4.2343   123.3537 </r>
       <r>     5.7243     6.2439   123.8165 </r>
       <r>     5.7984     7.2208   124.3517 </r>
       <r>     5.8725     6.4237   124.8277 </r>
       <r>     5.9467     4.4265   125.1558 </r>
       <r>     6.0208     2.9560   125.3749 </r>
       <r>     6.0949     3.1185   125.6060 </r>
       <r>     6.1690     3.9952   125.9021 </r>
       <r>     6.2431     4.0815   126.2046 </r>
       <r>     6.3172     3.6161   126.4726 </r>
       <r>     6.3913     4.0409   126.7720 </r>
       <r>     6.4654     5.5047   127.1800 </r>
       <r>     6.5396     6.5718   127.6671 </r>
       <r>     6.6137     6.3491   128.1376 </r>
       <r>     6.6878     5.2540   128.5270 </r>
       <r>     6.7619     3.7578   128.8055 </r>
       <r>     6.8360     2.0453   128.9571 </r>
       <r>     6.9101     0.7493   129.0126 </r>
       <r>     6.9842     0.5915   129.0565 </r>
       <r>     7.0584     1.3840   129.1590 </r>
       <r>     7.1325     2.3429   129.3327 </r>
       <r>     7.2066     3.4812   129.5907 </r>
       <r>     7.2807     5.6151   130.0068 </r>
       <r>     7.3548     8.3707   130.6272 </r>
       <r>     7.4289     9.6242   131.3405 </r>
       <r>     7.5030     8.0122   131.9343 </r>
       <r>     7.5771     4.7068   132.2831 </r>
       <r>     7.6513     2.0235   132.4331 </r>
       <r>     7.7254     1.3418   132.5325 </r>
       <r>     7.7995     2.4292   132.7126 </r>
       <r>     7.8736     3.8486   132.9978 </r>
       <r>     7.9477     4.1410   133.3047 </r>
       <r>     8.0218     3.3605   133.5538 </r>
       <r>     8.0959     3.3797   133.8042 </r>
       <r>     8.1700     5.8390   134.2370 </r>
       <r>     8.2442     9.6602   134.9529 </r>
       <r>     8.3183    11.7653   135.8249 </r>
       <r>     8.3924    10.6545   136.6145 </r>
       <r>     8.4665     7.8790   137.1985 </r>
       <r>     8.5406     5.5683   137.6112 </r>
       <r>     8.6147     4.2103   137.9232 </r>
       <r>     8.6888     3.5065   138.1831 </r>
       <r>     8.7629     3.5356   138.4451 </r>
       <r>     8.8371     3.9531   138.7381 </r>
       <r>     8.9112     3.6349   139.0075 </r>
       <r>     8.9853     2.2361   139.1732 </r>
       <r>     9.0594     0.9121   139.2408 </r>
       <r>     9.1335     0.8101   139.3008 </r>
       <r>     9.2076     1.6625   139.4240 </r>
       <r>     9.2817     2.3469   139.5980 </r>
       <r>     9.3558     2.5410   139.7863 </r>
       <r>     9.4300     3.0957   140.0157 </r>
       <r>     9.5041     4.5288   140.3514 </r>
       <r>     9.5782     6.3725   140.8236 </r>
       <r>     9.6523     8.2860   141.4377 </r>
       <r>     9.7264     9.9415   142.1745 </r>
       <r>     9.8005    10.0543   142.9197 </r>
       <r>     9.8746     7.8313   143.5001 </r>
       <r>     9.9487     4.5496   143.8373 </r>
       <r>    10.0229     1.9830   143.9842 </r>
       <r>    10.0970     0.5949   144.0283 </r>
       <r>    10.1711    -0.0018   144.0282 </r>
       <r>    10.2452    -0.1664   144.0159 </r>
       <r>    10.3193    -0.1312   144.0061 </r>
       <r>    10.3934    -0.0598   144.0017 </r>
       <r>    10.4675    -0.0183   144.0003 </r>
       <r>    10.5417    -0.0040   144.0001 </r>
       <r>    10.6158    -0.0006   144.0000 </r>
       <r>    10.6899    -0.0001   144.0000 </r>
       <r>    10.7640    -0.0000   144.0000 </r>
       <r>    10.8381    -0.0000   144.0000 </r>
       <r>    10.9122    -0.0000   144.0000 </r>
       <r>    10.9863    -0.0000   144.0000 </r>
       <r>    11.0604    -0.0000   144.0000 </r>
       <r>    11.1346    -0.0000   144.0000 </r>
       <r>    11.2087    -0.0000   144.0000 </r>
       <r>    11.2828     0.0000   144.0000 </r>
       <r>    11.3569     0.0000   144.0000 </r>
       <r>    11.4310     0.0000   144.0000 </r>
       <r>    11.5051     0.0000   144.0000 </r>
       <r>    11.5792     0.0000   144.0000 </r>
       <r>    11.6533     0.0000   144.0000 </r>
       <r>    11.7275     0.0000   144.0000 </r>
       <r>    11.8016     0.0000   144.0000 </r>
       <r>    11.8757     0.0000   144.0000 </r>
       <r>    11.9498     0.0000   144.0000 </r>
      </set>
     </set>
    </array>
   </total>
  </dos>
 </calculation>
 <structure name="finalpos" >
  <crystal>
   <varray name="basis" >
    <v>       5.13359547       0.00000000       0.00000000 </v>
    <v>       2.56679773       4.44582409       0.00000000 </v>
    <v>       0.00000000       0.00000000      23.38312531 </v>
   </varray>
   <i name="volume">    533.67452742 </i>
   <varray name="rec_basis" >
    <v>       0.19479525      -0.11246509       0.00000000 </v>
    <v>       0.00000000       0.22493018       0.00000000 </v>
    <v>       0.00000000       0.00000000       0.04276588 </v>
   </varray>
  </crystal>
  <varray name="positions" >
   <v>       0.00000000       0.00000000       0.00000000 </v>
   <v>       0.00000000       0.50000000       0.00000000 </v>
   <v>       0.50000000       0.00000000       0.00000000 </v>
   <v>       0.50000000       0.50000000       0.00000000 </v>
   <v>       0.16666667       0.16666667       0.08962794 </v>
   <v>       0.16666667       0.66666667       0.08962794 </v>
   <v>       0.66666667       0.16666667       0.08962794 </v>
   <v>       0.66666667       0.66666667       0.08962794 </v>
   <v>       0.33333333       0.33333333       0.17551653 </v>
   <v>       0.33333333       0.83333333       0.17551653 </v>
   <v>       0.83333333       0.33333333       0.17551653 </v>
   <v>       0.83333333       0.83333333       0.17551653 </v>
   <v>       0.00000000      -0.00000000       0.26125209 </v>
   <v>       0.00000000       0.50000000       0.26125209 </v>
   <v>       0.50000000      -0.00000000       0.26125209 </v>
   <v>       0.50000000       0.50000000       0.26125209 </v>
   <v>       0.16666667       0.16666667       0.34862915 </v>
   <v>       0.16666667       0.66666667       0.34862915 </v>
   <v>       0.66666667       0.16666667       0.34862915 </v>
   <v>       0.66666667       0.66666667       0.34862915 </v>
  </varray>
  <varray name="selective"  type="logical" >
   <v type="logical" >  F  F  F </v>
   <v type="logical" >  F  F  F </v>
   <v type="logical" >  F  F  F </v>
   <v type="logical" >  F  F  F </v>
   <v type="logical" >  F  F  F </v>
   <v type="logical" >  F  F  F </v>
   <v type="logical" >  F  F  F </v>
   <v type="logical" >  F  F  F </v>
   <v type="logical" >  T  T  T </v>
   <v type="logical" >  T  T  T </v>
   <v type="logical" >  T  T  T </v>
   <v type="logical" >  T  T  T </v>
   <v type="logical" >  T  T  T </v>
   <v type="logical" >  T  T  T </v>
   <v type="logical" >  T  T  T </v>
   <v type="logical" >  T  T  T </v>
   <v type="logical" >  T  T  T </v>
   <v type="logical" >  T  T  T </v>
   <v type="logical" >  T  T  T </v>
   <v type="logical" >  T  T  T </v>
  </varray>
  <nose>
   <v>      -3.00000000       0.00000000       0.00010000       0.00010000 </v>
  </nose>
 </structure>
</modeling>
