  10  10   0   0
  0.2234684E+02  0.3630000E-09  0.2566798E-09  0.2398379E-08  0.5000000E-15
  1.000000000000000E-004
  CAR 
 unknown system                          
     11.88926428    -10.11860957  301      0.75940831      1.00000000
    -10.119  0.0000E+00  0.0000E+00  0.0000E+00  0.0000E+00
    -10.045  0.0000E+00  0.0000E+00  0.0000E+00  0.0000E+00
     -9.972  0.0000E+00  0.0000E+00  0.0000E+00  0.0000E+00
     -9.899  0.0000E+00  0.0000E+00  0.0000E+00  0.0000E+00
     -9.825  0.0000E+00  0.0000E+00  0.0000E+00  0.0000E+00
     -9.752 -0.4778E-31 -0.4778E-31 -0.3505E-32 -0.3505E-32
     -9.678 -0.1589E-28 -0.1589E-28 -0.1169E-29 -0.1169E-29
     -9.605 -0.4039E-26 -0.4039E-26 -0.2975E-27 -0.2975E-27
     -9.532 -0.7821E-24 -0.7821E-24 -0.5767E-25 -0.5767E-25
     -9.458 -0.1154E-21 -0.1154E-21 -0.8520E-23 -0.8520E-23
     -9.385 -0.1296E-19 -0.1296E-19 -0.9589E-21 -0.9589E-21
     -9.312 -0.1107E-17 -0.1107E-17 -0.8219E-19 -0.8219E-19
     -9.238 -0.6966E-16 -0.6966E-16 -0.5192E-17 -0.5192E-17
     -9.165 -0.3427E-14 -0.3427E-14 -0.2566E-15 -0.2566E-15
     -9.092 -0.1277E-12 -0.1277E-12 -0.9627E-14 -0.9627E-14
     -9.018 -0.3604E-11 -0.3604E-11 -0.2740E-12 -0.2740E-12
     -8.945 -0.7681E-10 -0.7681E-10 -0.5909E-11 -0.5909E-11
     -8.871 -0.1232E-08 -0.1232E-08 -0.9631E-10 -0.9631E-10
     -8.798 -0.1481E-07 -0.1481E-07 -0.1183E-08 -0.1183E-08
     -8.725 -0.1325E-06 -0.1325E-06 -0.1091E-07 -0.1091E-07
     -8.651 -0.8726E-06 -0.8726E-06 -0.7492E-07 -0.7492E-07
     -8.578 -0.4146E-05 -0.4146E-05 -0.3791E-06 -0.3791E-06
     -8.505 -0.1366E-04 -0.1366E-04 -0.1381E-05 -0.1381E-05
     -8.431 -0.2803E-04 -0.2803E-04 -0.3437E-05 -0.3437E-05
     -8.358 -0.2004E-04 -0.2004E-04 -0.4907E-05 -0.4907E-05
     -8.285  0.7193E-04  0.7193E-04  0.3692E-06  0.3692E-06
     -8.211  0.2804E-03  0.2804E-03  0.2094E-04  0.2094E-04
     -8.138  0.5075E-03  0.5075E-03  0.5817E-04  0.5817E-04
     -8.065  0.5698E-03  0.5698E-03  0.9997E-04  0.9997E-04
     -7.991  0.4093E-03  0.4093E-03  0.1300E-03  0.1300E-03
     -7.918  0.1695E-03  0.1695E-03  0.1424E-03  0.1424E-03
     -7.844  0.1372E-04  0.1372E-04  0.1434E-03  0.1434E-03
     -7.771 -0.3014E-04 -0.3014E-04  0.1412E-03  0.1412E-03
     -7.698 -0.2235E-04 -0.2235E-04  0.1396E-03  0.1396E-03
     -7.624 -0.1248E-04 -0.1248E-04  0.1387E-03  0.1387E-03
     -7.551 -0.1614E-04 -0.1614E-04  0.1375E-03  0.1375E-03
     -7.478 -0.2884E-04 -0.2884E-04  0.1354E-03  0.1354E-03
     -7.404 -0.1971E-04 -0.1971E-04  0.1339E-03  0.1339E-03
     -7.331  0.7214E-04  0.7214E-04  0.1392E-03  0.1392E-03
     -7.258  0.2705E-03  0.2705E-03  0.1591E-03  0.1591E-03
     -7.184  0.4682E-03  0.4682E-03  0.1934E-03  0.1934E-03
     -7.111  0.5087E-03  0.5087E-03  0.2307E-03  0.2307E-03
     -7.038  0.4393E-03  0.4393E-03  0.2630E-03  0.2630E-03
     -6.964  0.5238E-03  0.5238E-03  0.3014E-03  0.3014E-03
     -6.891  0.8521E-03  0.8521E-03  0.3639E-03  0.3639E-03
     -6.817  0.1111E-02  0.1111E-02  0.4454E-03  0.4454E-03
     -6.744  0.9637E-03  0.9637E-03  0.5161E-03  0.5161E-03
     -6.671  0.4999E-03  0.4999E-03  0.5528E-03  0.5528E-03
     -6.597  0.9682E-04  0.9682E-04  0.5599E-03  0.5599E-03
     -6.524 -0.9471E-05 -0.9471E-05  0.5592E-03  0.5592E-03
     -6.451  0.1499E-03  0.1499E-03  0.5702E-03  0.5702E-03
     -6.377  0.4141E-03  0.4141E-03  0.6006E-03  0.6006E-03
     -6.304  0.6622E-03  0.6622E-03  0.6491E-03  0.6491E-03
     -6.231  0.8935E-03  0.8935E-03  0.7147E-03  0.7147E-03
     -6.157  0.1091E-02  0.1091E-02  0.7947E-03  0.7947E-03
     -6.084  0.1111E-02  0.1111E-02  0.8762E-03  0.8762E-03
     -6.010  0.9464E-03  0.9464E-03  0.9457E-03  0.9457E-03
     -5.937  0.8841E-03  0.8841E-03  0.1011E-02  0.1011E-02
     -5.864  0.1142E-02  0.1142E-02  0.1094E-02  0.1094E-02
     -5.790  0.1568E-02  0.1568E-02  0.1209E-02  0.1209E-02
     -5.717  0.1864E-02  0.1864E-02  0.1346E-02  0.1346E-02
     -5.644  0.1841E-02  0.1841E-02  0.1481E-02  0.1481E-02
     -5.570  0.1447E-02  0.1447E-02  0.1587E-02  0.1587E-02
     -5.497  0.8154E-03  0.8154E-03  0.1647E-02  0.1647E-02
     -5.424  0.2544E-03  0.2544E-03  0.1666E-02  0.1666E-02
     -5.350  0.5155E-04  0.5155E-04  0.1670E-02  0.1670E-02
     -5.277  0.2601E-03  0.2601E-03  0.1689E-02  0.1689E-02
     -5.204  0.6503E-03  0.6503E-03  0.1736E-02  0.1736E-02
     -5.130  0.9803E-03  0.9803E-03  0.1808E-02  0.1808E-02
     -5.057  0.1464E-02  0.1464E-02  0.1916E-02  0.1916E-02
     -4.983  0.2663E-02  0.2663E-02  0.2111E-02  0.2111E-02
     -4.910  0.4534E-02  0.4534E-02  0.2444E-02  0.2444E-02
     -4.837  0.5915E-02  0.5915E-02  0.2878E-02  0.2878E-02
     -4.763  0.5558E-02  0.5558E-02  0.3285E-02  0.3285E-02
     -4.690  0.3577E-02  0.3577E-02  0.3548E-02  0.3548E-02
     -4.617  0.1344E-02  0.1344E-02  0.3646E-02  0.3646E-02
     -4.543 -0.1545E-04 -0.1545E-04  0.3645E-02  0.3645E-02
     -4.470 -0.4687E-03 -0.4687E-03  0.3611E-02  0.3611E-02
     -4.397 -0.4461E-03 -0.4461E-03  0.3578E-02  0.3578E-02
     -4.323  0.5484E-04  0.5484E-04  0.3582E-02  0.3582E-02
     -4.250  0.1441E-02  0.1441E-02  0.3688E-02  0.3688E-02
     -4.176  0.3606E-02  0.3606E-02  0.3952E-02  0.3952E-02
     -4.103  0.5352E-02  0.5352E-02  0.4345E-02  0.4345E-02
     -4.030  0.5358E-02  0.5358E-02  0.4738E-02  0.4738E-02
     -3.956  0.3757E-02  0.3757E-02  0.5014E-02  0.5014E-02
     -3.883  0.2081E-02  0.2081E-02  0.5166E-02  0.5166E-02
     -3.810  0.1566E-02  0.1566E-02  0.5281E-02  0.5281E-02
     -3.736  0.2131E-02  0.2131E-02  0.5438E-02  0.5438E-02
     -3.663  0.3102E-02  0.3102E-02  0.5665E-02  0.5665E-02
     -3.590  0.4215E-02  0.4215E-02  0.5974E-02  0.5974E-02
     -3.516  0.5464E-02  0.5464E-02  0.6375E-02  0.6375E-02
     -3.443  0.6547E-02  0.6547E-02  0.6855E-02  0.6855E-02
     -3.370  0.7171E-02  0.7171E-02  0.7382E-02  0.7382E-02
     -3.296  0.7640E-02  0.7640E-02  0.7942E-02  0.7942E-02
     -3.223  0.8471E-02  0.8471E-02  0.8563E-02  0.8563E-02
     -3.149  0.9660E-02  0.9660E-02  0.9272E-02  0.9272E-02
     -3.076  0.1083E-01  0.1083E-01  0.1007E-01  0.1007E-01
     -3.003  0.1167E-01  0.1167E-01  0.1092E-01  0.1092E-01
     -2.929  0.1173E-01  0.1173E-01  0.1178E-01  0.1178E-01
     -2.856  0.1061E-01  0.1061E-01  0.1256E-01  0.1256E-01
     -2.783  0.8840E-02  0.8840E-02  0.1321E-01  0.1321E-01
     -2.709  0.7973E-02  0.7973E-02  0.1380E-01  0.1380E-01
     -2.636  0.8861E-02  0.8861E-02  0.1445E-01  0.1445E-01
     -2.563  0.1053E-01  0.1053E-01  0.1522E-01  0.1522E-01
     -2.489  0.1166E-01  0.1166E-01  0.1607E-01  0.1607E-01
     -2.416  0.1243E-01  0.1243E-01  0.1699E-01  0.1699E-01
     -2.342  0.1358E-01  0.1358E-01  0.1798E-01  0.1798E-01
     -2.269  0.1459E-01  0.1459E-01  0.1905E-01  0.1905E-01
     -2.196  0.1472E-01  0.1472E-01  0.2013E-01  0.2013E-01
     -2.122  0.1509E-01  0.1509E-01  0.2124E-01  0.2124E-01
     -2.049  0.1735E-01  0.1735E-01  0.2251E-01  0.2251E-01
     -1.976  0.2053E-01  0.2053E-01  0.2402E-01  0.2402E-01
     -1.902  0.2165E-01  0.2165E-01  0.2561E-01  0.2561E-01
     -1.829  0.1973E-01  0.1973E-01  0.2705E-01  0.2705E-01
     -1.756  0.1692E-01  0.1692E-01  0.2830E-01  0.2830E-01
     -1.682  0.1541E-01  0.1541E-01  0.2943E-01  0.2943E-01
     -1.609  0.1494E-01  0.1494E-01  0.3052E-01  0.3052E-01
     -1.536  0.1379E-01  0.1379E-01  0.3153E-01  0.3153E-01
     -1.462  0.1157E-01  0.1157E-01  0.3238E-01  0.3238E-01
     -1.389  0.1010E-01  0.1010E-01  0.3312E-01  0.3312E-01
     -1.315  0.1141E-01  0.1141E-01  0.3396E-01  0.3396E-01
     -1.242  0.1570E-01  0.1570E-01  0.3511E-01  0.3511E-01
     -1.169  0.2131E-01  0.2131E-01  0.3667E-01  0.3667E-01
     -1.095  0.2559E-01  0.2559E-01  0.3855E-01  0.3855E-01
     -1.022  0.2623E-01  0.2623E-01  0.4048E-01  0.4048E-01
     -0.949  0.2336E-01  0.2336E-01  0.4219E-01  0.4219E-01
     -0.875  0.2016E-01  0.2016E-01  0.4367E-01  0.4367E-01
     -0.802  0.1970E-01  0.1970E-01  0.4511E-01  0.4511E-01
     -0.729  0.2155E-01  0.2155E-01  0.4669E-01  0.4669E-01
     -0.655  0.2310E-01  0.2310E-01  0.4839E-01  0.4839E-01
     -0.582  0.2277E-01  0.2277E-01  0.5006E-01  0.5006E-01
     -0.509  0.2057E-01  0.2057E-01  0.5157E-01  0.5157E-01
     -0.435  0.1693E-01  0.1693E-01  0.5281E-01  0.5281E-01
     -0.362  0.1257E-01  0.1257E-01  0.5373E-01  0.5373E-01
     -0.288  0.8540E-02  0.8540E-02  0.5436E-01  0.5436E-01
     -0.215  0.5519E-02  0.5519E-02  0.5476E-01  0.5476E-01
     -0.142  0.3376E-02  0.3376E-02  0.5501E-01  0.5501E-01
     -0.068  0.1716E-02  0.1716E-02  0.5514E-01  0.5514E-01
      0.005  0.5008E-03  0.5008E-03  0.5517E-01  0.5517E-01
      0.078 -0.1427E-03 -0.1427E-03  0.5516E-01  0.5516E-01
      0.152 -0.3132E-03 -0.3132E-03  0.5514E-01  0.5514E-01
      0.225 -0.2122E-03 -0.2122E-03  0.5512E-01  0.5512E-01
      0.298  0.1525E-03  0.1525E-03  0.5514E-01  0.5514E-01
      0.372  0.8625E-03  0.8625E-03  0.5520E-01  0.5520E-01
      0.445  0.1774E-02  0.1774E-02  0.5533E-01  0.5533E-01
      0.519  0.2580E-02  0.2580E-02  0.5552E-01  0.5552E-01
      0.592  0.3125E-02  0.3125E-02  0.5575E-01  0.5575E-01
      0.665  0.3310E-02  0.3310E-02  0.5599E-01  0.5599E-01
      0.739  0.2889E-02  0.2889E-02  0.5620E-01  0.5620E-01
      0.812  0.1869E-02  0.1869E-02  0.5634E-01  0.5634E-01
      0.885  0.8693E-03  0.8693E-03  0.5640E-01  0.5640E-01
      0.959  0.5318E-03  0.5318E-03  0.5644E-01  0.5644E-01
      1.032  0.7826E-03  0.7826E-03  0.5650E-01  0.5650E-01
      1.105  0.9954E-03  0.9954E-03  0.5657E-01  0.5657E-01
      1.179  0.8005E-03  0.8005E-03  0.5663E-01  0.5663E-01
      1.252  0.4697E-03  0.4697E-03  0.5667E-01  0.5667E-01
      1.325  0.4507E-03  0.4507E-03  0.5670E-01  0.5670E-01
      1.399  0.7525E-03  0.7525E-03  0.5675E-01  0.5675E-01
      1.472  0.1038E-02  0.1038E-02  0.5683E-01  0.5683E-01
      1.546  0.1240E-02  0.1240E-02  0.5692E-01  0.5692E-01
      1.619  0.1633E-02  0.1633E-02  0.5704E-01  0.5704E-01
      1.692  0.2133E-02  0.2133E-02  0.5720E-01  0.5720E-01
      1.766  0.2129E-02  0.2129E-02  0.5735E-01  0.5735E-01
      1.839  0.1391E-02  0.1391E-02  0.5746E-01  0.5746E-01
      1.912  0.5872E-03  0.5872E-03  0.5750E-01  0.5750E-01
      1.986  0.5489E-03  0.5489E-03  0.5754E-01  0.5754E-01
      2.059  0.1315E-02  0.1315E-02  0.5764E-01  0.5764E-01
      2.132  0.2067E-02  0.2067E-02  0.5779E-01  0.5779E-01
      2.206  0.2039E-02  0.2039E-02  0.5794E-01  0.5794E-01
      2.279  0.1424E-02  0.1424E-02  0.5804E-01  0.5804E-01
      2.353  0.1035E-02  0.1035E-02  0.5812E-01  0.5812E-01
      2.426  0.1234E-02  0.1234E-02  0.5821E-01  0.5821E-01
      2.499  0.1731E-02  0.1731E-02  0.5833E-01  0.5833E-01
      2.573  0.2242E-02  0.2242E-02  0.5850E-01  0.5850E-01
      2.646  0.2670E-02  0.2670E-02  0.5870E-01  0.5870E-01
      2.719  0.2824E-02  0.2824E-02  0.5890E-01  0.5890E-01
      2.793  0.2564E-02  0.2564E-02  0.5909E-01  0.5909E-01
      2.866  0.2110E-02  0.2110E-02  0.5925E-01  0.5925E-01
      2.939  0.1814E-02  0.1814E-02  0.5938E-01  0.5938E-01
      3.013  0.1714E-02  0.1714E-02  0.5950E-01  0.5950E-01
      3.086  0.1531E-02  0.1531E-02  0.5962E-01  0.5962E-01
      3.159  0.1067E-02  0.1067E-02  0.5969E-01  0.5969E-01
      3.233  0.4801E-03  0.4801E-03  0.5973E-01  0.5973E-01
      3.306  0.6978E-04  0.6978E-04  0.5973E-01  0.5973E-01
      3.380 -0.7307E-04 -0.7307E-04  0.5973E-01  0.5973E-01
      3.453 -0.6786E-04 -0.6786E-04  0.5972E-01  0.5972E-01
      3.526 -0.4867E-04 -0.4867E-04  0.5972E-01  0.5972E-01
      3.600 -0.7981E-04 -0.7981E-04  0.5972E-01  0.5972E-01
      3.673 -0.1624E-03 -0.1624E-03  0.5970E-01  0.5970E-01
      3.746 -0.1716E-03 -0.1716E-03  0.5969E-01  0.5969E-01
      3.820  0.2215E-03  0.2215E-03  0.5971E-01  0.5971E-01
      3.893  0.1331E-02  0.1331E-02  0.5980E-01  0.5980E-01
      3.966  0.2912E-02  0.2912E-02  0.6002E-01  0.6002E-01
      4.040  0.4052E-02  0.4052E-02  0.6032E-01  0.6032E-01
      4.113  0.4073E-02  0.4073E-02  0.6061E-01  0.6061E-01
      4.187  0.3362E-02  0.3362E-02  0.6086E-01  0.6086E-01
      4.260  0.2808E-02  0.2808E-02  0.6107E-01  0.6107E-01
      4.333  0.2652E-02  0.2652E-02  0.6126E-01  0.6126E-01
      4.407  0.2443E-02  0.2443E-02  0.6144E-01  0.6144E-01
      4.480  0.1907E-02  0.1907E-02  0.6158E-01  0.6158E-01
      4.553  0.1270E-02  0.1270E-02  0.6167E-01  0.6167E-01
      4.627  0.7945E-03  0.7944E-03  0.6173E-01  0.6173E-01
      4.700  0.4674E-03  0.4674E-03  0.6177E-01  0.6177E-01
      4.773  0.2538E-03  0.2539E-03  0.6178E-01  0.6178E-01
      4.847  0.3708E-03  0.3708E-03  0.6181E-01  0.6181E-01
      4.920  0.1019E-02  0.1019E-02  0.6189E-01  0.6189E-01
      4.993  0.1876E-02  0.1876E-02  0.6202E-01  0.6202E-01
      5.067  0.2207E-02  0.2207E-02  0.6219E-01  0.6219E-01
      5.140  0.1668E-02  0.1668E-02  0.6231E-01  0.6231E-01
      5.214  0.6919E-03  0.6919E-03  0.6236E-01  0.6236E-01
      5.287 -0.6610E-04 -0.6607E-04  0.6235E-01  0.6235E-01
      5.360 -0.2426E-03 -0.2426E-03  0.6234E-01  0.6234E-01
      5.434  0.3638E-03  0.3638E-03  0.6236E-01  0.6236E-01
      5.507  0.1831E-02  0.1831E-02  0.6250E-01  0.6250E-01
      5.580  0.3633E-02  0.3633E-02  0.6276E-01  0.6276E-01
      5.654  0.4609E-02  0.4609E-02  0.6310E-01  0.6310E-01
      5.727  0.4029E-02  0.4029E-02  0.6340E-01  0.6340E-01
      5.800  0.2527E-02  0.2527E-02  0.6358E-01  0.6358E-01
      5.874  0.1496E-02  0.1496E-02  0.6369E-01  0.6369E-01
      5.947  0.1726E-02  0.1726E-02  0.6382E-01  0.6382E-01
      6.020  0.2874E-02  0.2874E-02  0.6403E-01  0.6403E-01
      6.094  0.3872E-02  0.3872E-02  0.6431E-01  0.6431E-01
      6.167  0.3752E-02  0.3752E-02  0.6459E-01  0.6459E-01
      6.241  0.2566E-02  0.2566E-02  0.6478E-01  0.6478E-01
      6.314  0.1441E-02  0.1441E-02  0.6488E-01  0.6488E-01
      6.387  0.1378E-02  0.1377E-02  0.6499E-01  0.6498E-01
      6.461  0.2234E-02  0.2234E-02  0.6515E-01  0.6515E-01
      6.534  0.3054E-02  0.3054E-02  0.6537E-01  0.6537E-01
      6.607  0.3160E-02  0.3160E-02  0.6560E-01  0.6560E-01
      6.681  0.2749E-02  0.2749E-02  0.6581E-01  0.6581E-01
      6.754  0.2408E-02  0.2408E-02  0.6598E-01  0.6598E-01
      6.827  0.2211E-02  0.2211E-02  0.6615E-01  0.6615E-01
      6.901  0.1863E-02  0.1863E-02  0.6628E-01  0.6628E-01
      6.974  0.1630E-02  0.1630E-02  0.6640E-01  0.6640E-01
      7.048  0.2174E-02  0.2173E-02  0.6656E-01  0.6656E-01
      7.121  0.3340E-02  0.3340E-02  0.6681E-01  0.6681E-01
      7.194  0.4010E-02  0.4010E-02  0.6710E-01  0.6710E-01
      7.268  0.3467E-02  0.3467E-02  0.6735E-01  0.6735E-01
      7.341  0.2259E-02  0.2259E-02  0.6752E-01  0.6752E-01
      7.414  0.1323E-02  0.1323E-02  0.6762E-01  0.6762E-01
      7.488  0.8782E-03  0.8782E-03  0.6768E-01  0.6768E-01
      7.561  0.7264E-03  0.7264E-03  0.6774E-01  0.6774E-01
      7.634  0.1025E-02  0.1025E-02  0.6781E-01  0.6781E-01
      7.708  0.2079E-02  0.2079E-02  0.6796E-01  0.6796E-01
      7.781  0.3687E-02  0.3687E-02  0.6823E-01  0.6823E-01
      7.854  0.5235E-02  0.5234E-02  0.6862E-01  0.6862E-01
      7.928  0.6206E-02  0.6206E-02  0.6907E-01  0.6907E-01
      8.001  0.6260E-02  0.6260E-02  0.6953E-01  0.6953E-01
      8.075  0.5197E-02  0.5198E-02  0.6991E-01  0.6991E-01
      8.148  0.3382E-02  0.3382E-02  0.7016E-01  0.7016E-01
      8.221  0.1892E-02  0.1892E-02  0.7030E-01  0.7030E-01
      8.295  0.1642E-02  0.1642E-02  0.7042E-01  0.7042E-01
      8.368  0.2391E-02  0.2391E-02  0.7060E-01  0.7060E-01
      8.441  0.3058E-02  0.3058E-02  0.7082E-01  0.7082E-01
      8.515  0.2936E-02  0.2936E-02  0.7104E-01  0.7104E-01
      8.588  0.2220E-02  0.2220E-02  0.7120E-01  0.7120E-01
      8.661  0.1548E-02  0.1548E-02  0.7131E-01  0.7131E-01
      8.735  0.1440E-02  0.1439E-02  0.7142E-01  0.7142E-01
      8.808  0.1959E-02  0.1958E-02  0.7156E-01  0.7156E-01
      8.882  0.2544E-02  0.2543E-02  0.7175E-01  0.7175E-01
      8.955  0.2436E-02  0.2437E-02  0.7193E-01  0.7193E-01
      9.028  0.1557E-02  0.1558E-02  0.7204E-01  0.7204E-01
      9.102  0.6653E-03  0.6657E-03  0.7209E-01  0.7209E-01
      9.175  0.4871E-03  0.4872E-03  0.7213E-01  0.7213E-01
      9.248  0.1046E-02  0.1046E-02  0.7220E-01  0.7220E-01
      9.322  0.1956E-02  0.1956E-02  0.7235E-01  0.7235E-01
      9.395  0.3017E-02  0.3017E-02  0.7257E-01  0.7257E-01
      9.468  0.4252E-02  0.4252E-02  0.7288E-01  0.7288E-01
      9.542  0.5520E-02  0.5520E-02  0.7328E-01  0.7328E-01
      9.615  0.6326E-02  0.6326E-02  0.7375E-01  0.7375E-01
      9.688  0.6128E-02  0.6128E-02  0.7420E-01  0.7420E-01
      9.762  0.4883E-02  0.4883E-02  0.7456E-01  0.7456E-01
      9.835  0.3213E-02  0.3213E-02  0.7479E-01  0.7479E-01
      9.909  0.1817E-02  0.1817E-02  0.7492E-01  0.7492E-01
      9.982  0.8962E-03  0.8964E-03  0.7499E-01  0.7499E-01
     10.055  0.3210E-03  0.3212E-03  0.7501E-01  0.7501E-01
     10.129  0.7821E-05  0.7947E-05  0.7501E-01  0.7501E-01
     10.202 -0.8802E-04 -0.8799E-04  0.7501E-01  0.7501E-01
     10.275 -0.6786E-04 -0.6787E-04  0.7500E-01  0.7500E-01
     10.349 -0.2943E-04 -0.2944E-04  0.7500E-01  0.7500E-01
     10.422 -0.8570E-05 -0.8575E-05  0.7500E-01  0.7500E-01
     10.495 -0.1772E-05 -0.1774E-05  0.7500E-01  0.7500E-01
     10.569 -0.2670E-06 -0.2672E-06  0.7500E-01  0.7500E-01
     10.642 -0.2972E-07 -0.2975E-07  0.7500E-01  0.7500E-01
     10.716 -0.2467E-08 -0.2470E-08  0.7500E-01  0.7500E-01
     10.789 -0.1536E-09 -0.1538E-09  0.7500E-01  0.7500E-01
     10.862 -0.7203E-11 -0.7213E-11  0.7500E-01  0.7500E-01
     10.936 -0.2552E-12 -0.2556E-12  0.7500E-01  0.7500E-01
     11.009 -0.6843E-14 -0.6854E-14  0.7500E-01  0.7500E-01
     11.082 -0.1387E-15 -0.1387E-15  0.7500E-01  0.7500E-01
     11.156 -0.2522E-17 -0.2522E-17  0.7500E-01  0.7500E-01
     11.229  0.0000E+00  0.0000E+00  0.7500E-01  0.7500E-01
     11.302  0.0000E+00  0.0000E+00  0.7500E-01  0.7500E-01
     11.376  0.0000E+00  0.0000E+00  0.7500E-01  0.7500E-01
     11.449  0.0000E+00  0.0000E+00  0.7500E-01  0.7500E-01
     11.522  0.0000E+00  0.0000E+00  0.7500E-01  0.7500E-01
     11.596  0.0000E+00  0.0000E+00  0.7500E-01  0.7500E-01
     11.669  0.0000E+00  0.0000E+00  0.7500E-01  0.7500E-01
     11.743  0.0000E+00  0.0000E+00  0.7500E-01  0.7500E-01
     11.816  0.0000E+00  0.0000E+00  0.7500E-01  0.7500E-01
     11.889  0.0000E+00  0.0000E+00  0.7500E-01  0.7500E-01
