 vasp.6.3.2 27Jun22 (build Aug 17 2022 15:43:34) complex                        
  
 executed on           tv2STDVTST date 2025.02.04  13:40:27
 running   20 mpi-ranks, with    1 threads/rank
 distrk:  each k-point on   20 cores,    1 groups
 distr:  one band on NCORE=   5 cores,    4 groups


--------------------------------------------------------------------------------------------------------


 -----------------------------------------------------------------------------
|                                                                             |
|           W    W    AA    RRRRR   N    N  II  N    N   GGGG   !!!           |
|           W    W   A  A   R    R  NN   N  II  NN   N  G    G  !!!           |
|           W    W  A    A  R    R  N N  N  II  N N  N  G       !!!           |
|           W WW W  AAAAAA  RRRRR   N  N N  II  N  N N  G  GGG   !            |
|           WW  WW  A    A  R   R   N   NN  II  N   NN  G    G                |
|           W    W  A    A  R    R  N    N  II  N    N   GGGG   !!!           |
|                                                                             |
|     Found issues when parsing the INCAR file                                |
|     In line 61: Tagname --- R W I G S contains invalid characters.          |
|     Please check if the interpretation in the OUTCAR file is correct.       |
|                                                                             |
 -----------------------------------------------------------------------------

 INCAR:
    = \=\=\=\=\=\=\=\=\=\=\=\=\=\=\=\=\=\=\=\=\=\=\=\=\=\=\=\=\=\=\=\=\=\=\=\=\=\=\=\=\=\=\=\=\=\=\=\=\=\=\=\=\=\=\=\=\=\=\=\=\=\=\=\=\=\=\=\=\=\=\=\=
    = \=\=\=\=\=\=\=\=\=\=\=\=\=\=\=\=\=\=\=\=\=\=\=\=\=\=\=\=\=\=\=\=\=\=\=\=\=\=\=\=\=\=\=\=\=\=\=\=\=\=\=\=\=\=\=\=\=\=\=\=\=\=\=\=\=\=\=\=\=\=\=\=
   ISTART = 0
   ICHARG = 2
   IPIPOL = 3
   IVDW = 11
    = \=\=\=\=\=\=\=\=\=\=\=\=\=\=\=\=\=\=\=\=\=\=\=\=\=\=\=\=\=\=\=\=\=\=\=\=\=\=\=\=\=\=\=\=\=\=\=\=\=\=\=\=\=\=\=\=\=\=\=\=\=\=\=\=\=\=\=\=\=\=\=\=
    = \=\=\=\=\=\=\=\=\=\=\=\=\=\=\=\=\=\=\=\=\=\=\=\=\=\=\=\=\=\=\=\=\=\=\=\=\=\=\=\=\=\=\=\=\=\=\=\=\=\=\=\=\=\=\=\=\=\=\=\=\=\=\=\=\=\=\=\=\=\=\=\=
   ISPIN = 2
    = \=\=\=\=\=\=\=\=\=\=\=\=\=\=\=\=\=\=\=\=\=\=\=\=\=\=\=\=\=\=\=\=\=\=\=\=\=\=\=\=\=\=\=\=\=\=\=\=\=\=\=\=\=\=\=\=\=\=\=\=\=\=\=\=\=\=\=\=\=\=\=\=
    = \=\=\=\=\=\=\=\=\=\=\=\=\=\=\=\=\=\=\=\=\=\=\=\=\=\=\=\=\=\=\=\=\=\=\=\=\=\=\=\=\=\=\=\=\=\=\=\=\=\=\=\=\=\=\=\=\=\=\=\=\=\=\=\=\=\=\=\=\=\=\=\=
   ENCUT = 400
   PREC = Normal
   EDIFF = 2E-04
   GGA = PE
   ISMEAR = 1
   SIGMA = 0.2
   LREAL = .FALSE.
    = \=\=\=\=\=\=\=\=\=\=\=\=\=\=\=\=\=\=\=\=\=\=\=\=\=\=\=\=\=\=\=\=\=\=\=\=\=\=\=\=\=\=\=\=\=\=\=\=\=\=\=\=\=\=\=\=\=\=\=\=\=\=\=\=\=\=\=\=\=\=\=\=
    = \=\=\=\=\=\=\=\=\=\=\=\=\=\=\=\=\=\=\=\=\=\=\=\=\=\=\=\=\=\=\=\=\=\=\=\=\=\=\=\=\=\=\=\=\=\=\=\=\=\=\=\=\=\=\=\=\=\=\=\=\=\=\=\=\=\=\=\=\=\=\=\=
   ISYM = 1
   NSW = 800
   IBRION = 2
   POTIM = 0.5
   ISIF = 2
   EDIFFG = -.03
    = \=\=\=\=\=\=\=\=\=\=\=\=\=\=\=\=\=\=\=\=\=\=\=\=\=\=\=\=\=\=\=\=\=\=\=\=\=\=\=\=\=\=\=\=\=\=\=\=\=\=\=\=\=\=\=\=\=\=\=\=\=\=\=\=\=\=\=\=\=\=\=\=
    = \=\=\=\=\=\=\=\=\=\=\=\=\=\=\=\=\=\=\=\=\=\=\=\=\=\=\=\=\=\=\=\=\=\=\=\=\=\=\=\=\=\=\=\=\=\=\=\=\=\=\=\=\=\=\=\=\=\=\=\=\=\=\=\=\=\=\=\=\=\=\=\=
   NPAR = 4
   LWAVE = .FALSE.
   LCHARG = .FALSE.

 POTCAR:    PAW_PBE Cu 22Jun2005                  
 POTCAR:    PAW_PBE H 15Jun2001                   
 -----------------------------------------------------------------------------
|                                                                             |
|           W    W    AA    RRRRR   N    N  II  N    N   GGGG   !!!           |
|           W    W   A  A   R    R  NN   N  II  NN   N  G    G  !!!           |
|           W    W  A    A  R    R  N N  N  II  N N  N  G       !!!           |
|           W WW W  AAAAAA  RRRRR   N  N N  II  N  N N  G  GGG   !            |
|           WW  WW  A    A  R   R   N   NN  II  N   NN  G    G                |
|           W    W  A    A  R    R  N    N  II  N    N   GGGG   !!!           |
|                                                                             |
|     You use a magnetic or noncollinear calculation, but did not specify     |
|     the initial magnetic moment with the MAGMOM tag. Note that a            |
|     default of 1 will be used for all atoms. This ferromagnetic setup       |
|     may break the symmetry of the crystal, in particular it may rule        |
|     out finding an antiferromagnetic solution. Thence, we recommend         |
|     setting the initial magnetic moment manually or verifying carefully     |
|     that this magnetic setup is desired.                                    |
|                                                                             |
 -----------------------------------------------------------------------------

 POTCAR:    PAW_PBE Cu 22Jun2005                  
   SHA256 =  0e71e558f37a4e8407882b4609ceaae59938afaad9ced71dfe8490308a0ab630 Cu/POTCAR             
   COPYR  = (c) Copyright 22Jun2005 Georg Kresse                                                    
   COPYR  = This file is part of the software VASP. Any use, copying, and all other rights are regul
   COPYR  = If you do not have a valid VASP license, you may not use, copy or distribute this file. 
   VRHFIN =Cu: d10 p1                                                                               
   LEXCH  = PE                                                                                      
   EATOM  =  1390.9808 eV,  102.2342 Ry                                                             
                                                                                                    
   TITEL  = PAW_PBE Cu 22Jun2005                                                                    
   LULTRA =        F    use ultrasoft PP ?                                                          
   IUNSCR =        1    unscreen: 0-lin 1-nonlin 2-no                                               
   RPACOR =    2.000    partial core radius                                                         
   POMASS =   63.546; ZVAL   =   11.000    mass and valenz                                          
   RCORE  =    2.300    outmost cutoff radius                                                       
   RWIGS  =    2.200; RWIGS  =    1.164    wigner-seitz radius (au A)                               
   ENMAX  =  295.446; ENMIN  =  221.585 eV                                                          
   ICORE  =        3    local potential                                                             
   LCOR   =        T    correct aug charges                                                         
   LPAW   =        T    paw PP                                                                      
   EAUG   =  586.980                                                                                
   DEXC   =    0.000                                                                                
   RMAX   =    2.344    core radius for proj-oper                                                   
   RAUG   =    1.300    factor for augmentation sphere                                              
   RDEP   =    2.302    radius for radial grids                                                     
   RDEPT  =    1.771    core radius for aug-charge                                                  
                                                                                                    
   Atomic configuration                                                                             
    9 entries                                                                                       
     n  l   j            E        occ.                                                              
     1  0  0.50     -8850.2468   2.0000                                                             
     2  0  0.50     -1062.3498   2.0000                                                             
     2  1  1.50      -916.8226   6.0000                                                             
     3  0  0.50      -114.6929   2.0000                                                             
     3  1  1.50       -72.1325   6.0000                                                             
     3  2  2.50        -5.0394  10.0000                                                             
     4  0  0.50        -4.6097   1.0000                                                             
     4  1  0.50        -4.0817   0.0000                                                             
     4  3  2.50        -1.3606   0.0000                                                             
   Description                                                                                      
     l       E           TYP  RCUT    TYP  RCUT                                                     
     2     -5.0393973     23  2.200                                                                 
     2     10.8846608     23  2.200                                                                 
     0     -4.6097109     23  2.200                                                                 
     0      8.2520465     23  2.200                                                                 
     1     -2.7211652     23  2.200                                                                 
     1     21.7055443     23  2.200                                                                 
     3      2.7211652     23  2.300                                                                 
  local pseudopotential read in
  partial core-charges read in
  partial kinetic energy density read in
  atomic valenz-charges read in
  non local Contribution for L=           2  read in
    real space projection operators read in
  non local Contribution for L=           2  read in
    real space projection operators read in
  non local Contribution for L=           0  read in
    real space projection operators read in
  non local Contribution for L=           0  read in
    real space projection operators read in
  non local Contribution for L=           1  read in
    real space projection operators read in
  non local Contribution for L=           1  read in
    real space projection operators read in
    PAW grid and wavefunctions read in
 
   number of l-projection  operators is LMAX  =           6
   number of lm-projection operators is LMMAX =          18
 
 POTCAR:    PAW_PBE H 15Jun2001                   
   SHA256 =  030f79b5d3ab3cf0e668861823c8fb652ff669f3e15e46930bd03bfd63a607b6 H/POTCAR              
   COPYR  = (c) Copyright 15Jun2001 Georg Kresse                                                    
   COPYR  = This file is part of the software VASP. Any use, copying, and all other rights are regul
   COPYR  = If you do not have a valid VASP license, you may not use, copy or distribute this file. 
   VRHFIN =H: ultrasoft test                                                                        
   LEXCH  = PE                                                                                      
   EATOM  =    12.4884 eV,    0.9179 Ry                                                             
                                                                                                    
   TITEL  = PAW_PBE H 15Jun2001                                                                     
   LULTRA =        F    use ultrasoft PP ?                                                          
   IUNSCR =        0    unscreen: 0-lin 1-nonlin 2-no                                               
   RPACOR =    0.000    partial core radius                                                         
   POMASS =    1.000; ZVAL   =    1.000    mass and valenz                                          
   RCORE  =    1.100    outmost cutoff radius                                                       
   RWIGS  =    0.700; RWIGS  =    0.370    wigner-seitz radius (au A)                               
   ENMAX  =  250.000; ENMIN  =  200.000 eV                                                          
   RCLOC  =    0.701    cutoff for local pot                                                        
   LCOR   =        T    correct aug charges                                                         
   LPAW   =        T    paw PP                                                                      
   EAUG   =  400.000                                                                                
   RMAX   =    1.123    core radius for proj-oper                                                   
   RAUG   =    1.200    factor for augmentation sphere                                              
   RDEP   =    1.112    radius for radial grids                                                     
   RDEPT  =    0.926    core radius for aug-charge                                                  
                                                                                                    
   Atomic configuration                                                                             
    2 entries                                                                                       
     n  l   j            E        occ.                                                              
     1  0  0.50        -6.4927   1.0000                                                             
     2  1  0.50        -3.4015   0.0000                                                             
   Description                                                                                      
     l       E           TYP  RCUT    TYP  RCUT                                                     
     0     -6.4927494     23  1.100                                                                 
     0      6.8029130     23  1.100                                                                 
     1     -4.0817478     23  1.100                                                                 
  local pseudopotential read in
  atomic valenz-charges read in
  non local Contribution for L=           0  read in
    real space projection operators read in
  non local Contribution for L=           0  read in
    real space projection operators read in
  non local Contribution for L=           1  read in
    real space projection operators read in
    PAW grid and wavefunctions read in
 
   number of l-projection  operators is LMAX  =           3
   number of lm-projection operators is LMMAX =           5
 
  PAW_PBE Cu 22Jun2005                  :
 energy of atom  1       EATOM=-1390.9808
 kinetic energy error for atom=    0.0232 (will be added to EATOM!!)
  PAW_PBE H 15Jun2001                   :
 energy of atom  2       EATOM=  -12.4884
 kinetic energy error for atom=    0.0098 (will be added to EATOM!!)
 
 
 POSCAR: FCC Cu
  positions in cartesian coordinates
  No initial velocities read in
 exchange correlation table for  LEXCH =        8
   RHO(1)=    0.500       N(1)  =     2000
   RHO(2)=  100.500       N(2)  =     4000

 VTST: version 4.2, (08/11/21)

 CHAIN: initializing optimizer
 
 OPT: Using VASP Conjugate-Gradient optimizer
 CHAIN: Read ICHAIN            0
 
 POSCAR: FCC Cu
  positions in cartesian coordinates
  No initial velocities read in
 


--------------------------------------------------------------------------------------------------------


 ion  position               nearest neighbor table
   1  0.000  0.000  0.000-   3 2.51   2 2.57   2 2.57   2 2.57   2 2.57
   2  0.500  0.500  0.054-   4 2.50   3 2.54   3 2.54   3 2.54   3 2.54   1 2.57   1 2.57   1 2.57
                             1 2.57
   3  0.000  0.000  0.105-   1 2.51   2 2.54   2 2.54   2 2.54   2 2.54   5 2.54   4 2.56   4 2.56
                             4 2.56   4 2.56
   4  0.500  0.500  0.158-   2 2.50   6 2.52   5 2.56   5 2.56   5 2.56   5 2.56   3 2.56   3 2.56
                             3 2.56   3 2.56
   5  0.000  0.000  0.211-   3 2.54   6 2.55   6 2.55   6 2.55   6 2.55   7 2.55   4 2.56   4 2.56
                             4 2.56   4 2.56
   6  0.500  0.500  0.263-   8 2.44   4 2.52   5 2.55   5 2.55   5 2.55   5 2.55   7 2.58   7 2.58
                             7 2.58   7 2.58
   7  0.000  0.000  0.317-   8 2.50   8 2.50   8 2.50   8 2.50   5 2.55   6 2.58   6 2.58   6 2.58
                             6 2.58
   8  0.500  0.500  0.365-   6 2.44   7 2.50   7 2.50   7 2.50   7 2.50
   9  1.000  0.500  0.427-  10 0.75
  10  1.000  0.706  0.449-   9 0.75
 
  LATTYP: Found a simple orthorhombic cell.
 ALAT       =     2.5667977333
 B/A-ratio  =     1.4142135422
 C/A-ratio  =     9.3438571494
  
  Lattice vectors:
  
 A1 = (   0.0000000000,  -2.5667977333,   0.0000000000)
 A2 = (   3.6300001144,   0.0000000000,   0.0000000000)
 A3 = (   0.0000000000,   0.0000000000,  23.9837913513)


Analysis of symmetry for initial positions (statically):
=====================================================================
 Subroutine PRICEL returns:
 Original cell was already a primitive cell.
 

 Routine SETGRP: Setting up the symmetry group for a 
 simple orthorhombic supercell.


 Subroutine GETGRP returns: Found  2 space group operations
 (whereof  2 operations were pure point group operations)
 out of a pool of  8 trial point group operations.


The static configuration has the point symmetry C_1h.


Analysis of symmetry for dynamics (positions and initial velocities):
=====================================================================
 Subroutine PRICEL returns:
 Original cell was already a primitive cell.
 

 Routine SETGRP: Setting up the symmetry group for a 
 simple orthorhombic supercell.


 Subroutine GETGRP returns: Found  2 space group operations
 (whereof  2 operations were pure point group operations)
 out of a pool of  8 trial point group operations.


The dynamic configuration has the point symmetry C_1h.


Analysis of structural, dynamic, and magnetic symmetry:
=====================================================================
 Subroutine PRICEL returns:
 Original cell was already a primitive cell.
 

 Routine SETGRP: Setting up the symmetry group for a 
 simple orthorhombic supercell.


 Subroutine GETGRP returns: Found  2 space group operations
 (whereof  2 operations were pure point group operations)
 out of a pool of  8 trial point group operations.


The overall configuration has the point symmetry C_1h.


 Subroutine INISYM returns: Found  2 space group operations
 (whereof  2 operations are pure point group operations),
 and found     1 'primitive' translations


----------------------------------------------------------------------------------------

                                     Primitive cell                                     

  volume of cell :     223.4684

  direct lattice vectors                    reciprocal lattice vectors
     3.630000114  0.000000000  0.000000000     0.275482085  0.000000000  0.000000000
     0.000000000  2.566797733  0.000000000     0.000000000  0.389590495  0.000000000
     0.000000000  0.000000000 23.983791351     0.000000000  0.000000000  0.041694826

  length of vectors
     3.630000114  2.566797733 23.983791351     0.275482085  0.389590495  0.041694826

  position of ions in fractional coordinates (direct lattice)
     0.000000000  0.000000000  0.000000000
     0.500000000  0.500000000  0.053511090
     0.000000000  0.000000000  0.104681476
     0.500000000  0.500000000  0.157929955
     0.000000000  0.000000000  0.210708991
     0.500000000  0.500000000  0.262890478
     0.000000000  0.000000000  0.317115916
     0.500000000  0.500000000  0.364675901
     1.000000000  0.500000000  0.426907920
     1.000000000  0.705509632  0.448902010

  ion indices of the primitive-cell ions
   primitive index   ion index
                 1           1
                 2           2
                 3           3
                 4           4
                 5           5
                 6           6
                 7           7
                 8           8
                 9           9
                10          10

----------------------------------------------------------------------------------------

 
 
 KPOINTS: Auto-mesh                               

Automatic generation of k-mesh.
 Grid dimensions read from file:
 generate k-points for:    3    3    1

 Generating k-lattice:

  Cartesian coordinates                     Fractional coordinates (reciprocal lattice)
     0.091827362  0.000000000  0.000000000     0.333333333  0.000000000  0.000000000
     0.000000000  0.129863498  0.000000000     0.000000000  0.333333333  0.000000000
     0.000000000  0.000000000  0.041694826     0.000000000  0.000000000  1.000000000

  Length of vectors
     0.091827362  0.129863498  0.041694826

  Shift w.r.t. Gamma in fractional coordinates (k-lattice)
     0.000000000  0.000000000  0.000000000

 
 Subroutine IBZKPT returns following result:
 ===========================================
 
 Found      4 irreducible k-points:
 
 Following reciprocal coordinates:
            Coordinates               Weight
  0.000000  0.000000  0.000000      1.000000
  0.333333  0.000000  0.000000      2.000000
  0.000000  0.333333  0.000000      2.000000
  0.333333  0.333333  0.000000      4.000000
 
 Following cartesian coordinates:
            Coordinates               Weight
  0.000000  0.000000  0.000000      1.000000
  0.091827  0.000000  0.000000      2.000000
  0.000000  0.129863  0.000000      2.000000
  0.091827  0.129863  0.000000      4.000000
 


--------------------------------------------------------------------------------------------------------




 Dimension of arrays:
   k-points           NKPTS =      4   k-points in BZ     NKDIM =      4   number of bands    NBANDS=     60
   number of dos      NEDOS =    301   number of ions     NIONS =     10
   non local maximal  LDIM  =      6   non local SUM 2l+1 LMDIM =     18
   total plane-waves  NPLWV =  30240
   max r-space proj   IRMAX =      1   max aug-charges    IRDMAX=   4119
   dimension x,y,z NGX =    18 NGY =   14 NGZ =  120
   dimension x,y,z NGXF=    36 NGYF=   28 NGZF=  240
   support grid    NGXF=    36 NGYF=   28 NGZF=  240
   ions per type =               8   2
   NGX,Y,Z   is equivalent  to a cutoff of   8.24,  9.07,  8.32 a.u.
   NGXF,Y,Z  is equivalent  to a cutoff of  16.49, 18.13, 16.64 a.u.

 SYSTEM =  unknown system                          
 POSCAR =  FCC Cu                                  

 Startparameter for this run:
   NWRITE =      2    write-flag & timer
   PREC   = normal    normal or accurate (medium, high low for compatibility)
   ISTART =      0    job   : 0-new  1-cont  2-samecut
   ICHARG =      2    charge: 1-file 2-atom 10-const
   ISPIN  =      2    spin polarized calculation?
   LNONCOLLINEAR =      F non collinear calculations
   LSORBIT =      F    spin-orbit coupling
   INIWAV =      1    electr: 0-lowe 1-rand  2-diag
   LASPH  =      F    aspherical Exc in radial PAW
 Electronic Relaxation 1
   ENCUT  =  400.0 eV  29.40 Ry    5.42 a.u.   5.92  4.19 39.11*2*pi/ulx,y,z
   ENINI  =  400.0     initial cutoff
   ENAUG  =  587.0 eV  augmentation charge cutoff
   NELM   =     60;   NELMIN=  2; NELMDL= -5     # of ELM steps 
   EDIFF  = 0.2E-03   stopping-criterion for ELM
   LREAL  =      F    real-space projection
   NLSPLINE    = F    spline interpolate recip. space projectors
   LCOMPAT=      F    compatible to vasp.4.4
   GGA_COMPAT  = T    GGA compatible to vasp.4.4-vasp.4.6
   LMAXPAW     = -100 max onsite density
   LMAXMIX     =    2 max onsite mixed and CHGCAR
   VOSKOWN=      0    Vosko Wilk Nusair interpolation
   ROPT   =    0.00000   0.00000
 Ionic relaxation
   EDIFFG = -.3E-01   stopping-criterion for IOM
   NSW    =    800    number of steps for IOM
   NBLOCK =      1;   KBLOCK =    800    inner block; outer block 
   IBRION =      2    ionic relax: 0-MD 1-quasi-New 2-CG
   NFREE  =      1    steps in history (QN), initial steepest desc. (CG)
   ISIF   =      2    stress and relaxation
   IWAVPR =     11    prediction:  0-non 1-charg 2-wave 3-comb
   ISYM   =      1    0-nonsym 1-usesym 2-fastsym
   LCORR  =      T    Harris-Foulkes like correction to forces

   POTIM  = 0.5000    time-step for ionic-motion
   TEIN   =    0.0    initial temperature
   TEBEG  =    0.0;   TEEND  =   0.0 temperature during run
   SMASS  =  -3.00    Nose mass-parameter (am)
   estimated Nose-frequenzy (Omega)   =  0.10E-29 period in steps = 0.13E+47 mass=  -0.301E-27a.u.
   SCALEE = 1.0000    scale energy and forces
   NPACO  =    256;   APACO  = 10.0  distance and # of slots for P.C.
   PSTRESS=    0.0 pullay stress

  Mass of Ions in am
   POMASS =  63.55  1.00
  Ionic Valenz
   ZVAL   =  11.00  1.00
  Atomic Wigner-Seitz radii
   RWIGS  =  -1.00 -1.00
  virtual crystal weights 
   VCA    =   1.00  1.00
   NELECT =      90.0000    total number of electrons
   NUPDOWN=      -1.0000    fix difference up-down

 DOS related values:
   EMIN   =  10.00;   EMAX   =-10.00  energy-range for DOS
   EFERMI =   0.00
   ISMEAR =     1;   SIGMA  =   0.20  broadening in eV -4-tet -1-fermi 0-gaus

 Electronic relaxation 2 (details)
   IALGO  =     38    algorithm
   LDIAG  =      T    sub-space diagonalisation (order eigenvalues)
   LSUBROT=      F    optimize rotation matrix (better conditioning)
   TURBO    =      0    0=normal 1=particle mesh
   IRESTART =      0    0=no restart 2=restart with 2 vectors
   NREBOOT  =      0    no. of reboots
   NMIN     =      0    reboot dimension
   EREF     =   0.00    reference energy to select bands
   IMIX   =      4    mixing-type and parameters
     AMIX     =   0.40;   BMIX     =  1.00
     AMIX_MAG =   1.60;   BMIX_MAG =  1.00
     AMIN     =   0.10
     WC   =   100.;   INIMIX=   1;  MIXPRE=   1;  MAXMIX= -45

 Intra band minimization:
   WEIMIN = 0.0010     energy-eigenvalue tresh-hold
   EBREAK =  0.83E-06  absolut break condition
   DEPER  =   0.30     relativ break condition  

   TIME   =   0.40     timestep for ELM

  volume/ion in A,a.u.               =      22.35       150.80
  Fermi-wavevector in a.u.,A,eV,Ry     =   1.208974  2.284630 19.886522  1.461618
  Thomas-Fermi vector in A             =   2.344566
 
 Write flags
   LWAVE        =      F    write WAVECAR
   LDOWNSAMPLE  =      F    k-point downsampling of WAVECAR
   LCHARG       =      F    write CHGCAR
   LVTOT        =      F    write LOCPOT, total local potential
   LVHAR        =      F    write LOCPOT, Hartree potential only
   LELF         =      F    write electronic localiz. function (ELF)
   LORBIT       =      0    0 simple, 1 ext, 2 COOP (PROOUT), +10 PAW based schemes


 Dipole corrections
   LMONO  =      F    monopole corrections only (constant potential shift)
   LDIPOL =      F    correct potential (dipole corrections)
   IDIPOL =      0    1-x, 2-y, 3-z, 4-all directions 
   EPSILON=  1.0000000 bulk dielectric constant

 Exchange correlation treatment:
   GGA     =    PE    GGA type
   LEXCH   =     8    internal setting for exchange type
   LIBXC   =     F    Libxc                    
   VOSKOWN =     0    Vosko Wilk Nusair interpolation
   LHFCALC =     F    Hartree Fock is set to
   LHFONE  =     F    Hartree Fock one center treatment
   AEXX    =    0.0000 exact exchange contribution

 Linear response parameters
   LEPSILON=     F    determine dielectric tensor
   LRPA    =     F    only Hartree local field effects (RPA)
   LNABLA  =     F    use nabla operator in PAW spheres
   LVEL    =     F    velocity operator in full k-point grid
   CSHIFT  =0.1000    complex shift for real part using Kramers Kronig
   OMEGAMAX=  -1.0    maximum frequency
   DEG_THRESHOLD= 0.2000000E-02 threshold for treating states as degnerate
   RTIME   =   -0.100 relaxation time in fs
  (WPLASMAI=    0.000 imaginary part of plasma frequency in eV, 0.658/RTIME)
   DFIELD  = 0.0000000 0.0000000 0.0000000 field for delta impulse in time
 
  Optional k-point grid parameters
   LKPOINTS_OPT  =     F    use optional k-point grid
   KPOINTS_OPT_MODE=     1    mode for optional k-point grid
 
 Orbital magnetization related:
   ORBITALMAG=     F  switch on orbital magnetization
   LCHIMAG   =     F  perturbation theory with respect to B field
   DQ        =  0.001000  dq finite difference perturbation B field
   LLRAUG    =     F  two centre corrections for induced B field



--------------------------------------------------------------------------------------------------------


 conjugate gradient relaxation of ions
 charge density and potential will be updated during run
 spin polarized calculation
 Variant of blocked Davidson
 Davidson routine will perform the subspace rotation
 perform sub-space diagonalisation
    after iterative eigenvector-optimisation
 modified Broyden-mixing scheme, WC =      100.0
 initial mixing is a Kerker type mixing with AMIX =  0.4000 and BMIX =      1.0000
 Hartree-type preconditioning will be used
 using additional bands           15
 reciprocal scheme for non local part
 use partial core corrections
 calculate Harris-corrections to forces 
   (improved forces if not selfconsistent)
 use gradient corrections 
 use of overlap-Matrix (Vanderbilt PP)
 Methfessel and Paxton  Order N= 1 SIGMA  =   0.20


--------------------------------------------------------------------------------------------------------


  energy-cutoff  :      400.00
  volume of cell :      223.47
      direct lattice vectors                 reciprocal lattice vectors
     3.630000114  0.000000000  0.000000000     0.275482085  0.000000000  0.000000000
     0.000000000  2.566797733  0.000000000     0.000000000  0.389590495  0.000000000
     0.000000000  0.000000000 23.983791351     0.000000000  0.000000000  0.041694826

  length of vectors
     3.630000114  2.566797733 23.983791351     0.275482085  0.389590495  0.041694826


 
 k-points in units of 2pi/SCALE and weight: Auto-mesh                               
   0.00000000  0.00000000  0.00000000       0.111
   0.09182736  0.00000000  0.00000000       0.222
   0.00000000  0.12986350  0.00000000       0.222
   0.09182736  0.12986350  0.00000000       0.444
 
 k-points in reciprocal lattice and weights: Auto-mesh                               
   0.00000000  0.00000000  0.00000000       0.111
   0.33333333  0.00000000  0.00000000       0.222
   0.00000000  0.33333333  0.00000000       0.222
   0.33333333  0.33333333  0.00000000       0.444
 
 position of ions in fractional coordinates (direct lattice) 
   0.00000000  0.00000000  0.00000000
   0.50000000  0.50000000  0.05351109
   0.00000000  0.00000000  0.10468148
   0.50000000  0.50000000  0.15792996
   0.00000000  0.00000000  0.21070899
   0.50000000  0.50000000  0.26289048
   0.00000000  0.00000000  0.31711592
   0.50000000  0.50000000  0.36467590
   1.00000000  0.50000000  0.42690792
   1.00000000  0.70550963  0.44890201
 
 position of ions in cartesian coordinates  (Angst):
   0.00000000  0.00000000  0.00000000
   1.81500006  1.28339887  1.28339883
   0.00000000  0.00000000  2.51065868
   1.81500006  1.28339887  3.78775910
   0.00000000  0.00000000  5.05360047
   1.81500006  1.28339887  6.30511038
   0.00000000  0.00000000  7.60564196
   1.81500006  1.28339887  8.74631073
   3.63000011  1.28339887 10.23887049
   3.63000011  1.81090053 10.76637215
 


--------------------------------------------------------------------------------------------------------


 k-point   1 :   0.0000 0.0000 0.0000  plane waves:    4037
 k-point   2 :   0.3333 0.0000 0.0000  plane waves:    4064
 k-point   3 :   0.0000 0.3333 0.0000  plane waves:    4032
 k-point   4 :   0.3333 0.3333 0.0000  plane waves:    4072

 maximum and minimum number of plane-waves per node :       827      778

 maximum number of plane-waves:      4072
 maximum index in each direction: 
   IXMAX=    5   IYMAX=    4   IZMAX=   39
   IXMIN=   -6   IYMIN=   -4   IZMIN=  -39


 parallel 3D FFT for wavefunctions:
    minimum data exchange during FFTs selected (reduces bandwidth)
 parallel 3D FFT for charge:
    minimum data exchange during FFTs selected (reduces bandwidth)


 total amount of memory used by VASP MPI-rank0    35069. kBytes
=======================================================================

   base      :      30000. kBytes
   nonl-proj :       1086. kBytes
   fftplans  :        642. kBytes
   grid      :       1621. kBytes
   one-center:         62. kBytes
   wavefun   :       1658. kBytes
 
     INWAV:  cpu time      0.0000: real time      0.0004
 Broyden mixing: mesh for mixing (old mesh)
   NGX = 11   NGY =  9   NGZ = 79
  (NGX  = 36   NGY  = 28   NGZ  =240)
  gives a total of   7821 points

 initial charge density was supplied:
 charge density of overlapping atoms calculated
 number of electron      90.0000000 magnetization      10.0000000
 keeping initial charge density in first step


--------------------------------------------------------------------------------------------------------


 Maximum index for augmentation-charges          309 (set IRDMAX)


--------------------------------------------------------------------------------------------------------


 First call to EWALD:  gamma=   0.292
 Maximum number of real-space cells 4x 6x 1
 Maximum number of reciprocal cells 2x 1x 9

    FEWALD:  cpu time      0.0018: real time      0.0018


--------------------------------------- Iteration      1(   1)  ---------------------------------------


    POTLOK:  cpu time      0.0192: real time      0.0194
    SETDIJ:  cpu time      0.0065: real time      0.0066
     EDDAV:  cpu time      0.3185: real time      0.3210
       DOS:  cpu time      0.0012: real time      0.0012
    --------------------------------------------
      LOOP:  cpu time      0.3454: real time      0.3481

 eigenvalue-minimisations  :   960
 total energy-change (2. order) : 0.7710074E+03  (-0.3322315E+04)
 number of electron      90.0000000 magnetization      10.0000000
 augmentation part       90.0000000 magnetization      10.0000000

 Free energy of the ion-electron system (eV)
  ---------------------------------------------------
  alpha Z        PSCENC =       216.17040255
  Ewald energy   TEWEN  =     42283.25937589
  -Hartree energ DENC   =    -53106.78975674
  -exchange      EXHF   =         0.00000000
  -V(xc)+E(xc)   XCENC  =       371.27832534
  PAW double counting   =      9828.36862813   -10674.97285505
  entropy T*S    EENTRO =         0.00891802
  eigenvalues    EBANDS =       701.06599455
  atomic energy  EATOM  =     11152.61838693
  Solvation  Ediel_sol  =         0.00000000
  ---------------------------------------------------
  free energy    TOTEN  =       771.00741962 eV

  energy without entropy =      770.99850160  energy(sigma->0) =      771.00444695


--------------------------------------------------------------------------------------------------------




--------------------------------------- Iteration      1(   2)  ---------------------------------------


     EDDAV:  cpu time      0.3051: real time      0.3093
       DOS:  cpu time      0.0009: real time      0.0009
    --------------------------------------------
      LOOP:  cpu time      0.3059: real time      0.3102

 eigenvalue-minimisations  :   960
 total energy-change (2. order) :-0.7128212E+03  (-0.6846426E+03)
 number of electron      90.0000000 magnetization      10.0000000
 augmentation part       90.0000000 magnetization      10.0000000

 Free energy of the ion-electron system (eV)
  ---------------------------------------------------
  alpha Z        PSCENC =       216.17040255
  Ewald energy   TEWEN  =     42283.25937589
  -Hartree energ DENC   =    -53106.78975674
  -exchange      EXHF   =         0.00000000
  -V(xc)+E(xc)   XCENC  =       371.27832534
  PAW double counting   =      9828.36862813   -10674.97285505
  entropy T*S    EENTRO =         0.00371073
  eigenvalues    EBANDS =       -11.74997647
  atomic energy  EATOM  =     11152.61838693
  Solvation  Ediel_sol  =         0.00000000
  ---------------------------------------------------
  free energy    TOTEN  =        58.18624130 eV

  energy without entropy =       58.18253058  energy(sigma->0) =       58.18500439


--------------------------------------------------------------------------------------------------------




--------------------------------------- Iteration      1(   3)  ---------------------------------------


     EDDAV:  cpu time      0.3091: real time      0.3121
       DOS:  cpu time      0.0009: real time      0.0009
    --------------------------------------------
      LOOP:  cpu time      0.3100: real time      0.3130

 eigenvalue-minimisations  :   992
 total energy-change (2. order) :-0.8906404E+02  (-0.8275760E+02)
 number of electron      90.0000000 magnetization      10.0000000
 augmentation part       90.0000000 magnetization      10.0000000

 Free energy of the ion-electron system (eV)
  ---------------------------------------------------
  alpha Z        PSCENC =       216.17040255
  Ewald energy   TEWEN  =     42283.25937589
  -Hartree energ DENC   =    -53106.78975674
  -exchange      EXHF   =         0.00000000
  -V(xc)+E(xc)   XCENC  =       371.27832534
  PAW double counting   =      9828.36862813   -10674.97285505
  entropy T*S    EENTRO =        -0.00503072
  eigenvalues    EBANDS =      -100.80527895
  atomic energy  EATOM  =     11152.61838693
  Solvation  Ediel_sol  =         0.00000000
  ---------------------------------------------------
  free energy    TOTEN  =       -30.87780262 eV

  energy without entropy =      -30.87277190  energy(sigma->0) =      -30.87612572


--------------------------------------------------------------------------------------------------------




--------------------------------------- Iteration      1(   4)  ---------------------------------------


     EDDAV:  cpu time      0.3519: real time      0.3546
       DOS:  cpu time      0.0009: real time      0.0009
    --------------------------------------------
      LOOP:  cpu time      0.3528: real time      0.3555

 eigenvalue-minimisations  :  1112
 total energy-change (2. order) :-0.3742610E+01  (-0.3712639E+01)
 number of electron      90.0000000 magnetization      10.0000000
 augmentation part       90.0000000 magnetization      10.0000000

 Free energy of the ion-electron system (eV)
  ---------------------------------------------------
  alpha Z        PSCENC =       216.17040255
  Ewald energy   TEWEN  =     42283.25937589
  -Hartree energ DENC   =    -53106.78975674
  -exchange      EXHF   =         0.00000000
  -V(xc)+E(xc)   XCENC  =       371.27832534
  PAW double counting   =      9828.36862813   -10674.97285505
  entropy T*S    EENTRO =        -0.00661439
  eigenvalues    EBANDS =      -104.54630496
  atomic energy  EATOM  =     11152.61838693
  Solvation  Ediel_sol  =         0.00000000
  ---------------------------------------------------
  free energy    TOTEN  =       -34.62041231 eV

  energy without entropy =      -34.61379791  energy(sigma->0) =      -34.61820751


--------------------------------------------------------------------------------------------------------




--------------------------------------- Iteration      1(   5)  ---------------------------------------


     EDDAV:  cpu time      0.3430: real time      0.3459
       DOS:  cpu time      0.0009: real time      0.0009
    CHARGE:  cpu time      0.0552: real time      0.0554
    MIXING:  cpu time      0.0006: real time      0.0006
    --------------------------------------------
      LOOP:  cpu time      0.3997: real time      0.4028

 eigenvalue-minimisations  :  1136
 total energy-change (2. order) :-0.8412408E-01  (-0.8406219E-01)
 number of electron      90.0000818 magnetization       9.1046482
 augmentation part       52.2780075 magnetization       8.7942600

 Broyden mixing:
  rms(total) = 0.26984E+01    rms(broyden)= 0.26982E+01
  rms(prec ) = 0.27805E+01
  weight for this iteration     100.00

 Free energy of the ion-electron system (eV)
  ---------------------------------------------------
  alpha Z        PSCENC =       216.17040255
  Ewald energy   TEWEN  =     42283.25937589
  -Hartree energ DENC   =    -53106.78975674
  -exchange      EXHF   =         0.00000000
  -V(xc)+E(xc)   XCENC  =       371.27832534
  PAW double counting   =      9828.36862813   -10674.97285505
  entropy T*S    EENTRO =        -0.00655124
  eigenvalues    EBANDS =      -104.63049219
  atomic energy  EATOM  =     11152.61838693
  Solvation  Ediel_sol  =         0.00000000
  ---------------------------------------------------
  free energy    TOTEN  =       -34.70453639 eV

  energy without entropy =      -34.69798515  energy(sigma->0) =      -34.70235264


--------------------------------------------------------------------------------------------------------




--------------------------------------- Iteration      1(   6)  ---------------------------------------


    POTLOK:  cpu time      0.0175: real time      0.0177
    SETDIJ:  cpu time      0.0059: real time      0.0059
     EDDAV:  cpu time      0.3338: real time      0.3368
       DOS:  cpu time      0.0010: real time      0.0010
    CHARGE:  cpu time      0.0535: real time      0.0538
    MIXING:  cpu time      0.0007: real time      0.0007
    --------------------------------------------
      LOOP:  cpu time      0.4125: real time      0.4159

 eigenvalue-minimisations  :  1100
 total energy-change (2. order) : 0.5135258E+01  (-0.9283494E+01)
 number of electron      90.0000909 magnetization       8.5397994
 augmentation part       58.5023049 magnetization       6.4172036

 Broyden mixing:
  rms(total) = 0.13507E+01    rms(broyden)= 0.13503E+01
  rms(prec ) = 0.14337E+01
  weight for this iteration     100.00

 eigenvalues of (default mixing * dielectric matrix)
  average eigenvalue GAMMA=   0.8057
  0.8057

 Free energy of the ion-electron system (eV)
  ---------------------------------------------------
  alpha Z        PSCENC =       216.17040255
  Ewald energy   TEWEN  =     42283.25937589
  -Hartree energ DENC   =    -52917.51566425
  -exchange      EXHF   =         0.00000000
  -V(xc)+E(xc)   XCENC  =       364.74218514
  PAW double counting   =      9979.16006806   -10784.43655951
  entropy T*S    EENTRO =        -0.00626764
  eigenvalues    EBANDS =      -323.56120583
  atomic energy  EATOM  =     11152.61838693
  Solvation  Ediel_sol  =         0.00000000
  ---------------------------------------------------
  free energy    TOTEN  =       -29.56927867 eV

  energy without entropy =      -29.56301103  energy(sigma->0) =      -29.56718946


--------------------------------------------------------------------------------------------------------




--------------------------------------- Iteration      1(   7)  ---------------------------------------


    POTLOK:  cpu time      0.0165: real time      0.0167
    SETDIJ:  cpu time      0.0056: real time      0.0056
     EDDAV:  cpu time      0.3485: real time      0.3511
       DOS:  cpu time      0.0009: real time      0.0009
    CHARGE:  cpu time      0.0485: real time      0.0487
    MIXING:  cpu time      0.0007: real time      0.0007
    --------------------------------------------
      LOOP:  cpu time      0.4207: real time      0.4238

 eigenvalue-minimisations  :  1164
 total energy-change (2. order) : 0.2446991E+01  (-0.2523282E+01)
 number of electron      90.0000883 magnetization       8.1532742
 augmentation part       56.4988362 magnetization       6.0499441

 Broyden mixing:
  rms(total) = 0.86888E+00    rms(broyden)= 0.86872E+00
  rms(prec ) = 0.98042E+00
  weight for this iteration     100.00

 eigenvalues of (default mixing * dielectric matrix)
  average eigenvalue GAMMA=   0.7433
  0.9127  0.5739

 Free energy of the ion-electron system (eV)
  ---------------------------------------------------
  alpha Z        PSCENC =       216.17040255
  Ewald energy   TEWEN  =     42283.25937589
  -Hartree energ DENC   =    -53026.57428948
  -exchange      EXHF   =         0.00000000
  -V(xc)+E(xc)   XCENC  =       368.40437066
  PAW double counting   =     10193.76629939   -11037.08108337
  entropy T*S    EENTRO =        -0.01971480
  eigenvalues    EBANDS =      -177.66603508
  atomic energy  EATOM  =     11152.61838693
  Solvation  Ediel_sol  =         0.00000000
  ---------------------------------------------------
  free energy    TOTEN  =       -27.12228730 eV

  energy without entropy =      -27.10257250  energy(sigma->0) =      -27.11571570


--------------------------------------------------------------------------------------------------------




--------------------------------------- Iteration      1(   8)  ---------------------------------------


    POTLOK:  cpu time      0.0163: real time      0.0166
    SETDIJ:  cpu time      0.0057: real time      0.0058
     EDDAV:  cpu time      0.3773: real time      0.3807
       DOS:  cpu time      0.0009: real time      0.0009
    CHARGE:  cpu time      0.0501: real time      0.0503
    MIXING:  cpu time      0.0007: real time      0.0007
    --------------------------------------------
      LOOP:  cpu time      0.4512: real time      0.4550

 eigenvalue-minimisations  :  1288
 total energy-change (2. order) : 0.3737819E+00  (-0.1171877E+01)
 number of electron      90.0000875 magnetization       7.4404907
 augmentation part       56.1227498 magnetization       5.2134789

 Broyden mixing:
  rms(total) = 0.74802E+00    rms(broyden)= 0.74787E+00
  rms(prec ) = 0.84454E+00
  weight for this iteration     100.00

 eigenvalues of (default mixing * dielectric matrix)
  average eigenvalue GAMMA=   0.6960
  1.0970  0.6653  0.3257

 Free energy of the ion-electron system (eV)
  ---------------------------------------------------
  alpha Z        PSCENC =       216.17040255
  Ewald energy   TEWEN  =     42283.25937589
  -Hartree energ DENC   =    -53027.73240897
  -exchange      EXHF   =         0.00000000
  -V(xc)+E(xc)   XCENC  =       368.72572186
  PAW double counting   =     10271.95515003   -11122.54344424
  entropy T*S    EENTRO =        -0.00838085
  eigenvalues    EBANDS =      -169.19330859
  atomic energy  EATOM  =     11152.61838693
  Solvation  Ediel_sol  =         0.00000000
  ---------------------------------------------------
  free energy    TOTEN  =       -26.74850538 eV

  energy without entropy =      -26.74012454  energy(sigma->0) =      -26.74571177


--------------------------------------------------------------------------------------------------------




--------------------------------------- Iteration      1(   9)  ---------------------------------------


    POTLOK:  cpu time      0.0162: real time      0.0164
    SETDIJ:  cpu time      0.0055: real time      0.0056
     EDDAV:  cpu time      0.4649: real time      0.4686
       DOS:  cpu time      0.0009: real time      0.0009
    CHARGE:  cpu time      0.0499: real time      0.0502
    MIXING:  cpu time      0.0008: real time      0.0008
    --------------------------------------------
      LOOP:  cpu time      0.5383: real time      0.5424

 eigenvalue-minimisations  :  1648
 total energy-change (2. order) : 0.5465190E+00  (-0.5544297E+00)
 number of electron      90.0000874 magnetization       6.5150844
 augmentation part       56.1086970 magnetization       4.4909818

 Broyden mixing:
  rms(total) = 0.61868E+00    rms(broyden)= 0.61862E+00
  rms(prec ) = 0.64168E+00
  weight for this iteration     100.00

 eigenvalues of (default mixing * dielectric matrix)
  average eigenvalue GAMMA=   0.7507
  1.2651  0.7296  0.7296  0.2786

 Free energy of the ion-electron system (eV)
  ---------------------------------------------------
  alpha Z        PSCENC =       216.17040255
  Ewald energy   TEWEN  =     42283.25937589
  -Hartree energ DENC   =    -53025.07925661
  -exchange      EXHF   =         0.00000000
  -V(xc)+E(xc)   XCENC  =       368.59343128
  PAW double counting   =     10393.72597634   -11252.06433257
  entropy T*S    EENTRO =        -0.01565968
  eigenvalues    EBANDS =      -163.41031054
  atomic energy  EATOM  =     11152.61838693
  Solvation  Ediel_sol  =         0.00000000
  ---------------------------------------------------
  free energy    TOTEN  =       -26.20198640 eV

  energy without entropy =      -26.18632673  energy(sigma->0) =      -26.19676651


--------------------------------------------------------------------------------------------------------




--------------------------------------- Iteration      1(  10)  ---------------------------------------


    POTLOK:  cpu time      0.0161: real time      0.0164
    SETDIJ:  cpu time      0.0056: real time      0.0056
     EDDAV:  cpu time      0.3954: real time      0.3988
       DOS:  cpu time      0.0009: real time      0.0009
    CHARGE:  cpu time      0.0530: real time      0.0532
    MIXING:  cpu time      0.0010: real time      0.0010
    --------------------------------------------
      LOOP:  cpu time      0.4719: real time      0.4759

 eigenvalue-minimisations  :  1292
 total energy-change (2. order) :-0.6540452E+00  (-0.1754280E+00)
 number of electron      90.0000875 magnetization       5.1810033
 augmentation part       56.1548839 magnetization       3.2388144

 Broyden mixing:
  rms(total) = 0.51617E+00    rms(broyden)= 0.51615E+00
  rms(prec ) = 0.51869E+00
  weight for this iteration     100.00

 eigenvalues of (default mixing * dielectric matrix)
  average eigenvalue GAMMA=   0.8989
  1.7618  1.2153  0.7236  0.5223  0.2717

 Free energy of the ion-electron system (eV)
  ---------------------------------------------------
  alpha Z        PSCENC =       216.17040255
  Ewald energy   TEWEN  =     42283.25937589
  -Hartree energ DENC   =    -53038.46765495
  -exchange      EXHF   =         0.00000000
  -V(xc)+E(xc)   XCENC  =       367.64681529
  PAW double counting   =     10506.96020027   -11369.84849005
  entropy T*S    EENTRO =        -0.00971057
  eigenvalues    EBANDS =      -145.18535695
  atomic energy  EATOM  =     11152.61838693
  Solvation  Ediel_sol  =         0.00000000
  ---------------------------------------------------
  free energy    TOTEN  =       -26.85603159 eV

  energy without entropy =      -26.84632102  energy(sigma->0) =      -26.85279473


--------------------------------------------------------------------------------------------------------




--------------------------------------- Iteration      1(  11)  ---------------------------------------


    POTLOK:  cpu time      0.0174: real time      0.0177
    SETDIJ:  cpu time      0.0059: real time      0.0059
     EDDAV:  cpu time      0.3682: real time      0.3709
       DOS:  cpu time      0.0010: real time      0.0010
    CHARGE:  cpu time      0.0523: real time      0.0526
    MIXING:  cpu time      0.0009: real time      0.0009
    --------------------------------------------
      LOOP:  cpu time      0.4456: real time      0.4489

 eigenvalue-minimisations  :  1256
 total energy-change (2. order) :-0.1636883E+01  (-0.1259654E+00)
 number of electron      90.0000877 magnetization       4.0534494
 augmentation part       56.3449061 magnetization       2.4173517

 Broyden mixing:
  rms(total) = 0.43031E+00    rms(broyden)= 0.43030E+00
  rms(prec ) = 0.43397E+00
  weight for this iteration     100.00

 eigenvalues of (default mixing * dielectric matrix)
  average eigenvalue GAMMA=   1.0283
  2.8142  1.1665  0.7199  0.7199  0.4770  0.2724

 Free energy of the ion-electron system (eV)
  ---------------------------------------------------
  alpha Z        PSCENC =       216.17040255
  Ewald energy   TEWEN  =     42283.25937589
  -Hartree energ DENC   =    -53045.65854051
  -exchange      EXHF   =         0.00000000
  -V(xc)+E(xc)   XCENC  =       366.29664916
  PAW double counting   =     10592.69304747   -11457.36591387
  entropy T*S    EENTRO =        -0.01204841
  eigenvalues    EBANDS =      -136.49427351
  atomic energy  EATOM  =     11152.61838693
  Solvation  Ediel_sol  =         0.00000000
  ---------------------------------------------------
  free energy    TOTEN  =       -28.49291431 eV

  energy without entropy =      -28.48086590  energy(sigma->0) =      -28.48889817


--------------------------------------------------------------------------------------------------------




--------------------------------------- Iteration      1(  12)  ---------------------------------------


    POTLOK:  cpu time      0.0163: real time      0.0165
    SETDIJ:  cpu time      0.0056: real time      0.0056
     EDDAV:  cpu time      0.3572: real time      0.3602
       DOS:  cpu time      0.0009: real time      0.0009
    CHARGE:  cpu time      0.0506: real time      0.0509
    MIXING:  cpu time      0.0011: real time      0.0011
    --------------------------------------------
      LOOP:  cpu time      0.4316: real time      0.4353

 eigenvalue-minimisations  :  1208
 total energy-change (2. order) :-0.1025908E+01  (-0.6485929E-01)
 number of electron      90.0000875 magnetization       2.0904023
 augmentation part       56.2784078 magnetization       0.7288839

 Broyden mixing:
  rms(total) = 0.34803E+00    rms(broyden)= 0.34802E+00
  rms(prec ) = 0.35464E+00
  weight for this iteration     100.00

 eigenvalues of (default mixing * dielectric matrix)
  average eigenvalue GAMMA=   1.3556
  4.7713  1.6114  0.9692  0.2735  0.7655  0.6174  0.4807

 Free energy of the ion-electron system (eV)
  ---------------------------------------------------
  alpha Z        PSCENC =       216.17040255
  Ewald energy   TEWEN  =     42283.25937589
  -Hartree energ DENC   =    -53059.13884564
  -exchange      EXHF   =         0.00000000
  -V(xc)+E(xc)   XCENC  =       365.81490067
  PAW double counting   =     10622.17570689   -11488.83073042
  entropy T*S    EENTRO =        -0.01020272
  eigenvalues    EBANDS =      -121.57781655
  atomic energy  EATOM  =     11152.61838693
  Solvation  Ediel_sol  =         0.00000000
  ---------------------------------------------------
  free energy    TOTEN  =       -29.51882241 eV

  energy without entropy =      -29.50861969  energy(sigma->0) =      -29.51542150


--------------------------------------------------------------------------------------------------------




--------------------------------------- Iteration      1(  13)  ---------------------------------------


    POTLOK:  cpu time      0.0161: real time      0.0163
    SETDIJ:  cpu time      0.0057: real time      0.0057
     EDDAV:  cpu time      0.3827: real time      0.3855
       DOS:  cpu time      0.0010: real time      0.0010
    CHARGE:  cpu time      0.0526: real time      0.0528
    MIXING:  cpu time      0.0011: real time      0.0011
    --------------------------------------------
      LOOP:  cpu time      0.4590: real time      0.4624

 eigenvalue-minimisations  :  1316
 total energy-change (2. order) :-0.2253707E+01  (-0.1455695E+00)
 number of electron      90.0000874 magnetization       0.9252116
 augmentation part       56.1446724 magnetization      -0.1246516

 Broyden mixing:
  rms(total) = 0.21514E+00    rms(broyden)= 0.21511E+00
  rms(prec ) = 0.23845E+00
  weight for this iteration     100.00

 eigenvalues of (default mixing * dielectric matrix)
  average eigenvalue GAMMA=   1.6487
  7.4084  2.1163  0.8300  0.8300  0.7596  0.2734  0.5328  0.4392

 Free energy of the ion-electron system (eV)
  ---------------------------------------------------
  alpha Z        PSCENC =       216.17040255
  Ewald energy   TEWEN  =     42283.25937589
  -Hartree energ DENC   =    -53063.37118329
  -exchange      EXHF   =         0.00000000
  -V(xc)+E(xc)   XCENC  =       364.61682720
  PAW double counting   =     10586.21829153   -11452.32125673
  entropy T*S    EENTRO =        -0.01231887
  eigenvalues    EBANDS =      -118.95105496
  atomic energy  EATOM  =     11152.61838693
  Solvation  Ediel_sol  =         0.00000000
  ---------------------------------------------------
  free energy    TOTEN  =       -31.77252976 eV

  energy without entropy =      -31.76021089  energy(sigma->0) =      -31.76842347


--------------------------------------------------------------------------------------------------------




--------------------------------------- Iteration      1(  14)  ---------------------------------------


    POTLOK:  cpu time      0.0161: real time      0.0163
    SETDIJ:  cpu time      0.0056: real time      0.0056
     EDDAV:  cpu time      0.3624: real time      0.3653
       DOS:  cpu time      0.0009: real time      0.0009
    CHARGE:  cpu time      0.0533: real time      0.0539
    MIXING:  cpu time      0.0011: real time      0.0011
    --------------------------------------------
      LOOP:  cpu time      0.4395: real time      0.4432

 eigenvalue-minimisations  :  1228
 total energy-change (2. order) :-0.1933155E+01  (-0.2113715E+00)
 number of electron      90.0000872 magnetization       0.5770787
 augmentation part       56.1305344 magnetization       0.0384563

 Broyden mixing:
  rms(total) = 0.10970E+00    rms(broyden)= 0.10962E+00
  rms(prec ) = 0.11916E+00
  weight for this iteration     100.00

 eigenvalues of (default mixing * dielectric matrix)
  average eigenvalue GAMMA=   1.7499
  9.0669  2.1871  0.9288  0.8091  0.8091  0.7603  0.2732  0.4671  0.4479

 Free energy of the ion-electron system (eV)
  ---------------------------------------------------
  alpha Z        PSCENC =       216.17040255
  Ewald energy   TEWEN  =     42283.25937589
  -Hartree energ DENC   =    -53067.84038524
  -exchange      EXHF   =         0.00000000
  -V(xc)+E(xc)   XCENC  =       363.29170296
  PAW double counting   =     10528.79587183   -11391.51225065
  entropy T*S    EENTRO =        -0.01023440
  eigenvalues    EBANDS =      -118.47855431
  atomic energy  EATOM  =     11152.61838693
  Solvation  Ediel_sol  =         0.00000000
  ---------------------------------------------------
  free energy    TOTEN  =       -33.70568443 eV

  energy without entropy =      -33.69545003  energy(sigma->0) =      -33.70227297


--------------------------------------------------------------------------------------------------------




--------------------------------------- Iteration      1(  15)  ---------------------------------------


    POTLOK:  cpu time      0.0160: real time      0.0163
    SETDIJ:  cpu time      0.0056: real time      0.0056
     EDDAV:  cpu time      0.3461: real time      0.3488
       DOS:  cpu time      0.0009: real time      0.0009
    CHARGE:  cpu time      0.0500: real time      0.0502
    MIXING:  cpu time      0.0012: real time      0.0012
    --------------------------------------------
      LOOP:  cpu time      0.4199: real time      0.4230

 eigenvalue-minimisations  :  1156
 total energy-change (2. order) :-0.6559712E+00  (-0.8722127E-01)
 number of electron      90.0000873 magnetization       0.4595626
 augmentation part       56.1896580 magnetization       0.1670503

 Broyden mixing:
  rms(total) = 0.76593E-01    rms(broyden)= 0.76547E-01
  rms(prec ) = 0.83636E-01
  weight for this iteration     100.00

 eigenvalues of (default mixing * dielectric matrix)
  average eigenvalue GAMMA=   1.7066
  9.5837  2.2996  0.9606  0.9606  0.7631  0.7631  0.2733  0.5598  0.4510  0.4510

 Free energy of the ion-electron system (eV)
  ---------------------------------------------------
  alpha Z        PSCENC =       216.17040255
  Ewald energy   TEWEN  =     42283.25937589
  -Hartree energ DENC   =    -53063.11502998
  -exchange      EXHF   =         0.00000000
  -V(xc)+E(xc)   XCENC  =       362.83927680
  PAW double counting   =     10519.69505879   -11381.42585288
  entropy T*S    EENTRO =        -0.00331316
  eigenvalues    EBANDS =      -124.39996056
  atomic energy  EATOM  =     11152.61838693
  Solvation  Ediel_sol  =         0.00000000
  ---------------------------------------------------
  free energy    TOTEN  =       -34.36165564 eV

  energy without entropy =      -34.35834248  energy(sigma->0) =      -34.36055125


--------------------------------------------------------------------------------------------------------




--------------------------------------- Iteration      1(  16)  ---------------------------------------


    POTLOK:  cpu time      0.0160: real time      0.0163
    SETDIJ:  cpu time      0.0056: real time      0.0056
     EDDAV:  cpu time      0.3413: real time      0.3440
       DOS:  cpu time      0.0016: real time      0.0016
    CHARGE:  cpu time      0.0536: real time      0.0538
    MIXING:  cpu time      0.0015: real time      0.0015
    --------------------------------------------
      LOOP:  cpu time      0.4195: real time      0.4227

 eigenvalue-minimisations  :  1128
 total energy-change (2. order) :-0.2061218E+00  (-0.1630340E-01)
 number of electron      90.0000873 magnetization       0.3412055
 augmentation part       56.2137684 magnetization       0.1452820

 Broyden mixing:
  rms(total) = 0.54973E-01    rms(broyden)= 0.54950E-01
  rms(prec ) = 0.59809E-01
  weight for this iteration     100.00

 eigenvalues of (default mixing * dielectric matrix)
  average eigenvalue GAMMA=   1.7340
 10.1919  2.3613  1.1921  1.1921  0.8487  0.8487  0.2733  0.6924  0.5865  0.4434
  0.4434

 Free energy of the ion-electron system (eV)
  ---------------------------------------------------
  alpha Z        PSCENC =       216.17040255
  Ewald energy   TEWEN  =     42283.25937589
  -Hartree energ DENC   =    -53059.09859548
  -exchange      EXHF   =         0.00000000
  -V(xc)+E(xc)   XCENC  =       362.68454844
  PAW double counting   =     10511.55491775   -11372.72764007
  entropy T*S    EENTRO =         0.00022809
  eigenvalues    EBANDS =      -129.02940155
  atomic energy  EATOM  =     11152.61838693
  Solvation  Ediel_sol  =         0.00000000
  ---------------------------------------------------
  free energy    TOTEN  =       -34.56777745 eV

  energy without entropy =      -34.56800555  energy(sigma->0) =      -34.56785349


--------------------------------------------------------------------------------------------------------




--------------------------------------- Iteration      1(  17)  ---------------------------------------


    POTLOK:  cpu time      0.0174: real time      0.0177
    SETDIJ:  cpu time      0.0059: real time      0.0059
     EDDAV:  cpu time      0.3448: real time      0.3479
       DOS:  cpu time      0.0009: real time      0.0009
    CHARGE:  cpu time      0.0502: real time      0.0504
    MIXING:  cpu time      0.0013: real time      0.0013
    --------------------------------------------
      LOOP:  cpu time      0.4206: real time      0.4242

 eigenvalue-minimisations  :  1140
 total energy-change (2. order) :-0.1812624E+00  (-0.1209179E-01)
 number of electron      90.0000872 magnetization       0.2404514
 augmentation part       56.2198327 magnetization       0.1329811

 Broyden mixing:
  rms(total) = 0.43013E-01    rms(broyden)= 0.42993E-01
  rms(prec ) = 0.45469E-01
  weight for this iteration     100.00

 eigenvalues of (default mixing * dielectric matrix)
  average eigenvalue GAMMA=   1.7421
 10.7814  2.1491  2.1491  1.0294  1.0294  0.7332  0.7332  0.7199  0.2733  0.4570
  0.4570  0.3927

 Free energy of the ion-electron system (eV)
  ---------------------------------------------------
  alpha Z        PSCENC =       216.17040255
  Ewald energy   TEWEN  =     42283.25937589
  -Hartree energ DENC   =    -53051.46972209
  -exchange      EXHF   =         0.00000000
  -V(xc)+E(xc)   XCENC  =       362.55478330
  PAW double counting   =     10504.50111056   -11365.52763599
  entropy T*S    EENTRO =         0.00295693
  eigenvalues    EBANDS =      -136.85869792
  atomic energy  EATOM  =     11152.61838693
  Solvation  Ediel_sol  =         0.00000000
  ---------------------------------------------------
  free energy    TOTEN  =       -34.74903984 eV

  energy without entropy =      -34.75199677  energy(sigma->0) =      -34.75002548


--------------------------------------------------------------------------------------------------------




--------------------------------------- Iteration      1(  18)  ---------------------------------------


    POTLOK:  cpu time      0.0161: real time      0.0164
    SETDIJ:  cpu time      0.0056: real time      0.0057
     EDDAV:  cpu time      0.3456: real time      0.3482
       DOS:  cpu time      0.0009: real time      0.0009
    CHARGE:  cpu time      0.0485: real time      0.0487
    MIXING:  cpu time      0.0014: real time      0.0014
    --------------------------------------------
      LOOP:  cpu time      0.4181: real time      0.4212

 eigenvalue-minimisations  :  1156
 total energy-change (2. order) :-0.6365491E-01  (-0.4914836E-02)
 number of electron      90.0000872 magnetization       0.2027700
 augmentation part       56.1998109 magnetization       0.1343050

 Broyden mixing:
  rms(total) = 0.24548E-01    rms(broyden)= 0.24536E-01
  rms(prec ) = 0.26543E-01
  weight for this iteration     100.00

 eigenvalues of (default mixing * dielectric matrix)
  average eigenvalue GAMMA=   1.7321
 10.9734  2.2577  2.2577  1.2239  1.1129  0.8302  0.8302  0.7466  0.6966  0.2733
  0.4717  0.4451  0.3977

 Free energy of the ion-electron system (eV)
  ---------------------------------------------------
  alpha Z        PSCENC =       216.17040255
  Ewald energy   TEWEN  =     42283.25937589
  -Hartree energ DENC   =    -53046.49023337
  -exchange      EXHF   =         0.00000000
  -V(xc)+E(xc)   XCENC  =       362.53336718
  PAW double counting   =     10509.96653827   -11371.74064856
  entropy T*S    EENTRO =         0.00335500
  eigenvalues    EBANDS =      -141.13323863
  atomic energy  EATOM  =     11152.61838693
  Solvation  Ediel_sol  =         0.00000000
  ---------------------------------------------------
  free energy    TOTEN  =       -34.81269474 eV

  energy without entropy =      -34.81604974  energy(sigma->0) =      -34.81381308


--------------------------------------------------------------------------------------------------------




--------------------------------------- Iteration      1(  19)  ---------------------------------------


    POTLOK:  cpu time      0.0160: real time      0.0163
    SETDIJ:  cpu time      0.0056: real time      0.0056
     EDDAV:  cpu time      0.3478: real time      0.3508
       DOS:  cpu time      0.0009: real time      0.0010
    CHARGE:  cpu time      0.0484: real time      0.0486
    MIXING:  cpu time      0.0014: real time      0.0014
    --------------------------------------------
      LOOP:  cpu time      0.4201: real time      0.4236

 eigenvalue-minimisations  :  1168
 total energy-change (2. order) :-0.8656319E-01  (-0.2567512E-02)
 number of electron      90.0000872 magnetization       0.1668258
 augmentation part       56.1938999 magnetization       0.1183950

 Broyden mixing:
  rms(total) = 0.19634E-01    rms(broyden)= 0.19630E-01
  rms(prec ) = 0.21110E-01
  weight for this iteration     100.00

 eigenvalues of (default mixing * dielectric matrix)
  average eigenvalue GAMMA=   1.7362
 11.1316  3.0769  2.2752  1.3325  1.0558  0.8827  0.8827  0.7417  0.7417  0.2733
  0.5896  0.4830  0.4416  0.3978

 Free energy of the ion-electron system (eV)
  ---------------------------------------------------
  alpha Z        PSCENC =       216.17040255
  Ewald energy   TEWEN  =     42283.25937589
  -Hartree energ DENC   =    -53042.31150341
  -exchange      EXHF   =         0.00000000
  -V(xc)+E(xc)   XCENC  =       362.45406322
  PAW double counting   =     10504.56962746   -11366.18856690
  entropy T*S    EENTRO =         0.00274037
  eigenvalues    EBANDS =      -145.47378404
  atomic energy  EATOM  =     11152.61838693
  Solvation  Ediel_sol  =         0.00000000
  ---------------------------------------------------
  free energy    TOTEN  =       -34.89925793 eV

  energy without entropy =      -34.90199830  energy(sigma->0) =      -34.90017139


--------------------------------------------------------------------------------------------------------




--------------------------------------- Iteration      1(  20)  ---------------------------------------


    POTLOK:  cpu time      0.0162: real time      0.0165
    SETDIJ:  cpu time      0.0056: real time      0.0056
     EDDAV:  cpu time      0.3549: real time      0.3576
       DOS:  cpu time      0.0009: real time      0.0009
    CHARGE:  cpu time      0.0487: real time      0.0489
    MIXING:  cpu time      0.0016: real time      0.0016
    --------------------------------------------
      LOOP:  cpu time      0.4279: real time      0.4311

 eigenvalue-minimisations  :  1200
 total energy-change (2. order) :-0.4124997E-01  (-0.6080643E-03)
 number of electron      90.0000872 magnetization       0.1346128
 augmentation part       56.1981495 magnetization       0.0979004

 Broyden mixing:
  rms(total) = 0.15439E-01    rms(broyden)= 0.15437E-01
  rms(prec ) = 0.16422E-01
  weight for this iteration     100.00

 eigenvalues of (default mixing * dielectric matrix)
  average eigenvalue GAMMA=   1.6996
 11.1815  3.2495  2.3890  1.2430  1.2430  0.9026  0.9026  0.8049  0.8049  0.6661
  0.2733  0.5133  0.4747  0.4477  0.3976

 Free energy of the ion-electron system (eV)
  ---------------------------------------------------
  alpha Z        PSCENC =       216.17040255
  Ewald energy   TEWEN  =     42283.25937589
  -Hartree energ DENC   =    -53039.33199815
  -exchange      EXHF   =         0.00000000
  -V(xc)+E(xc)   XCENC  =       362.39923340
  PAW double counting   =     10504.18131291   -11365.77850314
  entropy T*S    EENTRO =         0.00244936
  eigenvalues    EBANDS =      -148.46116765
  atomic energy  EATOM  =     11152.61838693
  Solvation  Ediel_sol  =         0.00000000
  ---------------------------------------------------
  free energy    TOTEN  =       -34.94050791 eV

  energy without entropy =      -34.94295727  energy(sigma->0) =      -34.94132436


--------------------------------------------------------------------------------------------------------




--------------------------------------- Iteration      1(  21)  ---------------------------------------


    POTLOK:  cpu time      0.0160: real time      0.0162
    SETDIJ:  cpu time      0.0058: real time      0.0058
     EDDAV:  cpu time      0.3531: real time      0.3559
       DOS:  cpu time      0.0009: real time      0.0009
    CHARGE:  cpu time      0.0490: real time      0.0495
    MIXING:  cpu time      0.0016: real time      0.0016
    --------------------------------------------
      LOOP:  cpu time      0.4264: real time      0.4299

 eigenvalue-minimisations  :  1192
 total energy-change (2. order) :-0.3630430E-01  (-0.3206233E-03)
 number of electron      90.0000872 magnetization       0.0992401
 augmentation part       56.2035164 magnetization       0.0710108

 Broyden mixing:
  rms(total) = 0.11974E-01    rms(broyden)= 0.11973E-01
  rms(prec ) = 0.12598E-01
  weight for this iteration     100.00

 eigenvalues of (default mixing * dielectric matrix)
  average eigenvalue GAMMA=   1.7093
 11.2335  3.5254  2.6036  1.8301  0.9832  0.9832  1.0140  1.0140  0.7594  0.7594
  0.2733  0.6165  0.4801  0.3963  0.4381  0.4381

 Free energy of the ion-electron system (eV)
  ---------------------------------------------------
  alpha Z        PSCENC =       216.17040255
  Ewald energy   TEWEN  =     42283.25937589
  -Hartree energ DENC   =    -53036.81246847
  -exchange      EXHF   =         0.00000000
  -V(xc)+E(xc)   XCENC  =       362.34943271
  PAW double counting   =     10505.40729180   -11367.02634297
  entropy T*S    EENTRO =         0.00215695
  eigenvalues    EBANDS =      -150.94504760
  atomic energy  EATOM  =     11152.61838693
  Solvation  Ediel_sol  =         0.00000000
  ---------------------------------------------------
  free energy    TOTEN  =       -34.97681221 eV

  energy without entropy =      -34.97896916  energy(sigma->0) =      -34.97753119


--------------------------------------------------------------------------------------------------------




--------------------------------------- Iteration      1(  22)  ---------------------------------------


    POTLOK:  cpu time      0.0161: real time      0.0164
    SETDIJ:  cpu time      0.0056: real time      0.0056
     EDDAV:  cpu time      0.3105: real time      0.3129
       DOS:  cpu time      0.0009: real time      0.0009
    CHARGE:  cpu time      0.0499: real time      0.0501
    MIXING:  cpu time      0.0018: real time      0.0018
    --------------------------------------------
      LOOP:  cpu time      0.3848: real time      0.3877

 eigenvalue-minimisations  :  1008
 total energy-change (2. order) :-0.4833773E-01  (-0.3983161E-03)
 number of electron      90.0000872 magnetization       0.0587502
 augmentation part       56.2067989 magnetization       0.0406685

 Broyden mixing:
  rms(total) = 0.90380E-02    rms(broyden)= 0.90370E-02
  rms(prec ) = 0.93499E-02
  weight for this iteration     100.00

 eigenvalues of (default mixing * dielectric matrix)
  average eigenvalue GAMMA=   1.7418
 11.2548  4.1239  2.9097  2.1016  1.2442  1.0501  1.0501  0.8339  0.8339  0.7807
  0.7807  0.2733  0.6275  0.4722  0.3986  0.4489  0.4265

 Free energy of the ion-electron system (eV)
  ---------------------------------------------------
  alpha Z        PSCENC =       216.17040255
  Ewald energy   TEWEN  =     42283.25937589
  -Hartree energ DENC   =    -53033.48270940
  -exchange      EXHF   =         0.00000000
  -V(xc)+E(xc)   XCENC  =       362.29344893
  PAW double counting   =     10505.36969255   -11366.95883897
  entropy T*S    EENTRO =         0.00183582
  eigenvalues    EBANDS =      -154.29674424
  atomic energy  EATOM  =     11152.61838693
  Solvation  Ediel_sol  =         0.00000000
  ---------------------------------------------------
  free energy    TOTEN  =       -35.02514994 eV

  energy without entropy =      -35.02698576  energy(sigma->0) =      -35.02576188


--------------------------------------------------------------------------------------------------------




--------------------------------------- Iteration      1(  23)  ---------------------------------------


    POTLOK:  cpu time      0.0160: real time      0.0162
    SETDIJ:  cpu time      0.0056: real time      0.0056
     EDDAV:  cpu time      0.3062: real time      0.3086
       DOS:  cpu time      0.0009: real time      0.0009
    CHARGE:  cpu time      0.0496: real time      0.0498
    MIXING:  cpu time      0.0019: real time      0.0019
    --------------------------------------------
      LOOP:  cpu time      0.3801: real time      0.3830

 eigenvalue-minimisations  :   984
 total energy-change (2. order) :-0.4963483E-01  (-0.2286861E-03)
 number of electron      90.0000872 magnetization       0.0349506
 augmentation part       56.2029195 magnetization       0.0253246

 Broyden mixing:
  rms(total) = 0.60992E-02    rms(broyden)= 0.60981E-02
  rms(prec ) = 0.63991E-02
  weight for this iteration     100.00

 eigenvalues of (default mixing * dielectric matrix)
  average eigenvalue GAMMA=   1.8423
 11.2939  5.8422  3.3755  2.2421  1.5714  1.0653  1.0653  0.9035  0.9035  0.7838
  0.7838  0.2733  0.6951  0.6217  0.4739  0.4468  0.3987  0.4224

 Free energy of the ion-electron system (eV)
  ---------------------------------------------------
  alpha Z        PSCENC =       216.17040255
  Ewald energy   TEWEN  =     42283.25937589
  -Hartree energ DENC   =    -53030.90016523
  -exchange      EXHF   =         0.00000000
  -V(xc)+E(xc)   XCENC  =       362.24927178
  PAW double counting   =     10505.47609199   -11367.11239610
  entropy T*S    EENTRO =         0.00159820
  eigenvalues    EBANDS =      -156.83735077
  atomic energy  EATOM  =     11152.61838693
  Solvation  Ediel_sol  =         0.00000000
  ---------------------------------------------------
  free energy    TOTEN  =       -35.07478476 eV

  energy without entropy =      -35.07638297  energy(sigma->0) =      -35.07531750


--------------------------------------------------------------------------------------------------------




--------------------------------------- Iteration      1(  24)  ---------------------------------------


    POTLOK:  cpu time      0.0160: real time      0.0162
    SETDIJ:  cpu time      0.0056: real time      0.0056
     EDDAV:  cpu time      0.2934: real time      0.2960
       DOS:  cpu time      0.0010: real time      0.0010
    CHARGE:  cpu time      0.0515: real time      0.0517
    MIXING:  cpu time      0.0019: real time      0.0019
    --------------------------------------------
      LOOP:  cpu time      0.3693: real time      0.3724

 eigenvalue-minimisations  :   920
 total energy-change (2. order) :-0.3673706E-01  (-0.1117521E-03)
 number of electron      90.0000872 magnetization       0.0208895
 augmentation part       56.2014872 magnetization       0.0135359

 Broyden mixing:
  rms(total) = 0.49607E-02    rms(broyden)= 0.49601E-02
  rms(prec ) = 0.52363E-02
  weight for this iteration     100.00

 eigenvalues of (default mixing * dielectric matrix)
  average eigenvalue GAMMA=   1.8752
 11.3379  7.3624  3.3490  2.3570  1.6914  1.0659  1.0659  0.9178  0.9178  0.8495
  0.8495  0.2733  0.6855  0.6340  0.5293  0.4771  0.3982  0.4432  0.4248

 Free energy of the ion-electron system (eV)
  ---------------------------------------------------
  alpha Z        PSCENC =       216.17040255
  Ewald energy   TEWEN  =     42283.25937589
  -Hartree energ DENC   =    -53029.61381576
  -exchange      EXHF   =         0.00000000
  -V(xc)+E(xc)   XCENC  =       362.21287639
  PAW double counting   =     10505.90809726   -11367.55913397
  entropy T*S    EENTRO =         0.00139026
  eigenvalues    EBANDS =      -158.10910136
  atomic energy  EATOM  =     11152.61838693
  Solvation  Ediel_sol  =         0.00000000
  ---------------------------------------------------
  free energy    TOTEN  =       -35.11152182 eV

  energy without entropy =      -35.11291208  energy(sigma->0) =      -35.11198524


--------------------------------------------------------------------------------------------------------




--------------------------------------- Iteration      1(  25)  ---------------------------------------


    POTLOK:  cpu time      0.0162: real time      0.0164
    SETDIJ:  cpu time      0.0056: real time      0.0056
     EDDAV:  cpu time      0.2708: real time      0.2728
       DOS:  cpu time      0.0009: real time      0.0009
    CHARGE:  cpu time      0.0505: real time      0.0507
    MIXING:  cpu time      0.0022: real time      0.0022
    --------------------------------------------
      LOOP:  cpu time      0.3462: real time      0.3486

 eigenvalue-minimisations  :   804
 total energy-change (2. order) :-0.1449158E-01  (-0.4200054E-04)
 number of electron      90.0000872 magnetization       0.0078195
 augmentation part       56.2028643 magnetization       0.0030503

 Broyden mixing:
  rms(total) = 0.27642E-02    rms(broyden)= 0.27636E-02
  rms(prec ) = 0.30371E-02
  weight for this iteration     100.00

 eigenvalues of (default mixing * dielectric matrix)
  average eigenvalue GAMMA=   1.9301
 11.4850  8.8485  3.2365  2.5539  1.9584  1.3438  1.0305  1.0305  0.8875  0.8875
  0.7650  0.7650  0.7533  0.2733  0.6161  0.4731  0.4494  0.3983  0.4266  0.4199

 Free energy of the ion-electron system (eV)
  ---------------------------------------------------
  alpha Z        PSCENC =       216.17040255
  Ewald energy   TEWEN  =     42283.25937589
  -Hartree energ DENC   =    -53028.65055936
  -exchange      EXHF   =         0.00000000
  -V(xc)+E(xc)   XCENC  =       362.19391755
  PAW double counting   =     10505.53192236   -11367.14325450
  entropy T*S    EENTRO =         0.00123944
  eigenvalues    EBANDS =      -159.10744426
[...]
      2      -5.1672      1.00000
      3      -4.8487      1.00000
      4      -4.1308      1.00000
      5      -3.6742      1.00000
      6      -3.3287      1.00000
      7      -3.2261      1.00000
      8      -3.2115      1.00000
      9      -3.0915      1.00000
     10      -2.9208      1.00000
     11      -2.9153      1.00000
     12      -2.9070      1.00000
     13      -2.6333      1.00000
     14      -2.6196      1.00000
     15      -2.6104      1.00000
     16      -2.5134      1.00000
     17      -2.3354      1.00000
     18      -2.0754      1.00000
     19      -2.0085      1.00000
     20      -1.9413      1.00000
     21      -1.7964      1.00000
     22      -1.6605      1.00000
     23      -1.4157      1.00000
     24      -1.3282      1.00000
     25      -1.3055      1.00000
     26      -1.2290      1.00000
     27      -1.2107      1.00000
     28      -1.1095      1.00000
     29      -1.0830      1.00000
     30      -1.0373      1.00000
     31      -1.0075      1.00000
     32      -0.9844      1.00000
     33      -0.8649      1.00000
     34      -0.8273      1.00000
     35      -0.7899      1.00000
     36      -0.7580      1.00000
     37      -0.7334      1.00000
     38      -0.6675      1.00000
     39      -0.5990      1.00000
     40      -0.5453      1.00000
     41      -0.5160      1.00000
     42      -0.4774      1.00000
     43      -0.4550      1.00000
     44      -0.4415      1.00000
     45       0.5116      1.03543
     46       2.4302     -0.00000
     47       4.2917     -0.00000
     48       4.3739     -0.00000
     49       4.9946     -0.00000
     50       6.1242     -0.00000
     51       6.5793      0.00000
     52       7.0791      0.00000
     53       7.2202      0.00000
     54       7.8391      0.00000
     55       8.0545      0.00000
     56       8.5326      0.00000
     57       9.2597      0.00000
     58       9.4736      0.00000
     59       9.4974      0.00000
     60       9.7313      0.00000

 k-point     4 :       0.3333    0.3333    0.0000
  band No.  band energies     occupation 
      1      -4.9305      1.00000
      2      -4.8074      1.00000
      3      -4.0987      1.00000
      4      -3.5507      1.00000
      5      -3.4654      1.00000
      6      -3.1853      1.00000
      7      -3.1327      1.00000
      8      -3.0117      1.00000
      9      -2.9912      1.00000
     10      -2.8274      1.00000
     11      -2.8093      1.00000
     12      -2.5770      1.00000
     13      -2.5134      1.00000
     14      -2.3866      1.00000
     15      -2.3215      1.00000
     16      -2.2844      1.00000
     17      -2.2364      1.00000
     18      -2.1701      1.00000
     19      -2.0441      1.00000
     20      -1.9705      1.00000
     21      -1.9544      1.00000
     22      -1.9311      1.00000
     23      -1.8924      1.00000
     24      -1.7563      1.00000
     25      -1.6720      1.00000
     26      -1.5475      1.00000
     27      -1.5387      1.00000
     28      -1.2702      1.00000
     29      -1.2184      1.00000
     30      -1.1591      1.00000
     31      -1.1155      1.00000
     32      -1.0826      1.00000
     33      -1.0054      1.00000
     34      -0.9856      1.00000
     35      -0.8614      1.00000
     36      -0.7723      1.00000
     37      -0.7442      1.00000
     38      -0.6897      1.00000
     39      -0.6647      1.00000
     40      -0.6152      1.00000
     41      -0.5707      1.00000
     42      -0.5285      1.00000
     43      -0.1785      1.00000
     44       0.6710      0.83674
     45       1.7058     -0.00000
     46       2.1254     -0.00000
     47       2.6672     -0.00000
     48       3.9794     -0.00000
     49       4.0737     -0.00000
     50       5.5725     -0.00000
     51       5.6703     -0.00000
     52       6.0832     -0.00000
     53       6.8132      0.00000
     54       7.1612      0.00000
     55       7.7822      0.00000
     56       7.9533      0.00000
     57       8.3698      0.00000
     58       8.8989      0.00000
     59       9.6004      0.00000
     60       9.6800      0.00000


--------------------------------------------------------------------------------------------------------


 soft charge-density along one line, spin component           1
         0         1         2         3         4         5         6         7         8         9
 total charge-density along one line
 
 soft charge-density along one line, spin component           2
         0         1         2         3         4         5         6         7         8         9
 total charge-density along one line
 
 pseudopotential strength for first ion, spin component:           1
 -7.262  -0.000  -0.000   0.000   0.000  -1.434   0.000   0.000
 -0.000  -7.247  -0.000   0.000   0.000   0.000  -1.447   0.000
 -0.000  -0.000  -7.269  -0.000   0.004   0.000   0.000  -1.433
  0.000   0.000  -0.000  -7.261  -0.000  -0.000  -0.000   0.000
  0.000   0.000   0.004  -0.000  -7.257  -0.000  -0.000  -0.002
 -1.434   0.000   0.000  -0.000  -0.000   8.000  -0.000  -0.000
  0.000  -1.447   0.000  -0.000  -0.000  -0.000   8.011  -0.000
  0.000   0.000  -1.433   0.000  -0.002  -0.000  -0.000   8.003
 -0.000  -0.000   0.000  -1.439   0.000   0.000   0.000  -0.000
 -0.000  -0.000  -0.002   0.000  -1.438   0.000   0.000   0.001
 -0.000   0.000  -0.003   0.000  -0.000  -0.000  -0.000   0.004
 -0.000   0.000  -0.007   0.000  -0.001  -0.000  -0.000   0.008
  0.000  -0.016   0.000  -0.000  -0.000  -0.000   0.013   0.000
 -0.000   0.000  -0.017   0.000   0.001  -0.000  -0.000   0.012
 -0.000  -0.000  -0.000  -0.015   0.000  -0.000  -0.000   0.000
  0.000  -0.018   0.000   0.000  -0.000   0.000   0.014   0.000
  0.000   0.000  -0.018   0.000   0.001  -0.000  -0.000   0.013
 -0.000   0.000  -0.000  -0.016   0.000  -0.000  -0.000  -0.000
 pseudopotential strength for first ion, spin component:           2
 -7.262  -0.000  -0.000   0.000   0.000  -1.434   0.000   0.000
 -0.000  -7.247  -0.000   0.000   0.000   0.000  -1.447   0.000
 -0.000  -0.000  -7.269  -0.000   0.004   0.000   0.000  -1.433
  0.000   0.000  -0.000  -7.261  -0.000  -0.000  -0.000   0.000
  0.000   0.000   0.004  -0.000  -7.257  -0.000  -0.000  -0.002
 -1.434   0.000   0.000  -0.000  -0.000   8.000  -0.000  -0.000
  0.000  -1.447   0.000  -0.000  -0.000  -0.000   8.011  -0.000
  0.000   0.000  -1.433   0.000  -0.002  -0.000  -0.000   8.003
 -0.000  -0.000   0.000  -1.439   0.000   0.000   0.000  -0.000
 -0.000  -0.000  -0.002   0.000  -1.438   0.000   0.000   0.001
 -0.000   0.000  -0.003   0.000  -0.000  -0.000  -0.000   0.004
 -0.000   0.000  -0.007   0.000  -0.001  -0.000  -0.000   0.008
  0.000  -0.016   0.000  -0.000  -0.000  -0.000   0.013   0.000
 -0.000   0.000  -0.017   0.000   0.001  -0.000  -0.000   0.012
 -0.000  -0.000  -0.000  -0.015   0.000  -0.000  -0.000   0.000
  0.000  -0.018   0.000   0.000  -0.000   0.000   0.014   0.000
  0.000   0.000  -0.018   0.000   0.001  -0.000  -0.000   0.013
 -0.000   0.000  -0.000  -0.016   0.000  -0.000  -0.000  -0.000
 total augmentation occupancy for first ion, spin component:           1
  1.921   0.000   0.000  -0.000   0.000  -0.012   0.000   0.000  -0.000   0.000   0.000   0.000   0.000   0.000  -0.000   0.000
  0.000   1.946  -0.000   0.000  -0.000   0.000  -0.028   0.000   0.000  -0.000  -0.000  -0.000   0.023   0.000   0.000  -0.022
  0.000  -0.000   1.927   0.000   0.002   0.000   0.000  -0.014   0.000   0.005  -0.016   0.015   0.000   0.070   0.000   0.000
 -0.000   0.000   0.000   1.942   0.000  -0.000   0.000   0.000  -0.025   0.000   0.000   0.000   0.000   0.000   0.066   0.000
  0.000  -0.000   0.002   0.000   1.926   0.000  -0.000   0.005   0.000  -0.017  -0.050   0.010  -0.000   0.022   0.000   0.000
 -0.012   0.000   0.000  -0.000   0.000   0.010   0.000   0.000   0.000   0.000   0.000   0.000   0.000   0.000  -0.000   0.000
  0.000  -0.028   0.000   0.000  -0.000   0.000   0.010   0.000   0.000   0.000   0.000  -0.000   0.021   0.000   0.000  -0.001
  0.000   0.000  -0.014   0.000   0.005   0.000   0.000   0.011   0.000   0.001  -0.015  -0.000   0.000   0.020   0.000  -0.000
 -0.000   0.000   0.000  -0.025   0.000   0.000   0.000   0.000   0.012   0.000   0.000   0.000   0.000   0.000   0.031   0.000
  0.000  -0.000   0.005   0.000  -0.017   0.000   0.000   0.001   0.000   0.010  -0.006   0.001   0.000   0.003   0.000   0.000
  0.000  -0.000  -0.016   0.000  -0.050   0.000   0.000  -0.015   0.000  -0.006   1.698  -0.128   0.000   0.227   0.000  -0.000
  0.000  -0.000   0.015   0.000   0.010   0.000  -0.000  -0.000   0.000   0.001  -0.128   0.016  -0.000  -0.028   0.000   0.000
  0.000   0.023   0.000   0.000  -0.000   0.000   0.021   0.000   0.000   0.000   0.000  -0.000   0.213   0.000   0.000  -0.013
  0.000   0.000   0.070   0.000   0.022   0.000   0.000   0.020   0.000   0.003   0.227  -0.028   0.000   0.110   0.000  -0.000
 -0.000   0.000   0.000   0.066   0.000  -0.000   0.000   0.000   0.031   0.000   0.000   0.000   0.000   0.000   0.149   0.000
  0.000  -0.022   0.000   0.000   0.000   0.000  -0.001  -0.000   0.000   0.000  -0.000   0.000  -0.013  -0.000   0.000   0.001
  0.000  -0.000  -0.027   0.000  -0.001   0.000  -0.000  -0.001   0.000  -0.000  -0.029   0.003  -0.000  -0.010   0.000   0.000
 -0.000   0.000   0.000  -0.025   0.000   0.000   0.000   0.000  -0.002   0.000   0.000   0.000   0.000   0.000  -0.010   0.000
 total augmentation occupancy for first ion, spin component:           2
  0.000   0.000   0.000   0.000   0.000   0.000   0.000   0.000   0.000   0.000   0.000   0.000   0.000   0.000   0.000   0.000
  0.000  -0.000  -0.000   0.000   0.000   0.000  -0.000  -0.000   0.000   0.000  -0.000   0.000   0.000  -0.000   0.000  -0.000
  0.000  -0.000   0.000   0.000   0.000   0.000  -0.000   0.000   0.000  -0.000   0.000  -0.000  -0.000  -0.000   0.000   0.000
  0.000   0.000   0.000  -0.000   0.000   0.000   0.000   0.000  -0.000   0.000   0.000   0.000   0.000   0.000   0.000   0.000
  0.000   0.000   0.000   0.000   0.000   0.000   0.000  -0.000   0.000   0.000   0.000   0.000   0.000  -0.000   0.000  -0.000
  0.000   0.000   0.000   0.000   0.000  -0.000   0.000   0.000  -0.000   0.000   0.000   0.000   0.000   0.000  -0.000   0.000
  0.000  -0.000  -0.000   0.000   0.000   0.000   0.000  -0.000   0.000   0.000  -0.000   0.000  -0.000  -0.000   0.000   0.000
  0.000  -0.000   0.000   0.000  -0.000   0.000  -0.000  -0.000   0.000   0.000  -0.000   0.000  -0.000   0.000   0.000   0.000
  0.000   0.000   0.000  -0.000   0.000  -0.000   0.000   0.000  -0.000   0.000   0.000   0.000   0.000   0.000  -0.000   0.000
  0.000   0.000  -0.000   0.000   0.000   0.000   0.000   0.000   0.000  -0.000  -0.000   0.000   0.000  -0.000   0.000  -0.000
  0.000  -0.000   0.000   0.000   0.000   0.000  -0.000  -0.000   0.000  -0.000  -0.000   0.000  -0.000  -0.000   0.000   0.000
  0.000   0.000  -0.000   0.000   0.000   0.000   0.000   0.000   0.000   0.000   0.000  -0.000   0.000   0.000   0.000  -0.000
  0.000   0.000  -0.000   0.000   0.000   0.000  -0.000  -0.000   0.000   0.000  -0.000   0.000   0.000   0.000   0.000  -0.000
  0.000  -0.000  -0.000   0.000  -0.000   0.000  -0.000   0.000   0.000  -0.000  -0.000   0.000   0.000  -0.000   0.000   0.000
  0.000   0.000   0.000   0.000   0.000  -0.000   0.000   0.000  -0.000   0.000   0.000   0.000   0.000   0.000  -0.000   0.000
  0.000  -0.000   0.000   0.000  -0.000   0.000   0.000   0.000   0.000  -0.000   0.000  -0.000  -0.000   0.000   0.000   0.000
  0.000   0.000   0.000   0.000   0.000   0.000   0.000  -0.000   0.000   0.000   0.000   0.000   0.000   0.000   0.000  -0.000
 -0.000   0.000   0.000  -0.000   0.000   0.000   0.000   0.000   0.000   0.000   0.000   0.000   0.000   0.000  -0.000   0.000


------------------------ aborting loop because EDIFF is reached ----------------------------------------


    CHARGE:  cpu time      0.0520: real time      0.0522
    FORLOC:  cpu time      0.0012: real time      0.0012
    FORNL :  cpu time      0.1439: real time      0.1447
    STRESS:  cpu time      0.1612: real time      0.1620
    FORCOR:  cpu time      0.0160: real time      0.0161
    FORHAR:  cpu time      0.0028: real time      0.0028
    MIXING:  cpu time      0.0005: real time      0.0005
    OFIELD:  cpu time      0.0000: real time      0.0000

 ---------------------------------------------------------------------------------------------

         DFTD3 V3.0 Rev 1        
 Edisp (eV)   -3.20502

 E6    (eV) :    -1.3082
 E8    (eV) :    -1.8968
 % E8        : 59.18
    FORVDW:  cpu time      0.0500: real time      0.0502

  FORCE on cell =-STRESS in cart. coord.  units (eV):
  Direction    XX          YY          ZZ          XY          YZ          ZX
  --------------------------------------------------------------------------------------
  Alpha Z   216.17040   216.17040   216.17040
  Ewald   47987.12971 48109.51073-53833.98753     0.00000     3.10363     0.00000
  Hartree 51055.20498 51149.08661-49214.49526    -0.00000     0.48166    -0.00000
  E(xc)    -520.37170  -520.23504  -520.65011    -0.00000     0.03725    -0.00000
  Local  ************************102042.69405    -0.00000    -2.33949    -0.00000
  n-local  -179.67230  -175.24834  -180.59367     6.82699    -0.16411     0.00358
  augment   755.27288   758.57377   757.74038     0.00000    -0.01105    -0.00000
  Kinetic   738.27103   739.89182   735.56784     6.63821    -1.16284     0.00882
  Fock        0.00000     0.00000     0.00000     0.00000     0.00000     0.00000
  vdW        -3.85980    -3.89587    -2.85375     0.00000     0.00828     0.00000
  -------------------------------------------------------------------------------------
  Total      -4.93201    -4.50045    -0.40765     0.00000    -0.04666     0.00000
  in kB     -35.36051   -32.26638    -2.92267     0.00000    -0.33454     0.00000
  external pressure =      -23.52 kB  Pullay stress =        0.00 kB


 VOLUME and BASIS-vectors are now :
 -----------------------------------------------------------------------------
  energy-cutoff  :      400.00
  volume of cell :      223.47
      direct lattice vectors                 reciprocal lattice vectors
     3.630000114  0.000000000  0.000000000     0.275482085  0.000000000  0.000000000
     0.000000000  2.566797733  0.000000000     0.000000000  0.389590495  0.000000000
     0.000000000  0.000000000 23.983791351     0.000000000  0.000000000  0.041694826

  length of vectors
     3.630000114  2.566797733 23.983791351     0.275482085  0.389590495  0.041694826


 FORCES acting on ions
    electron-ion (+dipol)            ewald-force                    non-local-force                 convergence-correction
 -----------------------------------------------------------------------------------------------
   -.439E-13 0.215E-03 0.460E+04   -.743E-07 0.400E-02 -.459E+04   0.000E+00 -.455E-02 -.617E+01   -.134E-11 -.666E-03 -.563E-03
   0.737E-06 -.715E-01 0.352E+04   0.134E-06 0.701E-01 -.352E+04   0.000E+00 0.272E-02 0.140E+01   0.217E-10 -.914E-03 -.381E-01
   -.499E-13 -.153E-01 0.208E+04   -.125E-06 0.204E-01 -.208E+04   0.000E+00 -.582E-02 -.112E+01   0.178E-11 -.564E-03 -.757E-01
   0.753E-06 0.475E-01 0.772E+03   0.129E-06 -.488E-01 -.772E+03   0.000E+00 -.371E-02 0.239E+00   0.417E-11 0.174E-02 -.104E+00
   -.560E-13 0.997E-01 -.583E+03   -.129E-06 -.102E+00 0.584E+03   0.000E+00 -.261E-02 -.210E+00   -.370E-12 0.174E-02 -.988E-01
   0.759E-06 -.624E-01 -.189E+04   0.125E-06 0.600E-01 0.189E+04   0.000E+00 0.670E-04 0.126E+01   -.248E-10 0.212E-03 -.908E-01
   -.357E-13 -.576E-01 -.333E+04   -.133E-06 0.664E-01 0.333E+04   0.000E+00 -.101E-01 -.143E+01   -.186E-12 0.430E-04 -.621E-01
   0.800E-06 0.305E+00 -.442E+04   0.718E-07 -.335E+00 0.441E+04   0.000E+00 0.308E-01 0.666E+01   -.229E-10 -.758E-03 -.495E-02
   0.290E-07 0.276E+01 -.375E+03   0.166E-08 -.356E+01 0.371E+03   0.000E+00 0.815E+00 0.482E+01   0.635E-12 0.392E-04 0.398E-02
   0.319E-07 -.302E+01 -.371E+03   0.455E-09 0.383E+01 0.376E+03   0.000E+00 -.826E+00 -.482E+01   0.452E-12 -.528E-04 0.378E-02
 -----------------------------------------------------------------------------------------------
   0.311E-05 -.124E-01 -.201E+00   0.318E-13 0.671E-13 0.909E-12   0.000E+00 -.522E-02 0.633E+00   -.208E-10 0.814E-03 -.468E+00
 
 
 POSITION                                       TOTAL-FORCE (eV/Angst)
 -----------------------------------------------------------------------------------
      0.00000      0.00477     -0.02734         0.000000      0.001079     -0.002809
      1.81500      1.28976      1.10852         0.000000      0.002799     -0.009703
      0.00000      0.01157      2.40784         0.000000      0.000616     -0.001130
      1.81500      1.29992      3.65595         0.000000     -0.002196     -0.005026
      0.00000      0.01957      4.92114         0.000000     -0.001584      0.008940
      1.81500      1.30294      6.17089         0.000000     -0.000626      0.000295
      0.00000      0.01996      7.46978         0.000000      0.000479     -0.002200
      1.81500      1.30385      8.60101         0.000000     -0.000388     -0.005620
      3.63000      1.42478     10.62118         0.000000      0.003557     -0.009318
      3.63000      1.55078     11.36874         0.000000     -0.003735      0.026570
 -----------------------------------------------------------------------------------
    total drift:                                0.000003     -0.016775     -0.035707


--------------------------------------------------------------------------------------------------------



  FREE ENERGIE OF THE ION-ELECTRON SYSTEM (eV)
  ---------------------------------------------------
  free  energy   TOTEN  =       -38.54331401 eV

  energy  without entropy=      -38.53868781  energy(sigma->0) =      -38.54177194
 
 d Force =-0.1944872E-06[-0.507E-05, 0.468E-05]  d Energy = 0.4556984E-05-0.475E-05
 d Force = 0.3029636E+00[ 0.303E+00, 0.303E+00]  d Ewald  = 0.3029636E+00-0.378E-09


--------------------------------------------------------------------------------------------------------


    POTLOK:  cpu time      0.0249: real time      0.0250


--------------------------------------------------------------------------------------------------------


 stress matrix after NEB project (eV)
     -4.93201      0.00000      0.00000
      0.00000     -4.50045     -0.04666
      0.00000     -0.04666     -0.40765
  FORCES: max atom, RMS     0.026831    0.010401
  FORCE total and by dimension    0.032892    0.026570
  Stress total and by dimension    6.689492    4.932011


--------------------------------------------------------------------------------------------------------


  
 reached required accuracy - stopping structural energy minimisation
     LOOP+:  cpu time      0.9945: real time      1.0432
    4ORBIT:  cpu time      0.0000: real time      0.0000

 total amount of memory used by VASP MPI-rank0    35069. kBytes
=======================================================================

   base      :      30000. kBytes
   nonl-proj :       1086. kBytes
   fftplans  :        642. kBytes
   grid      :       1621. kBytes
   one-center:         62. kBytes
   wavefun   :       1658. kBytes
 
  
  
 General timing and accounting informations for this job:
 ========================================================
  
                  Total CPU time used (sec):      150.108
                            User time (sec):      149.605
                          System time (sec):        0.503
                         Elapsed time (sec):      155.334
  
                   Maximum memory used (kb):      232060.
                   Average memory used (kb):          N/A
  
                          Minor page faults:       125035
                          Major page faults:         6647
                 Voluntary context switches:         4865
