<?xml version="1.0" encoding="ISO-8859-1"?>
<modeling>
 <generator>
  <i name="program" type="string">vasp </i>
  <i name="version" type="string">6.3.2  </i>
  <i name="subversion" type="string">27Jun22 (build Aug 17 2022 15:43:34) complex                          parallel </i>
  <i name="platform" type="string">tv2STDVTST </i>
  <i name="date" type="string">2025 02 04 </i>
  <i name="time" type="string">13:40:27 </i>
 </generator>
 <incar>
  <i type="int" name="ISTART">     0</i>
  <i type="string" name="PREC">Normal</i>
  <i type="int" name="ISPIN">     2</i>
  <i type="int" name="ICHARG">     2</i>
  <i type="int" name="IBRION">     2</i>
  <i name="EDIFF">      0.00020000</i>
  <i name="EDIFFG">     -0.03000000</i>
  <i type="int" name="NSW">   800</i>
  <i type="int" name="ISIF">     2</i>
  <i type="int" name="ISYM">     1</i>
  <i name="ENCUT">    400.00000000</i>
  <i name="POTIM">      0.50000000</i>
  <i type="logical" name="LREAL"> F  </i>
  <i type="int" name="ISMEAR">     1</i>
  <i name="SIGMA">      0.20000000</i>
  <i type="logical" name="LWAVE"> F  </i>
  <i type="logical" name="LCHARG"> F  </i>
  <i type="string" name="GGA">PE</i>
  <i type="int" name="IVDW">    11</i>
 </incar>
 <primitive_cell>
  <structure name="primitive_cell" >
   <crystal>
    <varray name="basis" >
     <v>       3.63000011       0.00000000       0.00000000 </v>
     <v>       0.00000000       2.56679773       0.00000000 </v>
     <v>       0.00000000       0.00000000      23.98379135 </v>
    </varray>
    <i name="volume">    223.46840188 </i>
    <varray name="rec_basis" >
     <v>       0.27548208       0.00000000       0.00000000 </v>
     <v>       0.00000000       0.38959050       0.00000000 </v>
     <v>       0.00000000       0.00000000       0.04169483 </v>
    </varray>
   </crystal>
   <varray name="positions" >
    <v>       0.00000000       0.00000000       0.00000000 </v>
    <v>       0.50000000       0.50000000       0.05351109 </v>
    <v>       0.00000000       0.00000000       0.10468148 </v>
    <v>       0.50000000       0.50000000       0.15792996 </v>
    <v>       0.00000000       0.00000000       0.21070899 </v>
    <v>       0.50000000       0.50000000       0.26289048 </v>
    <v>       0.00000000       0.00000000       0.31711592 </v>
    <v>       0.50000000       0.50000000       0.36467590 </v>
    <v>       1.00000000       0.50000000       0.42690792 </v>
    <v>       1.00000000       0.70550963       0.44890201 </v>
   </varray>
  </structure>
  <varray name="primitive_index" >
   <v type="int" >        1 </v>
   <v type="int" >        2 </v>
   <v type="int" >        3 </v>
   <v type="int" >        4 </v>
   <v type="int" >        5 </v>
   <v type="int" >        6 </v>
   <v type="int" >        7 </v>
   <v type="int" >        8 </v>
   <v type="int" >        9 </v>
   <v type="int" >       10 </v>
  </varray>
 </primitive_cell>
 <kpoints>
  <generation param="Monkhorst-Pack">
   <v type="int" name="divisions">       3        3        1 </v>
   <v name="usershift">      0.00000000       0.00000000       0.00000000 </v>
   <v name="genvec1">      0.33333333       0.00000000       0.00000000 </v>
   <v name="genvec2">      0.00000000       0.33333333       0.00000000 </v>
   <v name="genvec3">      0.00000000       0.00000000       1.00000000 </v>
   <v name="shift">      0.00000000       0.00000000       0.00000000 </v>
  </generation>
  <varray name="kpointlist" >
   <v>       0.00000000       0.00000000       0.00000000 </v>
   <v>       0.33333333       0.00000000       0.00000000 </v>
   <v>       0.00000000       0.33333333       0.00000000 </v>
   <v>       0.33333333       0.33333333       0.00000000 </v>
  </varray>
  <varray name="weights" >
   <v>       0.11111111 </v>
   <v>       0.22222222 </v>
   <v>       0.22222222 </v>
   <v>       0.44444444 </v>
  </varray>
 </kpoints>
 <parameters>
  <separator name="general" >
   <i type="string" name="SYSTEM">unknown system</i>
   <i type="logical" name="LCOMPAT"> F  </i>
  </separator>
  <separator name="electronic" >
   <i type="string" name="PREC">normal</i>
   <i name="ENMAX">    400.00000000</i>
   <i name="ENAUG">    586.98000000</i>
   <i name="EDIFF">      0.00020000</i>
   <i type="int" name="IALGO">    38</i>
   <i type="int" name="IWAVPR">    11</i>
   <i type="int" name="NBANDS">    60</i>
   <i type="int" name="NBANDSLOW">    -1</i>
   <i type="int" name="NBANDSHIGH">    -1</i>
   <i name="NELECT">     90.00000000</i>
   <i type="int" name="TURBO">     0</i>
   <i type="int" name="IRESTART">     0</i>
   <i type="int" name="NREBOOT">     0</i>
   <i type="int" name="NMIN">     0</i>
   <i name="EREF">      0.00000000</i>
   <separator name="electronic smearing" >
    <i type="int" name="ISMEAR">     1</i>
    <i name="SIGMA">      0.20000000</i>
    <i name="KSPACING">      0.50000000</i>
    <i type="logical" name="KGAMMA"> T  </i>
    <i type="logical" name="KBLOWUP"> T  </i>
   </separator>
   <separator name="electronic projectors" >
    <i type="logical" name="LREAL"> F  </i>
    <v name="ROPT">      0.00000000      0.00000000</v>
    <i type="int" name="LMAXPAW">  -100</i>
    <i type="int" name="LMAXMIX">     2</i>
    <i type="logical" name="NLSPLINE"> F  </i>
   </separator>
   <separator name="electronic startup" >
    <i type="int" name="ISTART">     0</i>
    <i type="int" name="ICHARG">     2</i>
    <i type="int" name="INIWAV">     1</i>
   </separator>
   <separator name="electronic spin" >
    <i type="int" name="ISPIN">     2</i>
    <i type="logical" name="LNONCOLLINEAR"> F  </i>
    <v name="MAGMOM">      1.00000000      1.00000000      1.00000000      1.00000000      1.00000000      1.00000000      1.00000000      1.00000000      1.00000000      1.00000000</v>
    <i name="NUPDOWN">     -1.00000000</i>
    <i type="logical" name="LSORBIT"> F  </i>
    <v name="SAXIS">      0.00000000      0.00000000      1.00000000</v>
    <i type="logical" name="LSPIRAL"> F  </i>
    <v name="QSPIRAL">      0.00000000      0.00000000      0.00000000</v>
    <i type="logical" name="LZEROZ"> F  </i>
   </separator>
   <separator name="electronic exchange-correlation" >
    <i type="logical" name="LASPH"> F  </i>
    <i type="logical" name="LMETAGGA"> F  </i>
   </separator>
   <separator name="electronic convergence" >
    <i type="int" name="NELM">    60</i>
    <i type="int" name="NELMDL">    -5</i>
    <i type="int" name="NELMIN">     2</i>
    <i name="ENINI">    400.00000000</i>
    <separator name="electronic convergence detail" >
     <i type="logical" name="LDIAG"> T  </i>
     <i type="logical" name="LSUBROT"> F  </i>
     <i name="WEIMIN">      0.00100000</i>
     <i name="EBREAK">      0.00000083</i>
     <i name="DEPER">      0.30000000</i>
     <i type="int" name="NRMM">     4</i>
     <i name="TIME">      0.40000000</i>
    </separator>
   </separator>
   <separator name="electronic mixer" >
    <i name="AMIX">      0.40000000</i>
    <i name="BMIX">      1.00000000</i>
    <i name="AMIN">      0.10000000</i>
    <i name="AMIX_MAG">      1.60000000</i>
    <i name="BMIX_MAG">      1.00000000</i>
    <separator name="electronic mixer details" >
     <i type="int" name="IMIX">     4</i>
     <i type="logical" name="MIXFIRST"> F  </i>
     <i type="int" name="MAXMIX">   -45</i>
     <i name="WC">    100.00000000</i>
     <i type="int" name="INIMIX">     1</i>
     <i type="int" name="MIXPRE">     1</i>
     <i type="int" name="MREMOVE">     5</i>
    </separator>
   </separator>
   <separator name="electronic dipolcorrection" >
    <i type="logical" name="LDIPOL"> F  </i>
    <i type="logical" name="LMONO"> F  </i>
    <i type="int" name="IDIPOL">     0</i>
    <i name="EPSILON">      1.00000000</i>
    <v name="DIPOL">   -100.00000000   -100.00000000   -100.00000000</v>
    <i name="EFIELD">      0.00000000</i>
   </separator>
  </separator>
  <separator name="grids" >
   <i type="int" name="NGX">    18</i>
   <i type="int" name="NGY">    14</i>
   <i type="int" name="NGZ">   120</i>
   <i type="int" name="NGXF">    36</i>
   <i type="int" name="NGYF">    28</i>
   <i type="int" name="NGZF">   240</i>
   <i type="logical" name="ADDGRID"> F  </i>
  </separator>
  <separator name="ionic" >
   <i type="int" name="NSW">   800</i>
   <i type="int" name="IBRION">     2</i>
   <i type="int" name="MDALGO">     0</i>
   <i type="int" name="ISIF">     2</i>
   <i name="PSTRESS">      0.00000000</i>
   <i name="EDIFFG">     -0.03000000</i>
   <i type="int" name="NFREE">     1</i>
   <i name="POTIM">      0.50000000</i>
   <i name="SMASS">     -3.00000000</i>
   <i name="SCALEE">      1.00000000</i>
  </separator>
  <separator name="ionic md" >
   <i name="TEBEG">      0.00010000</i>
   <i name="TEEND">      0.00010000</i>
   <i type="int" name="NBLOCK">     1</i>
   <i type="int" name="KBLOCK">   800</i>
   <i type="int" name="NPACO">   256</i>
   <i name="APACO">     10.00000000</i>
  </separator>
  <separator name="symmetry" >
   <i type="int" name="ISYM">     1</i>
   <i name="SYMPREC">      0.00001000</i>
  </separator>
  <separator name="dos" >
   <i type="int" name="LORBIT">     0</i>
   <v name="RWIGS">     -1.00000000     -1.00000000</v>
   <i type="int" name="NEDOS">   301</i>
   <i name="EMIN">     10.00000000</i>
   <i name="EMAX">    -10.00000000</i>
   <i name="EFERMI">      0.00000000</i>
  </separator>
  <separator name="writing" >
   <i type="int" name="NWRITE">     2</i>
   <i type="logical" name="LWAVE"> F  </i>
   <i type="logical" name="LDOWNSAMPLE"> F  </i>
   <i type="logical" name="LCHARG"> F  </i>
   <i type="logical" name="LPARD"> F  </i>
   <i type="logical" name="LVTOT"> F  </i>
   <i type="logical" name="LVHAR"> F  </i>
   <i type="logical" name="LELF"> F  </i>
   <i type="logical" name="LOPTICS"> F  </i>
   <v name="STM">      0.00000000      0.00000000      0.00000000      0.00000000      0.00000000      0.00000000      0.00000000</v>
  </separator>
  <separator name="performance" >
   <i type="int" name="NPAR">     4</i>
   <i type="int" name="NSIM">     4</i>
   <i type="int" name="NBLK">    -1</i>
   <i type="logical" name="LPLANE"> T  </i>
   <i type="logical" name="LSCALAPACK"> T  </i>
   <i type="logical" name="LSCAAWARE"> F  </i>
   <i type="logical" name="LSCALU"> F  </i>
   <i type="logical" name="LASYNC"> F  </i>
   <i type="logical" name="LORBITALREAL"> F  </i>
  </separator>
  <separator name="miscellaneous" >
   <i type="int" name="IDIOT">     3</i>
   <i type="int" name="PHON_NSTRUCT">    -1</i>
   <i type="logical" name="LMUSIC"> F  </i>
   <v name="POMASS">     63.54600000      1.00000000</v>
   <v name="DARWINR">      0.00000000      0.00000000</v>
   <v name="DARWINV">      1.00000000      1.00000000</v>
   <i type="logical" name="LCORR"> T  </i>
  </separator>
  <i type="logical" name="GGA_COMPAT"> T  </i>
  <i type="logical" name="LBERRY"> F  </i>
  <i type="int" name="ICORELEVEL">     0</i>
  <i type="logical" name="LDAU"> F  </i>
  <i type="int" name="I_CONSTRAINED_M">     0</i>
  <separator name="electronic exchange-correlation" >
   <i type="string" name="GGA">PE</i>
   <i type="int" name="VOSKOWN">     0</i>
   <i type="logical" name="LHFCALC"> F  </i>
   <i type="string" name="PRECFOCK"></i>
   <i type="logical" name="LSYMGRAD"> F  </i>
   <i type="logical" name="LHFONE"> F  </i>
   <i type="logical" name="LRHFCALC"> F  </i>
   <i type="logical" name="LTHOMAS"> F  </i>
   <i type="logical" name="LMODELHF"> F  </i>
   <i type="logical" name="LFOCKACE"> F  </i>
   <i name="ENCUT4O">     -1.00000000</i>
   <i type="int" name="EXXOEP">     0</i>
   <i type="int" name="FOURORBIT">     0</i>
   <i name="AEXX">      0.00000000</i>
   <i name="HFALPHA">      0.00000000</i>
   <i name="MCALPHA">      0.00000000</i>
   <i name="ALDAX">      1.00000000</i>
   <i name="AGGAX">      1.00000000</i>
   <i name="ALDAC">      1.00000000</i>
   <i name="AGGAC">      1.00000000</i>
   <i type="int" name="NKREDX">     1</i>
   <i type="int" name="NKREDY">     1</i>
   <i type="int" name="NKREDZ">     1</i>
   <i type="logical" name="SHIFTRED"> F  </i>
   <i type="logical" name="ODDONLY"> F  </i>
   <i type="logical" name="EVENONLY"> F  </i>
   <i type="int" name="LMAXFOCK">     0</i>
   <i type="int" name="NMAXFOCKAE">     0</i>
   <i type="logical" name="LFOCKAEDFT"> F  </i>
   <i name="HFSCREEN">      0.00000000</i>
   <i name="HFSCREENC">      0.00000000</i>
   <i type="int" name="NBANDSGWLOW">     0</i>
  </separator>
  <separator name="vdW DFT" >
   <i type="logical" name="LUSE_VDW"> F  </i>
   <i name="Zab_VDW">     -0.84910000</i>
   <i name="PARAM1">      0.12340000</i>
   <i name="PARAM2">      1.00000000</i>
   <i name="PARAM3">      0.00000000</i>
  </separator>
  <separator name="model GW" >
   <i type="int" name="MODEL_GW">     0</i>
   <i name="MODEL_EPS0">     13.40810411</i>
   <i name="MODEL_ALPHA">      1.00000000</i>
  </separator>
  <separator name="linear response parameters" >
   <i type="logical" name="LEPSILON"> F  </i>
   <i type="logical" name="LRPA"> F  </i>
   <i type="logical" name="LNABLA"> F  </i>
   <i type="logical" name="LVEL"> F  </i>
   <i name="CSHIFT">      0.10000000</i>
   <i name="OMEGAMAX">     -1.00000000</i>
   <i name="DEG_THRESHOLD">      0.00200000</i>
   <i name="RTIME">     -0.10000000</i>
   <i name="WPLASMAI">      0.00000000</i>
   <v name="DFIELD">      0.00000000      0.00000000      0.00000000</v>
   <v name="WPLASMA">      0.00000000      0.00000000      0.00000000      0.00000000      0.00000000      0.00000000      0.00000000      0.00000000      0.00000000</v>
  </separator>
  <separator name="orbital magnetization" >
   <i type="logical" name="NUCIND"> F  </i>
   <v name="MAGPOS">      0.00000000      0.00000000      0.00000000</v>
   <i type="logical" name="LNICSALL"> T  </i>
   <i type="logical" name="ORBITALMAG"> F  </i>
   <i type="logical" name="LMAGBLOCH"> F  </i>
   <i type="logical" name="LCHIMAG"> F  </i>
   <i type="logical" name="LGAUGE"> T  </i>
   <i type="int" name="MAGATOM">     0</i>
   <v name="MAGDIPOL">      0.00000000      0.00000000      0.00000000</v>
   <v name="AVECCONST">      0.00000000      0.00000000      0.00000000</v>
  </separator>
  <separator name="response functions" >
   <i type="logical" name="LFINITE_TEMPERATURE"> F  </i>
   <i type="logical" name="LADDER"> F  </i>
   <i type="logical" name="LRPAFORCE"> F  </i>
   <i type="logical" name="LFXC"> F  </i>
   <i type="logical" name="LHARTREE"> T  </i>
   <i type="int" name="IBSE">     0</i>
   <v type="int" name="KPOINT">    -1     0     0     0</v>
   <i type="logical" name="LTCTC"> F  </i>
   <i type="logical" name="LTCTE"> F  </i>
   <i type="logical" name="LTETE"> F  </i>
   <i type="logical" name="LTRIPLET"> F  </i>
   <i type="logical" name="LFXCEPS"> F  </i>
   <i type="logical" name="LFXHEG"> F  </i>
   <i type="int" name="NATURALO">     2</i>
   <i type="logical" name="LHOLEGF"> F  </i>
   <i type="logical" name="L2ORDER"> F  </i>
   <i type="logical" name="LDMP1"> F  </i>
   <i type="logical" name="LMP2LT"> F  </i>
   <i type="logical" name="LSMP2LT"> F  </i>
   <i type="logical" name="LGWLF"> F  </i>
   <i name="ENCUTGW">     -2.00000000</i>
   <i name="ENCUTGWSOFT">     -2.00000000</i>
   <i name="ENCUTLF">     -1.00000000</i>
   <i type="logical" name="LESF_SPLINES"> F  </i>
   <i type="int" name="LMAXMP2">    -1</i>
   <i name="SCISSOR">      0.00000000</i>
   <i type="int" name="NOMEGA">     0</i>
   <i type="int" name="NOMEGAR">     0</i>
   <i type="int" name="NBANDSGW">    -1</i>
   <i type="int" name="NBANDSO">    -1</i>
   <i type="int" name="NBANDSV">    -1</i>
   <i type="int" name="NELMGW">     1</i>
   <i type="int" name="NELMHF">     1</i>
   <i type="int" name="DIM">     3</i>
   <i type="int" name="IESPILON">     4</i>
   <i type="int" name="ANTIRES">     0</i>
   <i name="OMEGAMAX">    -30.00000000</i>
   <i name="OMEGAMIN">    -30.00000000</i>
   <i name="OMEGATL">   -200.00000000</i>
   <i type="int" name="OMEGAGRID">     0</i>
   <i name="CSHIFT">     -0.10000000</i>
   <i type="logical" name="LSELFENERGY"> F  </i>
   <i type="logical" name="LSPECTRAL"> F  </i>
   <i type="logical" name="LSPECTRALGW"> F  </i>
   <i type="logical" name="LSINGLES"> F  </i>
   <i type="logical" name="LFERMIGW"> F  </i>
   <i type="logical" name="ODDONLYGW"> F  </i>
   <i type="logical" name="EVENONLYGW"> F  </i>
   <i type="int" name="NKREDLFX">     1</i>
   <i type="int" name="NKREDLFY">     1</i>
   <i type="int" name="NKREDLFZ">     1</i>
   <i type="int" name="MAXMEM">  2800</i>
   <i type="int" name="TELESCOPE">     0</i>
   <i type="int" name="NTAUPAR">    -1</i>
   <i type="int" name="NOMEGAPAR">    -1</i>
   <i name="DAMP_NEWTON">      0.80000001</i>
   <i name="LAMBDA">      1.00000000</i>
  </separator>
  <separator name="External order field" >
   <i name="OFIELD_KAPPA">      0.00000000</i>
   <v name="OFIELD_K">      0.00000000      0.00000000      0.00000000</v>
   <i name="OFIELD_Q6_NEAR">      0.00000000</i>
   <i name="OFIELD_Q6_FAR">      0.00000000</i>
   <i name="OFIELD_A">      0.00000000</i>
  </separator>
  <separator name="optional k-points parameters" >
   <i type="int" name="KPOINTS_OPT_MODE">     1</i>
   <i type="logical" name="LKPOINTS_OPT"> F  </i>
  </separator>
 </parameters>
 <atominfo>
  <atoms>      10 </atoms>
  <types>       2 </types>
  <array name="atoms" >
   <dimension dim="1">ion</dimension>
   <field type="string">element</field>
   <field type="int">atomtype</field>
   <set>
    <rc><c>Cu</c><c>   1</c></rc>
    <rc><c>Cu</c><c>   1</c></rc>
    <rc><c>Cu</c><c>   1</c></rc>
    <rc><c>Cu</c><c>   1</c></rc>
    <rc><c>Cu</c><c>   1</c></rc>
    <rc><c>Cu</c><c>   1</c></rc>
    <rc><c>Cu</c><c>   1</c></rc>
    <rc><c>Cu</c><c>   1</c></rc>
    <rc><c>H </c><c>   2</c></rc>
    <rc><c>H </c><c>   2</c></rc>
   </set>
  </array>
  <array name="atomtypes" >
   <dimension dim="1">type</dimension>
   <field type="int">atomspertype</field>
   <field type="string">element</field>
   <field>mass</field>
   <field>valence</field>
   <field type="string">pseudopotential</field>
   <set>
    <rc><c>   8</c><c>Cu</c><c>     63.54600000</c><c>     11.00000000</c><c>  PAW_PBE Cu 22Jun2005                  </c></rc>
    <rc><c>   2</c><c>H </c><c>      1.00000000</c><c>      1.00000000</c><c>  PAW_PBE H 15Jun2001                   </c></rc>
   </set>
  </array>
 </atominfo>
 <structure name="initialpos" >
  <crystal>
   <varray name="basis" >
    <v>       3.63000011       0.00000000       0.00000000 </v>
    <v>       0.00000000       2.56679773       0.00000000 </v>
    <v>       0.00000000       0.00000000      23.98379135 </v>
   </varray>
   <i name="volume">    223.46840188 </i>
   <varray name="rec_basis" >
    <v>       0.27548208       0.00000000       0.00000000 </v>
    <v>       0.00000000       0.38959050       0.00000000 </v>
    <v>       0.00000000       0.00000000       0.04169483 </v>
   </varray>
  </crystal>
  <varray name="positions" >
   <v>       0.00000000       0.00000000       0.00000000 </v>
   <v>       0.50000000       0.50000000       0.05351109 </v>
   <v>       0.00000000       0.00000000       0.10468148 </v>
   <v>       0.50000000       0.50000000       0.15792996 </v>
   <v>       0.00000000       0.00000000       0.21070899 </v>
   <v>       0.50000000       0.50000000       0.26289048 </v>
   <v>       0.00000000       0.00000000       0.31711592 </v>
   <v>       0.50000000       0.50000000       0.36467590 </v>
   <v>       1.00000000       0.50000000       0.42690792 </v>
   <v>       1.00000000       0.70550963       0.44890201 </v>
  </varray>
 </structure>
 <calculation>
  <scstep>
   <time name="dav">    0.32    0.32</time>
   <time name="total">    0.35    0.35</time>
   <energy>
    <i name="alphaZ">    216.17040255 </i>
    <i name="ewald">  42283.25937589 </i>
    <i name="hartreedc"> -53106.78975674 </i>
    <i name="XCdc">    371.27832534 </i>
    <i name="pawpsdc">   9828.36862813 </i>
    <i name="pawaedc"> -10674.97285505 </i>
    <i name="eentropy">      0.00891802 </i>
    <i name="bandstr">    701.06599455 </i>
    <i name="atom">  11152.61838693 </i>
    <i name="e_fr_energy">    771.00741962 </i>
    <i name="e_wo_entrp">    770.99850160 </i>
    <i name="e_0_energy">    771.00444695 </i>
   </energy>
  </scstep>
  <scstep>
   <time name="dav">    0.31    0.31</time>
   <time name="total">    0.31    0.31</time>
   <energy>
    <i name="e_fr_energy">     58.18624130 </i>
    <i name="e_wo_entrp">     58.18253058 </i>
    <i name="e_0_energy">     58.18500439 </i>
   </energy>
  </scstep>
  <scstep>
   <time name="dav">    0.31    0.31</time>
   <time name="total">    0.31    0.31</time>
   <energy>
    <i name="e_fr_energy">    -30.87780262 </i>
    <i name="e_wo_entrp">    -30.87277190 </i>
    <i name="e_0_energy">    -30.87612572 </i>
   </energy>
  </scstep>
  <scstep>
   <time name="dav">    0.35    0.35</time>
   <time name="total">    0.35    0.36</time>
   <energy>
    <i name="e_fr_energy">    -34.62041231 </i>
    <i name="e_wo_entrp">    -34.61379791 </i>
    <i name="e_0_energy">    -34.61820751 </i>
   </energy>
  </scstep>
  <scstep>
   <time name="dav">    0.34    0.35</time>
   <time name="total">    0.40    0.40</time>
   <energy>
    <i name="e_fr_energy">    -34.70453639 </i>
    <i name="e_wo_entrp">    -34.69798515 </i>
    <i name="e_0_energy">    -34.70235264 </i>
   </energy>
  </scstep>
  <scstep>
   <time name="dav">    0.33    0.34</time>
   <time name="total">    0.41    0.42</time>
   <energy>
    <i name="e_fr_energy">    -29.56927867 </i>
    <i name="e_wo_entrp">    -29.56301103 </i>
    <i name="e_0_energy">    -29.56718946 </i>
   </energy>
  </scstep>
  <scstep>
   <time name="dav">    0.35    0.35</time>
   <time name="total">    0.42    0.42</time>
   <energy>
    <i name="e_fr_energy">    -27.12228730 </i>
    <i name="e_wo_entrp">    -27.10257250 </i>
    <i name="e_0_energy">    -27.11571570 </i>
   </energy>
  </scstep>
  <scstep>
   <time name="dav">    0.38    0.38</time>
   <time name="total">    0.45    0.46</time>
   <energy>
    <i name="e_fr_energy">    -26.74850538 </i>
    <i name="e_wo_entrp">    -26.74012454 </i>
    <i name="e_0_energy">    -26.74571177 </i>
   </energy>
  </scstep>
  <scstep>
   <time name="dav">    0.46    0.47</time>
   <time name="total">    0.54    0.54</time>
   <energy>
    <i name="e_fr_energy">    -26.20198640 </i>
    <i name="e_wo_entrp">    -26.18632673 </i>
    <i name="e_0_energy">    -26.19676651 </i>
   </energy>
  </scstep>
  <scstep>
   <time name="dav">    0.40    0.40</time>
   <time name="total">    0.47    0.48</time>
   <energy>
    <i name="e_fr_energy">    -26.85603159 </i>
    <i name="e_wo_entrp">    -26.84632102 </i>
    <i name="e_0_energy">    -26.85279473 </i>
   </energy>
  </scstep>
  <scstep>
   <time name="dav">    0.37    0.37</time>
   <time name="total">    0.45    0.45</time>
   <energy>
    <i name="e_fr_energy">    -28.49291431 </i>
    <i name="e_wo_entrp">    -28.48086590 </i>
    <i name="e_0_energy">    -28.48889817 </i>
   </energy>
  </scstep>
  <scstep>
   <time name="dav">    0.36    0.36</time>
   <time name="total">    0.43    0.44</time>
   <energy>
    <i name="e_fr_energy">    -29.51882241 </i>
    <i name="e_wo_entrp">    -29.50861969 </i>
    <i name="e_0_energy">    -29.51542150 </i>
   </energy>
  </scstep>
  <scstep>
   <time name="dav">    0.38    0.39</time>
   <time name="total">    0.46    0.46</time>
   <energy>
    <i name="e_fr_energy">    -31.77252976 </i>
    <i name="e_wo_entrp">    -31.76021089 </i>
    <i name="e_0_energy">    -31.76842347 </i>
   </energy>
  </scstep>
  <scstep>
   <time name="dav">    0.36    0.37</time>
   <time name="total">    0.44    0.44</time>
   <energy>
    <i name="e_fr_energy">    -33.70568443 </i>
    <i name="e_wo_entrp">    -33.69545003 </i>
    <i name="e_0_energy">    -33.70227297 </i>
   </energy>
  </scstep>
  <scstep>
   <time name="dav">    0.35    0.35</time>
   <time name="total">    0.42    0.42</time>
   <energy>
    <i name="e_fr_energy">    -34.36165564 </i>
    <i name="e_wo_entrp">    -34.35834248 </i>
    <i name="e_0_energy">    -34.36055125 </i>
   </energy>
  </scstep>
  <scstep>
   <time name="dav">    0.34    0.34</time>
   <time name="total">    0.42    0.42</time>
   <energy>
    <i name="e_fr_energy">    -34.56777745 </i>
    <i name="e_wo_entrp">    -34.56800555 </i>
    <i name="e_0_energy">    -34.56785349 </i>
   </energy>
  </scstep>
  <scstep>
   <time name="dav">    0.34    0.35</time>
   <time name="total">    0.42    0.42</time>
   <energy>
    <i name="e_fr_energy">    -34.74903984 </i>
    <i name="e_wo_entrp">    -34.75199677 </i>
    <i name="e_0_energy">    -34.75002548 </i>
   </energy>
  </scstep>
  <scstep>
   <time name="dav">    0.35    0.35</time>
   <time name="total">    0.42    0.42</time>
   <energy>
    <i name="e_fr_energy">    -34.81269474 </i>
    <i name="e_wo_entrp">    -34.81604974 </i>
    <i name="e_0_energy">    -34.81381308 </i>
   </energy>
  </scstep>
  <scstep>
   <time name="dav">    0.35    0.35</time>
   <time name="total">    0.42    0.42</time>
   <energy>
    <i name="e_fr_energy">    -34.89925793 </i>
    <i name="e_wo_entrp">    -34.90199830 </i>
    <i name="e_0_energy">    -34.90017139 </i>
   </energy>
  </scstep>
  <scstep>
   <time name="dav">    0.35    0.36</time>
   <time name="total">    0.43    0.43</time>
   <energy>
    <i name="e_fr_energy">    -34.94050791 </i>
    <i name="e_wo_entrp">    -34.94295727 </i>
    <i name="e_0_energy">    -34.94132436 </i>
   </energy>
  </scstep>
  <scstep>
   <time name="dav">    0.35    0.36</time>
   <time name="total">    0.43    0.43</time>
   <energy>
    <i name="e_fr_energy">    -34.97681221 </i>
    <i name="e_wo_entrp">    -34.97896916 </i>
    <i name="e_0_energy">    -34.97753119 </i>
   </energy>
  </scstep>
  <scstep>
   <time name="dav">    0.31    0.31</time>
   <time name="total">    0.38    0.39</time>
   <energy>
    <i name="e_fr_energy">    -35.02514994 </i>
    <i name="e_wo_entrp">    -35.02698576 </i>
    <i name="e_0_energy">    -35.02576188 </i>
   </energy>
  </scstep>
  <scstep>
   <time name="dav">    0.31    0.31</time>
   <time name="total">    0.38    0.38</time>
   <energy>
    <i name="e_fr_energy">    -35.07478476 </i>
    <i name="e_wo_entrp">    -35.07638297 </i>
    <i name="e_0_energy">    -35.07531750 </i>
   </energy>
  </scstep>
  <scstep>
   <time name="dav">    0.29    0.30</time>
   <time name="total">    0.37    0.37</time>
   <energy>
    <i name="e_fr_energy">    -35.11152182 </i>
    <i name="e_wo_entrp">    -35.11291208 </i>
    <i name="e_0_energy">    -35.11198524 </i>
   </energy>
  </scstep>
  <scstep>
   <time name="dav">    0.27    0.27</time>
   <time name="total">    0.35    0.35</time>
   <energy>
    <i name="e_fr_energy">    -35.12601341 </i>
    <i name="e_wo_entrp">    -35.12725285 </i>
    <i name="e_0_energy">    -35.12642655 </i>
   </energy>
  </scstep>
  <scstep>
   <time name="dav">    0.28    0.28</time>
   <time name="total">    0.36    0.36</time>
   <energy>
    <i name="e_fr_energy">    -35.13125394 </i>
    <i name="e_wo_entrp">    -35.13248744 </i>
    <i name="e_0_energy">    -35.13166510 </i>
   </energy>
  </scstep>
  <scstep>
   <time name="dav">    0.25    0.25</time>
   <time name="total">    0.33    0.33</time>
   <energy>
    <i name="e_fr_energy">    -35.13220793 </i>
    <i name="e_wo_entrp">    -35.13330754 </i>
    <i name="e_0_energy">    -35.13257446 </i>
   </energy>
  </scstep>
  <scstep>
   <time name="dav">    0.25    0.25</time>
   <time name="total">    0.27    0.28</time>
   <energy>
    <i name="alphaZ">    216.17040255 </i>
    <i name="ewald">  42283.25937589 </i>
    <i name="hartreedc"> -53028.16207751 </i>
    <i name="XCdc">    362.18826111 </i>
    <i name="pawpsdc">  10505.27999208 </i>
    <i name="pawaedc"> -11366.89049597 </i>
    <i name="eentropy">      0.00110652 </i>
    <i name="bandstr">   -159.59721059 </i>
    <i name="atom">  11152.61838693 </i>
    <i name="e_fr_energy">    -35.13225899 </i>
    <i name="e_wo_entrp">    -35.13336551 </i>
    <i name="e_0_energy">    -35.13262783 </i>
   </energy>
  </scstep>
  <structure>
   <crystal>
    <varray name="basis" >
     <v>       3.63000011       0.00000000       0.00000000 </v>
     <v>       0.00000000       2.56679773       0.00000000 </v>
     <v>       0.00000000       0.00000000      23.98379135 </v>
    </varray>
    <i name="volume">    223.46840188 </i>
    <varray name="rec_basis" >
     <v>       0.27548208       0.00000000       0.00000000 </v>
     <v>       0.00000000       0.38959050       0.00000000 </v>
     <v>       0.00000000       0.00000000       0.04169483 </v>
    </varray>
   </crystal>
   <varray name="positions" >
    <v>       0.00000000       0.00000000       0.00000000 </v>
    <v>       0.50000000       0.50000000       0.05351109 </v>
    <v>       0.00000000       0.00000000       0.10468148 </v>
    <v>       0.50000000       0.50000000       0.15792996 </v>
    <v>       0.00000000       0.00000000       0.21070899 </v>
    <v>       0.50000000       0.50000000       0.26289048 </v>
    <v>       0.00000000       0.00000000       0.31711592 </v>
    <v>       0.50000000       0.50000000       0.36467590 </v>
    <v>       1.00000000       0.50000000       0.42690792 </v>
    <v>       1.00000000       0.70550963       0.44890201 </v>
   </varray>
  </structure>
  <varray name="forces" >
   <v>       0.00000000       0.00011707       0.51300315 </v>
   <v>       0.00000000       0.00009947      -0.46665604 </v>
   <v>       0.00000000      -0.00102730      -0.01140570 </v>
   <v>       0.00000000       0.00118617       0.07191841 </v>
   <v>       0.00000000      -0.00016079      -0.10926311 </v>
   <v>       0.00000000      -0.00472779       0.00483832 </v>
   <v>       0.00000000       0.02232879      -0.08304422 </v>
   <v>       0.00000000       0.03180419      -0.29416257 </v>
   <v>       0.00000000      -0.40793926      -0.31684150 </v>
   <v>       0.00000000       0.35831944       0.69161326 </v>
  </varray>
  <varray name="stress" >
   <v>     -38.63013178       0.00000000       0.00000000 </v>
   <v>       0.00000000     -33.13219595       0.59611043 </v>
   <v>       0.00000000       0.59611043      -4.49222143 </v>
  </varray>
  <energy>
   <i name="e_fr_energy">    -38.37912133 </i>
   <i name="e_wo_entrp">    -38.38022785 </i>
   <i name="e_0_energy">    -38.37949017 </i>
  </energy>
  <time name="totalsc">   11.67   11.77</time>
 </calculation>
 <calculation>
  <scstep>
   <time name="dav">    0.32    0.32</time>
   <time name="total">    0.39    0.40</time>
   <energy>
    <i name="alphaZ">    216.17040255 </i>
    <i name="ewald">  42389.67241658 </i>
    <i name="hartreedc"> -53135.21978453 </i>
    <i name="XCdc">    362.19034376 </i>
    <i name="pawpsdc">  10505.09950202 </i>
    <i name="pawaedc"> -11366.70205218 </i>
    <i name="eentropy">      0.00355195 </i>
    <i name="bandstr">   -158.96083129 </i>
    <i name="atom">  11152.61838693 </i>
    <i name="e_fr_energy">    -35.12806421 </i>
    <i name="e_wo_entrp">    -35.13161616 </i>
    <i name="e_0_energy">    -35.12924820 </i>
   </energy>
  </scstep>
  <scstep>
   <time name="dav">    0.39    0.39</time>
   <time name="total">    0.47    0.47</time>
   <energy>
    <i name="e_fr_energy">    -35.14135635 </i>
    <i name="e_wo_entrp">    -35.14391641 </i>
    <i name="e_0_energy">    -35.14220970 </i>
   </energy>
  </scstep>
  <scstep>
   <time name="dav">    0.34    0.34</time>
   <time name="total">    0.41    0.42</time>
   <energy>
    <i name="e_fr_energy">    -35.13977210 </i>
    <i name="e_wo_entrp">    -35.14326576 </i>
    <i name="e_0_energy">    -35.14093665 </i>
   </energy>
  </scstep>
  <scstep>
   <time name="dav">    0.37    0.37</time>
   <time name="total">    0.44    0.44</time>
   <energy>
    <i name="e_fr_energy">    -35.13902457 </i>
    <i name="e_wo_entrp">    -35.14199021 </i>
    <i name="e_0_energy">    -35.14001311 </i>
   </energy>
  </scstep>
  <scstep>
   <time name="dav">    0.41    0.41</time>
   <time name="total">    0.48    0.48</time>
   <energy>
    <i name="e_fr_energy">    -35.13891752 </i>
    <i name="e_wo_entrp">    -35.14233018 </i>
    <i name="e_0_energy">    -35.14005507 </i>
   </energy>
  </scstep>
  <scstep>
   <time name="dav">    0.25    0.25</time>
   <time name="total">    0.27    0.28</time>
   <energy>
    <i name="alphaZ">    216.17040255 </i>
    <i name="ewald">  42389.67241658 </i>
    <i name="hartreedc"> -53133.21177342 </i>
    <i name="XCdc">    362.09399807 </i>
    <i name="pawpsdc">  10507.62861147 </i>
    <i name="pawaedc"> -11369.30738004 </i>
    <i name="eentropy">      0.00332027 </i>
    <i name="bandstr">   -160.80693409 </i>
    <i name="atom">  11152.61838693 </i>
    <i name="e_fr_energy">    -35.13895169 </i>
    <i name="e_wo_entrp">    -35.14227195 </i>
    <i name="e_0_energy">    -35.14005844 </i>
   </energy>
  </scstep>
  <structure>
   <crystal>
    <varray name="basis" >
     <v>       3.63000011       0.00000000       0.00000000 </v>
     <v>       0.00000000       2.56679773       0.00000000 </v>
     <v>       0.00000000       0.00000000      23.98379135 </v>
    </varray>
    <i name="volume">    223.46840188 </i>
    <varray name="rec_basis" >
     <v>       0.27548208       0.00000000       0.00000000 </v>
     <v>       0.00000000       0.38959050       0.00000000 </v>
     <v>       0.00000000       0.00000000       0.04169483 </v>
    </varray>
   </crystal>
   <varray name="positions" >
    <v>       0.00000000       0.00000220       0.00103189 </v>
    <v>       0.50000000       0.50000187       0.05257243 </v>
    <v>       0.00000000      -0.00001931       0.10465853 </v>
    <v>       0.50000000       0.50002229       0.15807462 </v>
    <v>       0.00000000      -0.00000302       0.21048921 </v>
    <v>       0.50000000       0.49991114       0.26290021 </v>
    <v>       0.00000000       0.00041967       0.31694887 </v>
    <v>       0.50000000       0.50059776       0.36408420 </v>
    <v>       1.00000000       0.49233283       0.42627060 </v>
    <v>       1.00000000       0.71224420       0.45029317 </v>
   </varray>
  </structure>
  <varray name="forces" >
   <v>       0.00000000       0.00092478       0.35261417 </v>
   <v>       0.00000000       0.00058749      -0.27956593 </v>
   <v>       0.00000000      -0.00025209       0.00584592 </v>
   <v>       0.00000000       0.00127314      -0.01630753 </v>
   <v>       0.00000000      -0.00007966      -0.09022031 </v>
   <v>       0.00000000      -0.00194512      -0.05452941 </v>
   <v>       0.00000000       0.02049693      -0.08090057 </v>
   <v>       0.00000000       0.03152580      -0.16507938 </v>
   <v>       0.00000000       0.54164791       0.60981782 </v>
   <v>       0.00000000      -0.59417918      -0.28167477 </v>
  </varray>
  <varray name="stress" >
   <v>     -36.49853951       0.00000000       0.00000000 </v>
   <v>       0.00000000     -34.98976051      -3.25255958 </v>
   <v>       0.00000000      -3.25255974      -5.93208952 </v>
  </varray>
  <energy>
   <i name="e_fr_energy">    -38.39756224 </i>
   <i name="e_wo_entrp">    -38.40088251 </i>
   <i name="e_0_energy">    -38.39866900 </i>
  </energy>
  <time name="totalsc">    2.96    3.06</time>
 </calculation>
 <calculation>
  <scstep>
   <time name="dav">    0.32    0.32</time>
   <time name="total">    0.39    0.40</time>
   <energy>
    <i name="alphaZ">    216.17040255 </i>
    <i name="ewald">  42355.51062582 </i>
    <i name="hartreedc"> -53098.88480925 </i>
    <i name="XCdc">    362.09391499 </i>
    <i name="pawpsdc">  10507.71990531 </i>
    <i name="pawaedc"> -11369.40467949 </i>
    <i name="eentropy">      0.00260482 </i>
    <i name="bandstr">   -160.97389680 </i>
    <i name="atom">  11152.61838693 </i>
    <i name="e_fr_energy">    -35.14754513 </i>
    <i name="e_wo_entrp">    -35.15014995 </i>
    <i name="e_0_energy">    -35.14841340 </i>
   </energy>
  </scstep>
  <scstep>
   <time name="dav">    0.40    0.40</time>
   <time name="total">    0.47    0.48</time>
   <energy>
    <i name="e_fr_energy">    -35.14895745 </i>
    <i name="e_wo_entrp">    -35.15176644 </i>
    <i name="e_0_energy">    -35.14989378 </i>
   </energy>
  </scstep>
  <scstep>
   <time name="dav">    0.35    0.35</time>
   <time name="total">    0.37    0.37</time>
   <energy>
    <i name="alphaZ">    216.17040255 </i>
    <i name="ewald">  42355.51062582 </i>
    <i name="hartreedc"> -53099.14460561 </i>
    <i name="XCdc">    362.11673245 </i>
    <i name="pawpsdc">  10507.30647487 </i>
    <i name="pawaedc"> -11369.01042534 </i>
    <i name="eentropy">      0.00257696 </i>
    <i name="bandstr">   -160.71902337 </i>
    <i name="atom">  11152.61838693 </i>
    <i name="e_fr_energy">    -35.14885475 </i>
    <i name="e_wo_entrp">    -35.15143172 </i>
    <i name="e_0_energy">    -35.14971374 </i>
   </energy>
  </scstep>
  <structure>
   <crystal>
    <varray name="basis" >
     <v>       3.63000011       0.00000000       0.00000000 </v>
     <v>       0.00000000       2.56679773       0.00000000 </v>
     <v>       0.00000000       0.00000000      23.98379135 </v>
    </varray>
    <i name="volume">    223.46840188 </i>
    <varray name="rec_basis" >
     <v>       0.27548208       0.00000000       0.00000000 </v>
     <v>       0.00000000       0.38959050       0.00000000 </v>
     <v>       0.00000000       0.00000000       0.04169483 </v>
    </varray>
   </crystal>
   <varray name="positions" >
    <v>       0.00000000       0.00000149       0.00070095 </v>
    <v>       0.50000000       0.50000127       0.05287347 </v>
    <v>       0.00000000      -0.00001312       0.10466589 </v>
    <v>       0.50000000       0.50001514       0.15802822 </v>
    <v>       0.00000000      -0.00000205       0.21055970 </v>
    <v>       0.50000000       0.49993964       0.26289709 </v>
    <v>       0.00000000       0.00028508       0.31700245 </v>
    <v>       0.50000000       0.50040605       0.36427397 </v>
    <v>       1.00000000       0.49479177       0.42647500 </v>
    <v>       1.00000000       0.71008436       0.44984701 </v>
   </varray>
  </structure>
  <varray name="forces" >
   <v>       0.00000000       0.00014749       0.43375577 </v>
   <v>       0.00000000      -0.00000152      -0.35772472 </v>
   <v>       0.00000000      -0.00094685       0.00603221 </v>
   <v>       0.00000000       0.00111199       0.02967230 </v>
   <v>       0.00000000      -0.00030801      -0.10170542 </v>
   <v>       0.00000000      -0.00407705      -0.02886244 </v>
   <v>       0.00000000       0.02378139      -0.09186921 </v>
   <v>       0.00000000       0.03482236      -0.23980832 </v>
   <v>       0.00000000       0.35480294       0.43116984 </v>
   <v>       0.00000000      -0.40933274      -0.08066001 </v>
  </varray>
  <varray name="stress" >
   <v>     -37.64152850       0.00000000       0.00000000 </v>
   <v>       0.00000000     -35.34327398      -2.45033034 </v>
   <v>       0.00000000      -2.45033043      -6.47509211 </v>
  </varray>
  <energy>
   <i name="e_fr_energy">    -38.40138650 </i>
   <i name="e_wo_entrp">    -38.40396346 </i>
   <i name="e_0_energy">    -38.40224548 </i>
  </energy>
  <time name="totalsc">    1.73    1.78</time>
 </calculation>
 <calculation>
  <scstep>
   <time name="dav">    0.32    0.32</time>
   <time name="total">    0.40    0.40</time>
   <energy>
    <i name="alphaZ">    216.17040255 </i>
    <i name="ewald">  42510.93544127 </i>
    <i name="hartreedc"> -53254.30457732 </i>
    <i name="XCdc">    362.20566166 </i>
    <i name="pawpsdc">  10507.17801367 </i>
    <i name="pawaedc"> -11368.88432026 </i>
    <i name="eentropy">      0.00489870 </i>
    <i name="bandstr">   -161.07595577 </i>
    <i name="atom">  11152.61838693 </i>
    <i name="e_fr_energy">    -35.15204859 </i>
    <i name="e_wo_entrp">    -35.15694728 </i>
    <i name="e_0_energy">    -35.15368148 </i>
   </energy>
  </scstep>
  <scstep>
   <time name="dav">    0.40    0.41</time>
   <time name="total">    0.48    0.48</time>
   <energy>
    <i name="e_fr_energy">    -35.17850715 </i>
    <i name="e_wo_entrp">    -35.18271647 </i>
    <i name="e_0_energy">    -35.17991026 </i>
   </energy>
  </scstep>
  <scstep>
   <time name="dav">    0.32    0.33</time>
   <time name="total">    0.40    0.40</time>
   <energy>
    <i name="e_fr_energy">    -35.17661964 </i>
    <i name="e_wo_entrp">    -35.18144564 </i>
    <i name="e_0_energy">    -35.17822831 </i>
   </energy>
  </scstep>
  <scstep>
   <time name="dav">    0.34    0.34</time>
   <time name="total">    0.42    0.42</time>
   <energy>
    <i name="e_fr_energy">    -35.17648294 </i>
    <i name="e_wo_entrp">    -35.18119977 </i>
    <i name="e_0_energy">    -35.17805522 </i>
   </energy>
  </scstep>
  <scstep>
   <time name="dav">    0.31    0.31</time>
   <time name="total">    0.39    0.39</time>
   <energy>
    <i name="e_fr_energy">    -35.17607078 </i>
    <i name="e_wo_entrp">    -35.18102258 </i>
    <i name="e_0_energy">    -35.17772138 </i>
   </energy>
  </scstep>
  <scstep>
   <time name="dav">    0.29    0.30</time>
   <time name="total">    0.32    0.32</time>
   <energy>
    <i name="alphaZ">    216.17040255 </i>
    <i name="ewald">  42510.93544127 </i>
    <i name="hartreedc"> -53253.10108904 </i>
    <i name="XCdc">    362.18379604 </i>
    <i name="pawpsdc">  10517.91800417 </i>
    <i name="pawaedc"> -11379.77846566 </i>
    <i name="eentropy">      0.00503145 </i>
    <i name="bandstr">   -162.12755538 </i>
    <i name="atom">  11152.61838693 </i>
    <i name="e_fr_energy">    -35.17604768 </i>
    <i name="e_wo_entrp">    -35.18107913 </i>
    <i name="e_0_energy">    -35.17772483 </i>
   </energy>
  </scstep>
  <structure>
   <crystal>
    <varray name="basis" >
     <v>       3.63000011       0.00000000       0.00000000 </v>
     <v>       0.00000000       2.56679773       0.00000000 </v>
     <v>       0.00000000       0.00000000      23.98379135 </v>
    </varray>
    <i name="volume">    223.46840188 </i>
    <varray name="rec_basis" >
     <v>       0.27548208       0.00000000       0.00000000 </v>
     <v>       0.00000000       0.38959050       0.00000000 </v>
     <v>       0.00000000       0.00000000       0.04169483 </v>
    </varray>
   </crystal>
   <varray name="positions" >
    <v>       0.00000000       0.00000533       0.00209905 </v>
    <v>       0.50000000       0.50000230       0.05167103 </v>
    <v>       0.00000000      -0.00004065       0.10466432 </v>
    <v>       0.50000000       0.50004727       0.15816561 </v>
    <v>       0.00000000      -0.00000917       0.21024437 </v>
    <v>       0.50000000       0.49981785       0.26284824 </v>
    <v>       0.00000000       0.00093990       0.31673536 </v>
    <v>       0.50000000       0.50135545       0.36348906 </v>
    <v>       1.00000000       0.49671128       0.42692746 </v>
    <v>       1.00000000       0.70668009       0.45047923 </v>
   </varray>
  </structure>
  <varray name="forces" >
   <v>       0.00000000       0.00019682       0.20383279 </v>
   <v>       0.00000000       0.00001644      -0.12026777 </v>
   <v>       0.00000000      -0.00048113       0.04362240 </v>
   <v>       0.00000000       0.00042563      -0.06702644 </v>
   <v>       0.00000000      -0.00069607      -0.06917458 </v>
   <v>       0.00000000      -0.00007051      -0.09970047 </v>
   <v>       0.00000000       0.01995805      -0.09140022 </v>
   <v>       0.00000000       0.02965065      -0.13302256 </v>
   <v>       0.00000000       0.26093671       0.34042246 </v>
   <v>       0.00000000      -0.30993660      -0.00728562 </v>
  </varray>
  <varray name="stress" >
   <v>     -32.05919521       0.00000000       0.00000000 </v>
   <v>       0.00000000     -30.56537933      -2.02744715 </v>
   <v>       0.00000000      -2.02744704      -0.04484417 </v>
  </varray>
  <energy>
   <i name="e_fr_energy">    -38.43062336 </i>
   <i name="e_wo_entrp">    -38.43565480 </i>
   <i name="e_0_energy">    -38.43230050 </i>
  </energy>
  <time name="totalsc">    2.88    3.01</time>
 </calculation>
 <calculation>
  <scstep>
   <time name="dav">    0.32    0.32</time>
   <time name="total">    0.40    0.40</time>
   <energy>
    <i name="alphaZ">    216.17040255 </i>
    <i name="ewald">  42693.62650196 </i>
    <i name="hartreedc"> -53435.21673769 </i>
    <i name="XCdc">    362.29000514 </i>
    <i name="pawpsdc">  10518.23000396 </i>
    <i name="pawaedc"> -11380.11683182 </i>
    <i name="eentropy">      0.00690184 </i>
    <i name="bandstr">   -162.76096024 </i>
    <i name="atom">  11152.61838693 </i>
    <i name="e_fr_energy">    -35.15232738 </i>
    <i name="e_wo_entrp">    -35.15922921 </i>
    <i name="e_0_energy">    -35.15462799 </i>
   </energy>
  </scstep>
  <scstep>
   <time name="dav">    0.40    0.41</time>
   <time name="total">    0.48    0.48</time>
   <energy>
    <i name="e_fr_energy">    -35.18967402 </i>
    <i name="e_wo_entrp">    -35.19595704 </i>
    <i name="e_0_energy">    -35.19176836 </i>
   </energy>
  </scstep>
  <scstep>
   <time name="dav">    0.33    0.34</time>
   <time name="total">    0.41    0.41</time>
   <energy>
    <i name="e_fr_energy">    -35.18677236 </i>
    <i name="e_wo_entrp">    -35.19352685 </i>
    <i name="e_0_energy">    -35.18902386 </i>
   </energy>
  </scstep>
  <scstep>
   <time name="dav">    0.34    0.35</time>
   <time name="total">    0.42    0.42</time>
   <energy>
    <i name="e_fr_energy">    -35.18659147 </i>
    <i name="e_wo_entrp">    -35.19344604 </i>
    <i name="e_0_energy">    -35.18887633 </i>
   </energy>
  </scstep>
  <scstep>
   <time name="dav">    0.33    0.33</time>
   <time name="total">    0.40    0.40</time>
   <energy>
    <i name="e_fr_energy">    -35.18628932 </i>
    <i name="e_wo_entrp">    -35.19299119 </i>
    <i name="e_0_energy">    -35.18852328 </i>
   </energy>
  </scstep>
  <scstep>
   <time name="dav">    0.38    0.38</time>
   <time name="total">    0.46    0.46</time>
   <energy>
    <i name="e_fr_energy">    -35.18598658 </i>
    <i name="e_wo_entrp">    -35.19326418 </i>
    <i name="e_0_energy">    -35.18841245 </i>
   </energy>
  </scstep>
  <scstep>
   <time name="dav">    0.27    0.27</time>
   <time name="total">    0.29    0.30</time>
   <energy>
    <i name="alphaZ">    216.17040255 </i>
    <i name="ewald">  42693.62650196 </i>
    <i name="hartreedc"> -53433.89258235 </i>
    <i name="XCdc">    362.26436475 </i>
    <i name="pawpsdc">  10533.01970801 </i>
    <i name="pawaedc"> -11395.17209642 </i>
    <i name="eentropy">      0.00708542 </i>
    <i name="bandstr">   -163.82777026 </i>
    <i name="atom">  11152.61838693 </i>
    <i name="e_fr_energy">    -35.18599942 </i>
    <i name="e_wo_entrp">    -35.19308484 </i>
    <i name="e_0_energy">    -35.18836123 </i>
   </energy>
  </scstep>
  <structure>
   <crystal>
    <varray name="basis" >
     <v>       3.63000011       0.00000000       0.00000000 </v>
     <v>       0.00000000       2.56679773       0.00000000 </v>
     <v>       0.00000000       0.00000000      23.98379135 </v>
    </varray>
    <i name="volume">    223.46840188 </i>
    <varray name="rec_basis" >
     <v>       0.27548208       0.00000000       0.00000000 </v>
     <v>       0.00000000       0.38959050       0.00000000 </v>
     <v>       0.00000000       0.00000000       0.04169483 </v>
    </varray>
   </crystal>
   <varray name="positions" >
    <v>       0.00000000       0.00000984       0.00374317 </v>
    <v>       0.50000000       0.50000350       0.05025701 </v>
    <v>       0.00000000      -0.00007303       0.10466246 </v>
    <v>       0.50000000       0.50008505       0.15832717 </v>
    <v>       0.00000000      -0.00001755       0.20987356 </v>
    <v>       0.50000000       0.49967462       0.26279080 </v>
    <v>       0.00000000       0.00170995       0.31642128 </v>
    <v>       0.50000000       0.50247191       0.36256603 </v>
    <v>       1.00000000       0.49896856       0.42745954 </v>
    <v>       1.00000000       0.70267678       0.45122270 </v>
   </varray>
  </structure>
  <varray name="forces" >
   <v>       0.00000000       0.00029725      -0.07110161 </v>
   <v>       0.00000000       0.00000845       0.15545554 </v>
   <v>       0.00000000       0.00030513       0.09855023 </v>
   <v>       0.00000000      -0.00019676      -0.16687640 </v>
   <v>       0.00000000      -0.00073201      -0.03522002 </v>
   <v>       0.00000000       0.00426602      -0.18976620 </v>
   <v>       0.00000000       0.01608995      -0.09628601 </v>
   <v>       0.00000000       0.02544342      -0.00458483 </v>
   <v>       0.00000000       0.15675993       0.23078970 </v>
   <v>       0.00000000      -0.20224138       0.07903961 </v>
  </varray>
  <varray name="stress" >
   <v>     -31.61961801       0.00000000       0.00000000 </v>
   <v>       0.00000000     -31.59666564      -1.57974702 </v>
   <v>       0.00000000      -1.57974691       1.24282145 </v>
  </varray>
  <energy>
   <i name="e_fr_energy">    -38.44331850 </i>
   <i name="e_wo_entrp">    -38.45040392 </i>
   <i name="e_0_energy">    -38.44568030 </i>
  </energy>
  <time name="totalsc">    3.35    3.48</time>
 </calculation>
 <calculation>
  <scstep>
   <time name="dav">    0.31    0.31</time>
   <time name="total">    0.39    0.39</time>
   <energy>
    <i name="alphaZ">    216.17040255 </i>
    <i name="ewald">  42760.46526612 </i>
    <i name="hartreedc"> -53500.40362046 </i>
    <i name="XCdc">    362.28207699 </i>
    <i name="pawpsdc">  10533.04502675 </i>
    <i name="pawaedc"> -11395.19644260 </i>
    <i name="eentropy">      0.00601841 </i>
    <i name="bandstr">   -164.17673456 </i>
    <i name="atom">  11152.61838693 </i>
    <i name="e_fr_energy">    -35.18961987 </i>
    <i name="e_wo_entrp">    -35.19563828 </i>
    <i name="e_0_energy">    -35.19162601 </i>
   </energy>
  </scstep>
  <scstep>
   <time name="dav">    0.38    0.39</time>
   <time name="total">    0.46    0.46</time>
   <energy>
    <i name="e_fr_energy">    -35.19292189 </i>
    <i name="e_wo_entrp">    -35.19937913 </i>
    <i name="e_0_energy">    -35.19507430 </i>
   </energy>
  </scstep>
  <scstep>
   <time name="dav">    0.34    0.34</time>
   <time name="total">    0.41    0.41</time>
   <energy>
    <i name="e_fr_energy">    -35.19279816 </i>
    <i name="e_wo_entrp">    -35.19891388 </i>
    <i name="e_0_energy">    -35.19483673 </i>
   </energy>
  </scstep>
  <scstep>
   <time name="dav">    0.25    0.25</time>
   <time name="total">    0.32    0.33</time>
   <energy>
    <i name="e_fr_energy">    -35.19262477 </i>
    <i name="e_wo_entrp">    -35.19905928 </i>
    <i name="e_0_energy">    -35.19476961 </i>
   </energy>
  </scstep>
  <scstep>
   <time name="dav">    0.26    0.26</time>
   <time name="total">    0.28    0.29</time>
   <energy>
    <i name="alphaZ">    216.17040255 </i>
    <i name="ewald">  42760.46526612 </i>
    <i name="hartreedc"> -53500.04323729 </i>
    <i name="XCdc">    362.30589158 </i>
    <i name="pawpsdc">  10534.29958989 </i>
    <i name="pawaedc"> -11396.44678774 </i>
    <i name="eentropy">      0.00634506 </i>
    <i name="bandstr">   -164.56841943 </i>
    <i name="atom">  11152.61838693 </i>
    <i name="e_fr_energy">    -35.19256233 </i>
    <i name="e_wo_entrp">    -35.19890739 </i>
    <i name="e_0_energy">    -35.19467735 </i>
   </energy>
  </scstep>
  <structure>
   <crystal>
    <varray name="basis" >
     <v>       3.63000011       0.00000000       0.00000000 </v>
     <v>       0.00000000       2.56679773       0.00000000 </v>
     <v>       0.00000000       0.00000000      23.98379135 </v>
    </varray>
    <i name="volume">    223.46840188 </i>
    <varray name="rec_basis" >
     <v>       0.27548208       0.00000000       0.00000000 </v>
     <v>       0.00000000       0.38959050       0.00000000 </v>
     <v>       0.00000000       0.00000000       0.04169483 </v>
    </varray>
   </crystal>
   <varray name="positions" >
    <v>       0.00000000       0.00001672       0.00373109 </v>
    <v>       0.50000000       0.50000380       0.05048667 </v>
    <v>       0.00000000      -0.00006942       0.10489144 </v>
    <v>       0.50000000       0.50008429       0.15795422 </v>
    <v>       0.00000000      -0.00003423       0.20975711 </v>
    <v>       0.50000000       0.49975396       0.26234420 </v>
    <v>       0.00000000       0.00213130       0.31616812 </v>
    <v>       0.50000000       0.50312877       0.36246933 </v>
    <v>       1.00000000       0.50258477       0.42804576 </v>
    <v>       1.00000000       0.69790969       0.45147579 </v>
   </varray>
  </structure>
  <varray name="forces" >
   <v>       0.00000000       0.00034236      -0.04464157 </v>
   <v>       0.00000000       0.00021108       0.08573360 </v>
   <v>       0.00000000       0.00048509       0.00930138 </v>
   <v>       0.00000000      -0.00016087      -0.09110209 </v>
   <v>       0.00000000      -0.00018256      -0.03383263 </v>
   <v>       0.00000000       0.00528794      -0.10055625 </v>
   <v>       0.00000000       0.01410015      -0.07250075 </v>
   <v>       0.00000000       0.02037235      -0.05909690 </v>
   <v>       0.00000000      -0.20406338      -0.16544103 </v>
   <v>       0.00000000       0.16360785       0.47213625 </v>
  </varray>
  <varray name="stress" >
   <v>     -30.51849090       0.00000000       0.00000000 </v>
   <v>       0.00000000     -29.06623524      -0.09506041 </v>
   <v>       0.00000000      -0.09506044       4.52158419 </v>
  </varray>
  <energy>
   <i name="e_fr_energy">    -38.45025602 </i>
   <i name="e_wo_entrp">    -38.45660108 </i>
   <i name="e_0_energy">    -38.45237104 </i>
  </energy>
  <time name="totalsc">    2.35    2.42</time>
 </calculation>
 <calculation>
  <scstep>
   <time name="dav">    0.25    0.25</time>
   <time name="total">    0.32    0.33</time>
   <energy>
    <i name="alphaZ">    216.17040255 </i>
    <i name="ewald">  42759.45035535 </i>
    <i name="hartreedc"> -53499.22469666 </i>
    <i name="XCdc">    362.30512821 </i>
    <i name="pawpsdc">  10534.41339549 </i>
    <i name="pawaedc"> -11396.55690064 </i>
    <i name="eentropy">      0.00632041 </i>
    <i name="bandstr">   -164.37492545 </i>
    <i name="atom">  11152.61838693 </i>
    <i name="e_fr_energy">    -35.19253382 </i>
    <i name="e_wo_entrp">    -35.19885423 </i>
    <i name="e_0_energy">    -35.19464063 </i>
   </energy>
  </scstep>
  <scstep>
   <time name="dav">    0.24    0.25</time>
   <time name="total">    0.27    0.27</time>
   <energy>
    <i name="alphaZ">    216.17040255 </i>
    <i name="ewald">  42759.45035535 </i>
    <i name="hartreedc"> -53499.26855429 </i>
    <i name="XCdc">    362.30535560 </i>
    <i name="pawpsdc">  10534.47178282 </i>
    <i name="pawaedc"> -11396.61728345 </i>
    <i name="eentropy">      0.00635377 </i>
    <i name="bandstr">   -164.32936148 </i>
    <i name="atom">  11152.61838693 </i>
    <i name="e_fr_energy">    -35.19256220 </i>
    <i name="e_wo_entrp">    -35.19891597 </i>
    <i name="e_0_energy">    -35.19468013 </i>
   </energy>
  </scstep>
  <structure>
   <crystal>
    <varray name="basis" >
     <v>       3.63000011       0.00000000       0.00000000 </v>
     <v>       0.00000000       2.56679773       0.00000000 </v>
     <v>       0.00000000       0.00000000      23.98379135 </v>
    </varray>
    <i name="volume">    223.46840188 </i>
    <varray name="rec_basis" >
     <v>       0.27548208       0.00000000       0.00000000 </v>
     <v>       0.00000000       0.38959050       0.00000000 </v>
     <v>       0.00000000       0.00000000       0.04169483 </v>
    </varray>
   </crystal>
   <varray name="positions" >
    <v>       0.00000000       0.00001661       0.00373128 </v>
    <v>       0.50000000       0.50000380       0.05048319 </v>
    <v>       0.00000000      -0.00006948       0.10488797 </v>
    <v>       0.50000000       0.50008430       0.15795987 </v>
    <v>       0.00000000      -0.00003398       0.20975887 </v>
    <v>       0.50000000       0.49975275       0.26235098 </v>
    <v>       0.00000000       0.00212491       0.31617196 </v>
    <v>       0.50000000       0.50311880       0.36247080 </v>
    <v>       1.00000000       0.50252991       0.42803687 </v>
    <v>       1.00000000       0.69798201       0.45147195 </v>
   </varray>
  </structure>
  <varray name="forces" >
   <v>       0.00000000      -0.00284486      -0.02924798 </v>
   <v>       0.00000000      -0.00317848       0.17898528 </v>
   <v>       0.00000000      -0.00279699       0.10448846 </v>
   <v>       0.00000000      -0.00362913      -0.17028057 </v>
   <v>       0.00000000      -0.00408713      -0.04057351 </v>
   <v>       0.00000000       0.00380955      -0.20067262 </v>
   <v>       0.00000000       0.02351519      -0.12530799 </v>
   <v>       0.00000000       0.03787662      -0.06420382 </v>
   <v>       0.00000000      -0.20447812      -0.14121247 </v>
   <v>       0.00000000       0.15581336       0.48802522 </v>
  </varray>
  <varray name="stress" >
   <v>     -31.35480511       0.00000000       0.00000000 </v>
   <v>       0.00000000     -29.92251596      -0.10296181 </v>
   <v>       0.00000000      -0.10296177       3.50274476 </v>
  </varray>
  <energy>
   <i name="e_fr_energy">    -38.45024131 </i>
   <i name="e_wo_entrp">    -38.45659508 </i>
   <i name="e_0_energy">    -38.45235923 </i>
  </energy>
  <time name="totalsc">    1.08    1.15</time>
 </calculation>
 <calculation>
  <scstep>
   <time name="dav">    0.25    0.25</time>
   <time name="total">    0.32    0.33</time>
   <energy>
    <i name="alphaZ">    216.17040255 </i>
    <i name="ewald">  42760.40932890 </i>
    <i name="hartreedc"> -53500.27228767 </i>
    <i name="XCdc">    362.30522334 </i>
    <i name="pawpsdc">  10534.48401232 </i>
    <i name="pawaedc"> -11396.62750942 </i>
    <i name="eentropy">      0.00631532 </i>
    <i name="bandstr">   -164.28643628 </i>
    <i name="atom">  11152.61838693 </i>
    <i name="e_fr_energy">    -35.19256401 </i>
    <i name="e_wo_entrp">    -35.19887933 </i>
    <i name="e_0_energy">    -35.19466912 </i>
   </energy>
  </scstep>
  <scstep>
   <time name="dav">    0.23    0.23</time>
   <time name="total">    0.25    0.25</time>
   <energy>
    <i name="alphaZ">    216.17040255 </i>
    <i name="ewald">  42760.40932890 </i>
    <i name="hartreedc"> -53500.26026136 </i>
    <i name="XCdc">    362.30464579 </i>
    <i name="pawpsdc">  10534.50503779 </i>
    <i name="pawaedc"> -11396.64296635 </i>
    <i name="eentropy">      0.00631759 </i>
    <i name="bandstr">   -164.30346388 </i>
    <i name="atom">  11152.61838693 </i>
    <i name="e_fr_energy">    -35.19257205 </i>
    <i name="e_wo_entrp">    -35.19888964 </i>
    <i name="e_0_energy">    -35.19467791 </i>
   </energy>
  </scstep>
  <structure>
   <crystal>
    <varray name="basis" >
     <v>       3.63000011       0.00000000       0.00000000 </v>
     <v>       0.00000000       2.56679773       0.00000000 </v>
     <v>       0.00000000       0.00000000      23.98379135 </v>
    </varray>
    <i name="volume">    223.46840188 </i>
    <varray name="rec_basis" >
     <v>       0.27548208       0.00000000       0.00000000 </v>
     <v>       0.00000000       0.38959050       0.00000000 </v>
     <v>       0.00000000       0.00000000       0.04169483 </v>
    </varray>
   </crystal>
   <varray name="positions" >
    <v>       0.00000000       0.00001671       0.00373110 </v>
    <v>       0.50000000       0.50000380       0.05048648 </v>
    <v>       0.00000000      -0.00006943       0.10489125 </v>
    <v>       0.50000000       0.50008429       0.15795453 </v>
    <v>       0.00000000      -0.00003422       0.20975720 </v>
    <v>       0.50000000       0.49975389       0.26234458 </v>
    <v>       0.00000000       0.00213095       0.31616833 </v>
    <v>       0.50000000       0.50312822       0.36246941 </v>
    <v>       1.00000000       0.50258174       0.42804527 </v>
    <v>       1.00000000       0.69791367       0.45147557 </v>
   </varray>
  </structure>
  <varray name="forces" >
   <v>       0.00000000       0.00087564      -0.05200175 </v>
   <v>       0.00000000       0.00079874       0.07706197 </v>
   <v>       0.00000000       0.00104472       0.00438251 </v>
   <v>       0.00000000       0.00037762      -0.08212238 </v>
   <v>       0.00000000       0.00044208      -0.02910491 </v>
   <v>       0.00000000       0.00517669      -0.08825452 </v>
   <v>       0.00000000       0.01286187      -0.06727040 </v>
   <v>       0.00000000       0.01791626      -0.05664707 </v>
   <v>       0.00000000      -0.20621775      -0.17410888 </v>
   <v>       0.00000000       0.16672413       0.46806542 </v>
  </varray>
  <varray name="stress" >
   <v>     -30.73346782       0.00000000       0.00000000 </v>
   <v>       0.00000000     -29.33080956      -0.07867705 </v>
   <v>       0.00000000      -0.07867704       4.07096036 </v>
  </varray>
  <energy>
   <i name="e_fr_energy">    -38.45026493 </i>
   <i name="e_wo_entrp">    -38.45658252 </i>
   <i name="e_0_energy">    -38.45237079 </i>
  </energy>
  <time name="totalsc">    1.05    1.12</time>
 </calculation>
 <calculation>
  <scstep>
   <time name="dav">    0.31    0.31</time>
   <time name="total">    0.38    0.39</time>
   <energy>
    <i name="alphaZ">    216.17040255 </i>
    <i name="ewald">  42796.87124267 </i>
    <i name="hartreedc"> -53536.78599501 </i>
    <i name="XCdc">    362.30206492 </i>
    <i name="pawpsdc">  10534.51619985 </i>
    <i name="pawaedc"> -11396.65510915 </i>
    <i name="eentropy">      0.00572219 </i>
    <i name="bandstr">   -164.23868089 </i>
    <i name="atom">  11152.61838693 </i>
    <i name="e_fr_energy">    -35.19576595 </i>
    <i name="e_wo_entrp">    -35.20148814 </i>
    <i name="e_0_energy">    -35.19767335 </i>
   </energy>
  </scstep>
  <scstep>
   <time name="dav">    0.38    0.38</time>
   <time name="total">    0.45    0.45</time>
   <energy>
    <i name="e_fr_energy">    -35.19681434 </i>
    <i name="e_wo_entrp">    -35.20268790 </i>
    <i name="e_0_energy">    -35.19877219 </i>
   </energy>
  </scstep>
  <scstep>
   <time name="dav">    0.24    0.25</time>
   <time name="total">    0.27    0.27</time>
   <energy>
    <i name="alphaZ">    216.17040255 </i>
    <i name="ewald">  42796.87124267 </i>
    <i name="hartreedc"> -53536.54600322 </i>
    <i name="XCdc">    362.29890749 </i>
    <i name="pawpsdc">  10534.47106291 </i>
    <i name="pawaedc"> -11396.59641287 </i>
    <i name="eentropy">      0.00578996 </i>
    <i name="bandstr">   -164.49016406 </i>
    <i name="atom">  11152.61838693 </i>
    <i name="e_fr_energy">    -35.19678764 </i>
    <i name="e_wo_entrp">    -35.20257760 </i>
    <i name="e_0_energy">    -35.19871763 </i>
   </energy>
  </scstep>
  <structure>
   <crystal>
    <varray name="basis" >
     <v>       3.63000011       0.00000000       0.00000000 </v>
     <v>       0.00000000       2.56679773       0.00000000 </v>
     <v>       0.00000000       0.00000000      23.98379135 </v>
    </varray>
    <i name="volume">    223.46840188 </i>
    <varray name="rec_basis" >
     <v>       0.27548208       0.00000000       0.00000000 </v>
     <v>       0.00000000       0.38959050       0.00000000 </v>
     <v>       0.00000000       0.00000000       0.04169483 </v>
    </varray>
   </crystal>
   <varray name="positions" >
    <v>       0.00000000       0.00002496       0.00369220 </v>
    <v>       0.50000000       0.50000877       0.05063460 </v>
    <v>       0.00000000      -0.00006155       0.10499191 </v>
    <v>       0.50000000       0.50008626       0.15774191 </v>
    <v>       0.00000000      -0.00003867       0.20968857 </v>
    <v>       0.50000000       0.49981917       0.26209652 </v>
    <v>       0.00000000       0.00238893       0.31601653 </v>
    <v>       0.50000000       0.50351745       0.36239135 </v>
    <v>       1.00000000       0.50287631       0.42818274 </v>
    <v>       1.00000000       0.69688800       0.45188740 </v>
   </varray>
  </structure>
  <varray name="forces" >
   <v>       0.00000000       0.00030027      -0.03013510 </v>
   <v>       0.00000000       0.00012584       0.05404335 </v>
   <v>       0.00000000       0.00043184      -0.02217973 </v>
   <v>       0.00000000      -0.00017371      -0.06068726 </v>
   <v>       0.00000000       0.00006697      -0.03604895 </v>
   <v>       0.00000000       0.00469481      -0.06455042 </v>
   <v>       0.00000000       0.01234040      -0.06302943 </v>
   <v>       0.00000000       0.01712814      -0.06748314 </v>
   <v>       0.00000000      -0.14912655      -0.11601048 </v>
   <v>       0.00000000       0.11421200       0.40608116 </v>
  </varray>
  <varray name="stress" >
   <v>     -29.86263162       0.00000000       0.00000000 </v>
   <v>       0.00000000     -28.62154576      -0.29887662 </v>
   <v>       0.00000000      -0.29887664       4.71331728 </v>
  </varray>
  <energy>
   <i name="e_fr_energy">    -38.45566987 </i>
   <i name="e_wo_entrp">    -38.46145983 </i>
   <i name="e_0_energy">    -38.45759986 </i>
  </energy>
  <time name="totalsc">    1.58    1.64</time>
 </calculation>
 <calculation>
  <scstep>
   <time name="dav">    0.31    0.31</time>
   <time name="total">    0.38    0.38</time>
   <energy>
    <i name="alphaZ">    216.17040255 </i>
    <i name="ewald">  42906.45378082 </i>
    <i name="hartreedc"> -53646.22137160 </i>
    <i name="XCdc">    362.29472984 </i>
    <i name="pawpsdc">  10534.47208185 </i>
    <i name="pawaedc"> -11396.61084300 </i>
    <i name="eentropy">      0.00409023 </i>
    <i name="bandstr">   -164.37663497 </i>
    <i name="atom">  11152.61838693 </i>
    <i name="e_fr_energy">    -35.19537737 </i>
    <i name="e_wo_entrp">    -35.19946760 </i>
    <i name="e_0_energy">    -35.19674078 </i>
   </energy>
  </scstep>
  <scstep>
   <time name="dav">    0.38    0.38</time>
   <time name="total">    0.45    0.46</time>
   <energy>
    <i name="e_fr_energy">    -35.20509506 </i>
    <i name="e_wo_entrp">    -35.20949515 </i>
    <i name="e_0_energy">    -35.20656176 </i>
   </energy>
  </scstep>
  <scstep>
   <time name="dav">    0.34    0.34</time>
   <time name="total">    0.41    0.41</time>
   <energy>
    <i name="e_fr_energy">    -35.20461572 </i>
    <i name="e_wo_entrp">    -35.20900987 </i>
    <i name="e_0_energy">    -35.20608044 </i>
   </energy>
  </scstep>
  <scstep>
   <time name="dav">    0.34    0.34</time>
   <time name="total">    0.41    0.41</time>
   <energy>
    <i name="e_fr_energy">    -35.20436101 </i>
    <i name="e_wo_entrp">    -35.20880601 </i>
    <i name="e_0_energy">    -35.20584267 </i>
   </energy>
  </scstep>
  <scstep>
   <time name="dav">    0.28    0.28</time>
   <time name="total">    0.35    0.36</time>
   <energy>
    <i name="e_fr_energy">    -35.20425639 </i>
    <i name="e_wo_entrp">    -35.20898587 </i>
    <i name="e_0_energy">    -35.20583288 </i>
   </energy>
  </scstep>
  <scstep>
   <time name="dav">    0.23    0.24</time>
   <time name="total">    0.26    0.26</time>
   <energy>
    <i name="alphaZ">    216.17040255 </i>
    <i name="ewald">  42906.45378082 </i>
    <i name="hartreedc"> -53644.70338121 </i>
    <i name="XCdc">    362.27930773 </i>
    <i name="pawpsdc">  10534.56656959 </i>
    <i name="pawaedc"> -11396.72350700 </i>
    <i name="eentropy">      0.00445027 </i>
    <i name="bandstr">   -165.87017120 </i>
    <i name="atom">  11152.61838693 </i>
    <i name="e_fr_energy">    -35.20416154 </i>
    <i name="e_wo_entrp">    -35.20861181 </i>
    <i name="e_0_energy">    -35.20564496 </i>
   </energy>
  </scstep>
  <structure>
   <crystal>
    <varray name="basis" >
     <v>       3.63000011       0.00000000       0.00000000 </v>
     <v>       0.00000000       2.56679773       0.00000000 </v>
     <v>       0.00000000       0.00000000      23.98379135 </v>
    </varray>
    <i name="volume">    223.46840188 </i>
    <varray name="rec_basis" >
     <v>       0.27548208       0.00000000       0.00000000 </v>
     <v>       0.00000000       0.38959050       0.00000000 </v>
     <v>       0.00000000       0.00000000       0.04169483 </v>
    </varray>
   </crystal>
   <varray name="positions" >
    <v>       0.00000000       0.00004970       0.00357550 </v>
    <v>       0.50000000       0.50002368       0.05107894 </v>
    <v>       0.00000000      -0.00003792       0.10529390 </v>
    <v>       0.50000000       0.50009216       0.15710407 </v>
    <v>       0.00000000      -0.00005201       0.20948266 </v>
    <v>       0.50000000       0.50001500       0.26135237 </v>
    <v>       0.00000000       0.00316288       0.31556114 </v>
    <v>       0.50000000       0.50468516       0.36215715 </v>
    <v>       1.00000000       0.50376001       0.42859513 </v>
    <v>       1.00000000       0.69381098       0.45312289 </v>
   </varray>
  </structure>
  <varray name="forces" >
   <v>       0.00000000       0.00034897       0.02973385 </v>
   <v>       0.00000000       0.00046376      -0.02709296 </v>
   <v>       0.00000000       0.00063420      -0.11036941 </v>
   <v>       0.00000000       0.00000296       0.02316014 </v>
   <v>       0.00000000       0.00110254      -0.04646115 </v>
   <v>       0.00000000       0.00682916       0.01389314 </v>
   <v>       0.00000000       0.01308768      -0.05207771 </v>
   <v>       0.00000000       0.01573428      -0.09928745 </v>
   <v>       0.00000000       0.01108155       0.06103544 </v>
   <v>       0.00000000      -0.04928510       0.20746611 </v>
  </varray>
  <varray name="stress" >
   <v>     -30.59871432       0.00000000       0.00000000 </v>
   <v>       0.00000000     -29.56851933      -0.98424487 </v>
   <v>       0.00000000      -0.98424492       4.04537006 </v>
  </varray>
  <energy>
   <i name="e_fr_energy">    -38.46675133 </i>
   <i name="e_wo_entrp">    -38.47120159 </i>
   <i name="e_0_energy">    -38.46823475 </i>
  </energy>
  <time name="totalsc">    2.75    2.83</time>
 </calculation>
 <calculation>
  <scstep>
   <time name="dav">    0.31    0.31</time>
   <time name="total">    0.38    0.38</time>
   <energy>
    <i name="alphaZ">    216.17040255 </i>
    <i name="ewald">  43126.50141922 </i>
    <i name="hartreedc"> -53865.01102257 </i>
    <i name="XCdc">    362.27734172 </i>
    <i name="pawpsdc">  10534.62386039 </i>
    <i name="pawaedc"> -11396.78836189 </i>
    <i name="eentropy">      0.00098247 </i>
    <i name="bandstr">   -165.54991076 </i>
    <i name="atom">  11152.61838693 </i>
    <i name="e_fr_energy">    -35.15690194 </i>
    <i name="e_wo_entrp">    -35.15788441 </i>
    <i name="e_0_energy">    -35.15722943 </i>
   </energy>
  </scstep>
  <scstep>
   <time name="dav">    0.39    0.39</time>
   <time name="total">    0.46    0.46</time>
   <energy>
    <i name="e_fr_energy">    -35.19871726 </i>
    <i name="e_wo_entrp">    -35.20049200 </i>
    <i name="e_0_energy">    -35.19930884 </i>
   </energy>
  </scstep>
  <scstep>
   <time name="dav">    0.33    0.34</time>
   <time name="total">    0.41    0.41</time>
   <energy>
    <i name="e_fr_energy">    -35.19703688 </i>
    <i name="e_wo_entrp">    -35.19856945 </i>
    <i name="e_0_energy">    -35.19754774 </i>
   </energy>
  </scstep>
  <scstep>
   <time name="dav">    0.35    0.35</time>
   <time name="total">    0.42    0.43</time>
   <energy>
    <i name="e_fr_energy">    -35.19614284 </i>
    <i name="e_wo_entrp">    -35.19800923 </i>
    <i name="e_0_energy">    -35.19676497 </i>
   </energy>
  </scstep>
  <scstep>
   <time name="dav">    0.41    0.42</time>
   <time name="total">    0.49    0.49</time>
   <energy>
    <i name="e_fr_energy">    -35.19538747 </i>
    <i name="e_wo_entrp">    -35.19720757 </i>
    <i name="e_0_energy">    -35.19599417 </i>
   </energy>
  </scstep>
  <scstep>
   <time name="dav">    0.27    0.27</time>
   <time name="total">    0.29    0.29</time>
   <energy>
    <i name="alphaZ">    216.17040255 </i>
    <i name="ewald">  43126.50141922 </i>
    <i name="hartreedc"> -53862.01949470 </i>
    <i name="XCdc">    362.24819831 </i>
    <i name="pawpsdc">  10536.08056745 </i>
    <i name="pawaedc"> -11398.32321517 </i>
    <i name="eentropy">      0.00190461 </i>
    <i name="bandstr">   -168.47361451 </i>
    <i name="atom">  11152.61838693 </i>
    <i name="e_fr_energy">    -35.19544533 </i>
    <i name="e_wo_entrp">    -35.19734993 </i>
    <i name="e_0_energy">    -35.19608020 </i>
   </energy>
  </scstep>
  <structure>
   <crystal>
    <varray name="basis" >
     <v>       3.63000011       0.00000000       0.00000000 </v>
     <v>       0.00000000       2.56679773       0.00000000 </v>
     <v>       0.00000000       0.00000000      23.98379135 </v>
    </varray>
    <i name="volume">    223.46840188 </i>
    <varray name="rec_basis" >
     <v>       0.27548208       0.00000000       0.00000000 </v>
     <v>       0.00000000       0.38959050       0.00000000 </v>
     <v>       0.00000000       0.00000000       0.04169483 </v>
    </varray>
   </crystal>
   <varray name="positions" >
    <v>       0.00000000       0.00009918       0.00334210 </v>
    <v>       0.50000000       0.50005349       0.05196763 </v>
    <v>       0.00000000       0.00000934       0.10589787 </v>
    <v>       0.50000000       0.50010397       0.15582837 </v>
    <v>       0.00000000      -0.00007869       0.20907085 </v>
    <v>       0.50000000       0.50040667       0.25986406 </v>
    <v>       0.00000000       0.00471077       0.31465034 </v>
    <v>       0.50000000       0.50702056       0.36168876 </v>
    <v>       1.00000000       0.50552741       0.42941990 </v>
    <v>       1.00000000       0.68765693       0.45559387 </v>
   </varray>
  </structure>
  <varray name="forces" >
   <v>       0.00000000       0.00081951       0.12271600 </v>
   <v>       0.00000000       0.00118625      -0.20711407 </v>
   <v>       0.00000000       0.00097040      -0.28220005 </v>
   <v>       0.00000000      -0.00006323       0.21840301 </v>
   <v>       0.00000000       0.00322548      -0.04854777 </v>
   <v>       0.00000000       0.00929708       0.16322346 </v>
   <v>       0.00000000       0.01004689      -0.01865938 </v>
   <v>       0.00000000       0.01034934      -0.15829242 </v>
   <v>       0.00000000       0.28338708       0.40860271 </v>
   <v>       0.00000000      -0.31921880      -0.19813149 </v>
  </varray>
  <varray name="stress" >
   <v>     -33.35633311       0.00000000       0.00000000 </v>
   <v>       0.00000000     -32.74731705      -2.23492372 </v>
   <v>       0.00000000      -2.23492364       1.94795086 </v>
  </varray>
  <energy>
   <i name="e_fr_energy">    -38.46649351 </i>
   <i name="e_wo_entrp">    -38.46839812 </i>
   <i name="e_0_energy">    -38.46712838 </i>
  </energy>
  <time name="totalsc">    2.93    3.01</time>
 </calculation>
 <calculation>
  <scstep>
   <time name="dav">    0.31    0.31</time>
   <time name="total">    0.38    0.39</time>
   <energy>
    <i name="alphaZ">    216.17040255 </i>
    <i name="ewald">  43006.75389187 </i>
    <i name="hartreedc"> -53742.27192986 </i>
    <i name="XCdc">    362.25456921 </i>
    <i name="pawpsdc">  10536.08474215 </i>
    <i name="pawaedc"> -11398.32144623 </i>
    <i name="eentropy">      0.00380222 </i>
    <i name="bandstr">   -168.48543078 </i>
    <i name="atom">  11152.61838693 </i>
    <i name="e_fr_energy">    -35.19301195 </i>
    <i name="e_wo_entrp">    -35.19681417 </i>
    <i name="e_0_energy">    -35.19427936 </i>
   </energy>
  </scstep>
  <scstep>
   <time name="dav">    0.38    0.38</time>
   <time name="total">    0.45    0.46</time>
   <energy>
    <i name="e_fr_energy">    -35.20528409 </i>
    <i name="e_wo_entrp">    -35.20851473 </i>
    <i name="e_0_energy">    -35.20636097 </i>
   </energy>
  </scstep>
  <scstep>
   <time name="dav">    0.32    0.33</time>
   <time name="total">    0.40    0.40</time>
   <energy>
    <i name="e_fr_energy">    -35.20483131 </i>
    <i name="e_wo_entrp">    -35.20832972 </i>
    <i name="e_0_energy">    -35.20599745 </i>
   </energy>
  </scstep>
  <scstep>
   <time name="dav">    0.28    0.29</time>
   <time name="total">    0.36    0.36</time>
   <energy>
    <i name="e_fr_energy">    -35.20456676 </i>
    <i name="e_wo_entrp">    -35.20777280 </i>
    <i name="e_0_energy">    -35.20563544 </i>
   </energy>
  </scstep>
  <scstep>
   <time name="dav">    0.29    0.29</time>
   <time name="total">    0.36    0.36</time>
   <energy>
    <i name="e_fr_energy">    -35.20432172 </i>
    <i name="e_wo_entrp">    -35.20774425 </i>
    <i name="e_0_energy">    -35.20546256 </i>
   </energy>
  </scstep>
  <scstep>
   <time name="dav">    0.27    0.27</time>
   <time name="total">    0.34    0.35</time>
   <energy>
    <i name="e_fr_energy">    -35.20412948 </i>
    <i name="e_wo_entrp">    -35.20747054 </i>
    <i name="e_0_energy">    -35.20524317 </i>
   </energy>
  </scstep>
  <scstep>
   <time name="dav">    0.27    0.27</time>
   <time name="total">    0.29    0.30</time>
   <energy>
    <i name="alphaZ">    216.17040255 </i>
    <i name="ewald">  43006.75389187 </i>
    <i name="hartreedc"> -53743.89922429 </i>
    <i name="XCdc">    362.26399435 </i>
    <i name="pawpsdc">  10535.09061546 </i>
    <i name="pawaedc"> -11397.28056303 </i>
    <i name="eentropy">      0.00331435 </i>
    <i name="bandstr">   -166.92498053 </i>
    <i name="atom">  11152.61838693 </i>
    <i name="e_fr_energy">    -35.20416235 </i>
    <i name="e_wo_entrp">    -35.20747669 </i>
    <i name="e_0_energy">    -35.20526713 </i>
   </energy>
  </scstep>
  <structure>
   <crystal>
    <varray name="basis" >
     <v>       3.63000011       0.00000000       0.00000000 </v>
     <v>       0.00000000       2.56679773       0.00000000 </v>
     <v>       0.00000000       0.00000000      23.98379135 </v>
    </varray>
    <i name="volume">    223.46840188 </i>
    <varray name="rec_basis" >
     <v>       0.27548208       0.00000000       0.00000000 </v>
     <v>       0.00000000       0.38959050       0.00000000 </v>
     <v>       0.00000000       0.00000000       0.04169483 </v>
    </varray>
   </crystal>
   <varray name="positions" >
    <v>       0.00000000       0.00007229       0.00346896 </v>
    <v>       0.50000000       0.50003729       0.05148460 </v>
    <v>       0.00000000      -0.00001635       0.10556959 </v>
    <v>       0.50000000       0.50009755       0.15652175 </v>
    <v>       0.00000000      -0.00006419       0.20929468 </v>
    <v>       0.50000000       0.50019379       0.26067299 </v>
    <v>       0.00000000       0.00386945       0.31514538 </v>
    <v>       0.50000000       0.50575121       0.36194334 </v>
    <v>       1.00000000       0.50456678       0.42897161 </v>
    <v>       1.00000000       0.69100182       0.45425083 </v>
   </varray>
  </structure>
  <varray name="forces" >
   <v>       0.00000000      -0.00027470       0.06582458 </v>
   <v>       0.00000000      -0.00019138      -0.08547658 </v>
   <v>       0.00000000      -0.00004680      -0.16860797 </v>
   <v>       0.00000000      -0.00118227       0.08845236 </v>
   <v>       0.00000000       0.00099883      -0.04788386 </v>
   <v>       0.00000000       0.00673673       0.06949784 </v>
   <v>       0.00000000       0.01126079      -0.03917466 </v>
   <v>       0.00000000       0.01710983      -0.13367921 </v>
   <v>       0.00000000       0.14548230       0.22677045 </v>
   <v>       0.00000000      -0.17989331       0.02427704 </v>
[...]
       <r>     6.1672     3.0013    51.6720 </r>
       <r>     6.2406     2.0529    51.8226 </r>
       <r>     6.3139     1.1528    51.9072 </r>
       <r>     6.3873     1.1021    51.9880 </r>
       <r>     6.4607     1.7869    52.1191 </r>
       <r>     6.5340     2.4434    52.2983 </r>
       <r>     6.6074     2.5277    52.4838 </r>
       <r>     6.6807     2.1993    52.6451 </r>
       <r>     6.7541     1.9267    52.7865 </r>
       <r>     6.8275     1.7690    52.9162 </r>
       <r>     6.9008     1.4908    53.0256 </r>
       <r>     6.9742     1.3041    53.1213 </r>
       <r>     7.0475     1.7389    53.2488 </r>
       <r>     7.1209     2.6722    53.4449 </r>
       <r>     7.1943     3.2079    53.6802 </r>
       <r>     7.2676     2.7733    53.8836 </r>
       <r>     7.3410     1.8074    54.0162 </r>
       <r>     7.4143     1.0582    54.0939 </r>
       <r>     7.4877     0.7026    54.1454 </r>
       <r>     7.5610     0.5811    54.1880 </r>
       <r>     7.6344     0.8198    54.2482 </r>
       <r>     7.7078     1.6630    54.3702 </r>
       <r>     7.7811     2.9500    54.5866 </r>
       <r>     7.8545     4.1877    54.8938 </r>
       <r>     7.9278     4.9644    55.2580 </r>
       <r>     8.0012     5.0078    55.6253 </r>
       <r>     8.0746     4.1579    55.9304 </r>
       <r>     8.1479     2.7054    56.1288 </r>
       <r>     8.2213     1.5133    56.2398 </r>
       <r>     8.2946     1.3134    56.3362 </r>
       <r>     8.3680     1.9130    56.4765 </r>
       <r>     8.4414     2.4465    56.6560 </r>
       <r>     8.5147     2.3486    56.8283 </r>
       <r>     8.5881     1.7761    56.9586 </r>
       <r>     8.6614     1.2381    57.0494 </r>
       <r>     8.7348     1.1516    57.1339 </r>
       <r>     8.8082     1.5671    57.2489 </r>
       <r>     8.8815     2.0351    57.3982 </r>
       <r>     8.9549     1.9491    57.5411 </r>
       <r>     9.0282     1.2459    57.6325 </r>
       <r>     9.1016     0.5322    57.6716 </r>
       <r>     9.1750     0.3897    57.7002 </r>
       <r>     9.2483     0.8368    57.7616 </r>
       <r>     9.3217     1.5651    57.8764 </r>
       <r>     9.3950     2.4132    58.0534 </r>
       <r>     9.4684     3.4014    58.3029 </r>
       <r>     9.5418     4.4158    58.6269 </r>
       <r>     9.6151     5.0611    58.9982 </r>
       <r>     9.6885     4.9028    59.3578 </r>
       <r>     9.7618     3.9067    59.6444 </r>
       <r>     9.8352     2.5703    59.8330 </r>
       <r>     9.9086     1.4536    59.9396 </r>
       <r>     9.9819     0.7170    59.9922 </r>
       <r>    10.0553     0.2568    60.0110 </r>
       <r>    10.1286     0.0063    60.0115 </r>
       <r>    10.2020    -0.0704    60.0063 </r>
       <r>    10.2754    -0.0543    60.0024 </r>
       <r>    10.3487    -0.0235    60.0006 </r>
       <r>    10.4221    -0.0069    60.0001 </r>
       <r>    10.4954    -0.0014    60.0000 </r>
       <r>    10.5688    -0.0002    60.0000 </r>
       <r>    10.6422    -0.0000    60.0000 </r>
       <r>    10.7155    -0.0000    60.0000 </r>
       <r>    10.7889    -0.0000    60.0000 </r>
       <r>    10.8622    -0.0000    60.0000 </r>
       <r>    10.9356    -0.0000    60.0000 </r>
       <r>    11.0089    -0.0000    60.0000 </r>
       <r>    11.0823    -0.0000    60.0000 </r>
       <r>    11.1557    -0.0000    60.0000 </r>
       <r>    11.2290     0.0000    60.0000 </r>
       <r>    11.3024     0.0000    60.0000 </r>
       <r>    11.3757     0.0000    60.0000 </r>
       <r>    11.4491     0.0000    60.0000 </r>
       <r>    11.5225     0.0000    60.0000 </r>
       <r>    11.5958     0.0000    60.0000 </r>
       <r>    11.6692     0.0000    60.0000 </r>
       <r>    11.7425     0.0000    60.0000 </r>
       <r>    11.8159     0.0000    60.0000 </r>
       <r>    11.8893     0.0000    60.0000 </r>
      </set>
      <set comment="spin 2">
       <r>   -10.1186     0.0000     0.0000 </r>
       <r>   -10.0452     0.0000     0.0000 </r>
       <r>    -9.9719     0.0000     0.0000 </r>
       <r>    -9.8985     0.0000     0.0000 </r>
       <r>    -9.8252     0.0000     0.0000 </r>
       <r>    -9.7518    -0.0000    -0.0000 </r>
       <r>    -9.6785    -0.0000    -0.0000 </r>
       <r>    -9.6051    -0.0000    -0.0000 </r>
       <r>    -9.5317    -0.0000    -0.0000 </r>
       <r>    -9.4584    -0.0000    -0.0000 </r>
       <r>    -9.3850    -0.0000    -0.0000 </r>
       <r>    -9.3117    -0.0000    -0.0000 </r>
       <r>    -9.2383    -0.0000    -0.0000 </r>
       <r>    -9.1649    -0.0000    -0.0000 </r>
       <r>    -9.0916    -0.0000    -0.0000 </r>
       <r>    -9.0182    -0.0000    -0.0000 </r>
       <r>    -8.9449    -0.0000    -0.0000 </r>
       <r>    -8.8715    -0.0000    -0.0000 </r>
       <r>    -8.7981    -0.0000    -0.0000 </r>
       <r>    -8.7248    -0.0001    -0.0000 </r>
       <r>    -8.6514    -0.0007    -0.0001 </r>
       <r>    -8.5781    -0.0033    -0.0003 </r>
       <r>    -8.5047    -0.0109    -0.0011 </r>
       <r>    -8.4313    -0.0224    -0.0027 </r>
       <r>    -8.3580    -0.0160    -0.0039 </r>
       <r>    -8.2846     0.0575     0.0003 </r>
       <r>    -8.2113     0.2243     0.0167 </r>
       <r>    -8.1379     0.4060     0.0465 </r>
       <r>    -8.0645     0.4559     0.0800 </r>
       <r>    -7.9912     0.3275     0.1040 </r>
       <r>    -7.9178     0.1356     0.1139 </r>
       <r>    -7.8445     0.0110     0.1148 </r>
       <r>    -7.7711    -0.0241     0.1130 </r>
       <r>    -7.6977    -0.0179     0.1117 </r>
       <r>    -7.6244    -0.0100     0.1109 </r>
       <r>    -7.5510    -0.0129     0.1100 </r>
       <r>    -7.4777    -0.0231     0.1083 </r>
       <r>    -7.4043    -0.0158     0.1071 </r>
       <r>    -7.3309     0.0577     0.1114 </r>
       <r>    -7.2576     0.2164     0.1273 </r>
       <r>    -7.1842     0.3746     0.1547 </r>
       <r>    -7.1109     0.4070     0.1846 </r>
       <r>    -7.0375     0.3515     0.2104 </r>
       <r>    -6.9641     0.4191     0.2411 </r>
       <r>    -6.8908     0.6817     0.2911 </r>
       <r>    -6.8174     0.8889     0.3563 </r>
       <r>    -6.7441     0.7709     0.4129 </r>
       <r>    -6.6707     0.4000     0.4422 </r>
       <r>    -6.5973     0.0775     0.4479 </r>
       <r>    -6.5240    -0.0076     0.4474 </r>
       <r>    -6.4506     0.1199     0.4562 </r>
       <r>    -6.3773     0.3313     0.4805 </r>
       <r>    -6.3039     0.5297     0.5193 </r>
       <r>    -6.2306     0.7148     0.5718 </r>
       <r>    -6.1572     0.8725     0.6358 </r>
       <r>    -6.0838     0.8891     0.7010 </r>
       <r>    -6.0105     0.7571     0.7565 </r>
       <r>    -5.9371     0.7073     0.8084 </r>
       <r>    -5.8638     0.9135     0.8754 </r>
       <r>    -5.7904     1.2542     0.9674 </r>
       <r>    -5.7170     1.4913     1.0768 </r>
       <r>    -5.6437     1.4730     1.1849 </r>
       <r>    -5.5703     1.1578     1.2698 </r>
       <r>    -5.4970     0.6523     1.3177 </r>
       <r>    -5.4236     0.2035     1.3326 </r>
       <r>    -5.3502     0.0412     1.3356 </r>
       <r>    -5.2769     0.2081     1.3509 </r>
       <r>    -5.2035     0.5203     1.3891 </r>
       <r>    -5.1302     0.7842     1.4466 </r>
       <r>    -5.0568     1.1711     1.5325 </r>
       <r>    -4.9834     2.1305     1.6888 </r>
       <r>    -4.9101     3.6270     1.9549 </r>
       <r>    -4.8367     4.7319     2.3020 </r>
       <r>    -4.7634     4.4464     2.6282 </r>
       <r>    -4.6900     2.8615     2.8381 </r>
       <r>    -4.6166     1.0752     2.9170 </r>
       <r>    -4.5433    -0.0124     2.9161 </r>
       <r>    -4.4699    -0.3749     2.8886 </r>
       <r>    -4.3966    -0.3569     2.8624 </r>
       <r>    -4.3232     0.0439     2.8656 </r>
       <r>    -4.2498     1.1531     2.9502 </r>
       <r>    -4.1765     2.8850     3.1618 </r>
       <r>    -4.1031     4.2814     3.4759 </r>
       <r>    -4.0298     4.2861     3.7903 </r>
       <r>    -3.9564     3.0056     4.0108 </r>
       <r>    -3.8830     1.6652     4.1330 </r>
       <r>    -3.8097     1.2532     4.2249 </r>
       <r>    -3.7363     1.7050     4.3500 </r>
       <r>    -3.6630     2.4819     4.5321 </r>
       <r>    -3.5896     3.3724     4.7795 </r>
       <r>    -3.5162     4.3715     5.1002 </r>
       <r>    -3.4429     5.2374     5.4844 </r>
       <r>    -3.3695     5.7372     5.9052 </r>
       <r>    -3.2962     6.1120     6.3536 </r>
       <r>    -3.2228     6.7769     6.8508 </r>
       <r>    -3.1494     7.7280     7.4177 </r>
       <r>    -3.0761     8.6657     8.0534 </r>
       <r>    -3.0027     9.3382     8.7385 </r>
       <r>    -2.9294     9.3878     9.4271 </r>
       <r>    -2.8560     8.4848    10.0496 </r>
       <r>    -2.7827     7.0718    10.5684 </r>
       <r>    -2.7093     6.3782    11.0363 </r>
       <r>    -2.6359     7.0888    11.5563 </r>
       <r>    -2.5626     8.4280    12.1746 </r>
       <r>    -2.4892     9.3297    12.8590 </r>
       <r>    -2.4159     9.9403    13.5882 </r>
       <r>    -2.3425    10.8608    14.3850 </r>
       <r>    -2.2691    11.6729    15.2413 </r>
       <r>    -2.1958    11.7777    16.1053 </r>
       <r>    -2.1224    12.0723    16.9909 </r>
       <r>    -2.0491    13.8838    18.0094 </r>
       <r>    -1.9757    16.4278    19.2145 </r>
       <r>    -1.9023    17.3238    20.4854 </r>
       <r>    -1.8290    15.7853    21.6434 </r>
       <r>    -1.7556    13.5336    22.6362 </r>
       <r>    -1.6823    12.3318    23.5409 </r>
       <r>    -1.6089    11.9549    24.4179 </r>
       <r>    -1.5355    11.0297    25.2270 </r>
       <r>    -1.4622     9.2534    25.9059 </r>
       <r>    -1.3888     8.0780    26.4985 </r>
       <r>    -1.3155     9.1243    27.1678 </r>
       <r>    -1.2421    12.5580    28.0891 </r>
       <r>    -1.1687    17.0444    29.3394 </r>
       <r>    -1.0954    20.4695    30.8411 </r>
       <r>    -1.0220    20.9811    32.3802 </r>
       <r>    -0.9487    18.6841    33.7509 </r>
       <r>    -0.8753    16.1311    34.9342 </r>
       <r>    -0.8019    15.7596    36.0904 </r>
       <r>    -0.7286    17.2401    37.3551 </r>
       <r>    -0.6552    18.4801    38.7108 </r>
       <r>    -0.5819    18.2171    40.0472 </r>
       <r>    -0.5085    16.4535    41.2542 </r>
       <r>    -0.4351    13.5442    42.2478 </r>
       <r>    -0.3618    10.0567    42.9856 </r>
       <r>    -0.2884     6.8318    43.4867 </r>
       <r>    -0.2151     4.4155    43.8107 </r>
       <r>    -0.1417     2.7007    44.0088 </r>
       <r>    -0.0683     1.3729    44.1095 </r>
       <r>     0.0050     0.4006    44.1389 </r>
       <r>     0.0784    -0.1141    44.1305 </r>
       <r>     0.1517    -0.2506    44.1121 </r>
       <r>     0.2251    -0.1698    44.0997 </r>
       <r>     0.2985     0.1220    44.1086 </r>
       <r>     0.3718     0.6900    44.1592 </r>
       <r>     0.4452     1.4194    44.2634 </r>
       <r>     0.5185     2.0641    44.4148 </r>
       <r>     0.5919     2.4997    44.5982 </r>
       <r>     0.6652     2.6481    44.7924 </r>
       <r>     0.7386     2.3109    44.9620 </r>
       <r>     0.8120     1.4956    45.0717 </r>
       <r>     0.8853     0.6954    45.1227 </r>
       <r>     0.9587     0.4255    45.1539 </r>
       <r>     1.0320     0.6261    45.1998 </r>
       <r>     1.1054     0.7963    45.2582 </r>
       <r>     1.1788     0.6404    45.3052 </r>
       <r>     1.2521     0.3758    45.3328 </r>
       <r>     1.3255     0.3605    45.3592 </r>
       <r>     1.3988     0.6020    45.4034 </r>
       <r>     1.4722     0.8304    45.4643 </r>
       <r>     1.5456     0.9922    45.5371 </r>
       <r>     1.6189     1.3068    45.6330 </r>
       <r>     1.6923     1.7060    45.7581 </r>
       <r>     1.7656     1.7029    45.8830 </r>
       <r>     1.8390     1.1130    45.9647 </r>
       <r>     1.9124     0.4697    45.9991 </r>
       <r>     1.9857     0.4391    46.0314 </r>
       <r>     2.0591     1.0524    46.1086 </r>
       <r>     2.1324     1.6534    46.2299 </r>
       <r>     2.2058     1.6313    46.3495 </r>
       <r>     2.2792     1.1392    46.4331 </r>
       <r>     2.3525     0.8281    46.4939 </r>
       <r>     2.4259     0.9874    46.5663 </r>
       <r>     2.4992     1.3852    46.6679 </r>
       <r>     2.5726     1.7933    46.7995 </r>
       <r>     2.6460     2.1358    46.9561 </r>
       <r>     2.7193     2.2590    47.1219 </r>
       <r>     2.7927     2.0509    47.2723 </r>
       <r>     2.8660     1.6884    47.3962 </r>
       <r>     2.9394     1.4509    47.5026 </r>
       <r>     3.0128     1.3711    47.6032 </r>
       <r>     3.0861     1.2250    47.6931 </r>
       <r>     3.1595     0.8534    47.7557 </r>
       <r>     3.2328     0.3841    47.7838 </r>
       <r>     3.3062     0.0558    47.7879 </r>
       <r>     3.3796    -0.0585    47.7836 </r>
       <r>     3.4529    -0.0543    47.7797 </r>
       <r>     3.5263    -0.0389    47.7768 </r>
       <r>     3.5996    -0.0638    47.7721 </r>
       <r>     3.6730    -0.1299    47.7626 </r>
       <r>     3.7464    -0.1373    47.7525 </r>
       <r>     3.8197     0.1772    47.7655 </r>
       <r>     3.8931     1.0651    47.8437 </r>
       <r>     3.9664     2.3294    48.0145 </r>
       <r>     4.0398     3.2418    48.2524 </r>
       <r>     4.1131     3.2588    48.4914 </r>
       <r>     4.1865     2.6894    48.6887 </r>
       <r>     4.2599     2.2466    48.8535 </r>
       <r>     4.3332     2.1216    49.0092 </r>
       <r>     4.4066     1.9541    49.1525 </r>
       <r>     4.4799     1.5259    49.2645 </r>
       <r>     4.5533     1.0163    49.3390 </r>
       <r>     4.6267     0.6355    49.3856 </r>
       <r>     4.7000     0.3739    49.4131 </r>
       <r>     4.7734     0.2031    49.4280 </r>
       <r>     4.8467     0.2967    49.4497 </r>
       <r>     4.9201     0.8153    49.5095 </r>
       <r>     4.9935     1.5006    49.6196 </r>
       <r>     5.0668     1.7655    49.7491 </r>
       <r>     5.1402     1.3347    49.8470 </r>
       <r>     5.2135     0.5535    49.8876 </r>
       <r>     5.2869    -0.0529    49.8838 </r>
       <r>     5.3603    -0.1941    49.8695 </r>
       <r>     5.4336     0.2911    49.8909 </r>
       <r>     5.5070     1.4645    49.9983 </r>
       <r>     5.5803     2.9063    50.2115 </r>
       <r>     5.6537     3.6875    50.4820 </r>
       <r>     5.7271     3.2235    50.7185 </r>
       <r>     5.8004     2.0216    50.8668 </r>
       <r>     5.8738     1.1968    50.9546 </r>
       <r>     5.9471     1.3807    51.0559 </r>
       <r>     6.0205     2.2991    51.2246 </r>
       <r>     6.0939     3.0976    51.4518 </r>
       <r>     6.1672     3.0013    51.6720 </r>
       <r>     6.2406     2.0529    51.8226 </r>
       <r>     6.3139     1.1527    51.9071 </r>
       <r>     6.3873     1.1020    51.9880 </r>
       <r>     6.4607     1.7868    52.1191 </r>
       <r>     6.5340     2.4435    52.2983 </r>
       <r>     6.6074     2.5278    52.4838 </r>
       <r>     6.6807     2.1995    52.6451 </r>
       <r>     6.7541     1.9268    52.7865 </r>
       <r>     6.8275     1.7690    52.9162 </r>
       <r>     6.9008     1.4908    53.0256 </r>
       <r>     6.9742     1.3041    53.1213 </r>
       <r>     7.0475     1.7388    53.2488 </r>
       <r>     7.1209     2.6721    53.4448 </r>
       <r>     7.1943     3.2079    53.6802 </r>
       <r>     7.2676     2.7733    53.8836 </r>
       <r>     7.3410     1.8074    54.0162 </r>
       <r>     7.4143     1.0582    54.0938 </r>
       <r>     7.4877     0.7026    54.1454 </r>
       <r>     7.5610     0.5812    54.1880 </r>
       <r>     7.6344     0.8198    54.2482 </r>
       <r>     7.7078     1.6628    54.3701 </r>
       <r>     7.7811     2.9497    54.5865 </r>
       <r>     7.8545     4.1875    54.8937 </r>
       <r>     7.9278     4.9645    55.2579 </r>
       <r>     8.0012     5.0081    55.6253 </r>
       <r>     8.0746     4.1581    55.9303 </r>
       <r>     8.1479     2.7056    56.1288 </r>
       <r>     8.2213     1.5134    56.2398 </r>
       <r>     8.2946     1.3133    56.3362 </r>
       <r>     8.3680     1.9129    56.4765 </r>
       <r>     8.4414     2.4463    56.6560 </r>
       <r>     8.5147     2.3486    56.8283 </r>
       <r>     8.5881     1.7762    56.9586 </r>
       <r>     8.6614     1.2382    57.0494 </r>
       <r>     8.7348     1.1515    57.1339 </r>
       <r>     8.8082     1.5666    57.2488 </r>
       <r>     8.8815     2.0348    57.3981 </r>
       <r>     8.9549     1.9492    57.5411 </r>
       <r>     9.0282     1.2464    57.6325 </r>
       <r>     9.1016     0.5326    57.6716 </r>
       <r>     9.1750     0.3898    57.7002 </r>
       <r>     9.2483     0.8368    57.7616 </r>
       <r>     9.3217     1.5651    57.8764 </r>
       <r>     9.3950     2.4132    58.0534 </r>
       <r>     9.4684     3.4013    58.3029 </r>
       <r>     9.5418     4.4156    58.6268 </r>
       <r>     9.6151     5.0610    58.9981 </r>
       <r>     9.6885     4.9028    59.3578 </r>
       <r>     9.7618     3.9068    59.6444 </r>
       <r>     9.8352     2.5703    59.8329 </r>
       <r>     9.9086     1.4537    59.9396 </r>
       <r>     9.9819     0.7171    59.9922 </r>
       <r>    10.0553     0.2570    60.0110 </r>
       <r>    10.1286     0.0064    60.0115 </r>
       <r>    10.2020    -0.0704    60.0063 </r>
       <r>    10.2754    -0.0543    60.0024 </r>
       <r>    10.3487    -0.0236    60.0006 </r>
       <r>    10.4221    -0.0069    60.0001 </r>
       <r>    10.4954    -0.0014    60.0000 </r>
       <r>    10.5688    -0.0002    60.0000 </r>
       <r>    10.6422    -0.0000    60.0000 </r>
       <r>    10.7155    -0.0000    60.0000 </r>
       <r>    10.7889    -0.0000    60.0000 </r>
       <r>    10.8622    -0.0000    60.0000 </r>
       <r>    10.9356    -0.0000    60.0000 </r>
       <r>    11.0089    -0.0000    60.0000 </r>
       <r>    11.0823    -0.0000    60.0000 </r>
       <r>    11.1557    -0.0000    60.0000 </r>
       <r>    11.2290     0.0000    60.0000 </r>
       <r>    11.3024     0.0000    60.0000 </r>
       <r>    11.3757     0.0000    60.0000 </r>
       <r>    11.4491     0.0000    60.0000 </r>
       <r>    11.5225     0.0000    60.0000 </r>
       <r>    11.5958     0.0000    60.0000 </r>
       <r>    11.6692     0.0000    60.0000 </r>
       <r>    11.7425     0.0000    60.0000 </r>
       <r>    11.8159     0.0000    60.0000 </r>
       <r>    11.8893     0.0000    60.0000 </r>
      </set>
     </set>
    </array>
   </total>
  </dos>
 </calculation>
 <structure name="finalpos" >
  <crystal>
   <varray name="basis" >
    <v>       3.63000011       0.00000000       0.00000000 </v>
    <v>       0.00000000       2.56679773       0.00000000 </v>
    <v>       0.00000000       0.00000000      23.98379135 </v>
   </varray>
   <i name="volume">    223.46840188 </i>
   <varray name="rec_basis" >
    <v>       0.27548208       0.00000000       0.00000000 </v>
    <v>       0.00000000       0.38959050       0.00000000 </v>
    <v>       0.00000000       0.00000000       0.04169483 </v>
   </varray>
  </crystal>
  <varray name="positions" >
   <v>       0.00000000       0.00185970      -0.00113975 </v>
   <v>       0.50000000       0.50247863       0.04621948 </v>
   <v>       0.00000000       0.00450623       0.10039436 </v>
   <v>       0.50000000       0.50643728       0.15243438 </v>
   <v>       0.00000000       0.00762343       0.20518625 </v>
   <v>       0.50000000       0.50761362       0.25729422 </v>
   <v>       0.00000000       0.00777576       0.31145134 </v>
   <v>       0.50000000       0.50796612       0.35861753 </v>
   <v>       1.00000000       0.55508000       0.44284840 </v>
   <v>       1.00000000       0.60416886       0.47401753 </v>
  </varray>
 </structure>
</modeling>
