unknown system                          
           1
     3.630000    0.000000    0.000000
     0.000000    2.566798    0.000000
     0.000000    0.000000   23.983791
   Cu   H 
     8     2
Direct configuration=     1
   0.00000000  0.00000000  0.00000000
   0.50000000  0.50000000  0.05351109
   0.00000000  0.00000000  0.10468148
   0.50000000  0.50000000  0.15792996
   0.00000000  0.00000000  0.21070899
   0.50000000  0.50000000  0.26289048
   0.00000000  0.00000000  0.31711592
   0.50000000  0.50000000  0.36467590
   1.00000000  0.50000000  0.42690792
   1.00000000  0.70550963  0.44890201
Direct configuration=     2
   0.00000000  0.00000220  0.00103189
   0.50000000  0.50000187  0.05257243
   0.00000000 -0.00001931  0.10465853
   0.50000000  0.50002229  0.15807462
   0.00000000 -0.00000302  0.21048921
   0.50000000  0.49991114  0.26290021
   0.00000000  0.00041967  0.31694887
   0.50000000  0.50059776  0.36408420
   1.00000000  0.49233283  0.42627060
   1.00000000  0.71224420  0.45029317
Direct configuration=     3
   0.00000000  0.00000149  0.00070095
   0.50000000  0.50000127  0.05287347
   0.00000000 -0.00001312  0.10466589
   0.50000000  0.50001514  0.15802822
   0.00000000 -0.00000205  0.21055970
   0.50000000  0.49993964  0.26289709
   0.00000000  0.00028508  0.31700245
   0.50000000  0.50040605  0.36427397
   1.00000000  0.49479177  0.42647500
   1.00000000  0.71008436  0.44984701
Direct configuration=     4
   0.00000000  0.00000533  0.00209905
   0.50000000  0.50000230  0.05167103
   0.00000000 -0.00004065  0.10466432
   0.50000000  0.50004727  0.15816561
   0.00000000 -0.00000917  0.21024437
   0.50000000  0.49981785  0.26284824
   0.00000000  0.00093990  0.31673536
   0.50000000  0.50135545  0.36348906
   1.00000000  0.49671128  0.42692746
   1.00000000  0.70668009  0.45047923
Direct configuration=     5
   0.00000000  0.00000984  0.00374317
   0.50000000  0.50000350  0.05025701
   0.00000000 -0.00007303  0.10466246
   0.50000000  0.50008505  0.15832717
   0.00000000 -0.00001755  0.20987356
   0.50000000  0.49967462  0.26279080
   0.00000000  0.00170995  0.31642128
   0.50000000  0.50247191  0.36256603
   1.00000000  0.49896856  0.42745954
   1.00000000  0.70267678  0.45122270
Direct configuration=     6
   0.00000000  0.00001672  0.00373109
   0.50000000  0.50000380  0.05048667
   0.00000000 -0.00006942  0.10489144
   0.50000000  0.50008429  0.15795422
   0.00000000 -0.00003423  0.20975711
   0.50000000  0.49975396  0.26234420
   0.00000000  0.00213130  0.31616812
   0.50000000  0.50312877  0.36246933
   1.00000000  0.50258477  0.42804576
   1.00000000  0.69790969  0.45147579
Direct configuration=     7
   0.00000000  0.00001661  0.00373128
   0.50000000  0.50000380  0.05048319
   0.00000000 -0.00006948  0.10488797
   0.50000000  0.50008430  0.15795987
   0.00000000 -0.00003398  0.20975887
   0.50000000  0.49975275  0.26235098
   0.00000000  0.00212491  0.31617196
   0.50000000  0.50311880  0.36247080
   1.00000000  0.50252991  0.42803687
   1.00000000  0.69798201  0.45147195
Direct configuration=     8
   0.00000000  0.00001671  0.00373110
   0.50000000  0.50000380  0.05048648
   0.00000000 -0.00006943  0.10489125
   0.50000000  0.50008429  0.15795453
   0.00000000 -0.00003422  0.20975720
   0.50000000  0.49975389  0.26234458
   0.00000000  0.00213095  0.31616833
   0.50000000  0.50312822  0.36246941
   1.00000000  0.50258174  0.42804527
   1.00000000  0.69791367  0.45147557
Direct configuration=     9
   0.00000000  0.00002496  0.00369220
   0.50000000  0.50000877  0.05063460
   0.00000000 -0.00006155  0.10499191
   0.50000000  0.50008626  0.15774191
   0.00000000 -0.00003867  0.20968857
   0.50000000  0.49981917  0.26209652
   0.00000000  0.00238893  0.31601653
   0.50000000  0.50351745  0.36239135
   1.00000000  0.50287631  0.42818274
   1.00000000  0.69688800  0.45188740
Direct configuration=    10
   0.00000000  0.00004970  0.00357550
   0.50000000  0.50002368  0.05107894
   0.00000000 -0.00003792  0.10529390
   0.50000000  0.50009216  0.15710407
   0.00000000 -0.00005201  0.20948266
   0.50000000  0.50001500  0.26135237
   0.00000000  0.00316288  0.31556114
   0.50000000  0.50468516  0.36215715
   1.00000000  0.50376001  0.42859513
   1.00000000  0.69381098  0.45312289
Direct configuration=    11
   0.00000000  0.00009918  0.00334210
   0.50000000  0.50005349  0.05196763
   0.00000000  0.00000934  0.10589787
   0.50000000  0.50010397  0.15582837
   0.00000000 -0.00007869  0.20907085
   0.50000000  0.50040667  0.25986406
   0.00000000  0.00471077  0.31465034
   0.50000000  0.50702056  0.36168876
   1.00000000  0.50552741  0.42941990
   1.00000000  0.68765693  0.45559387
Direct configuration=    12
   0.00000000  0.00007229  0.00346896
   0.50000000  0.50003729  0.05148460
   0.00000000 -0.00001635  0.10556959
   0.50000000  0.50009755  0.15652175
   0.00000000 -0.00006419  0.20929468
   0.50000000  0.50019379  0.26067299
   0.00000000  0.00386945  0.31514538
   0.50000000  0.50575121  0.36194334
   1.00000000  0.50456678  0.42897161
   1.00000000  0.69100182  0.45425083
Direct configuration=    13
   0.00000000  0.00008283  0.00349410
   0.50000000  0.50004330  0.05161906
   0.00000000 -0.00000347  0.10550696
   0.50000000  0.50008552  0.15628101
   0.00000000 -0.00005880  0.20911044
   0.50000000  0.50039327  0.26034517
   0.00000000  0.00445776  0.31483090
   0.50000000  0.50664039  0.36162339
   1.00000000  0.50696552  0.42952299
   1.00000000  0.68690330  0.45498973
Direct configuration=    14
   0.00000000  0.00010152  0.00353866
   0.50000000  0.50005397  0.05185746
   0.00000000  0.00001936  0.10539590
   0.50000000  0.50006420  0.15585417
   0.00000000 -0.00004923  0.20878377
   0.50000000  0.50074696  0.25976392
   0.00000000  0.00550087  0.31427331
   0.50000000  0.50821697  0.36105610
   1.00000000  0.51121863  0.43050060
   1.00000000  0.67963637  0.45629984
Direct configuration=    15
   0.00000000  0.00011877  0.00359354
   0.50000000  0.50006960  0.05181664
   0.00000000  0.00003750  0.10522815
   0.50000000  0.50006497  0.15579806
   0.00000000 -0.00001381  0.20861895
   0.50000000  0.50094639  0.25960289
   0.00000000  0.00596875  0.31404170
   0.50000000  0.50886354  0.36076089
   1.00000000  0.51218300  0.43080127
   1.00000000  0.67727092  0.45706164
Direct configuration=    16
   0.00000000  0.00017052  0.00375818
   0.50000000  0.50011649  0.05169418
   0.00000000  0.00009191  0.10472490
   0.50000000  0.50006729  0.15562976
   0.00000000  0.00009244  0.20812447
   0.50000000  0.50154470  0.25911980
   0.00000000  0.00737238  0.31334690
   0.50000000  0.51080324  0.35987523
   1.00000000  0.51507612  0.43170329
   1.00000000  0.67017454  0.45934704
Direct configuration=    17
   0.00000000  0.00018375  0.00380024
   0.50000000  0.50012847  0.05166289
   0.00000000  0.00010581  0.10459632
   0.50000000  0.50006788  0.15558675
   0.00000000  0.00011959  0.20799814
   0.50000000  0.50169756  0.25899637
   0.00000000  0.00773100  0.31316938
   0.50000000  0.51129882  0.35964895
   1.00000000  0.51581529  0.43193375
   1.00000000  0.66836146  0.45993095
Direct configuration=    18
   0.00000000  0.00020696  0.00383089
   0.50000000  0.50015233  0.05150986
   0.00000000  0.00012828  0.10438248
   0.50000000  0.50007425  0.15557754
   0.00000000  0.00019072  0.20779222
   0.50000000  0.50196161  0.25885685
   0.00000000  0.00828489  0.31292606
   0.50000000  0.51197577  0.35932136
   1.00000000  0.51787706  0.43245566
   1.00000000  0.66465776  0.46067083
Direct configuration=    19
   0.00000000  0.00027659  0.00392283
   0.50000000  0.50022393  0.05105075
   0.00000000  0.00019569  0.10374094
   0.50000000  0.50009335  0.15554988
   0.00000000  0.00040409  0.20717446
   0.50000000  0.50275378  0.25843830
   0.00000000  0.00994655  0.31219612
   0.50000000  0.51400661  0.35833857
   1.00000000  0.52406238  0.43402139
   1.00000000  0.65354667  0.46289049
Direct configuration=    20
   0.00000000  0.00029408  0.00394594
   0.50000000  0.50024192  0.05093539
   0.00000000  0.00021263  0.10357974
   0.50000000  0.50009815  0.15554293
   0.00000000  0.00045771  0.20701923
   0.50000000  0.50295283  0.25833313
   0.00000000  0.01036408  0.31201270
   0.50000000  0.51451691  0.35809163
   1.00000000  0.52561660  0.43441482
   1.00000000  0.65075472  0.46344823
Direct configuration=    21
   0.00000000  0.00030120  0.00375940
   0.50000000  0.50025503  0.05080146
   0.00000000  0.00021472  0.10367108
   0.50000000  0.50011445  0.15549521
   0.00000000  0.00052933  0.20700264
   0.50000000  0.50303341  0.25834442
   0.00000000  0.01037353  0.31206855
   0.50000000  0.51440759  0.35822092
   1.00000000  0.52634872  0.43457831
   1.00000000  0.64993165  0.46338173
Direct configuration=    22
   0.00000000  0.00030812  0.00357824
   0.50000000  0.50026776  0.05067140
   0.00000000  0.00021674  0.10375979
   0.50000000  0.50013027  0.15544887
   0.00000000  0.00059890  0.20698652
   0.50000000  0.50311166  0.25835539
   0.00000000  0.01038272  0.31212279
   0.50000000  0.51430141  0.35834649
   1.00000000  0.52705975  0.43473710
   1.00000000  0.64913230  0.46331715
Direct configuration=    23
   0.00000000  0.00031564  0.00336396
   0.50000000  0.50028150  0.05049854
   0.00000000  0.00021766  0.10382347
   0.50000000  0.50015269  0.15539305
   0.00000000  0.00069394  0.20698587
   0.50000000  0.50322899  0.25838254
   0.00000000  0.01040536  0.31219045
   0.50000000  0.51417420  0.35849326
   1.00000000  0.52705223  0.43473448
   1.00000000  0.64898742  0.46345811
Direct configuration=    24
   0.00000000  0.00033819  0.00272113
   0.50000000  0.50032271  0.04997995
   0.00000000  0.00022039  0.10401452
   0.50000000  0.50021996  0.15522558
   0.00000000  0.00097908  0.20698393
   0.50000000  0.50358095  0.25846401
   0.00000000  0.01047329  0.31239343
   0.50000000  0.51379258  0.35893356
   1.00000000  0.52702969  0.43472661
   1.00000000  0.64855278  0.46388101
Direct configuration=    25
   0.00000000  0.00035086  0.00245665
   0.50000000  0.50033889  0.04971887
   0.00000000  0.00022516  0.10389283
   0.50000000  0.50027543  0.15512964
   0.00000000  0.00116017  0.20704297
   0.50000000  0.50381117  0.25855659
   0.00000000  0.01048752  0.31251467
   0.50000000  0.51358092  0.35912210
   1.00000000  0.52766356  0.43489058
   1.00000000  0.64761595  0.46399883
Direct configuration=    26
   0.00000000  0.00038887  0.00166323
   0.50000000  0.50038744  0.04893562
   0.00000000  0.00023949  0.10352777
   0.50000000  0.50044182  0.15484183
   0.00000000  0.00170341  0.20722007
   0.50000000  0.50450182  0.25883432
   0.00000000  0.01053024  0.31287839
   0.50000000  0.51294594  0.35968772
   1.00000000  0.52956515  0.43538251
   1.00000000  0.64480546  0.46435228
Direct configuration=    27
   0.00000000  0.00040239  0.00138099
   0.50000000  0.50040471  0.04865699
   0.00000000  0.00024458  0.10339791
   0.50000000  0.50050101  0.15473944
   0.00000000  0.00189666  0.20728308
   0.50000000  0.50474750  0.25893311
   0.00000000  0.01054543  0.31300778
   0.50000000  0.51272006  0.35988892
   1.00000000  0.53024160  0.43555751
   1.00000000  0.64380569  0.46447801
Direct configuration=    28
   0.00000000  0.00039556  0.00152351
   0.50000000  0.50039599  0.04879768
   0.00000000  0.00024201  0.10346348
   0.50000000  0.50047112  0.15479114
   0.00000000  0.00179908  0.20725126
   0.50000000  0.50462344  0.25888322
   0.00000000  0.01053776  0.31294245
   0.50000000  0.51283412  0.35978732
   1.00000000  0.52990003  0.43546914
   1.00000000  0.64431052  0.46441452
Direct configuration=    29
   0.00000000  0.00039909  0.00144979
   0.50000000  0.50040050  0.04872490
   0.00000000  0.00024334  0.10342956
   0.50000000  0.50048659  0.15476440
   0.00000000  0.00184956  0.20726772
   0.50000000  0.50468762  0.25890903
   0.00000000  0.01054173  0.31297624
   0.50000000  0.51277512  0.35983988
   1.00000000  0.53007672  0.43551485
   1.00000000  0.64404937  0.46444736
Direct configuration=    30
   0.00000000  0.00039711  0.00149118
   0.50000000  0.50039797  0.04876576
   0.00000000  0.00024260  0.10344861
   0.50000000  0.50047790  0.15477941
   0.00000000  0.00182122  0.20725848
   0.50000000  0.50465159  0.25889454
   0.00000000  0.01053950  0.31295727
   0.50000000  0.51280824  0.35981037
   1.00000000  0.52997752  0.43548919
   1.00000000  0.64419599  0.46442892
Direct configuration=    31
   0.00000000  0.00039810  0.00147048
   0.50000000  0.50039923  0.04874533
   0.00000000  0.00024297  0.10343908
   0.50000000  0.50048224  0.15477191
   0.00000000  0.00183539  0.20726310
   0.50000000  0.50466960  0.25890179
   0.00000000  0.01054061  0.31296676
   0.50000000  0.51279168  0.35982513
   1.00000000  0.53002712  0.43550202
   1.00000000  0.64412268  0.46443814
Direct configuration=    32
   0.00000000  0.00040781  0.00131377
   0.50000000  0.50040993  0.04858943
   0.00000000  0.00025168  0.10332252
   0.50000000  0.50052935  0.15471213
   0.00000000  0.00196255  0.20729854
   0.50000000  0.50482571  0.25896440
   0.00000000  0.01054011  0.31304768
   0.50000000  0.51265286  0.35992995
   1.00000000  0.53020362  0.43555186
   1.00000000  0.64372602  0.46459345
Direct configuration=    33
   0.00000000  0.00043693  0.00084364
   0.50000000  0.50044201  0.04812174
   0.00000000  0.00027780  0.10297284
   0.50000000  0.50067065  0.15453282
   0.00000000  0.00234403  0.20740487
   0.50000000  0.50529403  0.25915224
   0.00000000  0.01053862  0.31329044
   0.50000000  0.51223638  0.36024442
   1.00000000  0.53073313  0.43570137
   1.00000000  0.64253606  0.46505937
Direct configuration=    34
   0.00000000  0.00049516 -0.00009663
   0.50000000  0.50050618  0.04718634
   0.00000000  0.00033004  0.10227349
   0.50000000  0.50095325  0.15417418
   0.00000000  0.00310699  0.20761753
   0.50000000  0.50623068  0.25952791
   0.00000000  0.01053563  0.31377595
   0.50000000  0.51140343  0.36087336
   1.00000000  0.53179214  0.43600039
   1.00000000  0.64015614  0.46599121
Direct configuration=    35
   0.00000000  0.00045578  0.00053924
   0.50000000  0.50046278  0.04781892
   0.00000000  0.00029471  0.10274644
   0.50000000  0.50076213  0.15441672
   0.00000000  0.00259102  0.20747371
   0.50000000  0.50559726  0.25927386
   0.00000000  0.01053765  0.31344761
   0.50000000  0.51196673  0.36044803
   1.00000000  0.53107596  0.43579817
   1.00000000  0.64176561  0.46536103
Direct configuration=    36
   0.00000000  0.00046340  0.00041615
   0.50000000  0.50047119  0.04769646
   0.00000000  0.00030155  0.10265488
   0.50000000  0.50079913  0.15436976
   0.00000000  0.00269091  0.20750155
   0.50000000  0.50571988  0.25932304
   0.00000000  0.01053726  0.31351117
   0.50000000  0.51185768  0.36053037
   1.00000000  0.53121461  0.43583732
   1.00000000  0.64145404  0.46548303
Direct configuration=    37
   0.00000000  0.00045774  0.00050761
   0.50000000  0.50046494  0.04778745
   0.00000000  0.00029647  0.10272291
   0.50000000  0.50077164  0.15440465
   0.00000000  0.00261669  0.20748087
   0.50000000  0.50562877  0.25928649
   0.00000000  0.01053755  0.31346395
   0.50000000  0.51193870  0.36046919
   1.00000000  0.53111159  0.43580823
   1.00000000  0.64168554  0.46539238
Direct configuration=    38
   0.00000000  0.00046079  0.00045831
   0.50000000  0.50046831  0.04773840
   0.00000000  0.00029921  0.10268624
   0.50000000  0.50078646  0.15438584
   0.00000000  0.00265670  0.20749202
   0.50000000  0.50567788  0.25930619
   0.00000000  0.01053739  0.31348941
   0.50000000  0.51189503  0.36050217
   1.00000000  0.53116712  0.43582391
   1.00000000  0.64156074  0.46544125
Direct configuration=    39
   0.00000000  0.00045811  0.00050164
   0.50000000  0.50046535  0.04778151
   0.00000000  0.00029680  0.10271847
   0.50000000  0.50077343  0.15440237
   0.00000000  0.00262153  0.20748222
   0.50000000  0.50563471  0.25928888
   0.00000000  0.01053753  0.31346703
   0.50000000  0.51193342  0.36047318
   1.00000000  0.53111832  0.43581013
   1.00000000  0.64167043  0.46539830
Direct configuration=    40
   0.00000000  0.00045945  0.00047997
   0.50000000  0.50046683  0.04775996
   0.00000000  0.00029800  0.10270236
   0.50000000  0.50077995  0.15439411
   0.00000000  0.00263912  0.20748712
   0.50000000  0.50565630  0.25929754
   0.00000000  0.01053746  0.31347822
   0.50000000  0.51191422  0.36048767
   1.00000000  0.53114272  0.43581702
   1.00000000  0.64161559  0.46541977
Direct configuration=    41
   0.00000000  0.00045891  0.00048876
   0.50000000  0.50046623  0.04776869
   0.00000000  0.00029751  0.10270889
   0.50000000  0.50077731  0.15439746
   0.00000000  0.00263199  0.20748513
   0.50000000  0.50564755  0.25929403
   0.00000000  0.01053749  0.31347368
   0.50000000  0.51192200  0.36048180
   1.00000000  0.53113283  0.43581423
   1.00000000  0.64163782  0.46541107
Direct configuration=    42
   0.00000000  0.00045921  0.00048381
   0.50000000  0.50046657  0.04776377
   0.00000000  0.00029779  0.10270521
   0.50000000  0.50077879  0.15439557
   0.00000000  0.00263600  0.20748625
   0.50000000  0.50565248  0.25929600
   0.00000000  0.01053747  0.31347624
   0.50000000  0.51191762  0.36048511
   1.00000000  0.53113840  0.43581580
   1.00000000  0.64162530  0.46541597
Direct configuration=    43
   0.00000000  0.00045898  0.00048759
   0.50000000  0.50046631  0.04776754
   0.00000000  0.00029758  0.10270802
   0.50000000  0.50077766  0.15439701
   0.00000000  0.00263293  0.20748540
   0.50000000  0.50564871  0.25929449
   0.00000000  0.01053749  0.31347428
   0.50000000  0.51192097  0.36048258
   1.00000000  0.53113414  0.43581460
   1.00000000  0.64163487  0.46541222
Direct configuration=    44
   0.00000000  0.00045909  0.00048570
   0.50000000  0.50046644  0.04776566
   0.00000000  0.00029768  0.10270662
   0.50000000  0.50077822  0.15439629
   0.00000000  0.00263447  0.20748582
   0.50000000  0.50565059  0.25929525
   0.00000000  0.01053748  0.31347526
   0.50000000  0.51191929  0.36048384
   1.00000000  0.53113627  0.43581520
   1.00000000  0.64163009  0.46541410
Direct configuration=    45
   0.00000000  0.00045902  0.00048695
   0.50000000  0.50046635  0.04776690
   0.00000000  0.00029761  0.10270755
   0.50000000  0.50077785  0.15439677
   0.00000000  0.00263345  0.20748554
   0.50000000  0.50564935  0.25929475
   0.00000000  0.01053748  0.31347461
   0.50000000  0.51192040  0.36048301
   1.00000000  0.53113486  0.43581480
   1.00000000  0.64163325  0.46541286
Direct configuration=    46
   0.00000000  0.00045903  0.00048673
   0.50000000  0.50046637  0.04776668
   0.00000000  0.00029763  0.10270738
   0.50000000  0.50077791  0.15439669
   0.00000000  0.00263363  0.20748559
   0.50000000  0.50564957  0.25929484
   0.00000000  0.01053748  0.31347473
   0.50000000  0.51192021  0.36048315
   1.00000000  0.53113511  0.43581487
   1.00000000  0.64163270  0.46541307
Direct configuration=    47
   0.00000000  0.00047270  0.00039922
   0.50000000  0.50047496  0.04768538
   0.00000000  0.00032304  0.10257045
   0.50000000  0.50084758  0.15436184
   0.00000000  0.00275281  0.20747770
   0.50000000  0.50576428  0.25933027
   0.00000000  0.01050260  0.31353470
   0.50000000  0.51181690  0.36053131
   1.00000000  0.53149828  0.43591867
   1.00000000  0.64105649  0.46551418
Direct configuration=    48
   0.00000000  0.00049427  0.00026115
   0.50000000  0.50048851  0.04755710
   0.00000000  0.00036314  0.10235441
   0.50000000  0.50095748  0.15430686
   0.00000000  0.00294082  0.20746526
   0.50000000  0.50594526  0.25938618
   0.00000000  0.01044757  0.31362933
   0.50000000  0.51165392  0.36060730
   1.00000000  0.53207124  0.43608243
   1.00000000  0.64014743  0.46567370
Direct configuration=    49
   0.00000000  0.00053741 -0.00001498
   0.50000000  0.50051561  0.04730056
   0.00000000  0.00044333  0.10192234
   0.50000000  0.50117730  0.15419691
   0.00000000  0.00331685  0.20744038
   0.50000000  0.50630721  0.25949800
   0.00000000  0.01033750  0.31381857
   0.50000000  0.51132795  0.36075926
   1.00000000  0.53321716  0.43640995
   1.00000000  0.63832932  0.46599274
Direct configuration=    50
   0.00000000  0.00050893  0.00016735
   0.50000000  0.50049771  0.04746996
   0.00000000  0.00039038  0.10220764
   0.50000000  0.50103215  0.15426951
   0.00000000  0.00306856  0.20745681
   0.50000000  0.50606821  0.25942417
   0.00000000  0.01041018  0.31369361
   0.50000000  0.51154319  0.36065892
   1.00000000  0.53246050  0.43619369
   1.00000000  0.63952984  0.46578208
Direct configuration=    51
   0.00000000  0.00052317  0.00007619
   0.50000000  0.50050666  0.04738526
   0.00000000  0.00041685  0.10206499
   0.50000000  0.50110472  0.15423321
   0.00000000  0.00319270  0.20744860
   0.50000000  0.50618771  0.25946109
   0.00000000  0.01037384  0.31375609
   0.50000000  0.51143557  0.36070909
   1.00000000  0.53283883  0.43630182
   1.00000000  0.63892958  0.46588741
Direct configuration=    52
   0.00000000  0.00054513  0.00005505
   0.50000000  0.50052107  0.04738620
   0.00000000  0.00047339  0.10196810
   0.50000000  0.50121316  0.15422017
   0.00000000  0.00330015  0.20737150
   0.50000000  0.50622864  0.25943646
   0.00000000  0.01029115  0.31376531
   0.50000000  0.51139012  0.36068726
   1.00000000  0.53308181  0.43637769
   1.00000000  0.63846503  0.46605600
Direct configuration=    53
   0.00000000  0.00058294  0.00001865
   0.50000000  0.50054589  0.04738783
   0.00000000  0.00057074  0.10180126
   0.50000000  0.50139989  0.15419773
   0.00000000  0.00348517  0.20723873
   0.50000000  0.50629913  0.25939406
   0.00000000  0.01014875  0.31378118
   0.50000000  0.51131185  0.36064966
   1.00000000  0.53350023  0.43650833
   1.00000000  0.63766505  0.46634632
Direct configuration=    54
   0.00000000  0.00065857 -0.00005416
   0.50000000  0.50059552  0.04739109
   0.00000000  0.00076545  0.10146757
   0.50000000  0.50177336  0.15415284
   0.00000000  0.00385521  0.20697319
   0.50000000  0.50644010  0.25930925
   0.00000000  0.00986395  0.31381291
   0.50000000  0.51115532  0.36057447
   1.00000000  0.53433708  0.43676961
   1.00000000  0.63606509  0.46692696
Direct configuration=    55
   0.00000000  0.00063162 -0.00002822
   0.50000000  0.50057784  0.04738993
   0.00000000  0.00069608  0.10158646
   0.50000000  0.50164030  0.15416883
   0.00000000  0.00372337  0.20706780
   0.50000000  0.50638987  0.25933946
   0.00000000  0.00996541  0.31380161
   0.50000000  0.51121109  0.36060126
   1.00000000  0.53403893  0.43667652
   1.00000000  0.63663512  0.46672009
Direct configuration=    56
   0.00000000  0.00064510 -0.00004119
   0.50000000  0.50058668  0.04739051
   0.00000000  0.00073078  0.10152699
   0.50000000  0.50170685  0.15416083
   0.00000000  0.00378931  0.20702047
   0.50000000  0.50641500  0.25932435
   0.00000000  0.00991466  0.31380726
   0.50000000  0.51118319  0.36058786
   1.00000000  0.53418806  0.43672308
   1.00000000  0.63635000  0.46682357
Direct configuration=    57
   0.00000000  0.00063836 -0.00003471
   0.50000000  0.50058226  0.04739022
   0.00000000  0.00071343  0.10155673
   0.50000000  0.50167358  0.15416483
   0.00000000  0.00375634  0.20704414
   0.50000000  0.50640244  0.25933191
   0.00000000  0.00994004  0.31380444
   0.50000000  0.51119714  0.36059456
   1.00000000  0.53411349  0.43669980
   1.00000000  0.63649256  0.46677183
Direct configuration=    58
   0.00000000  0.00064203 -0.00003823
   0.50000000  0.50058466  0.04739038
   0.00000000  0.00072286  0.10154057
   0.50000000  0.50169166  0.15416266
   0.00000000  0.00377426  0.20703128
   0.50000000  0.50640926  0.25932780
   0.00000000  0.00992625  0.31380597
   0.50000000  0.51118956  0.36059092
   1.00000000  0.53415402  0.43671245
   1.00000000  0.63641508  0.46679995
Direct configuration=    59
   0.00000000  0.00065497 -0.00004762
   0.50000000  0.50059514  0.04739336
   0.00000000  0.00075822  0.10149955
   0.50000000  0.50175527  0.15415334
   0.00000000  0.00383065  0.20698820
   0.50000000  0.50642663  0.25930890
   0.00000000  0.00988002  0.31380177
   0.50000000  0.51116418  0.36057495
   1.00000000  0.53439159  0.43678464
   1.00000000  0.63605297  0.46686666
Direct configuration=    60
   0.00000000  0.00069378 -0.00007578
   0.50000000  0.50062655  0.04740231
   0.00000000  0.00086431  0.10137649
   0.50000000  0.50194609  0.15412537
   0.00000000  0.00399981  0.20685898
   0.50000000  0.50647875  0.25925220
   0.00000000  0.00974135  0.31378917
   0.50000000  0.51108804  0.36052704
   1.00000000  0.53510432  0.43700119
   1.00000000  0.63496663  0.46706678
Direct configuration=    61
   0.00000000  0.00077142 -0.00013210
   0.50000000  0.50068938  0.04742020
   0.00000000  0.00107648  0.10113037
   0.50000000  0.50232773  0.15406944
   0.00000000  0.00433814  0.20660053
   0.50000000  0.50658298  0.25913881
   0.00000000  0.00946401  0.31376397
   0.50000000  0.51093576  0.36043123
   1.00000000  0.53652978  0.43743428
   1.00000000  0.63279396  0.46746702
Direct configuration=    62
   0.00000000  0.00092669 -0.00024474
   0.50000000  0.50081504  0.04745599
   0.00000000  0.00150082  0.10063813
   0.50000000  0.50309101  0.15395757
   0.00000000  0.00501480  0.20608363
   0.50000000  0.50679144  0.25891202
   0.00000000  0.00890933  0.31371356
   0.50000000  0.51063120  0.36023960
   1.00000000  0.53938069  0.43830048
   1.00000000  0.62844861  0.46826750
Direct configuration=    63
   0.00000000  0.00082299 -0.00016951
   0.50000000  0.50073112  0.04743209
   0.00000000  0.00121742  0.10096688
   0.50000000  0.50258125  0.15403228
   0.00000000  0.00456289  0.20642884
   0.50000000  0.50665222  0.25906348
   0.00000000  0.00927977  0.31374723
   0.50000000  0.51083460  0.36036758
   1.00000000  0.53747670  0.43772199
   1.00000000  0.63135066  0.46773290
Direct configuration=    64
   0.00000000  0.00087484 -0.00020713
   0.50000000  0.50077308  0.04744404
   0.00000000  0.00135912  0.10080250
   0.50000000  0.50283613  0.15399492
   0.00000000  0.00478885  0.20625624
   0.50000000  0.50672183  0.25898775
   0.00000000  0.00909455  0.31373039
   0.50000000  0.51073290  0.36030359
   1.00000000  0.53842870  0.43801123
   1.00000000  0.62989963  0.46800020
Direct configuration=    65
   0.00000000  0.00092106 -0.00024984
   0.50000000  0.50082313  0.04743744
   0.00000000  0.00149963  0.10072501
   0.50000000  0.50306224  0.15393826
   0.00000000  0.00496465  0.20612715
   0.50000000  0.50677361  0.25890742
   0.00000000  0.00896083  0.31366865
   0.50000000  0.51062147  0.36023547
   1.00000000  0.53914843  0.43822694
   1.00000000  0.62873459  0.46830724
Direct configuration=    66
   0.00000000  0.00103258 -0.00035291
   0.50000000  0.50094388  0.04742154
   0.00000000  0.00183865  0.10053804
   0.50000000  0.50360780  0.15380154
   0.00000000  0.00538882  0.20581569
   0.50000000  0.50689854  0.25871361
   0.00000000  0.00863819  0.31351966
   0.50000000  0.51035260  0.36007112
   1.00000000  0.54088502  0.43874739
   1.00000000  0.62592356  0.46904807
Direct configuration=    67
   0.00000000  0.00125561 -0.00055905
   0.50000000  0.50118537  0.04738972
   0.00000000  0.00251669  0.10016408
   0.50000000  0.50469893  0.15352810
   0.00000000  0.00623717  0.20519277
   0.50000000  0.50714839  0.25832598
   0.00000000  0.00799292  0.31322170
   0.50000000  0.50981486  0.35974242
   1.00000000  0.54435819  0.43978829
   1.00000000  0.62030150  0.47052973
Direct configuration=    68
   0.00000000  0.00134298 -0.00067813
   0.50000000  0.50134543  0.04726627
   0.00000000  0.00282833  0.10020577
   0.50000000  0.50511324  0.15334525
   0.00000000  0.00653428  0.20508663
   0.50000000  0.50723958  0.25814410
   0.00000000  0.00786718  0.31295022
   0.50000000  0.50950877  0.35957661
   1.00000000  0.54615495  0.44033172
   1.00000000  0.61757489  0.47109531
Direct configuration=    69
   0.00000000  0.00160510 -0.00103540
   0.50000000  0.50182558  0.04689592
   0.00000000  0.00376325  0.10033081
   0.50000000  0.50635617  0.15279670
   0.00000000  0.00742562  0.20476824
   0.50000000  0.50751314  0.25759845
   0.00000000  0.00748997  0.31213578
   0.50000000  0.50859049  0.35907920
   1.00000000  0.55154524  0.44196199
   1.00000000  0.60939506  0.47279204
Direct configuration=    70
   0.00000000  0.00170856 -0.00111258
   0.50000000  0.50207834  0.04663472
   0.00000000  0.00410125  0.10037263
   0.50000000  0.50656055  0.15261254
   0.00000000  0.00762840  0.20488827
   0.50000000  0.50759091  0.25743283
   0.00000000  0.00754688  0.31177636
   0.50000000  0.50826097  0.35885932
   1.00000000  0.55299584  0.44224135
   1.00000000  0.60703793  0.47361830
Direct configuration=    71
   0.00000000  0.00167543 -0.00108786
   0.50000000  0.50199739  0.04671837
   0.00000000  0.00399300  0.10035924
   0.50000000  0.50649509  0.15267152
   0.00000000  0.00756346  0.20484983
   0.50000000  0.50756601  0.25748587
   0.00000000  0.00752866  0.31189147
   0.50000000  0.50836650  0.35892974
   1.00000000  0.55253126  0.44215188
   1.00000000  0.60779284  0.47335368
Direct configuration=    72
   0.00000000  0.00168526 -0.00109519
   0.50000000  0.50202141  0.04669356
   0.00000000  0.00402511  0.10036321
   0.50000000  0.50651451  0.15265402
   0.00000000  0.00758272  0.20486123
   0.50000000  0.50757339  0.25747014
   0.00000000  0.00753406  0.31185732
   0.50000000  0.50833519  0.35890885
   1.00000000  0.55266908  0.44217842
   1.00000000  0.60756889  0.47343218
Direct configuration=    73
   0.00000000  0.00178045 -0.00112431
   0.50000000  0.50229169  0.04639103
   0.00000000  0.00431884  0.10038913
   0.50000000  0.50650407  0.15250634
   0.00000000  0.00764524  0.20508143
   0.50000000  0.50760438  0.25735443
   0.00000000  0.00768907  0.31156965
   0.50000000  0.50808466  0.35871785
   1.00000000  0.55416754  0.44258029
   1.00000000  0.60542369  0.47385791