 145 145   0   0
  0.2265927E+02  0.1089000E-08  0.1089000E-08  0.2770500E-08  0.5000000E-15
  1.000000000000000E-004
  CAR 
 unknown system                          
     13.09631847     -9.51219450  301      1.71906868      1.00000000
     -9.512  0.0000E+00  0.0000E+00  0.0000E+00  0.0000E+00
     -9.437  0.0000E+00  0.0000E+00  0.0000E+00  0.0000E+00
     -9.361  0.0000E+00  0.0000E+00  0.0000E+00  0.0000E+00
     -9.286  0.0000E+00  0.0000E+00  0.0000E+00  0.0000E+00
     -9.211  0.0000E+00  0.0000E+00  0.0000E+00  0.0000E+00
     -9.135 -0.1044E-30 -0.1044E-30 -0.7870E-32 -0.7870E-32
     -9.060 -0.3905E-28 -0.3905E-28 -0.2951E-29 -0.2951E-29
     -8.985 -0.1099E-25 -0.1099E-25 -0.8310E-27 -0.8310E-27
     -8.909 -0.2320E-23 -0.2320E-23 -0.1757E-24 -0.1757E-24
     -8.834 -0.3677E-21 -0.3677E-21 -0.2788E-22 -0.2788E-22
     -8.759 -0.4369E-19 -0.4369E-19 -0.3321E-20 -0.3321E-20
     -8.683 -0.3790E-17 -0.3790E-17 -0.2889E-18 -0.2889E-18
     -8.608 -0.2512E-15 -0.2512E-15 -0.1922E-16 -0.1922E-16
     -8.532 -0.1248E-13 -0.1248E-13 -0.9596E-15 -0.9596E-15
     -8.457 -0.4630E-12 -0.4630E-12 -0.3585E-13 -0.3585E-13
     -8.382 -0.1280E-10 -0.1280E-10 -0.1001E-11 -0.1001E-11
     -8.306 -0.2635E-09 -0.2635E-09 -0.2086E-10 -0.2086E-10
     -8.231 -0.4023E-08 -0.4023E-08 -0.3240E-09 -0.3240E-09
     -8.156 -0.4541E-07 -0.4541E-07 -0.3746E-08 -0.3746E-08
     -8.080 -0.3772E-06 -0.3772E-06 -0.3217E-07 -0.3217E-07
     -8.005 -0.2291E-05 -0.2291E-05 -0.2049E-06 -0.2049E-06
     -7.930 -0.1008E-04 -0.1008E-04 -0.9645E-06 -0.9645E-06
     -7.854 -0.3151E-04 -0.3151E-04 -0.3339E-05 -0.3339E-05
     -7.779 -0.6652E-04 -0.6652E-04 -0.8352E-05 -0.8352E-05
     -7.704 -0.7608E-04 -0.7608E-04 -0.1409E-04 -0.1409E-04
     -7.628  0.4886E-04  0.4886E-04 -0.1040E-04 -0.1040E-04
     -7.553  0.4721E-03  0.4721E-03  0.2517E-04  0.2517E-04
     -7.477  0.1306E-02  0.1306E-02  0.1236E-03  0.1236E-03
     -7.402  0.2421E-02  0.2421E-02  0.3060E-03  0.3060E-03
     -7.327  0.3358E-02  0.3358E-02  0.5591E-03  0.5591E-03
     -7.251  0.3559E-02  0.3559E-02  0.8273E-03  0.8273E-03
     -7.176  0.2841E-02  0.2841E-02  0.1041E-02  0.1041E-02
     -7.101  0.1804E-02  0.1804E-02  0.1177E-02  0.1177E-02
     -7.025  0.1652E-02  0.1652E-02  0.1302E-02  0.1302E-02
     -6.950  0.3218E-02  0.3218E-02  0.1544E-02  0.1544E-02
     -6.875  0.6037E-02  0.6037E-02  0.1999E-02  0.1999E-02
     -6.799  0.8417E-02  0.8417E-02  0.2634E-02  0.2634E-02
     -6.724  0.8626E-02  0.8626E-02  0.3284E-02  0.3284E-02
     -6.648  0.6448E-02  0.6448E-02  0.3770E-02  0.3770E-02
     -6.573  0.3525E-02  0.3525E-02  0.4035E-02  0.4035E-02
     -6.498  0.2031E-02  0.2031E-02  0.4188E-02  0.4188E-02
     -6.422  0.3057E-02  0.3057E-02  0.4419E-02  0.4419E-02
     -6.347  0.5993E-02  0.5993E-02  0.4870E-02  0.4870E-02
     -6.272  0.9174E-02  0.9174E-02  0.5562E-02  0.5562E-02
     -6.196  0.1108E-01  0.1108E-01  0.6396E-02  0.6396E-02
     -6.121  0.1103E-01  0.1103E-01  0.7228E-02  0.7228E-02
     -6.046  0.9363E-02  0.9363E-02  0.7933E-02  0.7933E-02
     -5.970  0.7248E-02  0.7248E-02  0.8480E-02  0.8480E-02
     -5.895  0.6118E-02  0.6118E-02  0.8941E-02  0.8941E-02
     -5.819  0.6742E-02  0.6742E-02  0.9449E-02  0.9449E-02
     -5.744  0.8815E-02  0.8815E-02  0.1011E-01  0.1011E-01
     -5.669  0.1129E-01  0.1129E-01  0.1096E-01  0.1096E-01
     -5.593  0.1288E-01  0.1288E-01  0.1193E-01  0.1193E-01
     -5.518  0.1252E-01  0.1252E-01  0.1288E-01  0.1288E-01
     -5.443  0.1026E-01  0.1026E-01  0.1365E-01  0.1365E-01
     -5.367  0.7879E-02  0.7879E-02  0.1424E-01  0.1424E-01
     -5.292  0.7871E-02  0.7871E-02  0.1484E-01  0.1484E-01
     -5.217  0.1055E-01  0.1055E-01  0.1563E-01  0.1563E-01
     -5.141  0.1321E-01  0.1321E-01  0.1663E-01  0.1663E-01
     -5.066  0.1353E-01  0.1353E-01  0.1765E-01  0.1765E-01
     -4.990  0.1276E-01  0.1276E-01  0.1861E-01  0.1861E-01
     -4.915  0.1358E-01  0.1358E-01  0.1963E-01  0.1963E-01
     -4.840  0.1588E-01  0.1588E-01  0.2083E-01  0.2083E-01
     -4.764  0.1720E-01  0.1720E-01  0.2213E-01  0.2213E-01
     -4.689  0.1659E-01  0.1659E-01  0.2338E-01  0.2338E-01
     -4.614  0.1540E-01  0.1540E-01  0.2454E-01  0.2454E-01
     -4.538  0.1457E-01  0.1457E-01  0.2563E-01  0.2563E-01
     -4.463  0.1406E-01  0.1406E-01  0.2669E-01  0.2669E-01
     -4.388  0.1429E-01  0.1429E-01  0.2777E-01  0.2777E-01
     -4.312  0.1568E-01  0.1568E-01  0.2895E-01  0.2895E-01
     -4.237  0.1738E-01  0.1738E-01  0.3026E-01  0.3026E-01
     -4.162  0.1839E-01  0.1839E-01  0.3165E-01  0.3165E-01
     -4.086  0.1946E-01  0.1946E-01  0.3312E-01  0.3312E-01
     -4.011  0.2212E-01  0.2212E-01  0.3478E-01  0.3478E-01
     -3.935  0.2580E-01  0.2580E-01  0.3673E-01  0.3673E-01
     -3.860  0.2784E-01  0.2784E-01  0.3882E-01  0.3882E-01
     -3.785  0.2678E-01  0.2678E-01  0.4084E-01  0.4084E-01
     -3.709  0.2452E-01  0.2452E-01  0.4269E-01  0.4269E-01
     -3.634  0.2415E-01  0.2415E-01  0.4451E-01  0.4451E-01
     -3.559  0.2677E-01  0.2677E-01  0.4653E-01  0.4653E-01
     -3.483  0.3166E-01  0.3166E-01  0.4891E-01  0.4891E-01
     -3.408  0.3870E-01  0.3870E-01  0.5183E-01  0.5183E-01
     -3.333  0.4803E-01  0.4803E-01  0.5545E-01  0.5545E-01
     -3.257  0.5790E-01  0.5790E-01  0.5981E-01  0.5981E-01
     -3.182  0.6597E-01  0.6597E-01  0.6479E-01  0.6479E-01
     -3.106  0.7227E-01  0.7227E-01  0.7023E-01  0.7023E-01
     -3.031  0.7783E-01  0.7783E-01  0.7610E-01  0.7610E-01
     -2.956  0.8274E-01  0.8274E-01  0.8233E-01  0.8233E-01
     -2.880  0.8756E-01  0.8756E-01  0.8893E-01  0.8893E-01
     -2.805  0.9467E-01  0.9467E-01  0.9607E-01  0.9607E-01
     -2.730  0.1062E+00  0.1062E+00  0.1041E+00  0.1041E+00
     -2.654  0.1205E+00  0.1205E+00  0.1131E+00  0.1131E+00
     -2.579  0.1352E+00  0.1352E+00  0.1233E+00  0.1233E+00
     -2.504  0.1527E+00  0.1527E+00  0.1348E+00  0.1348E+00
     -2.428  0.1751E+00  0.1751E+00  0.1480E+00  0.1480E+00
     -2.353  0.1963E+00  0.1963E+00  0.1628E+00  0.1628E+00
     -2.277  0.2067E+00  0.2067E+00  0.1784E+00  0.1784E+00
     -2.202  0.2026E+00  0.2026E+00  0.1937E+00  0.1937E+00
     -2.127  0.1875E+00  0.1875E+00  0.2078E+00  0.2078E+00
     -2.051  0.1709E+00  0.1709E+00  0.2207E+00  0.2207E+00
     -1.976  0.1634E+00  0.1634E+00  0.2330E+00  0.2330E+00
     -1.901  0.1696E+00  0.1696E+00  0.2458E+00  0.2458E+00
     -1.825  0.1860E+00  0.1860E+00  0.2598E+00  0.2598E+00
     -1.750  0.2053E+00  0.2053E+00  0.2753E+00  0.2753E+00
     -1.675  0.2197E+00  0.2197E+00  0.2918E+00  0.2918E+00
     -1.599  0.2280E+00  0.2280E+00  0.3090E+00  0.3090E+00
     -1.524  0.2387E+00  0.2387E+00  0.3270E+00  0.3270E+00
     -1.448  0.2591E+00  0.2591E+00  0.3465E+00  0.3465E+00
     -1.373  0.2850E+00  0.2850E+00  0.3680E+00  0.3680E+00
     -1.298  0.3069E+00  0.3069E+00  0.3911E+00  0.3911E+00
     -1.222  0.3206E+00  0.3206E+00  0.4153E+00  0.4153E+00
     -1.147  0.3256E+00  0.3256E+00  0.4398E+00  0.4398E+00
     -1.072  0.3200E+00  0.3200E+00  0.4639E+00  0.4639E+00
     -0.996  0.3035E+00  0.3035E+00  0.4868E+00  0.4868E+00
     -0.921  0.2828E+00  0.2828E+00  0.5081E+00  0.5081E+00
     -0.846  0.2685E+00  0.2685E+00  0.5284E+00  0.5284E+00
     -0.770  0.2691E+00  0.2691E+00  0.5486E+00  0.5486E+00
     -0.695  0.2867E+00  0.2867E+00  0.5702E+00  0.5702E+00
     -0.620  0.3138E+00  0.3138E+00  0.5939E+00  0.5939E+00
     -0.544  0.3354E+00  0.3354E+00  0.6192E+00  0.6192E+00
     -0.469  0.3408E+00  0.3408E+00  0.6449E+00  0.6449E+00
     -0.393  0.3333E+00  0.3333E+00  0.6700E+00  0.6700E+00
     -0.318  0.3248E+00  0.3248E+00  0.6944E+00  0.6944E+00
     -0.243  0.3243E+00  0.3243E+00  0.7189E+00  0.7189E+00
     -0.167  0.3355E+00  0.3355E+00  0.7442E+00  0.7442E+00
     -0.092  0.3618E+00  0.3618E+00  0.7714E+00  0.7714E+00
     -0.017  0.4025E+00  0.4025E+00  0.8018E+00  0.8018E+00
      0.059  0.4428E+00  0.4428E+00  0.8351E+00  0.8351E+00
      0.134  0.4538E+00  0.4538E+00  0.8693E+00  0.8693E+00
      0.209  0.4116E+00  0.4116E+00  0.9004E+00  0.9004E+00
      0.285  0.3177E+00  0.3177E+00  0.9243E+00  0.9243E+00
      0.360  0.2016E+00  0.2016E+00  0.9395E+00  0.9395E+00
      0.436  0.1038E+00  0.1038E+00  0.9473E+00  0.9473E+00
      0.511  0.4825E-01  0.4825E-01  0.9510E+00  0.9510E+00
      0.586  0.3077E-01  0.3077E-01  0.9533E+00  0.9533E+00
      0.662  0.3265E-01  0.3265E-01  0.9557E+00  0.9557E+00
      0.737  0.3866E-01  0.3866E-01  0.9587E+00  0.9587E+00
      0.812  0.4121E-01  0.4121E-01  0.9618E+00  0.9618E+00
      0.888  0.3835E-01  0.3835E-01  0.9646E+00  0.9646E+00
      0.963  0.3211E-01  0.3211E-01  0.9671E+00  0.9671E+00
      1.038  0.2512E-01  0.2512E-01  0.9690E+00  0.9690E+00
      1.114  0.1889E-01  0.1889E-01  0.9704E+00  0.9704E+00
      1.189  0.1604E-01  0.1604E-01  0.9716E+00  0.9716E+00
      1.265  0.2084E-01  0.2084E-01  0.9732E+00  0.9732E+00
      1.340  0.3377E-01  0.3377E-01  0.9757E+00  0.9757E+00
      1.415  0.4709E-01  0.4709E-01  0.9793E+00  0.9793E+00
      1.491  0.5070E-01  0.5070E-01  0.9831E+00  0.9831E+00
      1.566  0.4332E-01  0.4332E-01  0.9863E+00  0.9863E+00
      1.641  0.3233E-01  0.3233E-01  0.9888E+00  0.9888E+00
      1.717  0.2382E-01  0.2382E-01  0.9906E+00  0.9906E+00
      1.792  0.1901E-01  0.1901E-01  0.9920E+00  0.9920E+00
      1.867  0.1760E-01  0.1760E-01  0.9933E+00  0.9933E+00
      1.943  0.1820E-01  0.1820E-01  0.9947E+00  0.9947E+00
      2.018  0.1854E-01  0.1854E-01  0.9961E+00  0.9961E+00
      2.094  0.1889E-01  0.1889E-01  0.9975E+00  0.9975E+00
      2.169  0.2195E-01  0.2195E-01  0.9992E+00  0.9992E+00
      2.244  0.2798E-01  0.2798E-01  0.1001E+01  0.1001E+01
      2.320  0.3326E-01  0.3326E-01  0.1004E+01  0.1004E+01
      2.395  0.3465E-01  0.3465E-01  0.1006E+01  0.1006E+01
      2.470  0.3300E-01  0.3300E-01  0.1009E+01  0.1009E+01
      2.546  0.3143E-01  0.3143E-01  0.1011E+01  0.1011E+01
      2.621  0.3187E-01  0.3187E-01  0.1014E+01  0.1014E+01
      2.696  0.3342E-01  0.3342E-01  0.1016E+01  0.1016E+01
      2.772  0.3340E-01  0.3340E-01  0.1019E+01  0.1019E+01
      2.847  0.3044E-01  0.3044E-01  0.1021E+01  0.1021E+01
      2.922  0.2629E-01  0.2629E-01  0.1023E+01  0.1023E+01
      2.998  0.2294E-01  0.2294E-01  0.1025E+01  0.1025E+01
      3.073  0.1960E-01  0.1960E-01  0.1026E+01  0.1026E+01
      3.149  0.1475E-01  0.1475E-01  0.1027E+01  0.1027E+01
      3.224  0.9671E-02  0.9671E-02  0.1028E+01  0.1028E+01
      3.299  0.7917E-02  0.7917E-02  0.1029E+01  0.1029E+01
      3.375  0.1219E-01  0.1219E-01  0.1030E+01  0.1030E+01
      3.450  0.2230E-01  0.2230E-01  0.1031E+01  0.1031E+01
      3.525  0.3448E-01  0.3448E-01  0.1034E+01  0.1034E+01
      3.601  0.4283E-01  0.4283E-01  0.1037E+01  0.1037E+01
      3.676  0.4303E-01  0.4303E-01  0.1040E+01  0.1040E+01
      3.751  0.3587E-01  0.3587E-01  0.1043E+01  0.1043E+01
      3.827  0.2654E-01  0.2654E-01  0.1045E+01  0.1045E+01
      3.902  0.2050E-01  0.2050E-01  0.1047E+01  0.1047E+01
      3.978  0.1968E-01  0.1968E-01  0.1048E+01  0.1048E+01
      4.053  0.2192E-01  0.2192E-01  0.1050E+01  0.1050E+01
      4.128  0.2351E-01  0.2351E-01  0.1051E+01  0.1051E+01
      4.204  0.2263E-01  0.2263E-01  0.1053E+01  0.1053E+01
      4.279  0.2026E-01  0.2026E-01  0.1055E+01  0.1055E+01
      4.354  0.1798E-01  0.1798E-01  0.1056E+01  0.1056E+01
      4.430  0.1622E-01  0.1622E-01  0.1057E+01  0.1057E+01
      4.505  0.1500E-01  0.1500E-01  0.1058E+01  0.1058E+01
      4.580  0.1516E-01  0.1516E-01  0.1060E+01  0.1060E+01
      4.656  0.1756E-01  0.1756E-01  0.1061E+01  0.1061E+01
      4.731  0.2078E-01  0.2078E-01  0.1062E+01  0.1062E+01
      4.807  0.2179E-01  0.2179E-01  0.1064E+01  0.1064E+01
      4.882  0.2006E-01  0.2006E-01  0.1066E+01  0.1066E+01
      4.957  0.1861E-01  0.1861E-01  0.1067E+01  0.1067E+01
      5.033  0.1985E-01  0.1985E-01  0.1068E+01  0.1068E+01
      5.108  0.2328E-01  0.2328E-01  0.1070E+01  0.1070E+01
      5.183  0.2786E-01  0.2786E-01  0.1072E+01  0.1072E+01
      5.259  0.3318E-01  0.3318E-01  0.1075E+01  0.1075E+01
      5.334  0.3715E-01  0.3715E-01  0.1078E+01  0.1078E+01
      5.409  0.3636E-01  0.3636E-01  0.1080E+01  0.1080E+01
      5.485  0.2997E-01  0.2997E-01  0.1083E+01  0.1083E+01
      5.560  0.2134E-01  0.2135E-01  0.1084E+01  0.1084E+01
      5.636  0.1613E-01  0.1613E-01  0.1085E+01  0.1085E+01
      5.711  0.1859E-01  0.1859E-01  0.1087E+01  0.1087E+01
      5.786  0.2719E-01  0.2719E-01  0.1089E+01  0.1089E+01
      5.862  0.3429E-01  0.3429E-01  0.1091E+01  0.1091E+01
      5.937  0.3359E-01  0.3359E-01  0.1094E+01  0.1094E+01
      6.012  0.2725E-01  0.2725E-01  0.1096E+01  0.1096E+01
      6.088  0.2174E-01  0.2174E-01  0.1098E+01  0.1098E+01
      6.163  0.1929E-01  0.1930E-01  0.1099E+01  0.1099E+01
      6.238  0.1822E-01  0.1822E-01  0.1101E+01  0.1101E+01
      6.314  0.1825E-01  0.1825E-01  0.1102E+01  0.1102E+01
      6.389  0.2048E-01  0.2048E-01  0.1103E+01  0.1103E+01
      6.464  0.2478E-01  0.2478E-01  0.1105E+01  0.1105E+01
      6.540  0.3054E-01  0.3055E-01  0.1108E+01  0.1108E+01
      6.615  0.3768E-01  0.3768E-01  0.1110E+01  0.1110E+01
      6.691  0.4520E-01  0.4520E-01  0.1114E+01  0.1114E+01
      6.766  0.5067E-01  0.5067E-01  0.1118E+01  0.1118E+01
      6.841  0.5132E-01  0.5132E-01  0.1122E+01  0.1122E+01
      6.917  0.4568E-01  0.4568E-01  0.1125E+01  0.1125E+01
      6.992  0.3519E-01  0.3519E-01  0.1128E+01  0.1128E+01
      7.067  0.2443E-01  0.2442E-01  0.1129E+01  0.1129E+01
      7.143  0.1865E-01  0.1864E-01  0.1131E+01  0.1131E+01
      7.218  0.2003E-01  0.2003E-01  0.1132E+01  0.1132E+01
      7.293  0.2599E-01  0.2599E-01  0.1134E+01  0.1134E+01
      7.369  0.3237E-01  0.3237E-01  0.1137E+01  0.1137E+01
      7.444  0.3736E-01  0.3736E-01  0.1140E+01  0.1140E+01
      7.520  0.4027E-01  0.4028E-01  0.1143E+01  0.1143E+01
      7.595  0.3951E-01  0.3951E-01  0.1146E+01  0.1146E+01
      7.670  0.3492E-01  0.3491E-01  0.1148E+01  0.1148E+01
      7.746  0.2934E-01  0.2933E-01  0.1150E+01  0.1150E+01
      7.821  0.2633E-01  0.2633E-01  0.1152E+01  0.1152E+01
      7.896  0.2761E-01  0.2761E-01  0.1155E+01  0.1155E+01
      7.972  0.3194E-01  0.3195E-01  0.1157E+01  0.1157E+01
      8.047  0.3657E-01  0.3658E-01  0.1160E+01  0.1160E+01
      8.122  0.3981E-01  0.3981E-01  0.1163E+01  0.1163E+01
      8.198  0.4078E-01  0.4078E-01  0.1166E+01  0.1166E+01
      8.273  0.3819E-01  0.3818E-01  0.1169E+01  0.1169E+01
      8.349  0.3236E-01  0.3236E-01  0.1171E+01  0.1171E+01
      8.424  0.2652E-01  0.2653E-01  0.1173E+01  0.1173E+01
      8.499  0.2414E-01  0.2415E-01  0.1175E+01  0.1175E+01
      8.575  0.2678E-01  0.2679E-01  0.1177E+01  0.1177E+01
      8.650  0.3378E-01  0.3379E-01  0.1179E+01  0.1179E+01
      8.725  0.4197E-01  0.4197E-01  0.1183E+01  0.1183E+01
      8.801  0.4739E-01  0.4739E-01  0.1186E+01  0.1186E+01
      8.876  0.4877E-01  0.4876E-01  0.1190E+01  0.1190E+01
      8.951  0.4734E-01  0.4733E-01  0.1193E+01  0.1193E+01
      9.027  0.4389E-01  0.4389E-01  0.1197E+01  0.1197E+01
      9.102  0.3850E-01  0.3850E-01  0.1200E+01  0.1200E+01
      9.178  0.3277E-01  0.3277E-01  0.1202E+01  0.1202E+01
      9.253  0.3008E-01  0.3008E-01  0.1204E+01  0.1204E+01
      9.328  0.3235E-01  0.3234E-01  0.1207E+01  0.1207E+01
      9.404  0.3670E-01  0.3669E-01  0.1210E+01  0.1210E+01
      9.479  0.3767E-01  0.3767E-01  0.1212E+01  0.1212E+01
      9.554  0.3442E-01  0.3442E-01  0.1215E+01  0.1215E+01
      9.630  0.3276E-01  0.3278E-01  0.1217E+01  0.1217E+01
      9.705  0.3773E-01  0.3775E-01  0.1220E+01  0.1220E+01
      9.780  0.4671E-01  0.4673E-01  0.1224E+01  0.1224E+01
      9.856  0.5208E-01  0.5208E-01  0.1228E+01  0.1228E+01
      9.931  0.4939E-01  0.4937E-01  0.1232E+01  0.1232E+01
     10.006  0.4146E-01  0.4144E-01  0.1235E+01  0.1235E+01
     10.082  0.3475E-01  0.3474E-01  0.1237E+01  0.1237E+01
     10.157  0.3398E-01  0.3399E-01  0.1240E+01  0.1240E+01
     10.233  0.4049E-01  0.4050E-01  0.1243E+01  0.1243E+01
     10.308  0.5116E-01  0.5117E-01  0.1247E+01  0.1247E+01
     10.383  0.5838E-01  0.5838E-01  0.1251E+01  0.1251E+01
     10.459  0.5611E-01  0.5610E-01  0.1255E+01  0.1255E+01
     10.534  0.4750E-01  0.4750E-01  0.1259E+01  0.1259E+01
     10.609  0.4219E-01  0.4222E-01  0.1262E+01  0.1262E+01
     10.685  0.4487E-01  0.4489E-01  0.1265E+01  0.1265E+01
     10.760  0.5011E-01  0.4999E-01  0.1269E+01  0.1269E+01
     10.835  0.4974E-01  0.4934E-01  0.1273E+01  0.1273E+01
     10.911  0.4161E-01  0.4105E-01  0.1276E+01  0.1276E+01
     10.986  0.2923E-01  0.2891E-01  0.1278E+01  0.1278E+01
     11.062  0.1668E-01  0.1688E-01  0.1280E+01  0.1280E+01
     11.137  0.6739E-02  0.7262E-02  0.1280E+01  0.1280E+01
     11.212  0.9649E-03  0.1404E-02  0.1280E+01  0.1280E+01
     11.288 -0.9855E-03 -0.7997E-03  0.1280E+01  0.1280E+01
     11.363 -0.9160E-03 -0.8981E-03  0.1280E+01  0.1280E+01
     11.438 -0.4300E-03 -0.4564E-03  0.1280E+01  0.1280E+01
     11.514 -0.1352E-03 -0.1535E-03  0.1280E+01  0.1280E+01
     11.589 -0.3055E-04 -0.3721E-04  0.1280E+01  0.1280E+01
     11.664 -0.5107E-05 -0.6713E-05  0.1280E+01  0.1280E+01
     11.740 -0.6397E-06 -0.9139E-06  0.1280E+01  0.1280E+01
     11.815 -0.6040E-07 -0.9438E-07  0.1280E+01  0.1280E+01
     11.891 -0.4309E-08 -0.7401E-08  0.1280E+01  0.1280E+01
     11.966 -0.2324E-09 -0.4401E-09  0.1280E+01  0.1280E+01
     12.041 -0.9470E-11 -0.1981E-10  0.1280E+01  0.1280E+01
     12.117 -0.2914E-12 -0.6739E-12  0.1280E+01  0.1280E+01
     12.192 -0.6763E-14 -0.1730E-13  0.1280E+01  0.1280E+01
     12.267 -0.1170E-15 -0.3327E-15  0.1280E+01  0.1280E+01
     12.343 -0.1228E-17 -0.4911E-17  0.1280E+01  0.1280E+01
     12.418  0.0000E+00  0.0000E+00  0.1280E+01  0.1280E+01
     12.493  0.0000E+00  0.0000E+00  0.1280E+01  0.1280E+01
     12.569  0.0000E+00  0.0000E+00  0.1280E+01  0.1280E+01
     12.644  0.0000E+00  0.0000E+00  0.1280E+01  0.1280E+01
     12.720  0.0000E+00  0.0000E+00  0.1280E+01  0.1280E+01
     12.795  0.0000E+00  0.0000E+00  0.1280E+01  0.1280E+01
     12.870  0.0000E+00  0.0000E+00  0.1280E+01  0.1280E+01
     12.946  0.0000E+00  0.0000E+00  0.1280E+01  0.1280E+01
     13.021  0.0000E+00  0.0000E+00  0.1280E+01  0.1280E+01
     13.096  0.0000E+00  0.0000E+00  0.1280E+01  0.1280E+01
