  145  145  800    2
  0.2265927E+02  0.1089000E-08  0.1089000E-08  0.2770500E-08  0.5000000E-15
  1.000000000000000E-004
  CAR 
 unknown system                          
   1585      4   1024
 
  0.0000000E+00  0.0000000E+00  0.0000000E+00  0.1111111E+00
      1         -7.512194       -7.512194   1.000000   1.000000
      2         -6.926747       -6.926747   1.000000   1.000000
      3         -6.227006       -6.227006   1.000000   1.000000
      4         -6.222352       -6.222352   1.000000   1.000000
      5         -6.221984       -6.221984   1.000000   1.000000
      6         -6.219945       -6.219945   1.000000   1.000000
      7         -6.124582       -6.124582   1.000000   1.000000
      8         -5.693188       -5.693188   1.000000   1.000000
      9         -5.669110       -5.669110   1.000000   1.000000
     10         -5.666000       -5.666000   1.000000   1.000000
     11         -5.665252       -5.665252   1.000000   1.000000
     12         -5.125336       -5.125337   1.000000   1.000000
     13         -5.064967       -5.064967   1.000000   1.000000
     14         -5.064681       -5.064681   1.000000   1.000000
     15         -5.063159       -5.063159   1.000000   1.000000
     16         -5.062885       -5.062885   1.000000   1.000000
     17         -4.969972       -4.969972   1.000000   1.000000
     18         -4.924225       -4.924225   1.000000   1.000000
     19         -4.922735       -4.922735   1.000000   1.000000
     20         -4.921692       -4.921692   1.000000   1.000000
     21         -4.639807       -4.639807   1.000000   1.000000
     22         -4.615921       -4.615921   1.000000   1.000000
     23         -4.614421       -4.614421   1.000000   1.000000
     24         -4.613560       -4.613560   1.000000   1.000000
     25         -4.294010       -4.294014   1.000000   1.000000
     26         -4.077455       -4.077455   1.000000   1.000000
     27         -4.077142       -4.077142   1.000000   1.000000
     28         -4.075559       -4.075559   1.000000   1.000000
     29         -4.058458       -4.058458   1.000000   1.000000
     30         -3.995906       -3.995906   1.000000   1.000000
     31         -3.994352       -3.994352   1.000000   1.000000
     32         -3.992953       -3.992952   1.000000   1.000000
     33         -3.966382       -3.966382   1.000000   1.000000
     34         -3.669666       -3.669668   1.000000   1.000000
     35         -3.513329       -3.513329   1.000000   1.000000
     36         -3.512358       -3.512358   1.000000   1.000000
     37         -3.511993       -3.511993   1.000000   1.000000
     38         -3.511774       -3.511774   1.000000   1.000000
     39         -3.511713       -3.511713   1.000000   1.000000
     40         -3.510716       -3.510716   1.000000   1.000000
     41         -3.509902       -3.509902   1.000000   1.000000
     42         -3.426840       -3.426841   1.000000   1.000000
     43         -3.268383       -3.268383   1.000000   1.000000
     44         -3.122549       -3.122549   1.000000   1.000000
     45         -3.113644       -3.113644   1.000000   1.000000
     46         -3.113391       -3.113391   1.000000   1.000000
     47         -3.112448       -3.112448   1.000000   1.000000
     48         -3.111590       -3.111590   1.000000   1.000000
     49         -3.111447       -3.111447   1.000000   1.000000
     50         -3.078008       -3.078008   1.000000   1.000000
     51         -3.077999       -3.078000   1.000000   1.000000
     52         -3.076440       -3.076440   1.000000   1.000000
     53         -3.062462       -3.062463   1.000000   1.000000
     54         -3.030297       -3.030297   1.000000   1.000000
     55         -3.017519       -3.017519   1.000000   1.000000
     56         -3.016145       -3.016145   1.000000   1.000000
     57         -3.015961       -3.015961   1.000000   1.000000
     58         -2.990091       -2.990091   1.000000   1.000000
     59         -2.989331       -2.989331   1.000000   1.000000
     60         -2.988935       -2.988935   1.000000   1.000000
     61         -2.988297       -2.988297   1.000000   1.000000
     62         -2.988020       -2.988020   1.000000   1.000000
     63         -2.987962       -2.987962   1.000000   1.000000
     64         -2.987951       -2.987951   1.000000   1.000000
     65         -2.987889       -2.987889   1.000000   1.000000
     66         -2.955815       -2.955815   1.000000   1.000000
     67         -2.922999       -2.922999   1.000000   1.000000
     68         -2.922639       -2.922639   1.000000   1.000000
     69         -2.922460       -2.922460   1.000000   1.000000
     70         -2.921417       -2.921417   1.000000   1.000000
     71         -2.880184       -2.880184   1.000000   1.000000
     72         -2.865204       -2.865204   1.000000   1.000000
     73         -2.864986       -2.864986   1.000000   1.000000
     74         -2.864561       -2.864561   1.000000   1.000000
     75         -2.862630       -2.862630   1.000000   1.000000
     76         -2.841868       -2.841868   1.000000   1.000000
     77         -2.841510       -2.841510   1.000000   1.000000
     78         -2.837805       -2.837806   1.000000   1.000000
     79         -2.836060       -2.836060   1.000000   1.000000
     80         -2.827385       -2.827386   1.000000   1.000000
     81         -2.812276       -2.812276   1.000000   1.000000
     82         -2.692329       -2.692329   1.000000   1.000000
     83         -2.691955       -2.691955   1.000000   1.000000
     84         -2.691737       -2.691737   1.000000   1.000000
     85         -2.691591       -2.691591   1.000000   1.000000
     86         -2.688136       -2.688136   1.000000   1.000000
     87         -2.671558       -2.671558   1.000000   1.000000
     88         -2.670565       -2.670565   1.000000   1.000000
     89         -2.670257       -2.670257   1.000000   1.000000
     90         -2.669949       -2.669949   1.000000   1.000000
     91         -2.669914       -2.669914   1.000000   1.000000
     92         -2.669430       -2.669430   1.000000   1.000000
     93         -2.668877       -2.668877   1.000000   1.000000
     94         -2.667543       -2.667543   1.000000   1.000000
     95         -2.666216       -2.666216   1.000000   1.000000
     96         -2.666023       -2.666023   1.000000   1.000000
     97         -2.643364       -2.643364   1.000000   1.000000
     98         -2.643319       -2.643319   1.000000   1.000000
     99         -2.642623       -2.642623   1.000000   1.000000
    100         -2.612930       -2.612930   1.000000   1.000000
    101         -2.612639       -2.612639   1.000000   1.000000
    102         -2.612348       -2.612348   1.000000   1.000000
    103         -2.612196       -2.612196   1.000000   1.000000
    104         -2.609366       -2.609366   1.000000   1.000000
    105         -2.564227       -2.564227   1.000000   1.000000
    106         -2.529796       -2.529796   1.000000   1.000000
    107         -2.487410       -2.487410   1.000000   1.000000
    108         -2.457279       -2.457279   1.000000   1.000000
    109         -2.457204       -2.457205   1.000000   1.000000
    110         -2.427560       -2.427560   1.000000   1.000000
    111         -2.427505       -2.427505   1.000000   1.000000
    112         -2.426417       -2.426417   1.000000   1.000000
    113         -2.424972       -2.424972   1.000000   1.000000
    114         -2.423621       -2.423621   1.000000   1.000000
    115         -2.417776       -2.417776   1.000000   1.000000
    116         -2.415119       -2.415120   1.000000   1.000000
    117         -2.392578       -2.392578   1.000000   1.000000
    118         -2.392194       -2.392194   1.000000   1.000000
    119         -2.391901       -2.391901   1.000000   1.000000
    120         -2.390850       -2.390850   1.000000   1.000000
    121         -2.372217       -2.372217   1.000000   1.000000
    122         -2.354484       -2.354484   1.000000   1.000000
    123         -2.354268       -2.354268   1.000000   1.000000
    124         -2.353740       -2.353740   1.000000   1.000000
    125         -2.353005       -2.353005   1.000000   1.000000
    126         -2.346404       -2.346404   1.000000   1.000000
    127         -2.341645       -2.341645   1.000000   1.000000
    128         -2.338725       -2.338726   1.000000   1.000000
    129         -2.329913       -2.329913   1.000000   1.000000
    130         -2.329568       -2.329568   1.000000   1.000000
    131         -2.329477       -2.329477   1.000000   1.000000
    132         -2.328316       -2.328316   1.000000   1.000000
    133         -2.320259       -2.320259   1.000000   1.000000
    134         -2.319730       -2.319730   1.000000   1.000000
    135         -2.319048       -2.319048   1.000000   1.000000
    136         -2.318543       -2.318543   1.000000   1.000000
    137         -2.318258       -2.318258   1.000000   1.000000
    138         -2.317354       -2.317354   1.000000   1.000000
    139         -2.316887       -2.316886   1.000000   1.000000
    140         -2.316198       -2.316198   1.000000   1.000000
    141         -2.293012       -2.293012   1.000000   1.000000
    142         -2.289412       -2.289412   1.000000   1.000000
    143         -2.288901       -2.288901   1.000000   1.000000
    144         -2.288740       -2.288740   1.000000   1.000000
    145         -2.275890       -2.275890   1.000000   1.000000
    146         -2.275734       -2.275734   1.000000   1.000000
    147         -2.275064       -2.275064   1.000000   1.000000
    148         -2.274697       -2.274696   1.000000   1.000000
    149         -2.268346       -2.268346   1.000000   1.000000
    150         -2.267568       -2.267568   1.000000   1.000000
    151         -2.267136       -2.267136   1.000000   1.000000
    152         -2.266830       -2.266830   1.000000   1.000000
    153         -2.256050       -2.256050   1.000000   1.000000
    154         -2.216489       -2.216489   1.000000   1.000000
    155         -2.213428       -2.213428   1.000000   1.000000
    156         -2.213143       -2.213143   1.000000   1.000000
    157         -2.212712       -2.212712   1.000000   1.000000
    158         -2.194062       -2.194062   1.000000   1.000000
    159         -2.193072       -2.193072   1.000000   1.000000
    160         -2.191448       -2.191448   1.000000   1.000000
    161         -2.190810       -2.190810   1.000000   1.000000
    162         -2.183987       -2.183987   1.000000   1.000000
    163         -2.183797       -2.183797   1.000000   1.000000
    164         -2.183475       -2.183475   1.000000   1.000000
    165         -2.183091       -2.183090   1.000000   1.000000
    166         -2.181591       -2.181591   1.000000   1.000000
    167         -2.175763       -2.175763   1.000000   1.000000
    168         -2.172795       -2.172795   1.000000   1.000000
    169         -2.172501       -2.172501   1.000000   1.000000
    170         -2.172312       -2.172312   1.000000   1.000000
    171         -2.171539       -2.171539   1.000000   1.000000
    172         -2.128767       -2.128767   1.000000   1.000000
    173         -2.128544       -2.128544   1.000000   1.000000
    174         -2.127930       -2.127930   1.000000   1.000000
    175         -2.127889       -2.127889   1.000000   1.000000
    176         -2.093745       -2.093746   1.000000   1.000000
    177         -2.087016       -2.087016   1.000000   1.000000
    178         -2.042212       -2.042212   1.000000   1.000000
    179         -2.041127       -2.041127   1.000000   1.000000
    180         -2.040852       -2.040852   1.000000   1.000000
    181         -2.040344       -2.040344   1.000000   1.000000
    182         -2.010755       -2.010755   1.000000   1.000000
    183         -2.008807       -2.008807   1.000000   1.000000
    184         -2.008541       -2.008541   1.000000   1.000000
    185         -2.000278       -2.000278   1.000000   1.000000
    186         -1.986061       -1.986061   1.000000   1.000000
    187         -1.983839       -1.983839   1.000000   1.000000
    188         -1.983719       -1.983719   1.000000   1.000000
    189         -1.982643       -1.982643   1.000000   1.000000
    190         -1.973194       -1.973194   1.000000   1.000000
    191         -1.962984       -1.962984   1.000000   1.000000
    192         -1.948787       -1.948787   1.000000   1.000000
    193         -1.946216       -1.946216   1.000000   1.000000
    194         -1.945703       -1.945703   1.000000   1.000000
    195         -1.944718       -1.944718   1.000000   1.000000
    196         -1.944200       -1.944200   1.000000   1.000000
    197         -1.943486       -1.943486   1.000000   1.000000
    198         -1.942619       -1.942619   1.000000   1.000000
    199         -1.931097       -1.931097   1.000000   1.000000
    200         -1.863890       -1.863890   1.000000   1.000000
    201         -1.862962       -1.862962   1.000000   1.000000
    202         -1.860873       -1.860873   1.000000   1.000000
    203         -1.859866       -1.859866   1.000000   1.000000
    204         -1.853073       -1.853073   1.000000   1.000000
    205         -1.850183       -1.850183   1.000000   1.000000
    206         -1.849098       -1.849098   1.000000   1.000000
    207         -1.845186       -1.845186   1.000000   1.000000
    208         -1.803214       -1.803214   1.000000   1.000000
    209         -1.796305       -1.796305   1.000000   1.000000
    210         -1.793607       -1.793607   1.000000   1.000000
    211         -1.791269       -1.791269   1.000000   1.000000
    212         -1.789554       -1.789554   1.000000   1.000000
    213         -1.787284       -1.787284   1.000000   1.000000
    214         -1.778116       -1.778116   1.000000   1.000000
    215         -1.776542       -1.776542   1.000000   1.000000
    216         -1.773812       -1.773812   1.000000   1.000000
    217         -1.760991       -1.760991   1.000000   1.000000
    218         -1.757902       -1.757902   1.000000   1.000000
    219         -1.755198       -1.755198   1.000000   1.000000
    220         -1.754812       -1.754812   1.000000   1.000000
    221         -1.751979       -1.751979   1.000000   1.000000
    222         -1.748385       -1.748385   1.000000   1.000000
    223         -1.746355       -1.746355   1.000000   1.000000
    224         -1.743920       -1.743920   1.000000   1.000000
    225         -1.740540       -1.740540   1.000000   1.000000
    226         -1.734968       -1.734968   1.000000   1.000000
    227         -1.734754       -1.734754   1.000000   1.000000
    228         -1.734511       -1.734511   1.000000   1.000000
    229         -1.729545       -1.729545   1.000000   1.000000
    230         -1.678063       -1.678063   1.000000   1.000000
    231         -1.676768       -1.676768   1.000000   1.000000
    232         -1.673313       -1.673313   1.000000   1.000000
    233         -1.669570       -1.669570   1.000000   1.000000
    234         -1.665903       -1.665903   1.000000   1.000000
    235         -1.664411       -1.664411   1.000000   1.000000
    236         -1.664391       -1.664391   1.000000   1.000000
    237         -1.663863       -1.663863   1.000000   1.000000
    238         -1.658872       -1.658872   1.000000   1.000000
    239         -1.648810       -1.648810   1.000000   1.000000
    240         -1.648767       -1.648767   1.000000   1.000000
    241         -1.648715       -1.648715   1.000000   1.000000
    242         -1.646347       -1.646347   1.000000   1.000000
    243         -1.643128       -1.643128   1.000000   1.000000
    244         -1.642773       -1.642773   1.000000   1.000000
    245         -1.640870       -1.640870   1.000000   1.000000
    246         -1.640596       -1.640596   1.000000   1.000000
    247         -1.639533       -1.639533   1.000000   1.000000
    248         -1.616637       -1.616637   1.000000   1.000000
    249         -1.614987       -1.614987   1.000000   1.000000
    250         -1.603114       -1.603114   1.000000   1.000000
    251         -1.569317       -1.569317   1.000000   1.000000
    252         -1.568998       -1.568998   1.000000   1.000000
    253         -1.565708       -1.565708   1.000000   1.000000
    254         -1.565067       -1.565067   1.000000   1.000000
    255         -1.555652       -1.555652   1.000000   1.000000
    256         -1.555569       -1.555569   1.000000   1.000000
    257         -1.555310       -1.555310   1.000000   1.000000
    258         -1.554794       -1.554793   1.000000   1.000000
    259         -1.490937       -1.490937   1.000000   1.000000
    260         -1.490107       -1.490107   1.000000   1.000000
    261         -1.487686       -1.487686   1.000000   1.000000
    262         -1.487619       -1.487619   1.000000   1.000000
    263         -1.482846       -1.482846   1.000000   1.000000
    264         -1.481746       -1.481746   1.000000   1.000000
    265         -1.481438       -1.481438   1.000000   1.000000
    266         -1.481329       -1.481329   1.000000   1.000000
    267         -1.480820       -1.480820   1.000000   1.000000
    268         -1.478319       -1.478319   1.000000   1.000000
    269         -1.478231       -1.478231   1.000000   1.000000
    270         -1.477352       -1.477353   1.000000   1.000000
    271         -1.461169       -1.461170   1.000000   1.000000
    272         -1.454927       -1.454927   1.000000   1.000000
    273         -1.452536       -1.452536   1.000000   1.000000
    274         -1.452049       -1.452050   1.000000   1.000000
    275         -1.448602       -1.448602   1.000000   1.000000
    276         -1.447959       -1.447959   1.000000   1.000000
    277         -1.447129       -1.447129   1.000000   1.000000
    278         -1.434784       -1.434784   1.000000   1.000000
    279         -1.415222       -1.415222   1.000000   1.000000
    280         -1.415116       -1.415116   1.000000   1.000000
    281         -1.412852       -1.412852   1.000000   1.000000
    282         -1.411609       -1.411609   1.000000   1.000000
    283         -1.402911       -1.402911   1.000000   1.000000
    284         -1.400814       -1.400815   1.000000   1.000000
    285         -1.399098       -1.399098   1.000000   1.000000
    286         -1.397840       -1.397840   1.000000   1.000000
    287         -1.394832       -1.394832   1.000000   1.000000
    288         -1.392320       -1.392320   1.000000   1.000000
    289         -1.392094       -1.392094   1.000000   1.000000
    290         -1.389899       -1.389899   1.000000   1.000000
    291         -1.379074       -1.379074   1.000000   1.000000
    292         -1.340039       -1.340039   1.000000   1.000000
    293         -1.335688       -1.335688   1.000000   1.000000
    294         -1.334255       -1.334255   1.000000   1.000000
    295         -1.333970       -1.333970   1.000000   1.000000
    296         -1.314669       -1.314669   1.000000   1.000000
    297         -1.314620       -1.314620   1.000000   1.000000
    298         -1.310980       -1.310980   1.000000   1.000000
    299         -1.310841       -1.310841   1.000000   1.000000
    300         -1.304829       -1.304829   1.000000   1.000000
    301         -1.297818       -1.297818   1.000000   1.000000
    302         -1.297584       -1.297584   1.000000   1.000000
    303         -1.295014       -1.295014   1.000000   1.000000
    304         -1.288432       -1.288432   1.000000   1.000000
    305         -1.285606       -1.285606   1.000000   1.000000
    306         -1.285355       -1.285355   1.000000   1.000000
    307         -1.283718       -1.283718   1.000000   1.000000
    308         -1.279208       -1.279208   1.000000   1.000000
    309         -1.275228       -1.275228   1.000000   1.000000
    310         -1.274785       -1.274785   1.000000   1.000000
    311         -1.271920       -1.271920   1.000000   1.000000
    312         -1.261684       -1.261685   1.000000   1.000000
    313         -1.261569       -1.261569   1.000000   1.000000
    314         -1.259093       -1.259093   1.000000   1.000000
    315         -1.257263       -1.257263   1.000000   1.000000
    316         -1.252608       -1.252608   1.000000   1.000000
    317         -1.252345       -1.252345   1.000000   1.000000
    318         -1.251540       -1.251540   1.000000   1.000000
    319         -1.251365       -1.251364   1.000000   1.000000
    320         -1.251003       -1.251003   1.000000   1.000000
    321         -1.248603       -1.248603   1.000000   1.000000
    322         -1.248328       -1.248328   1.000000   1.000000
    323         -1.248004       -1.248004   1.000000   1.000000
    324         -1.246910       -1.246910   1.000000   1.000000
    325         -1.246629       -1.246629   1.000000   1.000000
    326         -1.245720       -1.245720   1.000000   1.000000
    327         -1.245245       -1.245245   1.000000   1.000000
    328         -1.244858       -1.244858   1.000000   1.000000
    329         -1.214983       -1.214983   1.000000   1.000000
    330         -1.212628       -1.212628   1.000000   1.000000
    331         -1.212172       -1.212172   1.000000   1.000000
    332         -1.209098       -1.209098   1.000000   1.000000
    333         -1.208366       -1.208367   1.000000   1.000000
    334         -1.207928       -1.207928   1.000000   1.000000
    335         -1.207786       -1.207786   1.000000   1.000000
    336         -1.206238       -1.206238   1.000000   1.000000
    337         -1.203857       -1.203857   1.000000   1.000000
    338         -1.203670       -1.203670   1.000000   1.000000
    339         -1.201374       -1.201374   1.000000   1.000000
    340         -1.200929       -1.200929   1.000000   1.000000
    341         -1.198395       -1.198395   1.000000   1.000000
    342         -1.194175       -1.194175   1.000000   1.000000
    343         -1.193603       -1.193603   1.000000   1.000000
    344         -1.192376       -1.192376   1.000000   1.000000
    345         -1.174433       -1.174433   1.000000   1.000000
    346         -1.167909       -1.167909   1.000000   1.000000
    347         -1.165670       -1.165671   1.000000   1.000000
    348         -1.163972       -1.163973   1.000000   1.000000
    349         -1.150388       -1.150388   1.000000   1.000000
    350         -1.148579       -1.148579   1.000000   1.000000
    351         -1.148067       -1.148067   1.000000   1.000000
    352         -1.146958       -1.146958   1.000000   1.000000
    353         -1.144602       -1.144602   1.000000   1.000000
    354         -1.144601       -1.144601   1.000000   1.000000
    355         -1.143743       -1.143742   1.000000   1.000000
    356         -1.143169       -1.143169   1.000000   1.000000
    357         -1.142086       -1.142086   1.000000   1.000000
    358         -1.127213       -1.127213   1.000000   1.000000
    359         -1.127063       -1.127063   1.000000   1.000000
    360         -1.126984       -1.126984   1.000000   1.000000
    361         -1.126714       -1.126714   1.000000   1.000000
    362         -1.118702       -1.118702   1.000000   1.000000
    363         -1.118135       -1.118135   1.000000   1.000000
    364         -1.111789       -1.111789   1.000000   1.000000
    365         -1.108679       -1.108679   1.000000   1.000000
    366         -1.107640       -1.107640   1.000000   1.000000
    367         -1.107313       -1.107313   1.000000   1.000000
    368         -1.107009       -1.107009   1.000000   1.000000
    369         -1.106756       -1.106756   1.000000   1.000000
    370         -1.104323       -1.104323   1.000000   1.000000
    371         -1.104277       -1.104277   1.000000   1.000000
    372         -1.103684       -1.103684   1.000000   1.000000
    373         -1.100815       -1.100815   1.000000   1.000000
    374         -1.100573       -1.100573   1.000000   1.000000
    375         -1.099997       -1.099997   1.000000   1.000000
    376         -1.098364       -1.098364   1.000000   1.000000
    377         -1.096816       -1.096816   1.000000   1.000000
    378         -1.096627       -1.096627   1.000000   1.000000
    379         -1.093242       -1.093242   1.000000   1.000000
    380         -1.069153       -1.069153   1.000000   1.000000
    381         -1.068422       -1.068422   1.000000   1.000000
    382         -1.066625       -1.066625   1.000000   1.000000
    383         -1.066293       -1.066293   1.000000   1.000000
    384         -1.051469       -1.051469   1.000000   1.000000
    385         -1.050933       -1.050933   1.000000   1.000000
    386         -1.047463       -1.047463   1.000000   1.000000
    387         -1.046128       -1.046128   1.000000   1.000000
    388         -1.029092       -1.029092   1.000000   1.000000
    389         -1.028551       -1.028551   1.000000   1.000000
    390         -1.027958       -1.027958   1.000000   1.000000
    391         -1.027789       -1.027789   1.000000   1.000000
    392         -0.979783       -0.979783   1.000000   1.000000
    393         -0.976424       -0.976424   1.000000   1.000000
    394         -0.941933       -0.941933   1.000000   1.000000
    395         -0.940646       -0.940646   1.000000   1.000000
    396         -0.939421       -0.939421   1.000000   1.000000
    397         -0.938881       -0.938881   1.000000   1.000000
    398         -0.937962       -0.937962   1.000000   1.000000
    399         -0.935545       -0.935545   1.000000   1.000000
    400         -0.934387       -0.934387   1.000000   1.000000
    401         -0.933839       -0.933840   1.000000   1.000000
    402         -0.931220       -0.931220   1.000000   1.000000
    403         -0.925101       -0.925101   1.000000   1.000000
    404         -0.923959       -0.923959   1.000000   1.000000
    405         -0.914907       -0.914907   1.000000   1.000000
    406         -0.914853       -0.914853   1.000000   1.000000
    407         -0.913006       -0.913006   1.000000   1.000000
    408         -0.912724       -0.912724   1.000000   1.000000
    409         -0.912514       -0.912514   1.000000   1.000000
    410         -0.910137       -0.910137   1.000000   1.000000
    411         -0.901374       -0.901375   1.000000   1.000000
    412         -0.899031       -0.899031   1.000000   1.000000
    413         -0.898934       -0.898934   1.000000   1.000000
    414         -0.897481       -0.897481   1.000000   1.000000
    415         -0.897238       -0.897238   1.000000   1.000000
    416         -0.895416       -0.895416   1.000000   1.000000
    417         -0.893828       -0.893828   1.000000   1.000000
    418         -0.893132       -0.893132   1.000000   1.000000
    419         -0.891612       -0.891612   1.000000   1.000000
    420         -0.891529       -0.891529   1.000000   1.000000
    421         -0.889276       -0.889276   1.000000   1.000000
    422         -0.856659       -0.856659   1.000000   1.000000
    423         -0.856215       -0.856215   1.000000   1.000000
    424         -0.850947       -0.850947   1.000000   1.000000
    425         -0.850424       -0.850424   1.000000   1.000000
    426         -0.847379       -0.847379   1.000000   1.000000
    427         -0.846986       -0.846986   1.000000   1.000000
    428         -0.845619       -0.845619   1.000000   1.000000
    429         -0.834742       -0.834742   1.000000   1.000000
    430         -0.833206       -0.833206   1.000000   1.000000
    431         -0.833080       -0.833080   1.000000   1.000000
    432         -0.825332       -0.825332   1.000000   1.000000
    433         -0.823126       -0.823126   1.000000   1.000000
    434         -0.822926       -0.822926   1.000000   1.000000
    435         -0.822572       -0.822572   1.000000   1.000000
    436         -0.815742       -0.815742   1.000000   1.000000
    437         -0.815479       -0.815479   1.000000   1.000000
    438         -0.809368       -0.809368   1.000000   1.000000
    439         -0.809141       -0.809141   1.000000   1.000000
    440         -0.807858       -0.807858   1.000000   1.000000
    441         -0.806032       -0.806033   1.000000   1.000000
    442         -0.806013       -0.806013   1.000000   1.000000
    443         -0.803140       -0.803140   1.000000   1.000000
    444         -0.795113       -0.795113   1.000000   1.000000
    445         -0.794969       -0.794970   1.000000   1.000000
    446         -0.792166       -0.792166   1.000000   1.000000
    447         -0.788510       -0.788510   1.000000   1.000000
    448         -0.787901       -0.787901   1.000000   1.000000
    449         -0.787679       -0.787679   1.000000   1.000000
    450         -0.745626       -0.745626   1.000000   1.000000
    451         -0.744452       -0.744452   1.000000   1.000000
    452         -0.743632       -0.743632   1.000000   1.000000
    453         -0.739890       -0.739890   1.000000   1.000000
    454         -0.738604       -0.738604   1.000000   1.000000
    455         -0.736711       -0.736711   1.000000   1.000000
    456         -0.727704       -0.727704   1.000000   1.000000
    457         -0.715793       -0.715793   1.000000   1.000000
    458         -0.714734       -0.714734   1.000000   1.000000
    459         -0.705413       -0.705414   1.000000   1.000000
    460         -0.702903       -0.702903   1.000000   1.000000
    461         -0.701352       -0.701352   1.000000   1.000000
    462         -0.684211       -0.684211   1.000000   1.000000
    463         -0.681395       -0.681395   1.000000   1.000000
    464         -0.677222       -0.677222   1.000000   1.000000