<?xml version="1.0" encoding="ISO-8859-1"?>
<modeling>
 <generator>
  <i name="program" type="string">vasp </i>
  <i name="version" type="string">6.3.2  </i>
  <i name="subversion" type="string">27Jun22 (build Aug 17 2022 15:43:34) complex                          parallel </i>
  <i name="platform" type="string">tv2STDVTST </i>
  <i name="date" type="string">2025 02 06 </i>
  <i name="time" type="string">04:15:27 </i>
 </generator>
 <incar>
  <i type="int" name="ISTART">     0</i>
  <i type="string" name="PREC">Normal</i>
  <i type="int" name="ISPIN">     2</i>
  <i type="int" name="ICHARG">     2</i>
  <i type="int" name="IBRION">     2</i>
  <i name="EDIFF">      0.00020000</i>
  <i name="EDIFFG">     -0.03000000</i>
  <i type="int" name="NSW">   800</i>
  <i type="int" name="ISIF">     2</i>
  <i type="int" name="ISYM">     1</i>
  <i name="ENCUT">    400.00000000</i>
  <i name="POTIM">      0.50000000</i>
  <i type="logical" name="LREAL"> F  </i>
  <i type="int" name="ISMEAR">     1</i>
  <i name="SIGMA">      0.20000000</i>
  <i type="logical" name="LWAVE"> F  </i>
  <i type="logical" name="LCHARG"> F  </i>
  <i type="string" name="GGA">PE</i>
  <i type="int" name="IVDW">    11</i>
 </incar>
 <primitive_cell>
  <structure name="primitive_cell" >
   <crystal>
    <varray name="basis" >
     <v>      10.89000034       0.00000000       0.00000000 </v>
     <v>       0.00000000      10.89000034       0.00000000 </v>
     <v>       0.00000000       0.00000000      27.70499992 </v>
    </varray>
    <i name="volume">   3285.59432860 </i>
    <varray name="rec_basis" >
     <v>       0.09182736       0.00000000       0.00000000 </v>
     <v>       0.00000000       0.09182736       0.00000000 </v>
     <v>       0.00000000       0.00000000       0.03609457 </v>
    </varray>
   </crystal>
   <varray name="positions" >
    <v>       0.00000000       0.00000000       0.00000000 </v>
    <v>       0.00000000       0.33333333       0.00000000 </v>
    <v>       0.00000000       0.66666667       0.00000000 </v>
    <v>       0.33333333       0.00000000       0.00000000 </v>
    <v>       0.33333333       0.33333333       0.00000000 </v>
    <v>       0.33333333       0.66666667       0.00000000 </v>
    <v>       0.66666667       0.00000000       0.00000000 </v>
    <v>       0.66666667       0.33333333       0.00000000 </v>
    <v>       0.66666667       0.66666667       0.00000000 </v>
    <v>       0.16666667       0.16666667       0.00000000 </v>
    <v>       0.16666667       0.50000000       0.00000000 </v>
    <v>       0.16666667       0.83333333       0.00000000 </v>
    <v>       0.50000000       0.16666667       0.00000000 </v>
    <v>       0.50000000       0.50000000       0.00000000 </v>
    <v>       0.50000000       0.83333333       0.00000000 </v>
    <v>       0.83333333       0.16666667       0.00000000 </v>
    <v>       0.83333333       0.50000000       0.00000000 </v>
    <v>       0.83333333       0.83333333       0.00000000 </v>
    <v>       0.00000000       0.16666667       0.06551164 </v>
    <v>       0.00000000       0.50000000       0.06551164 </v>
    <v>       0.00000000       0.83333333       0.06551164 </v>
    <v>       0.33333333       0.16666667       0.06551164 </v>
    <v>       0.33333333       0.50000000       0.06551164 </v>
    <v>       0.33333333       0.83333333       0.06551164 </v>
    <v>       0.66666667       0.16666667       0.06551164 </v>
    <v>       0.66666667       0.50000000       0.06551164 </v>
    <v>       0.66666667       0.83333333       0.06551164 </v>
    <v>       0.16666667       0.00000000       0.06551164 </v>
    <v>       0.16666667       0.33333333       0.06551164 </v>
    <v>       0.16666667       0.66666667       0.06551164 </v>
    <v>       0.50000000       0.00000000       0.06551164 </v>
    <v>       0.50000000       0.33333333       0.06551164 </v>
    <v>       0.50000000       0.66666667       0.06551164 </v>
    <v>       0.83333333       0.00000000       0.06551164 </v>
    <v>       0.83333333       0.33333333       0.06551164 </v>
    <v>       0.83333333       0.66666667       0.06551164 </v>
    <v>       0.00000000       0.00000000       0.13119553 </v>
    <v>       0.00000000       0.33333333       0.13119553 </v>
    <v>       0.00000000       0.66666667       0.13119553 </v>
    <v>       0.33333333       0.00000000       0.13119553 </v>
    <v>       0.33333333       0.33333333       0.13119553 </v>
    <v>       0.33333333       0.66666667       0.13119553 </v>
    <v>       0.66666667       0.00000000       0.13119553 </v>
    <v>       0.66666667       0.33333333       0.13119553 </v>
    <v>       0.66666667       0.66666667       0.13119553 </v>
    <v>       0.16666667       0.16666667       0.13119553 </v>
    <v>       0.16666667       0.50000000       0.13119553 </v>
    <v>       0.16666667       0.83333333       0.13119553 </v>
    <v>       0.50000000       0.16666667       0.13119553 </v>
    <v>       0.50000000       0.50000000       0.13119553 </v>
    <v>       0.50000000       0.83333333       0.13119553 </v>
    <v>       0.83333333       0.16666667       0.13119553 </v>
    <v>       0.83333333       0.50000000       0.13119553 </v>
    <v>       0.83333333       0.83333333       0.13119553 </v>
    <v>       0.00000000       0.16666667       0.19620680 </v>
    <v>       0.00000000       0.50000000       0.19620680 </v>
    <v>       0.00000000       0.83333333       0.19620680 </v>
    <v>       0.33333333       0.16666667       0.19620680 </v>
    <v>       0.33333333       0.50000000       0.19620680 </v>
    <v>       0.33333333       0.83333333       0.19620680 </v>
    <v>       0.66666667       0.16666667       0.19620680 </v>
    <v>       0.66666667       0.50000000       0.19620680 </v>
    <v>       0.66666667       0.83333333       0.19620680 </v>
    <v>       0.16666667       0.00000000       0.19620680 </v>
    <v>       0.16666667       0.33333333       0.19620680 </v>
    <v>       0.16666667       0.66666667       0.19620680 </v>
    <v>       0.50000000       0.00000000       0.19620680 </v>
    <v>       0.50000000       0.33333333       0.19620680 </v>
    <v>       0.50000000       0.66666667       0.19620680 </v>
    <v>       0.83333333       0.00000000       0.19620680 </v>
    <v>       0.83333333       0.33333333       0.19620680 </v>
    <v>       0.83333333       0.66666667       0.19620680 </v>
    <v>       0.00000000       0.00000000       0.25873860 </v>
    <v>       0.00000000       0.33333333       0.25873860 </v>
    <v>       0.00000000       0.66666667       0.25873860 </v>
    <v>       0.33333333       0.00000000       0.25873860 </v>
    <v>       0.33333333       0.33333333       0.25873860 </v>
    <v>       0.33333333       0.66666667       0.25873860 </v>
    <v>       0.66666667       0.00000000       0.25873860 </v>
    <v>       0.66666667       0.33333333       0.25873860 </v>
    <v>       0.66666667       0.66666667       0.25873860 </v>
    <v>       0.16666667       0.16666667       0.25873860 </v>
    <v>       0.16666667       0.50000000       0.25873860 </v>
    <v>       0.16666667       0.83333333       0.25873860 </v>
    <v>       0.50000000       0.16666667       0.25873860 </v>
    <v>       0.50000000       0.50000000       0.25873860 </v>
    <v>       0.50000000       0.83333333       0.25873860 </v>
    <v>       0.83333333       0.16666667       0.25873860 </v>
    <v>       0.83333333       0.50000000       0.25873860 </v>
    <v>       0.83333333       0.83333333       0.25873860 </v>
    <v>       0.00000000       0.16666667       0.32119954 </v>
    <v>       0.00000000       0.50000000       0.32119954 </v>
    <v>       0.00000000       0.83333333       0.32119954 </v>
    <v>       0.33333333       0.16666667       0.32119954 </v>
    <v>       0.33333333       0.50000000       0.32119954 </v>
    <v>       0.33333333       0.83333333       0.32119954 </v>
    <v>       0.66666667       0.16666667       0.32119954 </v>
    <v>       0.66666667       0.50000000       0.32119954 </v>
    <v>       0.66666667       0.83333333       0.32119954 </v>
    <v>       0.16666667       0.00000000       0.32119954 </v>
    <v>       0.16666667       0.33333333       0.32119954 </v>
    <v>       0.16666667       0.66666667       0.32119954 </v>
    <v>       0.50000000       0.00000000       0.32119954 </v>
    <v>       0.50000000       0.33333333       0.32119954 </v>
    <v>       0.50000000       0.66666667       0.32119954 </v>
    <v>       0.83333333       0.00000000       0.32119954 </v>
    <v>       0.83333333       0.33333333       0.32119954 </v>
    <v>       0.83333333       0.66666667       0.32119954 </v>
    <v>       0.00000000       0.00000000       0.38476372 </v>
    <v>       0.00000000       0.33333333       0.38476372 </v>
    <v>       0.00000000       0.66666667       0.38476372 </v>
    <v>       0.33333333       0.00000000       0.38476372 </v>
    <v>       0.33333333       0.33333333       0.38476372 </v>
    <v>       0.33333333       0.66666667       0.38476372 </v>
    <v>       0.66666667       0.00000000       0.38476372 </v>
    <v>       0.66666667       0.33333333       0.38476372 </v>
    <v>       0.66666667       0.66666667       0.38476372 </v>
    <v>       0.16666667       0.16666667       0.38476372 </v>
    <v>       0.16666667       0.50000000       0.38476372 </v>
    <v>       0.16666667       0.83333333       0.38476372 </v>
    <v>       0.50000000       0.16666667       0.38476372 </v>
    <v>       0.50000000       0.50000000       0.38476372 </v>
    <v>       0.50000000       0.83333333       0.38476372 </v>
    <v>       0.83333333       0.16666667       0.38476372 </v>
    <v>       0.83333333       0.50000000       0.38476372 </v>
    <v>       0.83333333       0.83333333       0.38476372 </v>
    <v>       0.00000000       0.16666667       0.44736473 </v>
    <v>       0.00000000       0.50000000       0.44736473 </v>
    <v>       0.00000000       0.83333333       0.44736473 </v>
    <v>       0.33333333       0.16666667       0.44736473 </v>
    <v>       0.33333333       0.50000000       0.44736473 </v>
    <v>       0.33333333       0.83333333       0.44736473 </v>
    <v>       0.66666667       0.16666667       0.44736473 </v>
    <v>       0.66666667       0.50000000       0.44736473 </v>
    <v>       0.66666667       0.83333333       0.44736473 </v>
    <v>       0.16666667       0.00000000       0.44736473 </v>
    <v>       0.16666667       0.33333333       0.44736473 </v>
    <v>       0.16666667       0.66666667       0.44736473 </v>
    <v>       0.50000000       0.00000000       0.44736473 </v>
    <v>       0.50000000       0.33333333       0.44736473 </v>
    <v>       0.50000000       0.66666667       0.44736473 </v>
    <v>       0.83333333       0.00000000       0.44736473 </v>
    <v>       0.83333333       0.33333333       0.44736473 </v>
    <v>       0.83333333       0.66666667       0.44736473 </v>
    <v>       0.25000000       0.41666667       0.50150658 </v>
   </varray>
  </structure>
  <varray name="primitive_index" >
   <v type="int" >        1 </v>
   <v type="int" >        2 </v>
   <v type="int" >        3 </v>
   <v type="int" >        4 </v>
   <v type="int" >        5 </v>
   <v type="int" >        6 </v>
   <v type="int" >        7 </v>
   <v type="int" >        8 </v>
   <v type="int" >        9 </v>
   <v type="int" >       10 </v>
   <v type="int" >       11 </v>
   <v type="int" >       12 </v>
   <v type="int" >       13 </v>
   <v type="int" >       14 </v>
   <v type="int" >       15 </v>
   <v type="int" >       16 </v>
   <v type="int" >       17 </v>
   <v type="int" >       18 </v>
   <v type="int" >       19 </v>
   <v type="int" >       20 </v>
   <v type="int" >       21 </v>
   <v type="int" >       22 </v>
   <v type="int" >       23 </v>
   <v type="int" >       24 </v>
   <v type="int" >       25 </v>
   <v type="int" >       26 </v>
   <v type="int" >       27 </v>
   <v type="int" >       28 </v>
   <v type="int" >       29 </v>
   <v type="int" >       30 </v>
   <v type="int" >       31 </v>
   <v type="int" >       32 </v>
   <v type="int" >       33 </v>
   <v type="int" >       34 </v>
   <v type="int" >       35 </v>
   <v type="int" >       36 </v>
   <v type="int" >       37 </v>
   <v type="int" >       38 </v>
   <v type="int" >       39 </v>
   <v type="int" >       40 </v>
   <v type="int" >       41 </v>
   <v type="int" >       42 </v>
   <v type="int" >       43 </v>
   <v type="int" >       44 </v>
   <v type="int" >       45 </v>
   <v type="int" >       46 </v>
   <v type="int" >       47 </v>
   <v type="int" >       48 </v>
   <v type="int" >       49 </v>
   <v type="int" >       50 </v>
   <v type="int" >       51 </v>
   <v type="int" >       52 </v>
   <v type="int" >       53 </v>
   <v type="int" >       54 </v>
   <v type="int" >       55 </v>
   <v type="int" >       56 </v>
   <v type="int" >       57 </v>
   <v type="int" >       58 </v>
   <v type="int" >       59 </v>
   <v type="int" >       60 </v>
   <v type="int" >       61 </v>
   <v type="int" >       62 </v>
   <v type="int" >       63 </v>
   <v type="int" >       64 </v>
   <v type="int" >       65 </v>
   <v type="int" >       66 </v>
   <v type="int" >       67 </v>
   <v type="int" >       68 </v>
   <v type="int" >       69 </v>
   <v type="int" >       70 </v>
   <v type="int" >       71 </v>
   <v type="int" >       72 </v>
   <v type="int" >       73 </v>
   <v type="int" >       74 </v>
   <v type="int" >       75 </v>
   <v type="int" >       76 </v>
   <v type="int" >       77 </v>
   <v type="int" >       78 </v>
   <v type="int" >       79 </v>
   <v type="int" >       80 </v>
   <v type="int" >       81 </v>
   <v type="int" >       82 </v>
   <v type="int" >       83 </v>
   <v type="int" >       84 </v>
   <v type="int" >       85 </v>
   <v type="int" >       86 </v>
   <v type="int" >       87 </v>
   <v type="int" >       88 </v>
   <v type="int" >       89 </v>
   <v type="int" >       90 </v>
   <v type="int" >       91 </v>
   <v type="int" >       92 </v>
   <v type="int" >       93 </v>
   <v type="int" >       94 </v>
   <v type="int" >       95 </v>
   <v type="int" >       96 </v>
   <v type="int" >       97 </v>
   <v type="int" >       98 </v>
   <v type="int" >       99 </v>
   <v type="int" >      100 </v>
   <v type="int" >      101 </v>
   <v type="int" >      102 </v>
   <v type="int" >      103 </v>
   <v type="int" >      104 </v>
   <v type="int" >      105 </v>
   <v type="int" >      106 </v>
   <v type="int" >      107 </v>
   <v type="int" >      108 </v>
   <v type="int" >      109 </v>
   <v type="int" >      110 </v>
   <v type="int" >      111 </v>
   <v type="int" >      112 </v>
   <v type="int" >      113 </v>
   <v type="int" >      114 </v>
   <v type="int" >      115 </v>
   <v type="int" >      116 </v>
   <v type="int" >      117 </v>
   <v type="int" >      118 </v>
   <v type="int" >      119 </v>
   <v type="int" >      120 </v>
   <v type="int" >      121 </v>
   <v type="int" >      122 </v>
   <v type="int" >      123 </v>
   <v type="int" >      124 </v>
   <v type="int" >      125 </v>
   <v type="int" >      126 </v>
   <v type="int" >      127 </v>
   <v type="int" >      128 </v>
   <v type="int" >      129 </v>
   <v type="int" >      130 </v>
   <v type="int" >      131 </v>
   <v type="int" >      132 </v>
   <v type="int" >      133 </v>
   <v type="int" >      134 </v>
   <v type="int" >      135 </v>
   <v type="int" >      136 </v>
   <v type="int" >      137 </v>
   <v type="int" >      138 </v>
   <v type="int" >      139 </v>
   <v type="int" >      140 </v>
   <v type="int" >      141 </v>
   <v type="int" >      142 </v>
   <v type="int" >      143 </v>
   <v type="int" >      144 </v>
   <v type="int" >      145 </v>
  </varray>
 </primitive_cell>
 <kpoints>
  <generation param="Monkhorst-Pack">
   <v type="int" name="divisions">       3        3        1 </v>
   <v name="usershift">      0.00000000       0.00000000       0.00000000 </v>
   <v name="genvec1">      0.33333333       0.00000000       0.00000000 </v>
   <v name="genvec2">      0.00000000       0.33333333       0.00000000 </v>
   <v name="genvec3">      0.00000000       0.00000000       1.00000000 </v>
   <v name="shift">      0.00000000       0.00000000       0.00000000 </v>
  </generation>
  <varray name="kpointlist" >
   <v>       0.00000000       0.00000000       0.00000000 </v>
   <v>       0.33333333       0.00000000       0.00000000 </v>
   <v>       0.33333333       0.33333333       0.00000000 </v>
   <v>      -0.33333333       0.33333333       0.00000000 </v>
  </varray>
  <varray name="weights" >
   <v>       0.11111111 </v>
   <v>       0.44444444 </v>
   <v>       0.22222222 </v>
   <v>       0.22222222 </v>
  </varray>
 </kpoints>
 <parameters>
  <separator name="general" >
   <i type="string" name="SYSTEM">unknown system</i>
   <i type="logical" name="LCOMPAT"> F  </i>
  </separator>
  <separator name="electronic" >
   <i type="string" name="PREC">normal</i>
   <i name="ENMAX">    400.00000000</i>
   <i name="ENAUG">    586.98000000</i>
   <i name="EDIFF">      0.00020000</i>
   <i type="int" name="IALGO">    38</i>
   <i type="int" name="IWAVPR">    11</i>
   <i type="int" name="NBANDS">  1024</i>
   <i type="int" name="NBANDSLOW">    -1</i>
   <i type="int" name="NBANDSHIGH">    -1</i>
   <i name="NELECT">   1585.00000000</i>
   <i type="int" name="TURBO">     0</i>
   <i type="int" name="IRESTART">     0</i>
   <i type="int" name="NREBOOT">     0</i>
   <i type="int" name="NMIN">     0</i>
   <i name="EREF">      0.00000000</i>
   <separator name="electronic smearing" >
    <i type="int" name="ISMEAR">     1</i>
    <i name="SIGMA">      0.20000000</i>
    <i name="KSPACING">      0.50000000</i>
    <i type="logical" name="KGAMMA"> T  </i>
    <i type="logical" name="KBLOWUP"> T  </i>
   </separator>
   <separator name="electronic projectors" >
    <i type="logical" name="LREAL"> F  </i>
    <v name="ROPT">      0.00000000      0.00000000</v>
    <i type="int" name="LMAXPAW">  -100</i>
    <i type="int" name="LMAXMIX">     2</i>
    <i type="logical" name="NLSPLINE"> F  </i>
   </separator>
   <separator name="electronic startup" >
    <i type="int" name="ISTART">     0</i>
    <i type="int" name="ICHARG">     2</i>
    <i type="int" name="INIWAV">     1</i>
   </separator>
   <separator name="electronic spin" >
    <i type="int" name="ISPIN">     2</i>
    <i type="logical" name="LNONCOLLINEAR"> F  </i>
    <v name="MAGMOM">      1.00000000      1.00000000      1.00000000      1.00000000      1.00000000      1.00000000      1.00000000      1.00000000      1.00000000      1.00000000      1.00000000      1.00000000      1.00000000      1.00000000      1.00000000      1.00000000      1.00000000      1.00000000      1.00000000      1.00000000
      1.00000000      1.00000000      1.00000000      1.00000000      1.00000000      1.00000000      1.00000000      1.00000000      1.00000000      1.00000000      1.00000000      1.00000000      1.00000000      1.00000000      1.00000000      1.00000000      1.00000000      1.00000000      1.00000000      1.00000000
      1.00000000      1.00000000      1.00000000      1.00000000      1.00000000      1.00000000      1.00000000      1.00000000      1.00000000      1.00000000      1.00000000      1.00000000      1.00000000      1.00000000      1.00000000      1.00000000      1.00000000      1.00000000      1.00000000      1.00000000
      1.00000000      1.00000000      1.00000000      1.00000000      1.00000000      1.00000000      1.00000000      1.00000000      1.00000000      1.00000000      1.00000000      1.00000000      1.00000000      1.00000000      1.00000000      1.00000000      1.00000000      1.00000000      1.00000000      1.00000000
      1.00000000      1.00000000      1.00000000      1.00000000      1.00000000      1.00000000      1.00000000      1.00000000      1.00000000      1.00000000      1.00000000      1.00000000      1.00000000      1.00000000      1.00000000      1.00000000      1.00000000      1.00000000      1.00000000      1.00000000
      1.00000000      1.00000000      1.00000000      1.00000000      1.00000000      1.00000000      1.00000000      1.00000000      1.00000000      1.00000000      1.00000000      1.00000000      1.00000000      1.00000000      1.00000000      1.00000000      1.00000000      1.00000000      1.00000000      1.00000000
      1.00000000      1.00000000      1.00000000      1.00000000      1.00000000      1.00000000      1.00000000      1.00000000      1.00000000      1.00000000      1.00000000      1.00000000      1.00000000      1.00000000      1.00000000      1.00000000      1.00000000      1.00000000      1.00000000      1.00000000
      1.00000000      1.00000000      1.00000000      1.00000000      1.00000000</v>
    <i name="NUPDOWN">     -1.00000000</i>
    <i type="logical" name="LSORBIT"> F  </i>
    <v name="SAXIS">      0.00000000      0.00000000      1.00000000</v>
    <i type="logical" name="LSPIRAL"> F  </i>
    <v name="QSPIRAL">      0.00000000      0.00000000      0.00000000</v>
    <i type="logical" name="LZEROZ"> F  </i>
   </separator>
   <separator name="electronic exchange-correlation" >
    <i type="logical" name="LASPH"> F  </i>
    <i type="logical" name="LMETAGGA"> F  </i>
   </separator>
   <separator name="electronic convergence" >
    <i type="int" name="NELM">    60</i>
    <i type="int" name="NELMDL">    -5</i>
    <i type="int" name="NELMIN">     2</i>
    <i name="ENINI">    400.00000000</i>
    <separator name="electronic convergence detail" >
     <i type="logical" name="LDIAG"> T  </i>
     <i type="logical" name="LSUBROT"> F  </i>
     <i name="WEIMIN">      0.00100000</i>
     <i name="EBREAK">      0.00000005</i>
     <i name="DEPER">      0.30000000</i>
     <i type="int" name="NRMM">     4</i>
     <i name="TIME">      0.40000000</i>
    </separator>
   </separator>
   <separator name="electronic mixer" >
    <i name="AMIX">      0.40000000</i>
    <i name="BMIX">      1.00000000</i>
    <i name="AMIN">      0.10000000</i>
    <i name="AMIX_MAG">      1.60000000</i>
    <i name="BMIX_MAG">      1.00000000</i>
    <separator name="electronic mixer details" >
     <i type="int" name="IMIX">     4</i>
     <i type="logical" name="MIXFIRST"> F  </i>
     <i type="int" name="MAXMIX">   -45</i>
     <i name="WC">    100.00000000</i>
     <i type="int" name="INIMIX">     1</i>
     <i type="int" name="MIXPRE">     1</i>
     <i type="int" name="MREMOVE">     5</i>
    </separator>
   </separator>
   <separator name="electronic dipolcorrection" >
    <i type="logical" name="LDIPOL"> F  </i>
    <i type="logical" name="LMONO"> F  </i>
    <i type="int" name="IDIPOL">     0</i>
    <i name="EPSILON">      1.00000000</i>
    <v name="DIPOL">   -100.00000000   -100.00000000   -100.00000000</v>
    <i name="EFIELD">      0.00000000</i>
   </separator>
  </separator>
  <separator name="grids" >
   <i type="int" name="NGX">    54</i>
   <i type="int" name="NGY">    54</i>
   <i type="int" name="NGZ">   140</i>
   <i type="int" name="NGXF">   108</i>
   <i type="int" name="NGYF">   108</i>
   <i type="int" name="NGZF">   280</i>
   <i type="logical" name="ADDGRID"> F  </i>
  </separator>
  <separator name="ionic" >
   <i type="int" name="NSW">   800</i>
   <i type="int" name="IBRION">     2</i>
   <i type="int" name="MDALGO">     0</i>
   <i type="int" name="ISIF">     2</i>
   <i name="PSTRESS">      0.00000000</i>
   <i name="EDIFFG">     -0.03000000</i>
   <i type="int" name="NFREE">     1</i>
   <i name="POTIM">      0.50000000</i>
   <i name="SMASS">     -3.00000000</i>
   <i name="SCALEE">      1.00000000</i>
  </separator>
  <separator name="ionic md" >
   <i name="TEBEG">      0.00010000</i>
   <i name="TEEND">      0.00010000</i>
   <i type="int" name="NBLOCK">     1</i>
   <i type="int" name="KBLOCK">   800</i>
   <i type="int" name="NPACO">   256</i>
   <i name="APACO">     10.00000000</i>
  </separator>
  <separator name="symmetry" >
   <i type="int" name="ISYM">     1</i>
   <i name="SYMPREC">      0.00001000</i>
  </separator>
  <separator name="dos" >
   <i type="int" name="LORBIT">     0</i>
   <v name="RWIGS">     -1.00000000     -1.00000000</v>
   <i type="int" name="NEDOS">   301</i>
   <i name="EMIN">     10.00000000</i>
   <i name="EMAX">    -10.00000000</i>
   <i name="EFERMI">      0.00000000</i>
  </separator>
  <separator name="writing" >
   <i type="int" name="NWRITE">     2</i>
   <i type="logical" name="LWAVE"> F  </i>
   <i type="logical" name="LDOWNSAMPLE"> F  </i>
   <i type="logical" name="LCHARG"> F  </i>
   <i type="logical" name="LPARD"> F  </i>
   <i type="logical" name="LVTOT"> F  </i>
   <i type="logical" name="LVHAR"> F  </i>
   <i type="logical" name="LELF"> F  </i>
   <i type="logical" name="LOPTICS"> F  </i>
   <v name="STM">      0.00000000      0.00000000      0.00000000      0.00000000      0.00000000      0.00000000      0.00000000</v>
  </separator>
  <separator name="performance" >
   <i type="int" name="NPAR">     4</i>
   <i type="int" name="NSIM">     4</i>
   <i type="int" name="NBLK">    -1</i>
   <i type="logical" name="LPLANE"> T  </i>
   <i type="logical" name="LSCALAPACK"> T  </i>
   <i type="logical" name="LSCAAWARE"> F  </i>
   <i type="logical" name="LSCALU"> F  </i>
   <i type="logical" name="LASYNC"> F  </i>
   <i type="logical" name="LORBITALREAL"> F  </i>
  </separator>
  <separator name="miscellaneous" >
   <i type="int" name="IDIOT">     3</i>
   <i type="int" name="PHON_NSTRUCT">    -1</i>
   <i type="logical" name="LMUSIC"> F  </i>
   <v name="POMASS">     63.54600000      1.00000000</v>
   <v name="DARWINR">      0.00000000      0.00000000</v>
   <v name="DARWINV">      1.00000000      1.00000000</v>
   <i type="logical" name="LCORR"> T  </i>
  </separator>
  <i type="logical" name="GGA_COMPAT"> T  </i>
  <i type="logical" name="LBERRY"> F  </i>
  <i type="int" name="ICORELEVEL">     0</i>
  <i type="logical" name="LDAU"> F  </i>
  <i type="int" name="I_CONSTRAINED_M">     0</i>
  <separator name="electronic exchange-correlation" >
   <i type="string" name="GGA">PE</i>
   <i type="int" name="VOSKOWN">     0</i>
   <i type="logical" name="LHFCALC"> F  </i>
   <i type="string" name="PRECFOCK"></i>
   <i type="logical" name="LSYMGRAD"> F  </i>
   <i type="logical" name="LHFONE"> F  </i>
   <i type="logical" name="LRHFCALC"> F  </i>
   <i type="logical" name="LTHOMAS"> F  </i>
   <i type="logical" name="LMODELHF"> F  </i>
   <i type="logical" name="LFOCKACE"> F  </i>
   <i name="ENCUT4O">     -1.00000000</i>
   <i type="int" name="EXXOEP">     0</i>
   <i type="int" name="FOURORBIT">     0</i>
   <i name="AEXX">      0.00000000</i>
   <i name="HFALPHA">      0.00000000</i>
   <i name="MCALPHA">      0.00000000</i>
   <i name="ALDAX">      1.00000000</i>
   <i name="AGGAX">      1.00000000</i>
   <i name="ALDAC">      1.00000000</i>
   <i name="AGGAC">      1.00000000</i>
   <i type="int" name="NKREDX">     1</i>
   <i type="int" name="NKREDY">     1</i>
   <i type="int" name="NKREDZ">     1</i>
   <i type="logical" name="SHIFTRED"> F  </i>
   <i type="logical" name="ODDONLY"> F  </i>
   <i type="logical" name="EVENONLY"> F  </i>
   <i type="int" name="LMAXFOCK">     0</i>
   <i type="int" name="NMAXFOCKAE">     0</i>
   <i type="logical" name="LFOCKAEDFT"> F  </i>
   <i name="HFSCREEN">      0.00000000</i>
   <i name="HFSCREENC">      0.00000000</i>
   <i type="int" name="NBANDSGWLOW">     0</i>
  </separator>
  <separator name="vdW DFT" >
   <i type="logical" name="LUSE_VDW"> F  </i>
   <i name="Zab_VDW">     -0.84910000</i>
   <i name="PARAM1">      0.12340000</i>
   <i name="PARAM2">      1.00000000</i>
   <i name="PARAM3">      0.00000000</i>
  </separator>
  <separator name="model GW" >
   <i type="int" name="MODEL_GW">     0</i>
   <i name="MODEL_EPS0">     13.59556274</i>
   <i name="MODEL_ALPHA">      1.00000000</i>
  </separator>
  <separator name="linear response parameters" >
   <i type="logical" name="LEPSILON"> F  </i>
   <i type="logical" name="LRPA"> F  </i>
   <i type="logical" name="LNABLA"> F  </i>
   <i type="logical" name="LVEL"> F  </i>
   <i name="CSHIFT">      0.10000000</i>
   <i name="OMEGAMAX">     -1.00000000</i>
   <i name="DEG_THRESHOLD">      0.00200000</i>
   <i name="RTIME">     -0.10000000</i>
   <i name="WPLASMAI">      0.00000000</i>
   <v name="DFIELD">      0.00000000      0.00000000      0.00000000</v>
   <v name="WPLASMA">      0.00000000      0.00000000      0.00000000      0.00000000      0.00000000      0.00000000      0.00000000      0.00000000      0.00000000</v>
  </separator>
  <separator name="orbital magnetization" >
   <i type="logical" name="NUCIND"> F  </i>
   <v name="MAGPOS">      0.00000000      0.00000000      0.00000000</v>
   <i type="logical" name="LNICSALL"> T  </i>
   <i type="logical" name="ORBITALMAG"> F  </i>
   <i type="logical" name="LMAGBLOCH"> F  </i>
   <i type="logical" name="LCHIMAG"> F  </i>
   <i type="logical" name="LGAUGE"> T  </i>
   <i type="int" name="MAGATOM">     0</i>
   <v name="MAGDIPOL">      0.00000000      0.00000000      0.00000000</v>
   <v name="AVECCONST">      0.00000000      0.00000000      0.00000000</v>
  </separator>
  <separator name="response functions" >
   <i type="logical" name="LFINITE_TEMPERATURE"> F  </i>
   <i type="logical" name="LADDER"> F  </i>
   <i type="logical" name="LRPAFORCE"> F  </i>
   <i type="logical" name="LFXC"> F  </i>
   <i type="logical" name="LHARTREE"> T  </i>
   <i type="int" name="IBSE">     0</i>
   <v type="int" name="KPOINT">    -1     0     0     0</v>
   <i type="logical" name="LTCTC"> F  </i>
   <i type="logical" name="LTCTE"> F  </i>
   <i type="logical" name="LTETE"> F  </i>
   <i type="logical" name="LTRIPLET"> F  </i>
   <i type="logical" name="LFXCEPS"> F  </i>
   <i type="logical" name="LFXHEG"> F  </i>
   <i type="int" name="NATURALO">     2</i>
   <i type="logical" name="LHOLEGF"> F  </i>
   <i type="logical" name="L2ORDER"> F  </i>
   <i type="logical" name="LDMP1"> F  </i>
   <i type="logical" name="LMP2LT"> F  </i>
   <i type="logical" name="LSMP2LT"> F  </i>
   <i type="logical" name="LGWLF"> F  </i>
   <i name="ENCUTGW">     -2.00000000</i>
   <i name="ENCUTGWSOFT">     -2.00000000</i>
   <i name="ENCUTLF">     -1.00000000</i>
   <i type="logical" name="LESF_SPLINES"> F  </i>
   <i type="int" name="LMAXMP2">    -1</i>
   <i name="SCISSOR">      0.00000000</i>
   <i type="int" name="NOMEGA">     0</i>
   <i type="int" name="NOMEGAR">     0</i>
   <i type="int" name="NBANDSGW">    -1</i>
   <i type="int" name="NBANDSO">    -1</i>
   <i type="int" name="NBANDSV">    -1</i>
   <i type="int" name="NELMGW">     1</i>
   <i type="int" name="NELMHF">     1</i>
   <i type="int" name="DIM">     3</i>
   <i type="int" name="IESPILON">     4</i>
   <i type="int" name="ANTIRES">     0</i>
   <i name="OMEGAMAX">    -30.00000000</i>
   <i name="OMEGAMIN">    -30.00000000</i>
   <i name="OMEGATL">   -200.00000000</i>
   <i type="int" name="OMEGAGRID">     0</i>
   <i name="CSHIFT">     -0.10000000</i>
   <i type="logical" name="LSELFENERGY"> F  </i>
   <i type="logical" name="LSPECTRAL"> F  </i>
   <i type="logical" name="LSPECTRALGW"> F  </i>
   <i type="logical" name="LSINGLES"> F  </i>
   <i type="logical" name="LFERMIGW"> F  </i>
   <i type="logical" name="ODDONLYGW"> F  </i>
   <i type="logical" name="EVENONLYGW"> F  </i>
   <i type="int" name="NKREDLFX">     1</i>
   <i type="int" name="NKREDLFY">     1</i>
   <i type="int" name="NKREDLFZ">     1</i>
   <i type="int" name="MAXMEM">  2800</i>
   <i type="int" name="TELESCOPE">     0</i>
   <i type="int" name="NTAUPAR">    -1</i>
   <i type="int" name="NOMEGAPAR">    -1</i>
   <i name="DAMP_NEWTON">      0.80000001</i>
   <i name="LAMBDA">      1.00000000</i>
  </separator>
  <separator name="External order field" >
   <i name="OFIELD_KAPPA">      0.00000000</i>
   <v name="OFIELD_K">      0.00000000      0.00000000      0.00000000</v>
   <i name="OFIELD_Q6_NEAR">      0.00000000</i>
   <i name="OFIELD_Q6_FAR">      0.00000000</i>
   <i name="OFIELD_A">      0.00000000</i>
  </separator>
  <separator name="optional k-points parameters" >
   <i type="int" name="KPOINTS_OPT_MODE">     1</i>
   <i type="logical" name="LKPOINTS_OPT"> F  </i>
  </separator>
 </parameters>
 <atominfo>
  <atoms>     145 </atoms>
  <types>       2 </types>
  <array name="atoms" >
   <dimension dim="1">ion</dimension>
   <field type="string">element</field>
   <field type="int">atomtype</field>
   <set>
    <rc><c>Cu</c><c>   1</c></rc>
    <rc><c>Cu</c><c>   1</c></rc>
    <rc><c>Cu</c><c>   1</c></rc>
    <rc><c>Cu</c><c>   1</c></rc>
    <rc><c>Cu</c><c>   1</c></rc>
    <rc><c>Cu</c><c>   1</c></rc>
    <rc><c>Cu</c><c>   1</c></rc>
    <rc><c>Cu</c><c>   1</c></rc>
    <rc><c>Cu</c><c>   1</c></rc>
    <rc><c>Cu</c><c>   1</c></rc>
    <rc><c>Cu</c><c>   1</c></rc>
    <rc><c>Cu</c><c>   1</c></rc>
    <rc><c>Cu</c><c>   1</c></rc>
    <rc><c>Cu</c><c>   1</c></rc>
    <rc><c>Cu</c><c>   1</c></rc>
    <rc><c>Cu</c><c>   1</c></rc>
    <rc><c>Cu</c><c>   1</c></rc>
    <rc><c>Cu</c><c>   1</c></rc>
    <rc><c>Cu</c><c>   1</c></rc>
    <rc><c>Cu</c><c>   1</c></rc>
    <rc><c>Cu</c><c>   1</c></rc>
    <rc><c>Cu</c><c>   1</c></rc>
    <rc><c>Cu</c><c>   1</c></rc>
    <rc><c>Cu</c><c>   1</c></rc>
    <rc><c>Cu</c><c>   1</c></rc>
    <rc><c>Cu</c><c>   1</c></rc>
    <rc><c>Cu</c><c>   1</c></rc>
    <rc><c>Cu</c><c>   1</c></rc>
    <rc><c>Cu</c><c>   1</c></rc>
    <rc><c>Cu</c><c>   1</c></rc>
    <rc><c>Cu</c><c>   1</c></rc>
    <rc><c>Cu</c><c>   1</c></rc>
    <rc><c>Cu</c><c>   1</c></rc>
    <rc><c>Cu</c><c>   1</c></rc>
    <rc><c>Cu</c><c>   1</c></rc>
    <rc><c>Cu</c><c>   1</c></rc>
    <rc><c>Cu</c><c>   1</c></rc>
    <rc><c>Cu</c><c>   1</c></rc>
    <rc><c>Cu</c><c>   1</c></rc>
    <rc><c>Cu</c><c>   1</c></rc>
    <rc><c>Cu</c><c>   1</c></rc>
    <rc><c>Cu</c><c>   1</c></rc>
    <rc><c>Cu</c><c>   1</c></rc>
    <rc><c>Cu</c><c>   1</c></rc>
    <rc><c>Cu</c><c>   1</c></rc>
    <rc><c>Cu</c><c>   1</c></rc>
    <rc><c>Cu</c><c>   1</c></rc>
    <rc><c>Cu</c><c>   1</c></rc>
    <rc><c>Cu</c><c>   1</c></rc>
    <rc><c>Cu</c><c>   1</c></rc>
    <rc><c>Cu</c><c>   1</c></rc>
    <rc><c>Cu</c><c>   1</c></rc>
    <rc><c>Cu</c><c>   1</c></rc>
    <rc><c>Cu</c><c>   1</c></rc>
    <rc><c>Cu</c><c>   1</c></rc>
    <rc><c>Cu</c><c>   1</c></rc>
    <rc><c>Cu</c><c>   1</c></rc>
    <rc><c>Cu</c><c>   1</c></rc>
    <rc><c>Cu</c><c>   1</c></rc>
    <rc><c>Cu</c><c>   1</c></rc>
    <rc><c>Cu</c><c>   1</c></rc>
    <rc><c>Cu</c><c>   1</c></rc>
    <rc><c>Cu</c><c>   1</c></rc>
    <rc><c>Cu</c><c>   1</c></rc>
    <rc><c>Cu</c><c>   1</c></rc>
    <rc><c>Cu</c><c>   1</c></rc>
    <rc><c>Cu</c><c>   1</c></rc>
    <rc><c>Cu</c><c>   1</c></rc>
    <rc><c>Cu</c><c>   1</c></rc>
    <rc><c>Cu</c><c>   1</c></rc>
    <rc><c>Cu</c><c>   1</c></rc>
    <rc><c>Cu</c><c>   1</c></rc>
    <rc><c>Cu</c><c>   1</c></rc>
    <rc><c>Cu</c><c>   1</c></rc>
    <rc><c>Cu</c><c>   1</c></rc>
    <rc><c>Cu</c><c>   1</c></rc>
    <rc><c>Cu</c><c>   1</c></rc>
    <rc><c>Cu</c><c>   1</c></rc>
    <rc><c>Cu</c><c>   1</c></rc>
    <rc><c>Cu</c><c>   1</c></rc>
    <rc><c>Cu</c><c>   1</c></rc>
    <rc><c>Cu</c><c>   1</c></rc>
    <rc><c>Cu</c><c>   1</c></rc>
    <rc><c>Cu</c><c>   1</c></rc>
    <rc><c>Cu</c><c>   1</c></rc>
    <rc><c>Cu</c><c>   1</c></rc>
    <rc><c>Cu</c><c>   1</c></rc>
    <rc><c>Cu</c><c>   1</c></rc>
    <rc><c>Cu</c><c>   1</c></rc>
    <rc><c>Cu</c><c>   1</c></rc>
    <rc><c>Cu</c><c>   1</c></rc>
    <rc><c>Cu</c><c>   1</c></rc>
    <rc><c>Cu</c><c>   1</c></rc>
    <rc><c>Cu</c><c>   1</c></rc>
    <rc><c>Cu</c><c>   1</c></rc>
    <rc><c>Cu</c><c>   1</c></rc>
    <rc><c>Cu</c><c>   1</c></rc>
    <rc><c>Cu</c><c>   1</c></rc>
    <rc><c>Cu</c><c>   1</c></rc>
    <rc><c>Cu</c><c>   1</c></rc>
    <rc><c>Cu</c><c>   1</c></rc>
    <rc><c>Cu</c><c>   1</c></rc>
    <rc><c>Cu</c><c>   1</c></rc>
    <rc><c>Cu</c><c>   1</c></rc>
    <rc><c>Cu</c><c>   1</c></rc>
    <rc><c>Cu</c><c>   1</c></rc>
    <rc><c>Cu</c><c>   1</c></rc>
    <rc><c>Cu</c><c>   1</c></rc>
    <rc><c>Cu</c><c>   1</c></rc>
    <rc><c>Cu</c><c>   1</c></rc>
    <rc><c>Cu</c><c>   1</c></rc>
    <rc><c>Cu</c><c>   1</c></rc>
    <rc><c>Cu</c><c>   1</c></rc>
    <rc><c>Cu</c><c>   1</c></rc>
    <rc><c>Cu</c><c>   1</c></rc>
    <rc><c>Cu</c><c>   1</c></rc>
    <rc><c>Cu</c><c>   1</c></rc>
    <rc><c>Cu</c><c>   1</c></rc>
    <rc><c>Cu</c><c>   1</c></rc>
    <rc><c>Cu</c><c>   1</c></rc>
    <rc><c>Cu</c><c>   1</c></rc>
    <rc><c>Cu</c><c>   1</c></rc>
    <rc><c>Cu</c><c>   1</c></rc>
    <rc><c>Cu</c><c>   1</c></rc>
    <rc><c>Cu</c><c>   1</c></rc>
    <rc><c>Cu</c><c>   1</c></rc>
    <rc><c>Cu</c><c>   1</c></rc>
    <rc><c>Cu</c><c>   1</c></rc>
    <rc><c>Cu</c><c>   1</c></rc>
    <rc><c>Cu</c><c>   1</c></rc>
    <rc><c>Cu</c><c>   1</c></rc>
    <rc><c>Cu</c><c>   1</c></rc>
    <rc><c>Cu</c><c>   1</c></rc>
    <rc><c>Cu</c><c>   1</c></rc>
    <rc><c>Cu</c><c>   1</c></rc>
    <rc><c>Cu</c><c>   1</c></rc>
    <rc><c>Cu</c><c>   1</c></rc>
    <rc><c>Cu</c><c>   1</c></rc>
    <rc><c>Cu</c><c>   1</c></rc>
    <rc><c>Cu</c><c>   1</c></rc>
    <rc><c>Cu</c><c>   1</c></rc>
    <rc><c>Cu</c><c>   1</c></rc>
    <rc><c>Cu</c><c>   1</c></rc>
    <rc><c>Cu</c><c>   1</c></rc>
    <rc><c>H </c><c>   2</c></rc>
   </set>
  </array>
  <array name="atomtypes" >
   <dimension dim="1">type</dimension>
   <field type="int">atomspertype</field>
   <field type="string">element</field>
   <field>mass</field>
   <field>valence</field>
   <field type="string">pseudopotential</field>
   <set>
    <rc><c> 144</c><c>Cu</c><c>     63.54600000</c><c>     11.00000000</c><c>  PAW_PBE Cu 22Jun2005                  </c></rc>
    <rc><c>   1</c><c>H </c><c>      1.00000000</c><c>      1.00000000</c><c>  PAW_PBE H 15Jun2001                   </c></rc>
   </set>
  </array>
 </atominfo>
 <structure name="initialpos" >
  <crystal>
   <varray name="basis" >
    <v>      10.89000034       0.00000000       0.00000000 </v>
    <v>       0.00000000      10.89000034       0.00000000 </v>
    <v>       0.00000000       0.00000000      27.70499992 </v>
   </varray>
   <i name="volume">   3285.59432860 </i>
   <varray name="rec_basis" >
    <v>       0.09182736       0.00000000       0.00000000 </v>
    <v>       0.00000000       0.09182736       0.00000000 </v>
    <v>       0.00000000       0.00000000       0.03609457 </v>
   </varray>
  </crystal>
  <varray name="positions" >
   <v>       0.00000000       0.00000000       0.00000000 </v>
   <v>       0.00000000       0.33333333       0.00000000 </v>
   <v>       0.00000000       0.66666667       0.00000000 </v>
   <v>       0.33333333       0.00000000       0.00000000 </v>
   <v>       0.33333333       0.33333333       0.00000000 </v>
   <v>       0.33333333       0.66666667       0.00000000 </v>
   <v>       0.66666667       0.00000000       0.00000000 </v>
   <v>       0.66666667       0.33333333       0.00000000 </v>
   <v>       0.66666667       0.66666667       0.00000000 </v>
   <v>       0.16666667       0.16666667       0.00000000 </v>
   <v>       0.16666667       0.50000000       0.00000000 </v>
   <v>       0.16666667       0.83333333       0.00000000 </v>
   <v>       0.50000000       0.16666667       0.00000000 </v>
   <v>       0.50000000       0.50000000       0.00000000 </v>
   <v>       0.50000000       0.83333333       0.00000000 </v>
   <v>       0.83333333       0.16666667       0.00000000 </v>
   <v>       0.83333333       0.50000000       0.00000000 </v>
   <v>       0.83333333       0.83333333       0.00000000 </v>
   <v>       0.00000000       0.16666667       0.06551164 </v>
   <v>       0.00000000       0.50000000       0.06551164 </v>
   <v>       0.00000000       0.83333333       0.06551164 </v>
   <v>       0.33333333       0.16666667       0.06551164 </v>
   <v>       0.33333333       0.50000000       0.06551164 </v>
   <v>       0.33333333       0.83333333       0.06551164 </v>
   <v>       0.66666667       0.16666667       0.06551164 </v>
   <v>       0.66666667       0.50000000       0.06551164 </v>
   <v>       0.66666667       0.83333333       0.06551164 </v>
   <v>       0.16666667       0.00000000       0.06551164 </v>
   <v>       0.16666667       0.33333333       0.06551164 </v>
   <v>       0.16666667       0.66666667       0.06551164 </v>
   <v>       0.50000000       0.00000000       0.06551164 </v>
   <v>       0.50000000       0.33333333       0.06551164 </v>
   <v>       0.50000000       0.66666667       0.06551164 </v>
   <v>       0.83333333       0.00000000       0.06551164 </v>
   <v>       0.83333333       0.33333333       0.06551164 </v>
   <v>       0.83333333       0.66666667       0.06551164 </v>
   <v>       0.00000000       0.00000000       0.13119553 </v>
   <v>       0.00000000       0.33333333       0.13119553 </v>
   <v>       0.00000000       0.66666667       0.13119553 </v>
   <v>       0.33333333       0.00000000       0.13119553 </v>
   <v>       0.33333333       0.33333333       0.13119553 </v>
   <v>       0.33333333       0.66666667       0.13119553 </v>
   <v>       0.66666667       0.00000000       0.13119553 </v>
   <v>       0.66666667       0.33333333       0.13119553 </v>
   <v>       0.66666667       0.66666667       0.13119553 </v>
   <v>       0.16666667       0.16666667       0.13119553 </v>
   <v>       0.16666667       0.50000000       0.13119553 </v>
   <v>       0.16666667       0.83333333       0.13119553 </v>
   <v>       0.50000000       0.16666667       0.13119553 </v>
   <v>       0.50000000       0.50000000       0.13119553 </v>
   <v>       0.50000000       0.83333333       0.13119553 </v>
   <v>       0.83333333       0.16666667       0.13119553 </v>
   <v>       0.83333333       0.50000000       0.13119553 </v>
   <v>       0.83333333       0.83333333       0.13119553 </v>
   <v>       0.00000000       0.16666667       0.19620680 </v>
   <v>       0.00000000       0.50000000       0.19620680 </v>
   <v>       0.00000000       0.83333333       0.19620680 </v>
   <v>       0.33333333       0.16666667       0.19620680 </v>
   <v>       0.33333333       0.50000000       0.19620680 </v>
   <v>       0.33333333       0.83333333       0.19620680 </v>
   <v>       0.66666667       0.16666667       0.19620680 </v>
   <v>       0.66666667       0.50000000       0.19620680 </v>
   <v>       0.66666667       0.83333333       0.19620680 </v>
   <v>       0.16666667       0.00000000       0.19620680 </v>
   <v>       0.16666667       0.33333333       0.19620680 </v>
   <v>       0.16666667       0.66666667       0.19620680 </v>
   <v>       0.50000000       0.00000000       0.19620680 </v>
   <v>       0.50000000       0.33333333       0.19620680 </v>
   <v>       0.50000000       0.66666667       0.19620680 </v>
   <v>       0.83333333       0.00000000       0.19620680 </v>
   <v>       0.83333333       0.33333333       0.19620680 </v>
   <v>       0.83333333       0.66666667       0.19620680 </v>
   <v>       0.00000000       0.00000000       0.25873860 </v>
   <v>       0.00000000       0.33333333       0.25873860 </v>
   <v>       0.00000000       0.66666667       0.25873860 </v>
   <v>       0.33333333       0.00000000       0.25873860 </v>
   <v>       0.33333333       0.33333333       0.25873860 </v>
   <v>       0.33333333       0.66666667       0.25873860 </v>
   <v>       0.66666667       0.00000000       0.25873860 </v>
   <v>       0.66666667       0.33333333       0.25873860 </v>
   <v>       0.66666667       0.66666667       0.25873860 </v>
   <v>       0.16666667       0.16666667       0.25873860 </v>
   <v>       0.16666667       0.50000000       0.25873860 </v>
   <v>       0.16666667       0.83333333       0.25873860 </v>
   <v>       0.50000000       0.16666667       0.25873860 </v>
   <v>       0.50000000       0.50000000       0.25873860 </v>
   <v>       0.50000000       0.83333333       0.25873860 </v>
   <v>       0.83333333       0.16666667       0.25873860 </v>
   <v>       0.83333333       0.50000000       0.25873860 </v>
   <v>       0.83333333       0.83333333       0.25873860 </v>
   <v>       0.00000000       0.16666667       0.32119954 </v>
   <v>       0.00000000       0.50000000       0.32119954 </v>
   <v>       0.00000000       0.83333333       0.32119954 </v>
   <v>       0.33333333       0.16666667       0.32119954 </v>
   <v>       0.33333333       0.50000000       0.32119954 </v>
   <v>       0.33333333       0.83333333       0.32119954 </v>
   <v>       0.66666667       0.16666667       0.32119954 </v>
   <v>       0.66666667       0.50000000       0.32119954 </v>
   <v>       0.66666667       0.83333333       0.32119954 </v>
   <v>       0.16666667       0.00000000       0.32119954 </v>
   <v>       0.16666667       0.33333333       0.32119954 </v>
   <v>       0.16666667       0.66666667       0.32119954 </v>
   <v>       0.50000000       0.00000000       0.32119954 </v>
   <v>       0.50000000       0.33333333       0.32119954 </v>
   <v>       0.50000000       0.66666667       0.32119954 </v>
   <v>       0.83333333       0.00000000       0.32119954 </v>
   <v>       0.83333333       0.33333333       0.32119954 </v>
   <v>       0.83333333       0.66666667       0.32119954 </v>
   <v>       0.00000000       0.00000000       0.38476372 </v>
   <v>       0.00000000       0.33333333       0.38476372 </v>
   <v>       0.00000000       0.66666667       0.38476372 </v>
   <v>       0.33333333       0.00000000       0.38476372 </v>
   <v>       0.33333333       0.33333333       0.38476372 </v>
   <v>       0.33333333       0.66666667       0.38476372 </v>
   <v>       0.66666667       0.00000000       0.38476372 </v>
   <v>       0.66666667       0.33333333       0.38476372 </v>
   <v>       0.66666667       0.66666667       0.38476372 </v>
   <v>       0.16666667       0.16666667       0.38476372 </v>
   <v>       0.16666667       0.50000000       0.38476372 </v>
   <v>       0.16666667       0.83333333       0.38476372 </v>
   <v>       0.50000000       0.16666667       0.38476372 </v>
   <v>       0.50000000       0.50000000       0.38476372 </v>
   <v>       0.50000000       0.83333333       0.38476372 </v>
   <v>       0.83333333       0.16666667       0.38476372 </v>
   <v>       0.83333333       0.50000000       0.38476372 </v>
   <v>       0.83333333       0.83333333       0.38476372 </v>
   <v>       0.00000000       0.16666667       0.44736473 </v>
   <v>       0.00000000       0.50000000       0.44736473 </v>
   <v>       0.00000000       0.83333333       0.44736473 </v>
   <v>       0.33333333       0.16666667       0.44736473 </v>
   <v>       0.33333333       0.50000000       0.44736473 </v>
   <v>       0.33333333       0.83333333       0.44736473 </v>
   <v>       0.66666667       0.16666667       0.44736473 </v>
   <v>       0.66666667       0.50000000       0.44736473 </v>
   <v>       0.66666667       0.83333333       0.44736473 </v>
   <v>       0.16666667       0.00000000       0.44736473 </v>
   <v>       0.16666667       0.33333333       0.44736473 </v>
   <v>       0.16666667       0.66666667       0.44736473 </v>
   <v>       0.50000000       0.00000000       0.44736473 </v>
   <v>       0.50000000       0.33333333       0.44736473 </v>
   <v>       0.50000000       0.66666667       0.44736473 </v>
   <v>       0.83333333       0.00000000       0.44736473 </v>
   <v>       0.83333333       0.33333333       0.44736473 </v>
   <v>       0.83333333       0.66666667       0.44736473 </v>
   <v>       0.25000000       0.41666667       0.50150658 </v>
  </varray>
  <varray name="selective"  type="logical" >
   <v type="logical" >  F  F  F </v>
   <v type="logical" >  F  F  F </v>
   <v type="logical" >  F  F  F </v>
   <v type="logical" >  F  F  F </v>
   <v type="logical" >  F  F  F </v>
   <v type="logical" >  F  F  F </v>
   <v type="logical" >  F  F  F </v>
   <v type="logical" >  F  F  F </v>
   <v type="logical" >  F  F  F </v>
   <v type="logical" >  F  F  F </v>
   <v type="logical" >  F  F  F </v>
   <v type="logical" >  F  F  F </v>
   <v type="logical" >  F  F  F </v>
   <v type="logical" >  F  F  F </v>
   <v type="logical" >  F  F  F </v>
   <v type="logical" >  F  F  F </v>
   <v type="logical" >  F  F  F </v>
   <v type="logical" >  F  F  F </v>
   <v type="logical" >  F  F  F </v>
   <v type="logical" >  F  F  F </v>
   <v type="logical" >  F  F  F </v>
   <v type="logical" >  F  F  F </v>
   <v type="logical" >  F  F  F </v>
   <v type="logical" >  F  F  F </v>
   <v type="logical" >  F  F  F </v>
   <v type="logical" >  F  F  F </v>
   <v type="logical" >  F  F  F </v>
   <v type="logical" >  F  F  F </v>
   <v type="logical" >  F  F  F </v>
   <v type="logical" >  F  F  F </v>
   <v type="logical" >  F  F  F </v>
   <v type="logical" >  F  F  F </v>
   <v type="logical" >  F  F  F </v>
   <v type="logical" >  F  F  F </v>
   <v type="logical" >  F  F  F </v>
   <v type="logical" >  F  F  F </v>
   <v type="logical" >  F  F  F </v>
   <v type="logical" >  F  F  F </v>
   <v type="logical" >  F  F  F </v>
   <v type="logical" >  F  F  F </v>
   <v type="logical" >  F  F  F </v>
   <v type="logical" >  F  F  F </v>
   <v type="logical" >  F  F  F </v>
   <v type="logical" >  F  F  F </v>
   <v type="logical" >  F  F  F </v>
   <v type="logical" >  F  F  F </v>
   <v type="logical" >  F  F  F </v>
   <v type="logical" >  F  F  F </v>
   <v type="logical" >  F  F  F </v>
   <v type="logical" >  F  F  F </v>
   <v type="logical" >  F  F  F </v>
   <v type="logical" >  F  F  F </v>
   <v type="logical" >  F  F  F </v>
   <v type="logical" >  F  F  F </v>
   <v type="logical" >  T  T  T </v>
   <v type="logical" >  T  T  T </v>
   <v type="logical" >  T  T  T </v>
   <v type="logical" >  T  T  T </v>
   <v type="logical" >  T  T  T </v>
   <v type="logical" >  T  T  T </v>
   <v type="logical" >  T  T  T </v>
   <v type="logical" >  T  T  T </v>
   <v type="logical" >  T  T  T </v>
   <v type="logical" >  T  T  T </v>
   <v type="logical" >  T  T  T </v>
   <v type="logical" >  T  T  T </v>
   <v type="logical" >  T  T  T </v>
   <v type="logical" >  T  T  T </v>
   <v type="logical" >  T  T  T </v>
   <v type="logical" >  T  T  T </v>
   <v type="logical" >  T  T  T </v>
   <v type="logical" >  T  T  T </v>
   <v type="logical" >  T  T  T </v>
   <v type="logical" >  T  T  T </v>
   <v type="logical" >  T  T  T </v>
   <v type="logical" >  T  T  T </v>
   <v type="logical" >  T  T  T </v>
   <v type="logical" >  T  T  T </v>
   <v type="logical" >  T  T  T </v>
   <v type="logical" >  T  T  T </v>
   <v type="logical" >  T  T  T </v>
   <v type="logical" >  T  T  T </v>
   <v type="logical" >  T  T  T </v>
   <v type="logical" >  T  T  T </v>
   <v type="logical" >  T  T  T </v>
   <v type="logical" >  T  T  T </v>
   <v type="logical" >  T  T  T </v>
   <v type="logical" >  T  T  T </v>
   <v type="logical" >  T  T  T </v>
   <v type="logical" >  T  T  T </v>
   <v type="logical" >  T  T  T </v>
   <v type="logical" >  T  T  T </v>
   <v type="logical" >  T  T  T </v>
   <v type="logical" >  T  T  T </v>
   <v type="logical" >  T  T  T </v>
   <v type="logical" >  T  T  T </v>
   <v type="logical" >  T  T  T </v>
   <v type="logical" >  T  T  T </v>
   <v type="logical" >  T  T  T </v>
   <v type="logical" >  T  T  T </v>
   <v type="logical" >  T  T  T </v>
   <v type="logical" >  T  T  T </v>
   <v type="logical" >  T  T  T </v>
   <v type="logical" >  T  T  T </v>
   <v type="logical" >  T  T  T </v>
   <v type="logical" >  T  T  T </v>
   <v type="logical" >  T  T  T </v>
   <v type="logical" >  T  T  T </v>
   <v type="logical" >  T  T  T </v>
   <v type="logical" >  T  T  T </v>
   <v type="logical" >  T  T  T </v>
   <v type="logical" >  T  T  T </v>
   <v type="logical" >  T  T  T </v>
   <v type="logical" >  T  T  T </v>
   <v type="logical" >  T  T  T </v>
   <v type="logical" >  T  T  T </v>
   <v type="logical" >  T  T  T </v>
   <v type="logical" >  T  T  T </v>
   <v type="logical" >  T  T  T </v>
   <v type="logical" >  T  T  T </v>
   <v type="logical" >  T  T  T </v>
   <v type="logical" >  T  T  T </v>
   <v type="logical" >  T  T  T </v>
   <v type="logical" >  T  T  T </v>
   <v type="logical" >  T  T  T </v>
   <v type="logical" >  T  T  T </v>
   <v type="logical" >  T  T  T </v>
   <v type="logical" >  T  T  T </v>
   <v type="logical" >  T  T  T </v>
   <v type="logical" >  T  T  T </v>
   <v type="logical" >  T  T  T </v>
   <v type="logical" >  T  T  T </v>
   <v type="logical" >  T  T  T </v>
   <v type="logical" >  T  T  T </v>
   <v type="logical" >  T  T  T </v>
   <v type="logical" >  T  T  T </v>
   <v type="logical" >  T  T  T </v>
   <v type="logical" >  T  T  T </v>
   <v type="logical" >  T  T  T </v>
   <v type="logical" >  T  T  T </v>
   <v type="logical" >  T  T  T </v>
   <v type="logical" >  T  T  T </v>
   <v type="logical" >  T  T  T </v>
   <v type="logical" >  T  T  T </v>
   <v type="logical" >  T  T  T </v>
  </varray>
  <nose>
   <v>      -3.00000000       0.00000000       0.00010000       0.00010000 </v>
  </nose>
 </structure>
 <calculation>
  <scstep>
   <time name="dav">  740.36  748.25</time>
   <time name="total">  740.66  748.56</time>
   <energy>
    <i name="alphaZ">   4619.63703718 </i>
    <i name="ewald"> 916596.06301613 </i>
    <i name="hartreedc">**************** </i>
    <i name="XCdc">   6593.95593833 </i>
    <i name="pawpsdc"> 176847.83376092 </i>
    <i name="pawaedc">-192086.41684102 </i>
    <i name="eentropy">      0.01104692 </i>
    <i name="bandstr">  15965.32250760 </i>
    <i name="atom"> 200310.37882143 </i>
    <i name="e_fr_energy">  15507.07070126 </i>
    <i name="e_wo_entrp">  15507.05965434 </i>
    <i name="e_0_energy">  15507.06701896 </i>
   </energy>
  </scstep>
  <scstep>
   <time name="dav">  736.18  744.30</time>
   <time name="total">  736.19  744.31</time>
   <energy>
    <i name="e_fr_energy">   2252.44923226 </i>
    <i name="e_wo_entrp">   2252.44906617 </i>
    <i name="e_0_energy">   2252.44917689 </i>
   </energy>
  </scstep>
  <scstep>
   <time name="dav">  738.72  746.48</time>
   <time name="total">  738.74  746.49</time>
   <energy>
    <i name="e_fr_energy">   -389.08599185 </i>
    <i name="e_wo_entrp">   -389.21541244 </i>
    <i name="e_0_energy">   -389.12913205 </i>
   </energy>
  </scstep>
  <scstep>
   <time name="dav">  789.23  798.45</time>
   <time name="total">  789.24  798.46</time>
   <energy>
    <i name="e_fr_energy">   -608.88719557 </i>
    <i name="e_wo_entrp">   -609.15500329 </i>
    <i name="e_0_energy">   -608.97646481 </i>
   </energy>
  </scstep>
  <scstep>
   <time name="dav">  796.67  804.98</time>
   <time name="total">  800.98  809.33</time>
   <energy>
    <i name="e_fr_energy">   -614.81234563 </i>
    <i name="e_wo_entrp">   -615.08189141 </i>
    <i name="e_0_energy">   -614.90219422 </i>
   </energy>
  </scstep>
  <scstep>
   <time name="dav">  790.51  799.26</time>
   <time name="total">  794.97  803.76</time>
   <energy>
    <i name="e_fr_energy">   -500.79633323 </i>
    <i name="e_wo_entrp">   -500.76001052 </i>
    <i name="e_0_energy">   -500.78422566 </i>
   </energy>
  </scstep>
  <scstep>
   <time name="dav">  791.49  799.62</time>
   <time name="total">  796.00  804.18</time>
   <energy>
    <i name="e_fr_energy">   -439.63072877 </i>
    <i name="e_wo_entrp">   -439.54415669 </i>
    <i name="e_0_energy">   -439.60187141 </i>
   </energy>
  </scstep>
  <scstep>
   <time name="dav">  834.15  843.66</time>
   <time name="total">  838.70  848.25</time>
   <energy>
    <i name="e_fr_energy">   -444.79760476 </i>
    <i name="e_wo_entrp">   -444.97104938 </i>
    <i name="e_0_energy">   -444.85541964 </i>
   </energy>
  </scstep>
  <scstep>
   <time name="dav">  914.10  924.58</time>
   <time name="total">  918.61  929.13</time>
   <energy>
    <i name="e_fr_energy">   -436.49069082 </i>
    <i name="e_wo_entrp">   -436.71695195 </i>
    <i name="e_0_energy">   -436.56611120 </i>
   </energy>
  </scstep>
  <scstep>
   <time name="dav">  967.44  978.34</time>
   <time name="total">  972.00  982.94</time>
   <energy>
    <i name="e_fr_energy">   -427.07073036 </i>
    <i name="e_wo_entrp">   -427.00038648 </i>
    <i name="e_0_energy">   -427.04728240 </i>
   </energy>
  </scstep>
  <scstep>
   <time name="dav"> 1011.06 1024.22</time>
   <time name="total"> 1015.45 1028.65</time>
   <energy>
    <i name="e_fr_energy">   -429.65362137 </i>
    <i name="e_wo_entrp">   -429.55092619 </i>
    <i name="e_0_energy">   -429.61938964 </i>
   </energy>
  </scstep>
  <scstep>
   <time name="dav">  812.25  821.23</time>
   <time name="total">  816.77  825.79</time>
   <energy>
    <i name="e_fr_energy">   -437.39563225 </i>
    <i name="e_wo_entrp">   -437.29408008 </i>
    <i name="e_0_energy">   -437.36178152 </i>
   </energy>
  </scstep>
  <scstep>
   <time name="dav">  837.03  846.27</time>
   <time name="total">  841.49  850.78</time>
   <energy>
    <i name="e_fr_energy">   -442.09355717 </i>
    <i name="e_wo_entrp">   -442.03101499 </i>
    <i name="e_0_energy">   -442.07270978 </i>
   </energy>
  </scstep>
  <scstep>
   <time name="dav">  829.47  838.48</time>
   <time name="total">  834.00  843.05</time>
   <energy>
    <i name="e_fr_energy">   -451.06851203 </i>
    <i name="e_wo_entrp">   -451.03954373 </i>
    <i name="e_0_energy">   -451.05885593 </i>
   </energy>
  </scstep>
  <scstep>
   <time name="dav">  854.84  865.30</time>
   <time name="total">  859.24  869.75</time>
   <energy>
    <i name="e_fr_energy">   -461.76055445 </i>
    <i name="e_wo_entrp">   -461.79004632 </i>
    <i name="e_0_energy">   -461.77038508 </i>
   </energy>
  </scstep>
  <scstep>
   <time name="dav">  906.32  916.71</time>
   <time name="total">  910.79  921.21</time>
   <energy>
    <i name="e_fr_energy">   -486.14439214 </i>
    <i name="e_wo_entrp">   -486.23272909 </i>
    <i name="e_0_energy">   -486.17383779 </i>
   </energy>
  </scstep>
  <scstep>
   <time name="dav">  798.29  807.26</time>
   <time name="total">  802.75  811.76</time>
   <energy>
    <i name="e_fr_energy">   -493.18163233 </i>
    <i name="e_wo_entrp">   -493.30007049 </i>
    <i name="e_0_energy">   -493.22111172 </i>
   </energy>
  </scstep>
  <scstep>
   <time name="dav">  837.68  846.83</time>
   <time name="total">  842.21  851.40</time>
   <energy>
    <i name="e_fr_energy">   -496.57306793 </i>
    <i name="e_wo_entrp">   -496.70144849 </i>
    <i name="e_0_energy">   -496.61586145 </i>
   </energy>
  </scstep>
  <scstep>
   <time name="dav">  842.91  853.35</time>
   <time name="total">  847.40  857.88</time>
   <energy>
    <i name="e_fr_energy">   -501.79218957 </i>
    <i name="e_wo_entrp">   -501.92478554 </i>
    <i name="e_0_energy">   -501.83638822 </i>
   </energy>
  </scstep>
  <scstep>
   <time name="dav">  903.77  914.53</time>
   <time name="total">  908.22  919.02</time>
   <energy>
    <i name="e_fr_energy">   -507.43935577 </i>
    <i name="e_wo_entrp">   -507.56040318 </i>
    <i name="e_0_energy">   -507.47970491 </i>
   </energy>
  </scstep>
  <scstep>
   <time name="dav">  867.51  875.36</time>
   <time name="total">  871.89  879.79</time>
   <energy>
    <i name="e_fr_energy">   -510.55301239 </i>
    <i name="e_wo_entrp">   -510.66915090 </i>
    <i name="e_0_energy">   -510.59172522 </i>
   </energy>
  </scstep>
  <scstep>
   <time name="dav">  911.95  920.40</time>
   <time name="total">  916.46  924.95</time>
   <energy>
    <i name="e_fr_energy">   -512.46560793 </i>
    <i name="e_wo_entrp">   -512.58736813 </i>
    <i name="e_0_energy">   -512.50619467 </i>
   </energy>
  </scstep>
  <scstep>
   <time name="dav">  915.10  923.41</time>
   <time name="total">  919.52  927.87</time>
   <energy>
    <i name="e_fr_energy">   -514.13542804 </i>
    <i name="e_wo_entrp">   -514.25929759 </i>
    <i name="e_0_energy">   -514.17671789 </i>
   </energy>
  </scstep>
  <scstep>
   <time name="dav">  831.34  838.71</time>
   <time name="total">  835.85  843.27</time>
   <energy>
    <i name="e_fr_energy">   -515.07228707 </i>
    <i name="e_wo_entrp">   -515.19519840 </i>
    <i name="e_0_energy">   -515.11325751 </i>
   </energy>
  </scstep>
  <scstep>
   <time name="dav">  875.06  883.18</time>
   <time name="total">  879.49  887.65</time>
   <energy>
    <i name="e_fr_energy">   -515.95777100 </i>
    <i name="e_wo_entrp">   -516.08429055 </i>
    <i name="e_0_energy">   -515.99994418 </i>
   </energy>
  </scstep>
  <scstep>
   <time name="dav">  832.82  842.19</time>
   <time name="total">  837.25  846.66</time>
   <energy>
    <i name="e_fr_energy">   -517.22663256 </i>
    <i name="e_wo_entrp">   -517.35445975 </i>
    <i name="e_0_energy">   -517.26924162 </i>
   </energy>
  </scstep>
  <scstep>
   <time name="dav">  861.30  870.42</time>
   <time name="total">  865.75  874.91</time>
   <energy>
    <i name="e_fr_energy">   -517.67998309 </i>
    <i name="e_wo_entrp">   -517.80490678 </i>
    <i name="e_0_energy">   -517.72162432 </i>
   </energy>
  </scstep>
  <scstep>
   <time name="dav">  804.81  812.43</time>
   <time name="total">  809.28  816.94</time>
   <energy>
    <i name="e_fr_energy">   -518.01396360 </i>
    <i name="e_wo_entrp">   -518.13946974 </i>
    <i name="e_0_energy">   -518.05579898 </i>
   </energy>
  </scstep>
  <scstep>
   <time name="dav">  838.93  846.17</time>
   <time name="total">  843.39  850.67</time>
   <energy>
    <i name="e_fr_energy">   -518.08209893 </i>
    <i name="e_wo_entrp">   -518.20777290 </i>
    <i name="e_0_energy">   -518.12399026 </i>
   </energy>
  </scstep>
  <scstep>
   <time name="dav">  805.41  812.43</time>
   <time name="total">  810.44  817.63</time>
   <energy>
    <i name="e_fr_energy">   -518.10922021 </i>
    <i name="e_wo_entrp">   -518.23465989 </i>
    <i name="e_0_energy">   -518.15103344 </i>
   </energy>
  </scstep>
  <scstep>
   <time name="dav">  805.50  812.61</time>
   <time name="total">  809.96  817.11</time>
   <energy>
    <i name="e_fr_energy">   -518.11570844 </i>
    <i name="e_wo_entrp">   -518.24146781 </i>
    <i name="e_0_energy">   -518.15762823 </i>
   </energy>
  </scstep>
  <scstep>
   <time name="dav">  556.24  561.10</time>
   <time name="total">  561.34  566.26</time>
   <energy>
    <i name="e_fr_energy">   -518.11609507 </i>
    <i name="e_wo_entrp">   -518.24181798 </i>
    <i name="e_0_energy">   -518.15800271 </i>
   </energy>
  </scstep>
  <scstep>
   <time name="dav">  540.52  546.15</time>
   <time name="total">  540.83  546.47</time>
   <energy>
    <i name="alphaZ">   4619.63703718 </i>
    <i name="ewald"> 916596.06301613 </i>
    <i name="hartreedc">**************** </i>
    <i name="XCdc">   6426.16093171 </i>
    <i name="pawpsdc"> 188963.68579760 </i>
    <i name="pawaedc">-204483.31493776 </i>
    <i name="eentropy">      0.12549868 </i>
    <i name="bandstr">  -1839.42388304 </i>
    <i name="atom"> 200310.37882143 </i>
    <i name="e_fr_energy">   -518.11615229 </i>
    <i name="e_wo_entrp">   -518.24165096 </i>
    <i name="e_0_energy">   -518.15798518 </i>
   </energy>
  </scstep>
  <structure>
   <crystal>
    <varray name="basis" >
     <v>      10.89000034       0.00000000       0.00000000 </v>
     <v>       0.00000000      10.89000034       0.00000000 </v>
     <v>       0.00000000       0.00000000      27.70499992 </v>
    </varray>
    <i name="volume">   3285.59432860 </i>
    <varray name="rec_basis" >
     <v>       0.09182736       0.00000000       0.00000000 </v>
     <v>       0.00000000       0.09182736       0.00000000 </v>
     <v>       0.00000000       0.00000000       0.03609457 </v>
    </varray>
   </crystal>
   <varray name="positions" >
    <v>       0.00000000       0.00000000       0.00000000 </v>
    <v>       0.00000000       0.33333333       0.00000000 </v>
    <v>       0.00000000       0.66666667       0.00000000 </v>
    <v>       0.33333333       0.00000000       0.00000000 </v>
    <v>       0.33333333       0.33333333       0.00000000 </v>
    <v>       0.33333333       0.66666667       0.00000000 </v>
    <v>       0.66666667       0.00000000       0.00000000 </v>
    <v>       0.66666667       0.33333333       0.00000000 </v>
    <v>       0.66666667       0.66666667       0.00000000 </v>
    <v>       0.16666667       0.16666667       0.00000000 </v>
    <v>       0.16666667       0.50000000       0.00000000 </v>
    <v>       0.16666667       0.83333333       0.00000000 </v>
    <v>       0.50000000       0.16666667       0.00000000 </v>
    <v>       0.50000000       0.50000000       0.00000000 </v>
    <v>       0.50000000       0.83333333       0.00000000 </v>
    <v>       0.83333333       0.16666667       0.00000000 </v>
    <v>       0.83333333       0.50000000       0.00000000 </v>
    <v>       0.83333333       0.83333333       0.00000000 </v>
    <v>       0.00000000       0.16666667       0.06551164 </v>
    <v>       0.00000000       0.50000000       0.06551164 </v>
    <v>       0.00000000       0.83333333       0.06551164 </v>
    <v>       0.33333333       0.16666667       0.06551164 </v>
    <v>       0.33333333       0.50000000       0.06551164 </v>
    <v>       0.33333333       0.83333333       0.06551164 </v>
    <v>       0.66666667       0.16666667       0.06551164 </v>
    <v>       0.66666667       0.50000000       0.06551164 </v>
    <v>       0.66666667       0.83333333       0.06551164 </v>
    <v>       0.16666667       0.00000000       0.06551164 </v>
    <v>       0.16666667       0.33333333       0.06551164 </v>
    <v>       0.16666667       0.66666667       0.06551164 </v>
    <v>       0.50000000       0.00000000       0.06551164 </v>
    <v>       0.50000000       0.33333333       0.06551164 </v>
    <v>       0.50000000       0.66666667       0.06551164 </v>
    <v>       0.83333333       0.00000000       0.06551164 </v>
    <v>       0.83333333       0.33333333       0.06551164 </v>
    <v>       0.83333333       0.66666667       0.06551164 </v>
    <v>       0.00000000       0.00000000       0.13119553 </v>
    <v>       0.00000000       0.33333333       0.13119553 </v>
    <v>       0.00000000       0.66666667       0.13119553 </v>
    <v>       0.33333333       0.00000000       0.13119553 </v>
    <v>       0.33333333       0.33333333       0.13119553 </v>
    <v>       0.33333333       0.66666667       0.13119553 </v>
    <v>       0.66666667       0.00000000       0.13119553 </v>
    <v>       0.66666667       0.33333333       0.13119553 </v>
    <v>       0.66666667       0.66666667       0.13119553 </v>
    <v>       0.16666667       0.16666667       0.13119553 </v>
    <v>       0.16666667       0.50000000       0.13119553 </v>
    <v>       0.16666667       0.83333333       0.13119553 </v>
    <v>       0.50000000       0.16666667       0.13119553 </v>
    <v>       0.50000000       0.50000000       0.13119553 </v>
    <v>       0.50000000       0.83333333       0.13119553 </v>
    <v>       0.83333333       0.16666667       0.13119553 </v>
    <v>       0.83333333       0.50000000       0.13119553 </v>
    <v>       0.83333333       0.83333333       0.13119553 </v>
    <v>       0.00000000       0.16666667       0.19620680 </v>
    <v>       0.00000000       0.50000000       0.19620680 </v>
    <v>       0.00000000       0.83333333       0.19620680 </v>
    <v>       0.33333333       0.16666667       0.19620680 </v>
    <v>       0.33333333       0.50000000       0.19620680 </v>
    <v>       0.33333333       0.83333333       0.19620680 </v>
    <v>       0.66666667       0.16666667       0.19620680 </v>
    <v>       0.66666667       0.50000000       0.19620680 </v>
    <v>       0.66666667       0.83333333       0.19620680 </v>
    <v>       0.16666667       0.00000000       0.19620680 </v>
    <v>       0.16666667       0.33333333       0.19620680 </v>
    <v>       0.16666667       0.66666667       0.19620680 </v>
    <v>       0.50000000       0.00000000       0.19620680 </v>
    <v>       0.50000000       0.33333333       0.19620680 </v>
    <v>       0.50000000       0.66666667       0.19620680 </v>
    <v>       0.83333333       0.00000000       0.19620680 </v>
    <v>       0.83333333       0.33333333       0.19620680 </v>
    <v>       0.83333333       0.66666667       0.19620680 </v>
    <v>       0.00000000       0.00000000       0.25873860 </v>
    <v>       0.00000000       0.33333333       0.25873860 </v>
    <v>       0.00000000       0.66666667       0.25873860 </v>
    <v>       0.33333333       0.00000000       0.25873860 </v>
    <v>       0.33333333       0.33333333       0.25873860 </v>
    <v>       0.33333333       0.66666667       0.25873860 </v>
    <v>       0.66666667       0.00000000       0.25873860 </v>
    <v>       0.66666667       0.33333333       0.25873860 </v>
    <v>       0.66666667       0.66666667       0.25873860 </v>
    <v>       0.16666667       0.16666667       0.25873860 </v>
    <v>       0.16666667       0.50000000       0.25873860 </v>
    <v>       0.16666667       0.83333333       0.25873860 </v>
    <v>       0.50000000       0.16666667       0.25873860 </v>
    <v>       0.50000000       0.50000000       0.25873860 </v>
    <v>       0.50000000       0.83333333       0.25873860 </v>
    <v>       0.83333333       0.16666667       0.25873860 </v>
    <v>       0.83333333       0.50000000       0.25873860 </v>
    <v>       0.83333333       0.83333333       0.25873860 </v>
    <v>       0.00000000       0.16666667       0.32119954 </v>
    <v>       0.00000000       0.50000000       0.32119954 </v>
    <v>       0.00000000       0.83333333       0.32119954 </v>
    <v>       0.33333333       0.16666667       0.32119954 </v>
    <v>       0.33333333       0.50000000       0.32119954 </v>
    <v>       0.33333333       0.83333333       0.32119954 </v>
    <v>       0.66666667       0.16666667       0.32119954 </v>
    <v>       0.66666667       0.50000000       0.32119954 </v>
    <v>       0.66666667       0.83333333       0.32119954 </v>
    <v>       0.16666667       0.00000000       0.32119954 </v>
    <v>       0.16666667       0.33333333       0.32119954 </v>
    <v>       0.16666667       0.66666667       0.32119954 </v>
    <v>       0.50000000       0.00000000       0.32119954 </v>
    <v>       0.50000000       0.33333333       0.32119954 </v>
    <v>       0.50000000       0.66666667       0.32119954 </v>
    <v>       0.83333333       0.00000000       0.32119954 </v>
    <v>       0.83333333       0.33333333       0.32119954 </v>
    <v>       0.83333333       0.66666667       0.32119954 </v>
    <v>       0.00000000       0.00000000       0.38476372 </v>
    <v>       0.00000000       0.33333333       0.38476372 </v>
    <v>       0.00000000       0.66666667       0.38476372 </v>
    <v>       0.33333333       0.00000000       0.38476372 </v>
    <v>       0.33333333       0.33333333       0.38476372 </v>
    <v>       0.33333333       0.66666667       0.38476372 </v>
    <v>       0.66666667       0.00000000       0.38476372 </v>
    <v>       0.66666667       0.33333333       0.38476372 </v>
    <v>       0.66666667       0.66666667       0.38476372 </v>
    <v>       0.16666667       0.16666667       0.38476372 </v>
    <v>       0.16666667       0.50000000       0.38476372 </v>
    <v>       0.16666667       0.83333333       0.38476372 </v>
    <v>       0.50000000       0.16666667       0.38476372 </v>
    <v>       0.50000000       0.50000000       0.38476372 </v>
    <v>       0.50000000       0.83333333       0.38476372 </v>
    <v>       0.83333333       0.16666667       0.38476372 </v>
    <v>       0.83333333       0.50000000       0.38476372 </v>
    <v>       0.83333333       0.83333333       0.38476372 </v>
    <v>       0.00000000       0.16666667       0.44736473 </v>
    <v>       0.00000000       0.50000000       0.44736473 </v>
    <v>       0.00000000       0.83333333       0.44736473 </v>
    <v>       0.33333333       0.16666667       0.44736473 </v>
    <v>       0.33333333       0.50000000       0.44736473 </v>
    <v>       0.33333333       0.83333333       0.44736473 </v>
    <v>       0.66666667       0.16666667       0.44736473 </v>
    <v>       0.66666667       0.50000000       0.44736473 </v>
    <v>       0.66666667       0.83333333       0.44736473 </v>
    <v>       0.16666667       0.00000000       0.44736473 </v>
    <v>       0.16666667       0.33333333       0.44736473 </v>
    <v>       0.16666667       0.66666667       0.44736473 </v>
    <v>       0.50000000       0.00000000       0.44736473 </v>
    <v>       0.50000000       0.33333333       0.44736473 </v>
    <v>       0.50000000       0.66666667       0.44736473 </v>
    <v>       0.83333333       0.00000000       0.44736473 </v>
    <v>       0.83333333       0.33333333       0.44736473 </v>
    <v>       0.83333333       0.66666667       0.44736473 </v>
    <v>       0.25000000       0.41666667       0.50150658 </v>
   </varray>
  </structure>
  <varray name="forces" >
   <v>       0.00973253      -0.00034839       0.31042574 </v>
   <v>      -0.00234840      -0.00194106       0.30853003 </v>
   <v>      -0.00221347       0.00221347       0.30688514 </v>
   <v>      -0.00104943      -0.00397914       0.30730377 </v>
   <v>      -0.00253449       0.00253449       0.31519558 </v>
   <v>       0.00194106       0.00234840       0.30853003 </v>
   <v>      -0.01165772       0.01165772       0.32924007 </v>
   <v>       0.00397914       0.00104943       0.30730377 </v>
   <v>       0.00034839      -0.00973253       0.31042574 </v>
   <v>      -0.00194106      -0.00234840       0.30853003 </v>
   <v>       0.00253449      -0.00253449       0.31519558 </v>
   <v>       0.00104943       0.00397914       0.30730377 </v>
   <v>       0.00221347      -0.00221347       0.30688514 </v>
   <v>       0.00234840       0.00194106       0.30853003 </v>
   <v>      -0.00973253       0.00034839       0.31042574 </v>
   <v>      -0.00034839       0.00973253       0.31042574 </v>
   <v>      -0.00397914      -0.00104943       0.30730377 </v>
   <v>       0.01165772      -0.01165772       0.32924007 </v>
   <v>       0.00269628       0.00269628      -0.07394029 </v>
   <v>      -0.00014833      -0.00476971      -0.07003763 </v>
   <v>       0.00527309       0.00074475      -0.08202161 </v>
   <v>      -0.00476971      -0.00014833      -0.07003763 </v>
   <v>      -0.00839411      -0.00839411      -0.07429475 </v>
   <v>      -0.00616991      -0.00497049      -0.08612693 </v>
   <v>       0.00074475       0.00527309      -0.08202161 </v>
   <v>      -0.00497049      -0.00616991      -0.08612693 </v>
   <v>      -0.00153327      -0.00153327      -0.07594900 </v>
   <v>       0.00616991       0.00497049      -0.08612693 </v>
   <v>       0.00839411       0.00839411      -0.07429475 </v>
   <v>       0.00476971       0.00014833      -0.07003763 </v>
   <v>      -0.00527309      -0.00074475      -0.08202161 </v>
   <v>       0.00014833       0.00476971      -0.07003763 </v>
   <v>      -0.00269628      -0.00269628      -0.07394029 </v>
   <v>       0.00153327       0.00153327      -0.07594900 </v>
   <v>       0.00497049       0.00616991      -0.08612693 </v>
   <v>      -0.00074475      -0.00527309      -0.08202161 </v>
   <v>       0.00231539      -0.00020683       0.00284167 </v>
   <v>       0.00372617      -0.00175785      -0.01574720 </v>
   <v>      -0.00105201       0.00105201      -0.01129293 </v>
   <v>       0.00863472      -0.00091074       0.00011185 </v>
   <v>      -0.00546339       0.00546339      -0.00476485 </v>
   <v>       0.00175785      -0.00372617      -0.01574720 </v>
   <v>      -0.00252212       0.00252212      -0.00062736 </v>
   <v>       0.00091074      -0.00863472       0.00011185 </v>
   <v>       0.00020683      -0.00231539       0.00284167 </v>
   <v>      -0.00175785       0.00372617      -0.01574720 </v>
   <v>       0.00546339      -0.00546339      -0.00476485 </v>
   <v>      -0.00863472       0.00091074       0.00011185 </v>
   <v>       0.00105201      -0.00105201      -0.01129293 </v>
   <v>      -0.00372617       0.00175785      -0.01574720 </v>
   <v>      -0.00231539       0.00020683       0.00284167 </v>
   <v>      -0.00020683       0.00231539       0.00284167 </v>
   <v>      -0.00091074       0.00863472       0.00011185 </v>
   <v>       0.00252212      -0.00252212      -0.00062736 </v>
   <v>       0.00353494       0.00353494      -0.26498836 </v>
   <v>       0.00685528       0.00039275      -0.27444213 </v>
   <v>       0.00075520      -0.00687638      -0.26303168 </v>
   <v>       0.00039275       0.00685528      -0.27444213 </v>
   <v>      -0.00574843      -0.00574843      -0.27671023 </v>
   <v>       0.00036289      -0.01118631      -0.25110691 </v>
   <v>      -0.00687638       0.00075520      -0.26303168 </v>
   <v>      -0.01118631       0.00036289      -0.25110691 </v>
   <v>      -0.00120118      -0.00120118      -0.27413997 </v>
   <v>      -0.00036289       0.01118631      -0.25110691 </v>
   <v>       0.00574843       0.00574843      -0.27671023 </v>
   <v>      -0.00039275      -0.00685528      -0.27444213 </v>
   <v>      -0.00075520       0.00687638      -0.26303168 </v>
   <v>      -0.00685528      -0.00039275      -0.27444213 </v>
   <v>      -0.00353494      -0.00353494      -0.26498836 </v>
   <v>       0.00120118       0.00120118      -0.27413997 </v>
   <v>       0.01118631      -0.00036289      -0.25110691 </v>
   <v>       0.00687638      -0.00075520      -0.26303168 </v>
   <v>       0.00391022      -0.00463580      -0.04106062 </v>
   <v>       0.00698409       0.00072554       0.00141916 </v>
   <v>       0.00383821      -0.00383821      -0.01917041 </v>
   <v>       0.00082840      -0.01083371      -0.04228937 </v>
   <v>       0.00085743      -0.00085743      -0.01587594 </v>
   <v>      -0.00072554      -0.00698409       0.00141916 </v>
   <v>      -0.00132705       0.00132705      -0.03391677 </v>
   <v>       0.01083371      -0.00082840      -0.04228937 </v>
   <v>       0.00463580      -0.00391022      -0.04106062 </v>
   <v>       0.00072554       0.00698409       0.00141916 </v>
   <v>      -0.00085743       0.00085743      -0.01587594 </v>
   <v>      -0.00082840       0.01083371      -0.04228937 </v>
   <v>      -0.00383821       0.00383821      -0.01917041 </v>
   <v>      -0.00698409      -0.00072554       0.00141916 </v>
   <v>      -0.00391022       0.00463580      -0.04106062 </v>
   <v>      -0.00463580       0.00391022      -0.04106062 </v>
   <v>      -0.01083371       0.00082840      -0.04228937 </v>
   <v>       0.00132705      -0.00132705      -0.03391677 </v>
   <v>      -0.01667594      -0.01667594       0.02340518 </v>
   <v>      -0.01556649       0.00164760       0.02612568 </v>
   <v>      -0.00489892      -0.00341243       0.04910384 </v>
   <v>       0.00164760      -0.01556649       0.02612568 </v>
   <v>      -0.00780678      -0.00780678       0.10512784 </v>
   <v>       0.00520701      -0.00287269       0.05040809 </v>
   <v>      -0.00341243      -0.00489892       0.04910384 </v>
   <v>      -0.00287269       0.00520701       0.05040809 </v>
   <v>      -0.00747687      -0.00747687       0.05355397 </v>
   <v>      -0.00520701       0.00287269       0.05040809 </v>
   <v>       0.00780678       0.00780678       0.10512784 </v>
   <v>      -0.00164760       0.01556649       0.02612568 </v>
[...]
       <r>     6.0877    17.3959   878.1623 </r>
       <r>     6.1630    15.4372   879.3257 </r>
       <r>     6.2384    14.5753   880.4241 </r>
       <r>     6.3138    14.5998   881.5244 </r>
       <r>     6.3891    16.3849   882.7591 </r>
       <r>     6.4645    19.8226   884.2530 </r>
       <r>     6.5398    24.4361   886.0946 </r>
       <r>     6.6152    30.1449   888.3663 </r>
       <r>     6.6906    36.1635   891.0917 </r>
       <r>     6.7659    40.5339   894.1464 </r>
       <r>     6.8413    41.0574   897.2405 </r>
       <r>     6.9167    36.5463   899.9947 </r>
       <r>     6.9920    28.1513   902.1163 </r>
       <r>     7.0674    19.5385   903.5887 </r>
       <r>     7.1427    14.9158   904.7128 </r>
       <r>     7.2181    16.0250   905.9205 </r>
       <r>     7.2935    20.7934   907.4875 </r>
       <r>     7.3688    25.8969   909.4391 </r>
       <r>     7.4442    29.8913   911.6918 </r>
       <r>     7.5196    32.2200   914.1199 </r>
       <r>     7.5949    31.6106   916.5022 </r>
       <r>     7.6703    27.9295   918.6070 </r>
       <r>     7.7456    23.4629   920.3752 </r>
       <r>     7.8210    21.0635   921.9626 </r>
       <r>     7.8964    22.0850   923.6269 </r>
       <r>     7.9717    25.5607   925.5532 </r>
       <r>     8.0471    29.2641   927.7586 </r>
       <r>     8.1224    31.8477   930.1587 </r>
       <r>     8.1978    32.6203   932.6170 </r>
       <r>     8.2732    30.5434   934.9188 </r>
       <r>     8.3485    25.8876   936.8698 </r>
       <r>     8.4239    21.2209   938.4690 </r>
       <r>     8.4993    19.3162   939.9247 </r>
       <r>     8.5746    21.4285   941.5396 </r>
       <r>     8.6500    27.0283   943.5765 </r>
       <r>     8.7253    33.5747   946.1067 </r>
       <r>     8.8007    37.9124   948.9639 </r>
       <r>     8.8761    39.0103   951.9038 </r>
       <r>     8.9514    37.8671   954.7575 </r>
       <r>     9.0268    35.1118   957.4036 </r>
       <r>     9.1021    30.7998   959.7247 </r>
       <r>     9.1775    26.2152   961.7003 </r>
       <r>     9.2529    24.0601   963.5135 </r>
       <r>     9.3282    25.8729   965.4634 </r>
       <r>     9.4036    29.3558   967.6757 </r>
       <r>     9.4790    30.1363   969.9468 </r>
       <r>     9.5543    27.5393   972.0222 </r>
       <r>     9.6297    26.2232   973.9984 </r>
       <r>     9.7050    30.2003   976.2744 </r>
       <r>     9.7804    37.3802   979.0914 </r>
       <r>     9.8558    41.6658   982.2314 </r>
       <r>     9.9311    39.4972   985.2080 </r>
       <r>    10.0065    33.1544   987.7065 </r>
       <r>    10.0819    27.7927   989.8010 </r>
       <r>    10.1572    27.1913   991.8502 </r>
       <r>    10.2326    32.4035   994.2922 </r>
       <r>    10.3079    40.9386   997.3774 </r>
       <r>    10.3833    46.7028  1000.8970 </r>
       <r>    10.4587    44.8825  1004.2794 </r>
       <r>    10.5340    38.0036  1007.1435 </r>
       <r>    10.6094    33.7739  1009.6887 </r>
       <r>    10.6847    35.9105  1012.3950 </r>
       <r>    10.7601    39.9946  1015.4091 </r>
       <r>    10.8355    39.4750  1018.3840 </r>
       <r>    10.9108    32.8379  1020.8587 </r>
       <r>    10.9862    23.1284  1022.6017 </r>
       <r>    11.0616    13.5038  1023.6193 </r>
       <r>    11.1369     5.8097  1024.0572 </r>
       <r>    11.2123     1.1235  1024.1418 </r>
       <r>    11.2876    -0.6398  1024.0936 </r>
       <r>    11.3630    -0.7185  1024.0395 </r>
       <r>    11.4384    -0.3651  1024.0120 </r>
       <r>    11.5137    -0.1228  1024.0027 </r>
       <r>    11.5891    -0.0298  1024.0005 </r>
       <r>    11.6644    -0.0054  1024.0001 </r>
       <r>    11.7398    -0.0007  1024.0000 </r>
       <r>    11.8152    -0.0001  1024.0000 </r>
       <r>    11.8905    -0.0000  1024.0000 </r>
       <r>    11.9659    -0.0000  1024.0000 </r>
       <r>    12.0413    -0.0000  1024.0000 </r>
       <r>    12.1166    -0.0000  1024.0000 </r>
       <r>    12.1920    -0.0000  1024.0000 </r>
       <r>    12.2673    -0.0000  1024.0000 </r>
       <r>    12.3427    -0.0000  1024.0000 </r>
       <r>    12.4181     0.0000  1024.0000 </r>
       <r>    12.4934     0.0000  1024.0000 </r>
       <r>    12.5688     0.0000  1024.0000 </r>
       <r>    12.6441     0.0000  1024.0000 </r>
       <r>    12.7195     0.0000  1024.0000 </r>
       <r>    12.7949     0.0000  1024.0000 </r>
       <r>    12.8702     0.0000  1024.0000 </r>
       <r>    12.9456     0.0000  1024.0000 </r>
       <r>    13.0210     0.0000  1024.0000 </r>
       <r>    13.0963     0.0000  1024.0000 </r>
      </set>
     </set>
    </array>
   </total>
  </dos>
 </calculation>
 <structure name="finalpos" >
  <crystal>
   <varray name="basis" >
    <v>      10.89000034       0.00000000       0.00000000 </v>
    <v>       0.00000000      10.89000034       0.00000000 </v>
    <v>       0.00000000       0.00000000      27.70499992 </v>
   </varray>
   <i name="volume">   3285.59432860 </i>
   <varray name="rec_basis" >
    <v>       0.09182736       0.00000000       0.00000000 </v>
    <v>       0.00000000       0.09182736       0.00000000 </v>
    <v>       0.00000000       0.00000000       0.03609457 </v>
   </varray>
  </crystal>
  <varray name="positions" >
   <v>       0.00000000       0.00000000       0.00000000 </v>
   <v>       0.00000000       0.33333333       0.00000000 </v>
   <v>       0.00000000       0.66666667       0.00000000 </v>
   <v>       0.33333333       0.00000000       0.00000000 </v>
   <v>       0.33333333       0.33333333       0.00000000 </v>
   <v>       0.33333333       0.66666667       0.00000000 </v>
   <v>       0.66666667       0.00000000       0.00000000 </v>
   <v>       0.66666667       0.33333333       0.00000000 </v>
   <v>       0.66666667       0.66666667       0.00000000 </v>
   <v>       0.16666667       0.16666667       0.00000000 </v>
   <v>       0.16666667       0.50000000       0.00000000 </v>
   <v>       0.16666667       0.83333333       0.00000000 </v>
   <v>       0.50000000       0.16666667       0.00000000 </v>
   <v>       0.50000000       0.50000000       0.00000000 </v>
   <v>       0.50000000       0.83333333       0.00000000 </v>
   <v>       0.83333333       0.16666667       0.00000000 </v>
   <v>       0.83333333       0.50000000       0.00000000 </v>
   <v>       0.83333333       0.83333333       0.00000000 </v>
   <v>       0.00000000       0.16666667       0.06551164 </v>
   <v>       0.00000000       0.50000000       0.06551164 </v>
   <v>       0.00000000       0.83333333       0.06551164 </v>
   <v>       0.33333333       0.16666667       0.06551164 </v>
   <v>       0.33333333       0.50000000       0.06551164 </v>
   <v>       0.33333333       0.83333333       0.06551164 </v>
   <v>       0.66666667       0.16666667       0.06551164 </v>
   <v>       0.66666667       0.50000000       0.06551164 </v>
   <v>       0.66666667       0.83333333       0.06551164 </v>
   <v>       0.16666667       0.00000000       0.06551164 </v>
   <v>       0.16666667       0.33333333       0.06551164 </v>
   <v>       0.16666667       0.66666667       0.06551164 </v>
   <v>       0.50000000       0.00000000       0.06551164 </v>
   <v>       0.50000000       0.33333333       0.06551164 </v>
   <v>       0.50000000       0.66666667       0.06551164 </v>
   <v>       0.83333333       0.00000000       0.06551164 </v>
   <v>       0.83333333       0.33333333       0.06551164 </v>
   <v>       0.83333333       0.66666667       0.06551164 </v>
   <v>       0.00000000       0.00000000       0.13119553 </v>
   <v>       0.00000000       0.33333333       0.13119553 </v>
   <v>       0.00000000       0.66666667       0.13119553 </v>
   <v>       0.33333333       0.00000000       0.13119553 </v>
   <v>       0.33333333       0.33333333       0.13119553 </v>
   <v>       0.33333333       0.66666667       0.13119553 </v>
   <v>       0.66666667       0.00000000       0.13119553 </v>
   <v>       0.66666667       0.33333333       0.13119553 </v>
   <v>       0.66666667       0.66666667       0.13119553 </v>
   <v>       0.16666667       0.16666667       0.13119553 </v>
   <v>       0.16666667       0.50000000       0.13119553 </v>
   <v>       0.16666667       0.83333333       0.13119553 </v>
   <v>       0.50000000       0.16666667       0.13119553 </v>
   <v>       0.50000000       0.50000000       0.13119553 </v>
   <v>       0.50000000       0.83333333       0.13119553 </v>
   <v>       0.83333333       0.16666667       0.13119553 </v>
   <v>       0.83333333       0.50000000       0.13119553 </v>
   <v>       0.83333333       0.83333333       0.13119553 </v>
   <v>       0.00016276       0.16682943       0.19441860 </v>
   <v>       0.00006780       0.49996455       0.19440607 </v>
   <v>       0.00008618       0.83324389       0.19442400 </v>
   <v>       0.33329788       0.16673447       0.19440607 </v>
   <v>       0.33326325       0.49992992       0.19440285 </v>
   <v>       0.33327907       0.83314357       0.19449272 </v>
   <v>       0.66657723       0.16675285       0.19442400 </v>
   <v>       0.66647690       0.49994574       0.19449272 </v>
   <v>       0.66661273       0.83327939       0.19433670 </v>
   <v>       0.16672093       0.00018976       0.19449272 </v>
   <v>       0.16673675       0.33340342       0.19440285 </v>
   <v>       0.16670212       0.66659887       0.19440607 </v>
   <v>       0.49991382       0.00008944       0.19442400 </v>
   <v>       0.49993220       0.33336879       0.19440607 </v>
   <v>       0.49983724       0.66650391       0.19441860 </v>
   <v>       0.83338727       0.00005394       0.19433670 </v>
   <v>       0.83352310       0.33338760       0.19449272 </v>
   <v>       0.83342277       0.66658049       0.19442400 </v>
   <v>       0.00009826       0.00005932       0.25752092 </v>
   <v>       0.00025193       0.33339542       0.25776030 </v>
   <v>       0.00004135       0.66662532       0.25760213 </v>
   <v>       0.33331966      -0.00014595       0.25756366 </v>
   <v>       0.33328174       0.33338492       0.25765460 </v>
   <v>       0.33327124       0.66641474       0.25776030 </v>
   <v>       0.66670101      -0.00003434       0.25752759 </v>
   <v>       0.66681262       0.33334700       0.25756366 </v>
   <v>       0.66660735       0.66656840       0.25752092 </v>
   <v>       0.16672876       0.16691859       0.25776030 </v>
   <v>       0.16671826       0.49994841       0.25765460 </v>
   <v>       0.16668034       0.83347929       0.25756366 </v>
   <v>       0.49995865       0.16670801       0.25760213 </v>
   <v>       0.49974807       0.49993791       0.25776030 </v>
   <v>       0.49990174       0.83327402       0.25752092 </v>
   <v>       0.83339265       0.16676493       0.25752092 </v>
   <v>       0.83318738       0.49998633       0.25756366 </v>
   <v>       0.83329899       0.83336768       0.25752759 </v>
   <v>       0.00000070       0.16666737       0.32090620 </v>
   <v>      -0.00045554       0.49991900       0.32082225 </v>
   <v>      -0.00011674       0.83340177       0.32084710 </v>
   <v>       0.33325233       0.16621113       0.32082225 </v>
   <v>       0.33330217       0.49996883       0.32125725 </v>
   <v>       0.33336602       0.83309696       0.32101053 </v>
   <v>       0.66673510       0.16654993       0.32084710 </v>
   <v>       0.66643030       0.50003268       0.32101053 </v>
   <v>       0.66654012       0.83320679       0.32082957 </v>
   <v>       0.16663398       0.00023637       0.32101053 </v>
   <v>       0.16669783       0.33336450       0.32125725 </v>
   <v>       0.16674767       0.66712221       0.32082225 </v>
   <v>       0.50011674      -0.00006843       0.32084710 </v>
   <v>       0.50045554       0.33341433       0.32082225 </v>
   <v>       0.49999930       0.66666597       0.32090620 </v>
   <v>       0.83345988       0.00012655       0.32082957 </v>
   <v>       0.83356970       0.33330065       0.32101053 </v>
   <v>       0.83326490       0.66678341       0.32084710 </v>
   <v>       0.00008731       0.00006480       0.38481529 </v>
   <v>       0.00124396       0.33351444       0.38535474 </v>
   <v>      -0.00002364       0.66669030       0.38485022 </v>
   <v>       0.33324016      -0.00011812       0.38488232 </v>
   <v>       0.33411287       0.33255380       0.38427187 </v>
   <v>       0.33315223       0.66542270       0.38535474 </v>
   <v>       0.66676431      -0.00009765       0.38474091 </v>
   <v>       0.66678479       0.33342651       0.38488232 </v>
   <v>       0.66660187       0.66657936       0.38481529 </v>
   <v>       0.16684777       0.16791063       0.38535474 </v>
   <v>       0.16588713       0.50077954       0.38427187 </v>
   <v>       0.16675984       0.83345145       0.38488232 </v>
   <v>       0.50002364       0.16664303       0.38485022 </v>
   <v>       0.49875604       0.49981889       0.38535474 </v>
   <v>       0.49991269       0.83326854       0.38481529 </v>
   <v>       0.83339813       0.16675398       0.38481529 </v>
   <v>       0.83321521       0.49990683       0.38488232 </v>
   <v>       0.83323569       0.83343098       0.38474091 </v>
   <v>       0.00033552       0.16700218       0.44749155 </v>
   <v>      -0.00149633       0.50086991       0.44765057 </v>
   <v>      -0.00043088       0.83370812       0.44746524 </v>
   <v>       0.33420324       0.16517034       0.44765057 </v>
   <v>       0.33254757       0.49921423       0.44948785 </v>
   <v>       0.33337890       0.83312739       0.44754358 </v>
   <v>       0.66704145       0.16623578       0.44746524 </v>
   <v>       0.66646073       0.50004556       0.44754358 </v>
   <v>       0.66657689       0.83324356       0.44746017 </v>
   <v>       0.16662110       0.00020594       0.44754358 </v>
   <v>       0.16745243       0.33411910       0.44948785 </v>
   <v>       0.16579676       0.66816299       0.44765057 </v>
   <v>       0.50043088      -0.00037478       0.44746524 </v>
   <v>       0.50149633       0.33246343       0.44765057 </v>
   <v>       0.49966448       0.66633115       0.44749155 </v>
   <v>       0.83342311       0.00008978       0.44746017 </v>
   <v>       0.83353927       0.33328777       0.44754358 </v>
   <v>       0.83295855       0.66709755       0.44746524 </v>
   <v>       0.25000000       0.41666667       0.48669932 </v>
  </varray>
  <varray name="selective"  type="logical" >
   <v type="logical" >  F  F  F </v>
   <v type="logical" >  F  F  F </v>
   <v type="logical" >  F  F  F </v>
   <v type="logical" >  F  F  F </v>
   <v type="logical" >  F  F  F </v>
   <v type="logical" >  F  F  F </v>
   <v type="logical" >  F  F  F </v>
   <v type="logical" >  F  F  F </v>
   <v type="logical" >  F  F  F </v>
   <v type="logical" >  F  F  F </v>
   <v type="logical" >  F  F  F </v>
   <v type="logical" >  F  F  F </v>
   <v type="logical" >  F  F  F </v>
   <v type="logical" >  F  F  F </v>
   <v type="logical" >  F  F  F </v>
   <v type="logical" >  F  F  F </v>
   <v type="logical" >  F  F  F </v>
   <v type="logical" >  F  F  F </v>
   <v type="logical" >  F  F  F </v>
   <v type="logical" >  F  F  F </v>
   <v type="logical" >  F  F  F </v>
   <v type="logical" >  F  F  F </v>
   <v type="logical" >  F  F  F </v>
   <v type="logical" >  F  F  F </v>
   <v type="logical" >  F  F  F </v>
   <v type="logical" >  F  F  F </v>
   <v type="logical" >  F  F  F </v>
   <v type="logical" >  F  F  F </v>
   <v type="logical" >  F  F  F </v>
   <v type="logical" >  F  F  F </v>
   <v type="logical" >  F  F  F </v>
   <v type="logical" >  F  F  F </v>
   <v type="logical" >  F  F  F </v>
   <v type="logical" >  F  F  F </v>
   <v type="logical" >  F  F  F </v>
   <v type="logical" >  F  F  F </v>
   <v type="logical" >  F  F  F </v>
   <v type="logical" >  F  F  F </v>
   <v type="logical" >  F  F  F </v>
   <v type="logical" >  F  F  F </v>
   <v type="logical" >  F  F  F </v>
   <v type="logical" >  F  F  F </v>
   <v type="logical" >  F  F  F </v>
   <v type="logical" >  F  F  F </v>
   <v type="logical" >  F  F  F </v>
   <v type="logical" >  F  F  F </v>
   <v type="logical" >  F  F  F </v>
   <v type="logical" >  F  F  F </v>
   <v type="logical" >  F  F  F </v>
   <v type="logical" >  F  F  F </v>
   <v type="logical" >  F  F  F </v>
   <v type="logical" >  F  F  F </v>
   <v type="logical" >  F  F  F </v>
   <v type="logical" >  F  F  F </v>
   <v type="logical" >  T  T  T </v>
   <v type="logical" >  T  T  T </v>
   <v type="logical" >  T  T  T </v>
   <v type="logical" >  T  T  T </v>
   <v type="logical" >  T  T  T </v>
   <v type="logical" >  T  T  T </v>
   <v type="logical" >  T  T  T </v>
   <v type="logical" >  T  T  T </v>
   <v type="logical" >  T  T  T </v>
   <v type="logical" >  T  T  T </v>
   <v type="logical" >  T  T  T </v>
   <v type="logical" >  T  T  T </v>
   <v type="logical" >  T  T  T </v>
   <v type="logical" >  T  T  T </v>
   <v type="logical" >  T  T  T </v>
   <v type="logical" >  T  T  T </v>
   <v type="logical" >  T  T  T </v>
   <v type="logical" >  T  T  T </v>
   <v type="logical" >  T  T  T </v>
   <v type="logical" >  T  T  T </v>
   <v type="logical" >  T  T  T </v>
   <v type="logical" >  T  T  T </v>
   <v type="logical" >  T  T  T </v>
   <v type="logical" >  T  T  T </v>
   <v type="logical" >  T  T  T </v>
   <v type="logical" >  T  T  T </v>
   <v type="logical" >  T  T  T </v>
   <v type="logical" >  T  T  T </v>
   <v type="logical" >  T  T  T </v>
   <v type="logical" >  T  T  T </v>
   <v type="logical" >  T  T  T </v>
   <v type="logical" >  T  T  T </v>
   <v type="logical" >  T  T  T </v>
   <v type="logical" >  T  T  T </v>
   <v type="logical" >  T  T  T </v>
   <v type="logical" >  T  T  T </v>
   <v type="logical" >  T  T  T </v>
   <v type="logical" >  T  T  T </v>
   <v type="logical" >  T  T  T </v>
   <v type="logical" >  T  T  T </v>
   <v type="logical" >  T  T  T </v>
   <v type="logical" >  T  T  T </v>
   <v type="logical" >  T  T  T </v>
   <v type="logical" >  T  T  T </v>
   <v type="logical" >  T  T  T </v>
   <v type="logical" >  T  T  T </v>
   <v type="logical" >  T  T  T </v>
   <v type="logical" >  T  T  T </v>
   <v type="logical" >  T  T  T </v>
   <v type="logical" >  T  T  T </v>
   <v type="logical" >  T  T  T </v>
   <v type="logical" >  T  T  T </v>
   <v type="logical" >  T  T  T </v>
   <v type="logical" >  T  T  T </v>
   <v type="logical" >  T  T  T </v>
   <v type="logical" >  T  T  T </v>
   <v type="logical" >  T  T  T </v>
   <v type="logical" >  T  T  T </v>
   <v type="logical" >  T  T  T </v>
   <v type="logical" >  T  T  T </v>
   <v type="logical" >  T  T  T </v>
   <v type="logical" >  T  T  T </v>
   <v type="logical" >  T  T  T </v>
   <v type="logical" >  T  T  T </v>
   <v type="logical" >  T  T  T </v>
   <v type="logical" >  T  T  T </v>
   <v type="logical" >  T  T  T </v>
   <v type="logical" >  T  T  T </v>
   <v type="logical" >  T  T  T </v>
   <v type="logical" >  T  T  T </v>
   <v type="logical" >  T  T  T </v>
   <v type="logical" >  T  T  T </v>
   <v type="logical" >  T  T  T </v>
   <v type="logical" >  T  T  T </v>
   <v type="logical" >  T  T  T </v>
   <v type="logical" >  T  T  T </v>
   <v type="logical" >  T  T  T </v>
   <v type="logical" >  T  T  T </v>
   <v type="logical" >  T  T  T </v>
   <v type="logical" >  T  T  T </v>
   <v type="logical" >  T  T  T </v>
   <v type="logical" >  T  T  T </v>
   <v type="logical" >  T  T  T </v>
   <v type="logical" >  T  T  T </v>
   <v type="logical" >  T  T  T </v>
   <v type="logical" >  T  T  T </v>
   <v type="logical" >  T  T  T </v>
   <v type="logical" >  T  T  T </v>
   <v type="logical" >  T  T  T </v>
   <v type="logical" >  T  T  T </v>
   <v type="logical" >  T  T  T </v>
  </varray>
  <nose>
   <v>      -3.00000000       0.00000000       0.00010000       0.00010000 </v>
  </nose>
 </structure>
</modeling>
