unknown system                          
           1
    10.890000    0.000000    0.000000
     0.000000   10.890000    0.000000
     0.000000    0.000000   27.705000
   Cu   H 
   144     1
Direct configuration=     1
   0.00000000  0.00000000  0.00000000
   0.00000000  0.33333333  0.00000000
   0.00000000  0.66666667  0.00000000
   0.33333333  0.00000000  0.00000000
   0.33333333  0.33333333  0.00000000
   0.33333333  0.66666667  0.00000000
   0.66666667  0.00000000  0.00000000
   0.66666667  0.33333333  0.00000000
   0.66666667  0.66666667  0.00000000
   0.16666667  0.16666667  0.00000000
   0.16666667  0.50000000  0.00000000
   0.16666667  0.83333333  0.00000000
   0.50000000  0.16666667  0.00000000
   0.50000000  0.50000000  0.00000000
   0.50000000  0.83333333  0.00000000
   0.83333333  0.16666667  0.00000000
   0.83333333  0.50000000  0.00000000
   0.83333333  0.83333333  0.00000000
   0.00000000  0.16666667  0.06551164
   0.00000000  0.50000000  0.06551164
   0.00000000  0.83333333  0.06551164
   0.33333333  0.16666667  0.06551164
   0.33333333  0.50000000  0.06551164
   0.33333333  0.83333333  0.06551164
   0.66666667  0.16666667  0.06551164
   0.66666667  0.50000000  0.06551164
   0.66666667  0.83333333  0.06551164
   0.16666667  0.00000000  0.06551164
   0.16666667  0.33333333  0.06551164
   0.16666667  0.66666667  0.06551164
   0.50000000  0.00000000  0.06551164
   0.50000000  0.33333333  0.06551164
   0.50000000  0.66666667  0.06551164
   0.83333333  0.00000000  0.06551164
   0.83333333  0.33333333  0.06551164
   0.83333333  0.66666667  0.06551164
   0.00000000  0.00000000  0.13119553
   0.00000000  0.33333333  0.13119553
   0.00000000  0.66666667  0.13119553
   0.33333333  0.00000000  0.13119553
   0.33333333  0.33333333  0.13119553
   0.33333333  0.66666667  0.13119553
   0.66666667  0.00000000  0.13119553
   0.66666667  0.33333333  0.13119553
   0.66666667  0.66666667  0.13119553
   0.16666667  0.16666667  0.13119553
   0.16666667  0.50000000  0.13119553
   0.16666667  0.83333333  0.13119553
   0.50000000  0.16666667  0.13119553
   0.50000000  0.50000000  0.13119553
   0.50000000  0.83333333  0.13119553
   0.83333333  0.16666667  0.13119553
   0.83333333  0.50000000  0.13119553
   0.83333333  0.83333333  0.13119553
   0.00000000  0.16666667  0.19620680
   0.00000000  0.50000000  0.19620680
   0.00000000  0.83333333  0.19620680
   0.33333333  0.16666667  0.19620680
   0.33333333  0.50000000  0.19620680
   0.33333333  0.83333333  0.19620680
   0.66666667  0.16666667  0.19620680
   0.66666667  0.50000000  0.19620680
   0.66666667  0.83333333  0.19620680
   0.16666667  0.00000000  0.19620680
   0.16666667  0.33333333  0.19620680
   0.16666667  0.66666667  0.19620680
   0.50000000  0.00000000  0.19620680
   0.50000000  0.33333333  0.19620680
   0.50000000  0.66666667  0.19620680
   0.83333333  0.00000000  0.19620680
   0.83333333  0.33333333  0.19620680
   0.83333333  0.66666667  0.19620680
   0.00000000  0.00000000  0.25873860
   0.00000000  0.33333333  0.25873860
   0.00000000  0.66666667  0.25873860
   0.33333333  0.00000000  0.25873860
   0.33333333  0.33333333  0.25873860
   0.33333333  0.66666667  0.25873860
   0.66666667  0.00000000  0.25873860
   0.66666667  0.33333333  0.25873860
   0.66666667  0.66666667  0.25873860
   0.16666667  0.16666667  0.25873860
   0.16666667  0.50000000  0.25873860
   0.16666667  0.83333333  0.25873860
   0.50000000  0.16666667  0.25873860
   0.50000000  0.50000000  0.25873860
   0.50000000  0.83333333  0.25873860
   0.83333333  0.16666667  0.25873860
   0.83333333  0.50000000  0.25873860
   0.83333333  0.83333333  0.25873860
   0.00000000  0.16666667  0.32119954
   0.00000000  0.50000000  0.32119954
   0.00000000  0.83333333  0.32119954
   0.33333333  0.16666667  0.32119954
   0.33333333  0.50000000  0.32119954
   0.33333333  0.83333333  0.32119954
   0.66666667  0.16666667  0.32119954
   0.66666667  0.50000000  0.32119954
   0.66666667  0.83333333  0.32119954
   0.16666667  0.00000000  0.32119954
   0.16666667  0.33333333  0.32119954
   0.16666667  0.66666667  0.32119954
   0.50000000  0.00000000  0.32119954
   0.50000000  0.33333333  0.32119954
   0.50000000  0.66666667  0.32119954
   0.83333333  0.00000000  0.32119954
   0.83333333  0.33333333  0.32119954
   0.83333333  0.66666667  0.32119954
   0.00000000  0.00000000  0.38476372
   0.00000000  0.33333333  0.38476372
   0.00000000  0.66666667  0.38476372
   0.33333333  0.00000000  0.38476372
   0.33333333  0.33333333  0.38476372
   0.33333333  0.66666667  0.38476372
   0.66666667  0.00000000  0.38476372
   0.66666667  0.33333333  0.38476372
   0.66666667  0.66666667  0.38476372
   0.16666667  0.16666667  0.38476372
   0.16666667  0.50000000  0.38476372
   0.16666667  0.83333333  0.38476372
   0.50000000  0.16666667  0.38476372
   0.50000000  0.50000000  0.38476372
   0.50000000  0.83333333  0.38476372
   0.83333333  0.16666667  0.38476372
   0.83333333  0.50000000  0.38476372
   0.83333333  0.83333333  0.38476372
   0.00000000  0.16666667  0.44736473
   0.00000000  0.50000000  0.44736473
   0.00000000  0.83333333  0.44736473
   0.33333333  0.16666667  0.44736473
   0.33333333  0.50000000  0.44736473
   0.33333333  0.83333333  0.44736473
   0.66666667  0.16666667  0.44736473
   0.66666667  0.50000000  0.44736473
   0.66666667  0.83333333  0.44736473
   0.16666667  0.00000000  0.44736473
   0.16666667  0.33333333  0.44736473
   0.16666667  0.66666667  0.44736473
   0.50000000  0.00000000  0.44736473
   0.50000000  0.33333333  0.44736473
   0.50000000  0.66666667  0.44736473
   0.83333333  0.00000000  0.44736473
   0.83333333  0.33333333  0.44736473
   0.83333333  0.66666667  0.44736473
   0.25000000  0.41666667  0.50150658
Direct configuration=     2
   0.00000000  0.00000000  0.00000000
   0.00000000  0.33333333  0.00000000
   0.00000000  0.66666667  0.00000000
   0.33333333  0.00000000  0.00000000
   0.33333333  0.33333333  0.00000000
   0.33333333  0.66666667  0.00000000
   0.66666667  0.00000000  0.00000000
   0.66666667  0.33333333  0.00000000
   0.66666667  0.66666667  0.00000000
   0.16666667  0.16666667  0.00000000
   0.16666667  0.50000000  0.00000000
   0.16666667  0.83333333  0.00000000
   0.50000000  0.16666667  0.00000000
   0.50000000  0.50000000  0.00000000
   0.50000000  0.83333333  0.00000000
   0.83333333  0.16666667  0.00000000
   0.83333333  0.50000000  0.00000000
   0.83333333  0.83333333  0.00000000
   0.00000000  0.16666667  0.06551164
   0.00000000  0.50000000  0.06551164
   0.00000000  0.83333333  0.06551164
   0.33333333  0.16666667  0.06551164
   0.33333333  0.50000000  0.06551164
   0.33333333  0.83333333  0.06551164
   0.66666667  0.16666667  0.06551164
   0.66666667  0.50000000  0.06551164
   0.66666667  0.83333333  0.06551164
   0.16666667  0.00000000  0.06551164
   0.16666667  0.33333333  0.06551164
   0.16666667  0.66666667  0.06551164
   0.50000000  0.00000000  0.06551164
   0.50000000  0.33333333  0.06551164
   0.50000000  0.66666667  0.06551164
   0.83333333  0.00000000  0.06551164
   0.83333333  0.33333333  0.06551164
   0.83333333  0.66666667  0.06551164
   0.00000000  0.00000000  0.13119553
   0.00000000  0.33333333  0.13119553
   0.00000000  0.66666667  0.13119553
   0.33333333  0.00000000  0.13119553
   0.33333333  0.33333333  0.13119553
   0.33333333  0.66666667  0.13119553
   0.66666667  0.00000000  0.13119553
   0.66666667  0.33333333  0.13119553
   0.66666667  0.66666667  0.13119553
   0.16666667  0.16666667  0.13119553
   0.16666667  0.50000000  0.13119553
   0.16666667  0.83333333  0.13119553
   0.50000000  0.16666667  0.13119553
   0.50000000  0.50000000  0.13119553
   0.50000000  0.83333333  0.13119553
   0.83333333  0.16666667  0.13119553
   0.83333333  0.50000000  0.13119553
   0.83333333  0.83333333  0.13119553
   0.00001566  0.16668233  0.19574537
   0.00003037  0.50000174  0.19572891
   0.00000335  0.83330287  0.19574878
   0.33333507  0.16669704  0.19572891
   0.33330787  0.49997453  0.19572496
   0.33333494  0.83328378  0.19576954
   0.66663620  0.16667001  0.19574878
   0.66661711  0.50000161  0.19576954
   0.66666135  0.83332801  0.19572944
   0.16666506  0.00004956  0.19576954
   0.16669213  0.33335880  0.19572496
   0.16666493  0.66663630  0.19572891
   0.49999665  0.00003046  0.19574878
   0.49996963  0.33333159  0.19572891
   0.49998434  0.66665101  0.19574537
   0.83333865  0.00000532  0.19572944
   0.83338289  0.33333173  0.19576954
   0.83336380  0.66666332  0.19574878
   0.00001732 -0.00002054  0.25866710
   0.00003094  0.33333655  0.25874107
   0.00001700  0.66664966  0.25870522
   0.33333700 -0.00004799  0.25866496
   0.33333713  0.33332953  0.25871095
   0.33333012  0.66663573  0.25874107
   0.66666079  0.00000588  0.25867954
   0.66671466  0.33332966  0.25866496
   0.66668720  0.66664934  0.25866710
   0.16666988  0.16669761  0.25874107
   0.16666287  0.50000380  0.25871095
   0.16666300  0.83338133  0.25866496
   0.49998300  0.16668367  0.25870522
   0.49996906  0.49999679  0.25874107
   0.49998268  0.83335387  0.25866710
   0.83331280  0.16668399  0.25866710
   0.83328534  0.50000367  0.25866496
   0.83333921  0.83332745  0.25867954
  -0.00007387  0.16659279  0.32124030
  -0.00006896  0.50000730  0.32124504
  -0.00002170  0.83331822  0.32128505
   0.33334063  0.16659771  0.32124504
   0.33329875  0.49996542  0.32138260
   0.33335640  0.83332061  0.32128732
   0.66665155  0.16664496  0.32128505
   0.66665394  0.50002307  0.32128732
   0.66663354  0.83330021  0.32129280
   0.16664360  0.00001273  0.32128732
   0.16670125  0.33336792  0.32138260
   0.16665937  0.66673563  0.32124504
   0.50002170  0.00001512  0.32128505
   0.50006896  0.33332603  0.32124504
   0.50007387  0.66674054  0.32124030
   0.83336646  0.00003312  0.32129280
   0.83334606  0.33331027  0.32128732
   0.83334845  0.66668837  0.32128505
  -0.00000396 -0.00005495  0.38480472
   0.00029488  0.33330514  0.38484132
   0.00008112  0.66658555  0.38483551
   0.33331054 -0.00000888  0.38482798
   0.33357385  0.33309281  0.38443343
   0.33336152  0.66637179  0.38484132
   0.66666763 -0.00000096  0.38480822
   0.66667555  0.33335612  0.38482798
   0.66672162  0.66667063  0.38480472
   0.16663848  0.16696155  0.38484132
   0.16642615  0.50024052  0.38443343
   0.16668946  0.83334222  0.38482798
   0.49991888  0.16674778  0.38483551
   0.49970512  0.50002819  0.38484132
   0.50000396  0.83338829  0.38480472
   0.83327838  0.16666271  0.38480472
   0.83332445  0.49997721  0.38482798
   0.83333237  0.83333429  0.38480822
  -0.00001108  0.16665558  0.44730691
  -0.00028215  0.50008429  0.44736597
  -0.00000433  0.83333509  0.44735649
   0.33341763  0.16638451  0.44736597
   0.33176717  0.49843383  0.44889513
   0.33334661  0.83331263  0.44734827
   0.66666842  0.16666234  0.44735649
   0.66664596  0.50001328  0.44734827
   0.66664381  0.83331048  0.44735270
   0.16665339  0.00002070  0.44734827
   0.16823283  0.33489950  0.44889513
   0.16658237  0.66694882  0.44736597
   0.50000433 -0.00000176  0.44735649
   0.50028215  0.33324904  0.44736597
   0.50001108  0.66667775  0.44730691
   0.83335619  0.00002285  0.44735270
   0.83335404  0.33332005  0.44734827
   0.83333158  0.66667100  0.44735649
   0.25000000  0.41666667  0.49883354
Direct configuration=     3
   0.00000000  0.00000000  0.00000000
   0.00000000  0.33333333  0.00000000
   0.00000000  0.66666667  0.00000000
   0.33333333  0.00000000  0.00000000
   0.33333333  0.33333333  0.00000000
   0.33333333  0.66666667  0.00000000
   0.66666667  0.00000000  0.00000000
   0.66666667  0.33333333  0.00000000
   0.66666667  0.66666667  0.00000000
   0.16666667  0.16666667  0.00000000
   0.16666667  0.50000000  0.00000000
   0.16666667  0.83333333  0.00000000
   0.50000000  0.16666667  0.00000000
   0.50000000  0.50000000  0.00000000
   0.50000000  0.83333333  0.00000000
   0.83333333  0.16666667  0.00000000
   0.83333333  0.50000000  0.00000000
   0.83333333  0.83333333  0.00000000
   0.00000000  0.16666667  0.06551164
   0.00000000  0.50000000  0.06551164
   0.00000000  0.83333333  0.06551164
   0.33333333  0.16666667  0.06551164
   0.33333333  0.50000000  0.06551164
   0.33333333  0.83333333  0.06551164
   0.66666667  0.16666667  0.06551164
   0.66666667  0.50000000  0.06551164
   0.66666667  0.83333333  0.06551164
   0.16666667  0.00000000  0.06551164
   0.16666667  0.33333333  0.06551164
   0.16666667  0.66666667  0.06551164
   0.50000000  0.00000000  0.06551164
   0.50000000  0.33333333  0.06551164
   0.50000000  0.66666667  0.06551164
   0.83333333  0.00000000  0.06551164
   0.83333333  0.33333333  0.06551164
   0.83333333  0.66666667  0.06551164
   0.00000000  0.00000000  0.13119553
   0.00000000  0.33333333  0.13119553
   0.00000000  0.66666667  0.13119553
   0.33333333  0.00000000  0.13119553
   0.33333333  0.33333333  0.13119553
   0.33333333  0.66666667  0.13119553
   0.66666667  0.00000000  0.13119553
   0.66666667  0.33333333  0.13119553
   0.66666667  0.66666667  0.13119553
   0.16666667  0.16666667  0.13119553
   0.16666667  0.50000000  0.13119553
   0.16666667  0.83333333  0.13119553
   0.50000000  0.16666667  0.13119553
   0.50000000  0.50000000  0.13119553
   0.50000000  0.83333333  0.13119553
   0.83333333  0.16666667  0.13119553
   0.83333333  0.50000000  0.13119553
   0.83333333  0.83333333  0.13119553
   0.00005233  0.16671900  0.19466482
   0.00010149  0.50000581  0.19460980
   0.00001118  0.83323153  0.19467620
   0.33333915  0.16676815  0.19460980
   0.33324823  0.49991490  0.19459661
   0.33333871  0.83316773  0.19474559
   0.66656487  0.16667785  0.19467620
   0.66650106  0.50000537  0.19474559
   0.66664888  0.83331555  0.19461156
   0.16666129  0.00016560  0.19474559
   0.16675177  0.33341843  0.19459661
   0.16666085  0.66656518  0.19460980
   0.49998882  0.00010180  0.19467620
   0.49989851  0.33332752  0.19460980
   0.49994767  0.66661434  0.19466482
   0.83335112  0.00001778  0.19461156
   0.83349894  0.33332796  0.19474559
   0.83343513  0.66665549  0.19467620
   0.00005789 -0.00006863  0.25849966
   0.00010339  0.33334407  0.25874686
   0.00005682  0.66660985  0.25862704
   0.33334560 -0.00016038  0.25849251
   0.33334603  0.33332064  0.25864621
   0.33332259  0.66656327  0.25874686
   0.66664702  0.00001965  0.25854123
   0.66682705  0.33332107  0.25849251
   0.66673530  0.66660878  0.25849966
   0.16667741  0.16677006  0.25874686
   0.16665397  0.50001269  0.25864621
   0.16665440  0.83349372  0.25849251
   0.49994318  0.16672349  0.25862704
   0.49989661  0.49998926  0.25874686
   0.49994211  0.83340196  0.25849966
   0.83326470  0.16672455  0.25849966
   0.83317295  0.50001226  0.25849251
   0.83335298  0.83331369  0.25854123
  -0.00024687  0.16641979  0.32133574
  -0.00023045  0.50002439  0.32135157
  -0.00007252  0.83328282  0.32148528
   0.33335772  0.16643622  0.32135157
   0.33321776  0.49988443  0.32181129
   0.33341042  0.83329081  0.32149287
   0.66661615  0.16659414  0.32148528
   0.66662414  0.50007709  0.32149287
   0.66655598  0.83322264  0.32151118
   0.16658958  0.00004253  0.32149287
   0.16678224  0.33344891  0.32181129
   0.16664228  0.66689711  0.32135157
   0.50007252  0.00005052  0.32148528
   0.50023045  0.33330894  0.32135157
   0.50024687  0.66691354  0.32133574
   0.83344402  0.00011069  0.32151118
   0.83337586  0.33325625  0.32149287
   0.83338385  0.66673919  0.32148528
  -0.00001323 -0.00018364  0.38490074
   0.00098542  0.33323912  0.38502304
   0.00027108  0.66639559  0.38500364
   0.33325717 -0.00002968  0.38497846
   0.33413710  0.33252957  0.38365996
   0.33342754  0.66568124  0.38502304
   0.66666988 -0.00000321  0.38491245
   0.66669635  0.33340949  0.38497846
   0.66685030  0.66667990  0.38490074
   0.16657246  0.16765209  0.38502304
   0.16586290  0.50080377  0.38365996
   0.16674283  0.83336302  0.38497846
   0.49972892  0.16693775  0.38500364
   0.49901458  0.50009421  0.38502304
   0.50001323  0.83351697  0.38490074
   0.83314970  0.16665343  0.38490074
   0.83330365  0.49992384  0.38497846
   0.83333012  0.83333655  0.38491245
  -0.00003704  0.16662963  0.44717153
  -0.00094290  0.50028169  0.44736889
  -0.00001447  0.83333921  0.44733720
   0.33361502  0.16572377  0.44736889
   0.32809954  0.49476620  0.45247902
   0.33337772  0.83326414  0.44730974
   0.66667254  0.16665220  0.44733720
   0.66659747  0.50004438  0.44730974
   0.66659029  0.83325696  0.44732453
   0.16662228  0.00006919  0.44730974
   0.17190046  0.33856713  0.45247902
   0.16638498  0.66760956  0.44736889
   0.50001447 -0.00000588  0.44733720
   0.50094290  0.33305164  0.44736889
   0.50003704  0.66670371  0.44717153
   0.83340971  0.00007638  0.44732453
   0.83340253  0.33328895  0.44730974
   0.83332746  0.66668114  0.44733720
   0.25000000  0.41666667  0.49257385
Direct configuration=     4
   0.00000000  0.00000000  0.00000000
   0.00000000  0.33333333  0.00000000
   0.00000000  0.66666667  0.00000000
   0.33333333  0.00000000  0.00000000
   0.33333333  0.33333333  0.00000000
   0.33333333  0.66666667  0.00000000
   0.66666667  0.00000000  0.00000000
   0.66666667  0.33333333  0.00000000
   0.66666667  0.66666667  0.00000000
   0.16666667  0.16666667  0.00000000
   0.16666667  0.50000000  0.00000000
   0.16666667  0.83333333  0.00000000
   0.50000000  0.16666667  0.00000000
   0.50000000  0.50000000  0.00000000
   0.50000000  0.83333333  0.00000000
   0.83333333  0.16666667  0.00000000
   0.83333333  0.50000000  0.00000000
   0.83333333  0.83333333  0.00000000
   0.00000000  0.16666667  0.06551164
   0.00000000  0.50000000  0.06551164
   0.00000000  0.83333333  0.06551164
   0.33333333  0.16666667  0.06551164
   0.33333333  0.50000000  0.06551164
   0.33333333  0.83333333  0.06551164
   0.66666667  0.16666667  0.06551164
   0.66666667  0.50000000  0.06551164
   0.66666667  0.83333333  0.06551164
   0.16666667  0.00000000  0.06551164
   0.16666667  0.33333333  0.06551164
   0.16666667  0.66666667  0.06551164
   0.50000000  0.00000000  0.06551164
   0.50000000  0.33333333  0.06551164
   0.50000000  0.66666667  0.06551164
   0.83333333  0.00000000  0.06551164
   0.83333333  0.33333333  0.06551164
   0.83333333  0.66666667  0.06551164
   0.00000000  0.00000000  0.13119553
   0.00000000  0.33333333  0.13119553
   0.00000000  0.66666667  0.13119553
   0.33333333  0.00000000  0.13119553
   0.33333333  0.33333333  0.13119553
   0.33333333  0.66666667  0.13119553
   0.66666667  0.00000000  0.13119553
   0.66666667  0.33333333  0.13119553
   0.66666667  0.66666667  0.13119553
   0.16666667  0.16666667  0.13119553
   0.16666667  0.50000000  0.13119553
   0.16666667  0.83333333  0.13119553
   0.50000000  0.16666667  0.13119553
   0.50000000  0.50000000  0.13119553
   0.50000000  0.83333333  0.13119553
   0.83333333  0.16666667  0.13119553
   0.83333333  0.50000000  0.13119553
   0.83333333  0.83333333  0.13119553
   0.00004359  0.16671025  0.19492245
   0.00008453  0.50000484  0.19487663
   0.00000931  0.83324854  0.19493194
   0.33333818  0.16675120  0.19487663
   0.33326245  0.49992912  0.19486564
   0.33333781  0.83319540  0.19498973
   0.66658188  0.16667598  0.19493194
   0.66652873  0.50000447  0.19498973
   0.66665186  0.83331852  0.19487810
   0.16666219  0.00013793  0.19498973
   0.16673755  0.33340421  0.19486564
   0.16666182  0.66658214  0.19487663
   0.49999069  0.00008479  0.19493194
   0.49991547  0.33332849  0.19487663
   0.49995641  0.66662308  0.19492245
   0.83334814  0.00001481  0.19487810
   0.83347127  0.33332886  0.19498973
   0.83341812  0.66665735  0.19493194
   0.00004822 -0.00005716  0.25853959
   0.00008612  0.33334228  0.25874548
   0.00004733  0.66661934  0.25864568
   0.33334355 -0.00013359  0.25853363
   0.33334391  0.33332276  0.25866165
   0.33332439  0.66658055  0.25874548
   0.66665030  0.00001636  0.25857421
   0.66680025  0.33332312  0.25853363
   0.66672383  0.66661845  0.25853959
   0.16667561  0.16675278  0.25874548
   0.16665609  0.50001057  0.25866165
   0.16665645  0.83346692  0.25853363
   0.49995267  0.16671399  0.25864568
   0.49991388  0.49999105  0.25874548
   0.49995178  0.83339050  0.25853959
   0.83327617  0.16671488  0.25853959
   0.83319975  0.50001021  0.25853363
   0.83334970  0.83331697  0.25857421
  -0.00020562  0.16646104  0.32131298
  -0.00019194  0.50002032  0.32132617
  -0.00006041  0.83329126  0.32143754
   0.33335365  0.16647472  0.32132617
   0.33323707  0.49990374  0.32170908
   0.33339754  0.83329791  0.32144386
   0.66662459  0.16660626  0.32143754
   0.66663124  0.50006421  0.32144386
   0.66657447  0.83324114  0.32145911
   0.16660246  0.00003542  0.32144386
   0.16676293  0.33342960  0.32170908
   0.16664635  0.66685861  0.32132617
   0.50006041  0.00004208  0.32143754
   0.50019194  0.33331302  0.32132617
   0.50020562  0.66687229  0.32131298
   0.83342553  0.00009219  0.32145911
   0.83336876  0.33326913  0.32144386
   0.83337541  0.66672707  0.32143754
  -0.00001102 -0.00015295  0.38487785
   0.00082078  0.33325487  0.38497971
   0.00022579  0.66644088  0.38496355
   0.33326990 -0.00002472  0.38494258
   0.33400280  0.33266386  0.38384438
   0.33341180  0.66584589  0.38497971
   0.66666934 -0.00000268  0.38488760
   0.66669139  0.33339677  0.38494258
   0.66681962  0.66667769  0.38487785
   0.16658820  0.16748744  0.38497971
   0.16599720  0.50066947  0.38384438
   0.16673010  0.83335806  0.38494258
   0.49977421  0.16689245  0.38496355
   0.49917922  0.50007847  0.38497971
   0.50001102  0.83348629  0.38487785
   0.83318038  0.16665564  0.38487785
   0.83330861  0.49993657  0.38494258
   0.83333066  0.83333601  0.38488760
  -0.00003085  0.16663581  0.44720381
  -0.00078536  0.50023462  0.44736820
  -0.00001205  0.83333823  0.44734180
   0.33356796  0.16588131  0.44736820
   0.32897401  0.49564068  0.45162451
   0.33337030  0.83327570  0.44731892
   0.66667156  0.16665461  0.44734180
   0.66660904  0.50003697  0.44731892
   0.66660305  0.83326972  0.44733125
   0.16662970  0.00005763  0.44731892
   0.17102599  0.33769265  0.45162451
   0.16643204  0.66745202  0.44736820
   0.50001205 -0.00000489  0.44734180
   0.50078536  0.33309871  0.44736820
   0.50003085  0.66669752  0.44720381
   0.83339695  0.00006362  0.44733125
   0.83339096  0.33329637  0.44731892
   0.83332844  0.66667872  0.44734180
   0.25000000  0.41666667  0.49406635
Direct configuration=     5
   0.00000000  0.00000000  0.00000000
   0.00000000  0.33333333  0.00000000
   0.00000000  0.66666667  0.00000000
   0.33333333  0.00000000  0.00000000
   0.33333333  0.33333333  0.00000000
   0.33333333  0.66666667  0.00000000
   0.66666667  0.00000000  0.00000000
   0.66666667  0.33333333  0.00000000
   0.66666667  0.66666667  0.00000000
   0.16666667  0.16666667  0.00000000
   0.16666667  0.50000000  0.00000000
   0.16666667  0.83333333  0.00000000
   0.50000000  0.16666667  0.00000000
   0.50000000  0.50000000  0.00000000
   0.50000000  0.83333333  0.00000000
   0.83333333  0.16666667  0.00000000
   0.83333333  0.50000000  0.00000000
   0.83333333  0.83333333  0.00000000
   0.00000000  0.16666667  0.06551164
   0.00000000  0.50000000  0.06551164
   0.00000000  0.83333333  0.06551164
   0.33333333  0.16666667  0.06551164
   0.33333333  0.50000000  0.06551164
   0.33333333  0.83333333  0.06551164
   0.66666667  0.16666667  0.06551164
   0.66666667  0.50000000  0.06551164
   0.66666667  0.83333333  0.06551164
   0.16666667  0.00000000  0.06551164
   0.16666667  0.33333333  0.06551164
   0.16666667  0.66666667  0.06551164
   0.50000000  0.00000000  0.06551164
   0.50000000  0.33333333  0.06551164
   0.50000000  0.66666667  0.06551164
   0.83333333  0.00000000  0.06551164
   0.83333333  0.33333333  0.06551164
   0.83333333  0.66666667  0.06551164
   0.00000000  0.00000000  0.13119553
   0.00000000  0.33333333  0.13119553
   0.00000000  0.66666667  0.13119553
   0.33333333  0.00000000  0.13119553
   0.33333333  0.33333333  0.13119553
   0.33333333  0.66666667  0.13119553
   0.66666667  0.00000000  0.13119553
   0.66666667  0.33333333  0.13119553
   0.66666667  0.66666667  0.13119553
   0.16666667  0.16666667  0.13119553
   0.16666667  0.50000000  0.13119553
   0.16666667  0.83333333  0.13119553
   0.50000000  0.16666667  0.13119553
   0.50000000  0.50000000  0.13119553
   0.50000000  0.83333333  0.13119553
   0.83333333  0.16666667  0.13119553
   0.83333333  0.50000000  0.13119553
   0.83333333  0.83333333  0.13119553
   0.00004618  0.16671285  0.19484608
   0.00008956  0.50000513  0.19479753
   0.00000987  0.83324350  0.19485613
   0.33333846  0.16675622  0.19479753
   0.33325824  0.49992490  0.19478589
   0.33333807  0.83318720  0.19491736
   0.66657683  0.16667653  0.19485613
   0.66652053  0.50000474  0.19491736
   0.66665097  0.83331764  0.19479909
   0.16666193  0.00014614  0.19491736
   0.16674176  0.33340843  0.19478589
   0.16666154  0.66657711  0.19479753
   0.49999013  0.00008983  0.19485613
   0.49991044  0.33332820  0.19479753
   0.49995382  0.66662049  0.19484608
   0.83334903  0.00001569  0.19479909
   0.83347947  0.33332859  0.19491736
   0.83342317  0.66665680  0.19485613
   0.00005108 -0.00006056  0.25852775
   0.00009124  0.33334281  0.25874588
   0.00005014  0.66661652  0.25864016
   0.33334416 -0.00014153  0.25852144
   0.33334453  0.33332213  0.25865707
   0.33332385  0.66657543  0.25874588
   0.66664933  0.00001734  0.25856443
   0.66680820  0.33332251  0.25852144
   0.66672723  0.66661558  0.25852775
   0.16667615  0.16675791  0.25874588
   0.16665547  0.50001120  0.25865707
   0.16665584  0.83347486  0.25852144
   0.49994986  0.16671681  0.25864016
   0.49990876  0.49999052  0.25874588
   0.49994892  0.83339389  0.25852775
   0.83327277  0.16671775  0.25852775
   0.83319180  0.50001082  0.25852144
   0.83335067  0.83331600  0.25856443
  -0.00021785  0.16644881  0.32131973
  -0.00020336  0.50002152  0.32133370
  -0.00006400  0.83328875  0.32145169
   0.33335486  0.16646331  0.32133370
   0.33323135  0.49989801  0.32173938
   0.33340136  0.83329580  0.32145839
   0.66662209  0.16660267  0.32145169
   0.66662914  0.50006802  0.32145839
   0.66656899  0.83323566  0.32147454
   0.16659864  0.00003753  0.32145839
   0.16676865  0.33343532  0.32173938
   0.16664514  0.66687003  0.32133370
   0.50006400  0.00004458  0.32145169
   0.50020336  0.33331181  0.32133370
   0.50021785  0.66688452  0.32131973
   0.83343101  0.00009768  0.32147454
   0.83337086  0.33326531  0.32145839
   0.83337791  0.66673067  0.32145169
  -0.00001168 -0.00016205  0.38488464
   0.00086958  0.33325020  0.38499255
   0.00023921  0.66642745  0.38497544
   0.33326613 -0.00002619  0.38495322
   0.33404261  0.33262405  0.38378971
   0.33341647  0.66579708  0.38499255
   0.66666950 -0.00000284  0.38489497
   0.66669286  0.33340054  0.38495322
   0.66682872  0.66667834  0.38488464
   0.16658353  0.16753625  0.38499255
   0.16595739  0.50070928  0.38378971
   0.16673387  0.83335953  0.38495322
   0.49976079  0.16690588  0.38497544
   0.49913042  0.50008313  0.38499255
   0.50001168  0.83349538  0.38488464
   0.83317128  0.16665499  0.38488464
   0.83330714  0.49993279  0.38495322
   0.83333050  0.83333617  0.38489497
  -0.00003269  0.16663398  0.44719424
  -0.00083206  0.50024858  0.44736840
  -0.00001277  0.83333852  0.44734044
   0.33358191  0.16583461  0.44736840
   0.32871478  0.49538145  0.45187782
   0.33337250  0.83327228  0.44731620
   0.66667185  0.16665390  0.44734044
   0.66660561  0.50003917  0.44731620
   0.66659927  0.83326594  0.44732926
   0.16662750  0.00006106  0.44731620
   0.17128522  0.33795188  0.45187782
   0.16641809  0.66749872  0.44736840
   0.50001277 -0.00000518  0.44734044
   0.50083206  0.33308476  0.44736840
   0.50003269  0.66669935  0.44719424
   0.83340073  0.00006740  0.44732926
   0.83339439  0.33329417  0.44731620
   0.83332815  0.66667944  0.44734044
   0.25000000  0.41666667  0.49362391
Direct configuration=     6
   0.00000000  0.00000000  0.00000000
   0.00000000  0.33333333  0.00000000
   0.00000000  0.66666667  0.00000000
   0.33333333  0.00000000  0.00000000
   0.33333333  0.33333333  0.00000000
   0.33333333  0.66666667  0.00000000
   0.66666667  0.00000000  0.00000000
   0.66666667  0.33333333  0.00000000
   0.66666667  0.66666667  0.00000000
   0.16666667  0.16666667  0.00000000
   0.16666667  0.50000000  0.00000000
   0.16666667  0.83333333  0.00000000
   0.50000000  0.16666667  0.00000000
   0.50000000  0.50000000  0.00000000
   0.50000000  0.83333333  0.00000000
   0.83333333  0.16666667  0.00000000
   0.83333333  0.50000000  0.00000000
   0.83333333  0.83333333  0.00000000
   0.00000000  0.16666667  0.06551164
   0.00000000  0.50000000  0.06551164
   0.00000000  0.83333333  0.06551164
   0.33333333  0.16666667  0.06551164
   0.33333333  0.50000000  0.06551164
   0.33333333  0.83333333  0.06551164
   0.66666667  0.16666667  0.06551164
   0.66666667  0.50000000  0.06551164
   0.66666667  0.83333333  0.06551164
   0.16666667  0.00000000  0.06551164
   0.16666667  0.33333333  0.06551164
   0.16666667  0.66666667  0.06551164
   0.50000000  0.00000000  0.06551164
   0.50000000  0.33333333  0.06551164
   0.50000000  0.66666667  0.06551164
   0.83333333  0.00000000  0.06551164
   0.83333333  0.33333333  0.06551164
   0.83333333  0.66666667  0.06551164
   0.00000000  0.00000000  0.13119553
   0.00000000  0.33333333  0.13119553
   0.00000000  0.66666667  0.13119553
   0.33333333  0.00000000  0.13119553
   0.33333333  0.33333333  0.13119553
   0.33333333  0.66666667  0.13119553
   0.66666667  0.00000000  0.13119553
   0.66666667  0.33333333  0.13119553
   0.66666667  0.66666667  0.13119553
   0.16666667  0.16666667  0.13119553
   0.16666667  0.50000000  0.13119553
   0.16666667  0.83333333  0.13119553
   0.50000000  0.16666667  0.13119553
   0.50000000  0.50000000  0.13119553
   0.50000000  0.83333333  0.13119553
   0.83333333  0.16666667  0.13119553
   0.83333333  0.50000000  0.13119553
   0.83333333  0.83333333  0.13119553
   0.00009486  0.16676152  0.19480927