  66  66   0   0
  0.2212521E+02  0.7260000E-09  0.7260000E-09  0.2770500E-08  0.5000000E-15
  1.000000000000000E-004
  CAR 
 unknown system                          
     13.34687071     -9.55066905  301      1.86645838      1.00000000
     -9.551  0.0000E+00  0.0000E+00  0.0000E+00  0.0000E+00
     -9.474  0.0000E+00  0.0000E+00  0.0000E+00  0.0000E+00
     -9.398  0.0000E+00  0.0000E+00  0.0000E+00  0.0000E+00
     -9.322  0.0000E+00  0.0000E+00  0.0000E+00  0.0000E+00
     -9.245  0.0000E+00  0.0000E+00  0.0000E+00  0.0000E+00
     -9.169 -0.1519E-30 -0.1519E-30 -0.1159E-31 -0.1159E-31
     -9.093 -0.6004E-28 -0.6004E-28 -0.4595E-29 -0.4595E-29
     -9.016 -0.1772E-25 -0.1772E-25 -0.1357E-26 -0.1357E-26
     -8.940 -0.3898E-23 -0.3898E-23 -0.2989E-24 -0.2989E-24
     -8.864 -0.6385E-21 -0.6385E-21 -0.4903E-22 -0.4903E-22
     -8.787 -0.7784E-19 -0.7784E-19 -0.5991E-20 -0.5991E-20
     -8.711 -0.6859E-17 -0.6859E-17 -0.5295E-18 -0.5295E-18
     -8.635 -0.4601E-15 -0.4601E-15 -0.3565E-16 -0.3565E-16
     -8.558 -0.2291E-13 -0.2291E-13 -0.1784E-14 -0.1784E-14
     -8.482 -0.8449E-12 -0.8449E-12 -0.6627E-13 -0.6627E-13
     -8.406 -0.2303E-10 -0.2303E-10 -0.1824E-11 -0.1824E-11
     -8.329 -0.4623E-09 -0.4623E-09 -0.3711E-10 -0.3711E-10
     -8.253 -0.6807E-08 -0.6807E-08 -0.5567E-09 -0.5567E-09
     -8.177 -0.7302E-07 -0.7302E-07 -0.6130E-08 -0.6130E-08
     -8.100 -0.5645E-06 -0.5645E-06 -0.4922E-07 -0.4922E-07
     -8.024 -0.3087E-05 -0.3087E-05 -0.2849E-06 -0.2849E-06
     -7.948 -0.1150E-04 -0.1150E-04 -0.1163E-05 -0.1163E-05
     -7.872 -0.2653E-04 -0.2653E-04 -0.3188E-05 -0.3188E-05
     -7.795 -0.2408E-04 -0.2408E-04 -0.5025E-05 -0.5025E-05
     -7.719  0.5766E-04  0.5766E-04 -0.6245E-06 -0.6245E-06
     -7.643  0.2473E-03  0.2473E-03  0.1825E-04  0.1825E-04
     -7.566  0.4267E-03  0.4267E-03  0.5081E-04  0.5081E-04
     -7.490  0.4435E-03  0.4435E-03  0.8466E-04  0.8466E-04
     -7.414  0.4551E-03  0.4551E-03  0.1194E-03  0.1194E-03
     -7.337  0.8737E-03  0.8737E-03  0.1861E-03  0.1861E-03
     -7.261  0.1672E-02  0.1672E-02  0.3137E-03  0.3137E-03
     -7.185  0.2161E-02  0.2161E-02  0.4786E-03  0.4786E-03
     -7.108  0.1981E-02  0.1981E-02  0.6298E-03  0.6298E-03
     -7.032  0.1765E-02  0.1765E-02  0.7645E-03  0.7645E-03
     -6.956  0.2104E-02  0.2104E-02  0.9251E-03  0.9251E-03
     -6.879  0.2593E-02  0.2593E-02  0.1123E-02  0.1123E-02
     -6.803  0.2676E-02  0.2676E-02  0.1327E-02  0.1327E-02
     -6.727  0.2513E-02  0.2513E-02  0.1519E-02  0.1519E-02
     -6.650  0.2291E-02  0.2291E-02  0.1694E-02  0.1694E-02
     -6.574  0.1804E-02  0.1804E-02  0.1832E-02  0.1832E-02
     -6.498  0.1375E-02  0.1375E-02  0.1937E-02  0.1937E-02
     -6.421  0.1861E-02  0.1861E-02  0.2079E-02  0.2079E-02
     -6.345  0.3201E-02  0.3201E-02  0.2323E-02  0.2323E-02
     -6.269  0.4081E-02  0.4081E-02  0.2634E-02  0.2634E-02
     -6.192  0.3658E-02  0.3658E-02  0.2914E-02  0.2914E-02
     -6.116  0.2883E-02  0.2883E-02  0.3134E-02  0.3134E-02
     -6.040  0.3304E-02  0.3304E-02  0.3386E-02  0.3386E-02
     -5.963  0.4924E-02  0.4924E-02  0.3762E-02  0.3762E-02
     -5.887  0.6182E-02  0.6182E-02  0.4233E-02  0.4233E-02
     -5.811  0.5984E-02  0.5984E-02  0.4690E-02  0.4690E-02
     -5.734  0.4797E-02  0.4797E-02  0.5056E-02  0.5056E-02
     -5.658  0.3928E-02  0.3928E-02  0.5356E-02  0.5356E-02
     -5.582  0.4351E-02  0.4351E-02  0.5688E-02  0.5688E-02
     -5.505  0.5638E-02  0.5638E-02  0.6118E-02  0.6118E-02
     -5.429  0.6016E-02  0.6016E-02  0.6578E-02  0.6578E-02
     -5.353  0.4443E-02  0.4443E-02  0.6917E-02  0.6917E-02
     -5.276  0.2177E-02  0.2177E-02  0.7083E-02  0.7083E-02
     -5.200  0.1257E-02  0.1257E-02  0.7179E-02  0.7179E-02
     -5.124  0.2078E-02  0.2078E-02  0.7337E-02  0.7337E-02
     -5.047  0.3422E-02  0.3422E-02  0.7599E-02  0.7599E-02
     -4.971  0.4480E-02  0.4480E-02  0.7941E-02  0.7941E-02
     -4.895  0.5841E-02  0.5841E-02  0.8386E-02  0.8386E-02
     -4.819  0.8192E-02  0.8192E-02  0.9012E-02  0.9012E-02
     -4.742  0.1081E-01  0.1081E-01  0.9836E-02  0.9836E-02
     -4.666  0.1215E-01  0.1215E-01  0.1076E-01  0.1076E-01
     -4.590  0.1153E-01  0.1153E-01  0.1164E-01  0.1164E-01
     -4.513  0.9657E-02  0.9657E-02  0.1238E-01  0.1238E-01
     -4.437  0.8082E-02  0.8082E-02  0.1300E-01  0.1300E-01
     -4.361  0.7742E-02  0.7742E-02  0.1359E-01  0.1359E-01
     -4.284  0.8103E-02  0.8103E-02  0.1421E-01  0.1421E-01
     -4.208  0.8283E-02  0.8283E-02  0.1484E-01  0.1484E-01
     -4.132  0.8120E-02  0.8120E-02  0.1546E-01  0.1546E-01
     -4.055  0.8029E-02  0.8029E-02  0.1607E-01  0.1607E-01
     -3.979  0.8714E-02  0.8714E-02  0.1674E-01  0.1674E-01
     -3.903  0.1030E-01  0.1030E-01  0.1752E-01  0.1752E-01
     -3.826  0.1205E-01  0.1205E-01  0.1844E-01  0.1844E-01
     -3.750  0.1377E-01  0.1377E-01  0.1949E-01  0.1949E-01
     -3.674  0.1576E-01  0.1576E-01  0.2070E-01  0.2070E-01
     -3.597  0.1724E-01  0.1724E-01  0.2201E-01  0.2201E-01
     -3.521  0.1719E-01  0.1719E-01  0.2333E-01  0.2333E-01
     -3.445  0.1580E-01  0.1580E-01  0.2453E-01  0.2453E-01
     -3.368  0.1416E-01  0.1416E-01  0.2561E-01  0.2561E-01
     -3.292  0.1426E-01  0.1426E-01  0.2670E-01  0.2670E-01
     -3.216  0.1907E-01  0.1907E-01  0.2816E-01  0.2816E-01
     -3.139  0.2977E-01  0.2977E-01  0.3043E-01  0.3043E-01
     -3.063  0.4201E-01  0.4201E-01  0.3363E-01  0.3363E-01
     -2.987  0.4787E-01  0.4787E-01  0.3729E-01  0.3729E-01
     -2.910  0.4475E-01  0.4475E-01  0.4070E-01  0.4070E-01
     -2.834  0.3970E-01  0.3970E-01  0.4373E-01  0.4373E-01
     -2.758  0.4106E-01  0.4106E-01  0.4687E-01  0.4687E-01
     -2.681  0.4858E-01  0.4858E-01  0.5058E-01  0.5058E-01
     -2.605  0.5662E-01  0.5662E-01  0.5490E-01  0.5490E-01
     -2.529  0.6460E-01  0.6460E-01  0.5983E-01  0.5983E-01
     -2.452  0.7733E-01  0.7733E-01  0.6573E-01  0.6573E-01
     -2.376  0.9358E-01  0.9358E-01  0.7287E-01  0.7287E-01
     -2.300  0.1018E+00  0.1018E+00  0.8064E-01  0.8064E-01
     -2.223  0.9343E-01  0.9343E-01  0.8777E-01  0.8777E-01
     -2.147  0.7564E-01  0.7564E-01  0.9355E-01  0.9355E-01
     -2.071  0.6424E-01  0.6424E-01  0.9845E-01  0.9845E-01
     -1.994  0.6654E-01  0.6654E-01  0.1035E+00  0.1035E+00
     -1.918  0.7734E-01  0.7734E-01  0.1094E+00  0.1094E+00
     -1.842  0.8771E-01  0.8771E-01  0.1161E+00  0.1161E+00
     -1.766  0.9244E-01  0.9244E-01  0.1232E+00  0.1232E+00
     -1.689  0.9225E-01  0.9225E-01  0.1302E+00  0.1302E+00
     -1.613  0.9278E-01  0.9278E-01  0.1373E+00  0.1373E+00
     -1.537  0.9961E-01  0.9961E-01  0.1449E+00  0.1449E+00
     -1.460  0.1125E+00  0.1125E+00  0.1535E+00  0.1535E+00
     -1.384  0.1255E+00  0.1255E+00  0.1631E+00  0.1631E+00
     -1.308  0.1329E+00  0.1329E+00  0.1732E+00  0.1732E+00
     -1.231  0.1353E+00  0.1353E+00  0.1835E+00  0.1835E+00
     -1.155  0.1367E+00  0.1367E+00  0.1940E+00  0.1940E+00
     -1.079  0.1361E+00  0.1361E+00  0.2044E+00  0.2044E+00
     -1.002  0.1306E+00  0.1306E+00  0.2143E+00  0.2143E+00
     -0.926  0.1228E+00  0.1228E+00  0.2237E+00  0.2237E+00
     -0.850  0.1171E+00  0.1171E+00  0.2326E+00  0.2326E+00
     -0.773  0.1155E+00  0.1155E+00  0.2415E+00  0.2415E+00
     -0.697  0.1203E+00  0.1203E+00  0.2506E+00  0.2506E+00
     -0.621  0.1321E+00  0.1321E+00  0.2607E+00  0.2607E+00
     -0.544  0.1443E+00  0.1443E+00  0.2717E+00  0.2717E+00
     -0.468  0.1483E+00  0.1483E+00  0.2831E+00  0.2831E+00
     -0.392  0.1453E+00  0.1453E+00  0.2941E+00  0.2941E+00
     -0.315  0.1425E+00  0.1425E+00  0.3050E+00  0.3050E+00
     -0.239  0.1427E+00  0.1427E+00  0.3159E+00  0.3159E+00
     -0.163  0.1443E+00  0.1443E+00  0.3269E+00  0.3269E+00
     -0.086  0.1499E+00  0.1499E+00  0.3384E+00  0.3384E+00
     -0.010  0.1656E+00  0.1656E+00  0.3510E+00  0.3510E+00
      0.066  0.1888E+00  0.1888E+00  0.3654E+00  0.3654E+00
      0.143  0.2034E+00  0.2034E+00  0.3809E+00  0.3809E+00
      0.219  0.1928E+00  0.1928E+00  0.3957E+00  0.3957E+00
      0.295  0.1551E+00  0.1551E+00  0.4075E+00  0.4075E+00
      0.372  0.1037E+00  0.1037E+00  0.4154E+00  0.4154E+00
      0.448  0.5832E-01  0.5832E-01  0.4199E+00  0.4199E+00
      0.524  0.3083E-01  0.3083E-01  0.4222E+00  0.4222E+00
      0.601  0.1961E-01  0.1961E-01  0.4237E+00  0.4237E+00
      0.677  0.1699E-01  0.1699E-01  0.4250E+00  0.4250E+00
      0.753  0.1741E-01  0.1741E-01  0.4263E+00  0.4263E+00
      0.830  0.1818E-01  0.1818E-01  0.4277E+00  0.4277E+00
      0.906  0.1875E-01  0.1875E-01  0.4292E+00  0.4292E+00
      0.982  0.1969E-01  0.1969E-01  0.4307E+00  0.4307E+00
      1.059  0.1986E-01  0.1986E-01  0.4322E+00  0.4322E+00
      1.135  0.1710E-01  0.1710E-01  0.4335E+00  0.4335E+00
      1.211  0.1206E-01  0.1206E-01  0.4344E+00  0.4344E+00
      1.287  0.7520E-02  0.7520E-02  0.4350E+00  0.4350E+00
      1.364  0.4821E-02  0.4821E-02  0.4353E+00  0.4353E+00
      1.440  0.3470E-02  0.3470E-02  0.4356E+00  0.4356E+00
      1.516  0.3118E-02  0.3118E-02  0.4359E+00  0.4359E+00
      1.593  0.4476E-02  0.4476E-02  0.4362E+00  0.4362E+00
      1.669  0.8653E-02  0.8653E-02  0.4369E+00  0.4369E+00
      1.745  0.1592E-01  0.1592E-01  0.4381E+00  0.4381E+00
      1.822  0.2445E-01  0.2445E-01  0.4399E+00  0.4399E+00
      1.898  0.2980E-01  0.2980E-01  0.4422E+00  0.4422E+00
      1.974  0.2735E-01  0.2735E-01  0.4443E+00  0.4443E+00
      2.051  0.1757E-01  0.1757E-01  0.4456E+00  0.4456E+00
      2.127  0.6942E-02  0.6942E-02  0.4462E+00  0.4462E+00
      2.203  0.1977E-02  0.1977E-02  0.4463E+00  0.4463E+00
      2.280  0.3519E-02  0.3519E-02  0.4466E+00  0.4466E+00
      2.356  0.7401E-02  0.7401E-02  0.4472E+00  0.4472E+00
      2.432  0.9529E-02  0.9529E-02  0.4479E+00  0.4479E+00
      2.509  0.9728E-02  0.9728E-02  0.4486E+00  0.4486E+00
      2.585  0.1022E-01  0.1022E-01  0.4494E+00  0.4494E+00
      2.661  0.1197E-01  0.1197E-01  0.4503E+00  0.4503E+00
      2.738  0.1387E-01  0.1387E-01  0.4514E+00  0.4514E+00
      2.814  0.1398E-01  0.1398E-01  0.4524E+00  0.4524E+00
      2.890  0.1140E-01  0.1140E-01  0.4533E+00  0.4533E+00
      2.967  0.8397E-02  0.8397E-02  0.4540E+00  0.4540E+00
      3.043  0.8983E-02  0.8983E-02  0.4546E+00  0.4546E+00
      3.119  0.1412E-01  0.1412E-01  0.4557E+00  0.4557E+00
      3.196  0.1997E-01  0.1997E-01  0.4572E+00  0.4572E+00
      3.272  0.2170E-01  0.2170E-01  0.4589E+00  0.4589E+00
      3.348  0.1788E-01  0.1788E-01  0.4603E+00  0.4603E+00
      3.425  0.1096E-01  0.1096E-01  0.4611E+00  0.4611E+00
      3.501  0.4754E-02  0.4754E-02  0.4615E+00  0.4615E+00
      3.577  0.2221E-02  0.2221E-02  0.4616E+00  0.4616E+00
      3.654  0.4513E-02  0.4513E-02  0.4620E+00  0.4620E+00
      3.730  0.9984E-02  0.9984E-02  0.4627E+00  0.4627E+00
      3.806  0.1445E-01  0.1445E-01  0.4638E+00  0.4638E+00
      3.883  0.1432E-01  0.1432E-01  0.4649E+00  0.4649E+00
      3.959  0.1011E-01  0.1011E-01  0.4657E+00  0.4657E+00
      4.035  0.6012E-02  0.6012E-02  0.4662E+00  0.4662E+00
      4.112  0.5491E-02  0.5491E-02  0.4666E+00  0.4666E+00
      4.188  0.7605E-02  0.7605E-02  0.4672E+00  0.4672E+00
      4.264  0.8952E-02  0.8952E-02  0.4678E+00  0.4678E+00
      4.341  0.8353E-02  0.8353E-02  0.4685E+00  0.4685E+00
      4.417  0.7139E-02  0.7139E-02  0.4690E+00  0.4690E+00
      4.493  0.6515E-02  0.6515E-02  0.4695E+00  0.4695E+00
      4.569  0.7540E-02  0.7540E-02  0.4701E+00  0.4701E+00
      4.646  0.1111E-01  0.1111E-01  0.4709E+00  0.4709E+00
      4.722  0.1546E-01  0.1546E-01  0.4721E+00  0.4721E+00
      4.798  0.1682E-01  0.1682E-01  0.4734E+00  0.4734E+00
      4.875  0.1416E-01  0.1416E-01  0.4745E+00  0.4745E+00
      4.951  0.1053E-01  0.1053E-01  0.4753E+00  0.4753E+00
      5.027  0.8933E-02  0.8933E-02  0.4760E+00  0.4760E+00
      5.104  0.9389E-02  0.9389E-02  0.4767E+00  0.4767E+00
      5.180  0.1028E-01  0.1028E-01  0.4775E+00  0.4775E+00
      5.256  0.1062E-01  0.1062E-01  0.4783E+00  0.4783E+00
      5.333  0.1101E-01  0.1101E-01  0.4791E+00  0.4791E+00
      5.409  0.1256E-01  0.1256E-01  0.4801E+00  0.4801E+00
      5.485  0.1448E-01  0.1448E-01  0.4812E+00  0.4812E+00
      5.562  0.1408E-01  0.1408E-01  0.4823E+00  0.4823E+00
      5.638  0.1067E-01  0.1067E-01  0.4831E+00  0.4831E+00
      5.714  0.7111E-02  0.7111E-02  0.4836E+00  0.4836E+00
      5.791  0.6066E-02  0.6066E-02  0.4841E+00  0.4841E+00
      5.867  0.7245E-02  0.7245E-02  0.4846E+00  0.4846E+00
      5.943  0.9072E-02  0.9072E-02  0.4853E+00  0.4853E+00
      6.020  0.1086E-01  0.1086E-01  0.4862E+00  0.4862E+00
      6.096  0.1234E-01  0.1234E-01  0.4871E+00  0.4871E+00
      6.172  0.1274E-01  0.1274E-01  0.4881E+00  0.4881E+00
      6.249  0.1211E-01  0.1211E-01  0.4890E+00  0.4890E+00
      6.325  0.1229E-01  0.1229E-01  0.4899E+00  0.4899E+00
      6.401  0.1507E-01  0.1507E-01  0.4911E+00  0.4911E+00
      6.478  0.1943E-01  0.1943E-01  0.4926E+00  0.4926E+00
      6.554  0.2161E-01  0.2161E-01  0.4942E+00  0.4942E+00
      6.630  0.1947E-01  0.1947E-01  0.4957E+00  0.4957E+00
      6.707  0.1607E-01  0.1607E-01  0.4969E+00  0.4969E+00
      6.783  0.1577E-01  0.1577E-01  0.4981E+00  0.4981E+00
      6.859  0.1755E-01  0.1755E-01  0.4995E+00  0.4995E+00
      6.936  0.1651E-01  0.1651E-01  0.5007E+00  0.5007E+00
      7.012  0.1137E-01  0.1137E-01  0.5016E+00  0.5016E+00
      7.088  0.6363E-02  0.6363E-02  0.5021E+00  0.5021E+00
      7.165  0.5512E-02  0.5512E-02  0.5025E+00  0.5025E+00
      7.241  0.8418E-02  0.8418E-02  0.5032E+00  0.5032E+00
      7.317  0.1188E-01  0.1188E-01  0.5041E+00  0.5041E+00
      7.394  0.1358E-01  0.1358E-01  0.5051E+00  0.5051E+00
      7.470  0.1373E-01  0.1373E-01  0.5061E+00  0.5061E+00
      7.546  0.1392E-01  0.1392E-01  0.5072E+00  0.5072E+00
      7.622  0.1484E-01  0.1484E-01  0.5083E+00  0.5083E+00
      7.699  0.1639E-01  0.1639E-01  0.5096E+00  0.5096E+00
      7.775  0.1918E-01  0.1918E-01  0.5111E+00  0.5111E+00
      7.851  0.2324E-01  0.2324E-01  0.5128E+00  0.5128E+00
      7.928  0.2524E-01  0.2524E-01  0.5148E+00  0.5148E+00
      8.004  0.2139E-01  0.2139E-01  0.5164E+00  0.5164E+00
      8.080  0.1319E-01  0.1319E-01  0.5174E+00  0.5174E+00
      8.157  0.7196E-02  0.7196E-02  0.5179E+00  0.5179E+00
      8.233  0.8797E-02  0.8797E-02  0.5186E+00  0.5186E+00
      8.309  0.1674E-01  0.1674E-01  0.5199E+00  0.5199E+00
      8.386  0.2346E-01  0.2346E-01  0.5217E+00  0.5217E+00
      8.462  0.2255E-01  0.2255E-01  0.5234E+00  0.5234E+00
      8.538  0.1560E-01  0.1560E-01  0.5246E+00  0.5246E+00
      8.615  0.9357E-02  0.9357E-02  0.5253E+00  0.5253E+00
      8.691  0.7755E-02  0.7755E-02  0.5259E+00  0.5259E+00
      8.767  0.1017E-01  0.1017E-01  0.5267E+00  0.5267E+00
      8.844  0.1487E-01  0.1487E-01  0.5278E+00  0.5278E+00
      8.920  0.1986E-01  0.1986E-01  0.5293E+00  0.5293E+00
      8.996  0.2237E-01  0.2237E-01  0.5310E+00  0.5310E+00
      9.073  0.2125E-01  0.2125E-01  0.5327E+00  0.5327E+00
      9.149  0.1899E-01  0.1899E-01  0.5341E+00  0.5341E+00
      9.225  0.1840E-01  0.1840E-01  0.5355E+00  0.5355E+00
      9.302  0.1917E-01  0.1917E-01  0.5370E+00  0.5370E+00
      9.378  0.1947E-01  0.1947E-01  0.5385E+00  0.5385E+00
      9.454  0.1881E-01  0.1881E-01  0.5399E+00  0.5399E+00
      9.531  0.1791E-01  0.1791E-01  0.5413E+00  0.5413E+00
      9.607  0.1694E-01  0.1694E-01  0.5426E+00  0.5426E+00
      9.683  0.1574E-01  0.1574E-01  0.5438E+00  0.5438E+00
      9.760  0.1519E-01  0.1519E-01  0.5449E+00  0.5449E+00
      9.836  0.1634E-01  0.1634E-01  0.5462E+00  0.5462E+00
      9.912  0.1806E-01  0.1806E-01  0.5475E+00  0.5475E+00
      9.989  0.1795E-01  0.1794E-01  0.5489E+00  0.5489E+00
     10.065  0.1585E-01  0.1585E-01  0.5501E+00  0.5501E+00
     10.141  0.1469E-01  0.1469E-01  0.5512E+00  0.5512E+00
     10.218  0.1713E-01  0.1713E-01  0.5526E+00  0.5526E+00
     10.294  0.2240E-01  0.2240E-01  0.5543E+00  0.5543E+00
     10.370  0.2685E-01  0.2685E-01  0.5563E+00  0.5563E+00
     10.447  0.2708E-01  0.2708E-01  0.5584E+00  0.5584E+00
     10.523  0.2284E-01  0.2284E-01  0.5601E+00  0.5601E+00
     10.599  0.1714E-01  0.1714E-01  0.5614E+00  0.5614E+00
     10.675  0.1320E-01  0.1321E-01  0.5624E+00  0.5624E+00
     10.752  0.1160E-01  0.1160E-01  0.5633E+00  0.5633E+00
     10.828  0.1124E-01  0.1123E-01  0.5642E+00  0.5642E+00
     10.904  0.1172E-01  0.1171E-01  0.5651E+00  0.5651E+00
     10.981  0.1280E-01  0.1279E-01  0.5661E+00  0.5661E+00
     11.057  0.1308E-01  0.1308E-01  0.5671E+00  0.5671E+00
     11.133  0.1158E-01  0.1158E-01  0.5679E+00  0.5679E+00
     11.210  0.9254E-02  0.9255E-02  0.5686E+00  0.5686E+00
     11.286  0.7379E-02  0.7379E-02  0.5692E+00  0.5692E+00
     11.362  0.5762E-02  0.5762E-02  0.5696E+00  0.5696E+00
     11.439  0.3680E-02  0.3680E-02  0.5699E+00  0.5699E+00
     11.515  0.1488E-02  0.1488E-02  0.5700E+00  0.5700E+00
     11.591  0.1034E-03  0.1033E-03  0.5700E+00  0.5700E+00
     11.668 -0.2918E-03 -0.2919E-03  0.5700E+00  0.5700E+00
     11.744 -0.2073E-03 -0.2072E-03  0.5700E+00  0.5700E+00
     11.820 -0.7832E-04 -0.7831E-04  0.5700E+00  0.5700E+00
     11.897 -0.1941E-04 -0.1940E-04  0.5700E+00  0.5700E+00
     11.973 -0.3351E-05 -0.3350E-05  0.5700E+00  0.5700E+00
     12.049 -0.4143E-06 -0.4141E-06  0.5700E+00  0.5700E+00
     12.126 -0.3719E-07 -0.3717E-07  0.5700E+00  0.5700E+00
     12.202 -0.2444E-08 -0.2443E-08  0.5700E+00  0.5700E+00
     12.278 -0.1183E-09 -0.1182E-09  0.5700E+00  0.5700E+00
     12.355 -0.4231E-11 -0.4227E-11  0.5700E+00  0.5700E+00
     12.431 -0.1121E-12 -0.1120E-12  0.5700E+00  0.5700E+00
     12.507 -0.2206E-14 -0.2205E-14  0.5700E+00  0.5700E+00
     12.584 -0.3232E-16 -0.3232E-16  0.5700E+00  0.5700E+00
     12.660  0.0000E+00  0.0000E+00  0.5700E+00  0.5700E+00
     12.736  0.0000E+00  0.0000E+00  0.5700E+00  0.5700E+00
     12.813  0.0000E+00  0.0000E+00  0.5700E+00  0.5700E+00
     12.889  0.0000E+00  0.0000E+00  0.5700E+00  0.5700E+00
     12.965  0.0000E+00  0.0000E+00  0.5700E+00  0.5700E+00
     13.042  0.0000E+00  0.0000E+00  0.5700E+00  0.5700E+00
     13.118  0.0000E+00  0.0000E+00  0.5700E+00  0.5700E+00
     13.194  0.0000E+00  0.0000E+00  0.5700E+00  0.5700E+00
     13.271  0.0000E+00  0.0000E+00  0.5700E+00  0.5700E+00
     13.347  0.0000E+00  0.0000E+00  0.5700E+00  0.5700E+00
