<?xml version="1.0" encoding="ISO-8859-1"?>
<modeling>
 <generator>
  <i name="program" type="string">vasp </i>
  <i name="version" type="string">6.3.2  </i>
  <i name="subversion" type="string">27Jun22 (build Aug 17 2022 15:43:34) complex                          parallel </i>
  <i name="platform" type="string">tv2STDVTST </i>
  <i name="date" type="string">2025 02 17 </i>
  <i name="time" type="string">15:54:17 </i>
 </generator>
 <incar>
  <i type="int" name="ISTART">     0</i>
  <i type="string" name="PREC">Normal</i>
  <i type="int" name="ISPIN">     2</i>
  <i type="int" name="ICHARG">     2</i>
  <i type="int" name="IBRION">     2</i>
  <i name="EDIFF">      0.00020000</i>
  <i name="EDIFFG">     -0.03000000</i>
  <i type="int" name="NSW">   800</i>
  <i type="int" name="ISIF">     2</i>
  <i type="int" name="ISYM">     1</i>
  <i name="ENCUT">    400.00000000</i>
  <i name="POTIM">      0.50000000</i>
  <i type="logical" name="LREAL"> F  </i>
  <i type="int" name="ISMEAR">     1</i>
  <i name="SIGMA">      0.20000000</i>
  <i type="logical" name="LWAVE"> F  </i>
  <i type="logical" name="LCHARG"> F  </i>
  <i type="string" name="GGA">PE</i>
  <i type="int" name="IVDW">    11</i>
 </incar>
 <primitive_cell>
  <structure name="primitive_cell" >
   <crystal>
    <varray name="basis" >
     <v>       7.26000023       0.00000000       0.00000000 </v>
     <v>       0.00000000       7.26000023       0.00000000 </v>
     <v>       0.00000000       0.00000000      27.70499992 </v>
    </varray>
    <i name="volume">   1460.26414606 </i>
    <varray name="rec_basis" >
     <v>       0.13774104       0.00000000       0.00000000 </v>
     <v>       0.00000000       0.13774104       0.00000000 </v>
     <v>       0.00000000       0.00000000       0.03609457 </v>
    </varray>
   </crystal>
   <varray name="positions" >
    <v>       0.00000000       0.00000000       0.00000000 </v>
    <v>       0.00000000       0.50000000       0.00000000 </v>
    <v>       0.50000000       0.00000000       0.00000000 </v>
    <v>       0.50000000       0.50000000       0.00000000 </v>
    <v>       0.25000000       0.25000000       0.00000000 </v>
    <v>       0.25000000       0.75000000       0.00000000 </v>
    <v>       0.75000000       0.25000000       0.00000000 </v>
    <v>       0.75000000       0.75000000       0.00000000 </v>
    <v>       0.00000000       0.25000000       0.06551164 </v>
    <v>       0.00000000       0.75000000       0.06551164 </v>
    <v>       0.50000000       0.25000000       0.06551164 </v>
    <v>       0.50000000       0.75000000       0.06551164 </v>
    <v>       0.25000000       0.00000000       0.06551164 </v>
    <v>       0.25000000       0.50000000       0.06551164 </v>
    <v>       0.75000000       0.00000000       0.06551164 </v>
    <v>       0.75000000       0.50000000       0.06551164 </v>
    <v>       0.00000000       0.00000000       0.13164128 </v>
    <v>       0.00000000       0.50000000       0.13164128 </v>
    <v>       0.50000000       0.00000000       0.13164128 </v>
    <v>       0.50000000       0.50000000       0.13164128 </v>
    <v>       0.25000000       0.25000000       0.13164128 </v>
    <v>       0.25000000       0.75000000       0.13164128 </v>
    <v>       0.75000000       0.25000000       0.13164128 </v>
    <v>       0.75000000       0.75000000       0.13164128 </v>
    <v>       0.00000000       0.25000000       0.19677891 </v>
    <v>       0.00000000       0.75000000       0.19677891 </v>
    <v>       0.50000000       0.25000000       0.19677891 </v>
    <v>       0.50000000       0.75000000       0.19677891 </v>
    <v>       0.25000000       0.00000000       0.19677891 </v>
    <v>       0.25000000       0.50000000       0.19677891 </v>
    <v>       0.75000000       0.00000000       0.19677891 </v>
    <v>       0.75000000       0.50000000       0.19677891 </v>
    <v>       0.00000000       0.00000000       0.26184662 </v>
    <v>       0.00000000       0.50000000       0.26184662 </v>
    <v>       0.50000000       0.00000000       0.26184662 </v>
    <v>       0.50000000       0.50000000       0.26184662 </v>
    <v>       0.25000000       0.25000000       0.26184662 </v>
    <v>       0.25000000       0.75000000       0.26184662 </v>
    <v>       0.75000000       0.25000000       0.26184662 </v>
    <v>       0.75000000       0.75000000       0.26184662 </v>
    <v>       0.00000000       0.25000000       0.32758887 </v>
    <v>       0.00000000       0.75000000       0.32758887 </v>
    <v>       0.50000000       0.25000000       0.32758887 </v>
    <v>       0.50000000       0.75000000       0.32758887 </v>
    <v>       0.25000000       0.00000000       0.32758887 </v>
    <v>       0.25000000       0.50000000       0.32758887 </v>
    <v>       0.75000000       0.00000000       0.32758887 </v>
    <v>       0.75000000       0.50000000       0.32758887 </v>
    <v>       0.00000000       0.00000000       0.39185763 </v>
    <v>       0.00000000       0.50000000       0.39185763 </v>
    <v>       0.50000000       0.00000000       0.39185763 </v>
    <v>       0.50000000       0.50000000       0.39185763 </v>
    <v>       0.25000000       0.25000000       0.39185763 </v>
    <v>       0.25000000       0.75000000       0.39185763 </v>
    <v>       0.75000000       0.25000000       0.39185763 </v>
    <v>       0.75000000       0.75000000       0.39185763 </v>
    <v>       0.00000000       0.25000000       0.45475490 </v>
    <v>       0.00000000       0.75000000       0.45475490 </v>
    <v>       0.50000000       0.25000000       0.45475490 </v>
    <v>       0.50000000       0.75000000       0.45475490 </v>
    <v>       0.25000000       0.00000000       0.45475490 </v>
    <v>       0.25000000       0.50000000       0.45475490 </v>
    <v>       0.75000000       0.00000000       0.45475490 </v>
    <v>       0.75000000       0.50000000       0.45475490 </v>
    <v>       0.50000000       0.50000000       0.50150658 </v>
    <v>       0.50000000       0.50000000       0.52843313 </v>
   </varray>
  </structure>
  <varray name="primitive_index" >
   <v type="int" >        1 </v>
   <v type="int" >        2 </v>
   <v type="int" >        3 </v>
   <v type="int" >        4 </v>
   <v type="int" >        5 </v>
   <v type="int" >        6 </v>
   <v type="int" >        7 </v>
   <v type="int" >        8 </v>
   <v type="int" >        9 </v>
   <v type="int" >       10 </v>
   <v type="int" >       11 </v>
   <v type="int" >       12 </v>
   <v type="int" >       13 </v>
   <v type="int" >       14 </v>
   <v type="int" >       15 </v>
   <v type="int" >       16 </v>
   <v type="int" >       17 </v>
   <v type="int" >       18 </v>
   <v type="int" >       19 </v>
   <v type="int" >       20 </v>
   <v type="int" >       21 </v>
   <v type="int" >       22 </v>
   <v type="int" >       23 </v>
   <v type="int" >       24 </v>
   <v type="int" >       25 </v>
   <v type="int" >       26 </v>
   <v type="int" >       27 </v>
   <v type="int" >       28 </v>
   <v type="int" >       29 </v>
   <v type="int" >       30 </v>
   <v type="int" >       31 </v>
   <v type="int" >       32 </v>
   <v type="int" >       33 </v>
   <v type="int" >       34 </v>
   <v type="int" >       35 </v>
   <v type="int" >       36 </v>
   <v type="int" >       37 </v>
   <v type="int" >       38 </v>
   <v type="int" >       39 </v>
   <v type="int" >       40 </v>
   <v type="int" >       41 </v>
   <v type="int" >       42 </v>
   <v type="int" >       43 </v>
   <v type="int" >       44 </v>
   <v type="int" >       45 </v>
   <v type="int" >       46 </v>
   <v type="int" >       47 </v>
   <v type="int" >       48 </v>
   <v type="int" >       49 </v>
   <v type="int" >       50 </v>
   <v type="int" >       51 </v>
   <v type="int" >       52 </v>
   <v type="int" >       53 </v>
   <v type="int" >       54 </v>
   <v type="int" >       55 </v>
   <v type="int" >       56 </v>
   <v type="int" >       57 </v>
   <v type="int" >       58 </v>
   <v type="int" >       59 </v>
   <v type="int" >       60 </v>
   <v type="int" >       61 </v>
   <v type="int" >       62 </v>
   <v type="int" >       63 </v>
   <v type="int" >       64 </v>
   <v type="int" >       65 </v>
   <v type="int" >       66 </v>
  </varray>
 </primitive_cell>
 <kpoints>
  <generation param="Monkhorst-Pack">
   <v type="int" name="divisions">       3        3        1 </v>
   <v name="usershift">      0.00000000       0.00000000       0.00000000 </v>
   <v name="genvec1">      0.33333333       0.00000000       0.00000000 </v>
   <v name="genvec2">      0.00000000       0.33333333       0.00000000 </v>
   <v name="genvec3">      0.00000000       0.00000000       1.00000000 </v>
   <v name="shift">      0.00000000       0.00000000       0.00000000 </v>
  </generation>
  <varray name="kpointlist" >
   <v>       0.00000000       0.00000000       0.00000000 </v>
   <v>       0.33333333       0.00000000       0.00000000 </v>
   <v>       0.33333333       0.33333333       0.00000000 </v>
  </varray>
  <varray name="weights" >
   <v>       0.11111111 </v>
   <v>       0.44444444 </v>
   <v>       0.44444444 </v>
  </varray>
 </kpoints>
 <parameters>
  <separator name="general" >
   <i type="string" name="SYSTEM">unknown system</i>
   <i type="logical" name="LCOMPAT"> F  </i>
  </separator>
  <separator name="electronic" >
   <i type="string" name="PREC">normal</i>
   <i name="ENMAX">    400.00000000</i>
   <i name="ENAUG">    586.98000000</i>
   <i name="EDIFF">      0.00020000</i>
   <i type="int" name="IALGO">    38</i>
   <i type="int" name="IWAVPR">    11</i>
   <i type="int" name="NBANDS">   456</i>
   <i type="int" name="NBANDSLOW">    -1</i>
   <i type="int" name="NBANDSHIGH">    -1</i>
   <i name="NELECT">    706.00000000</i>
   <i type="int" name="TURBO">     0</i>
   <i type="int" name="IRESTART">     0</i>
   <i type="int" name="NREBOOT">     0</i>
   <i type="int" name="NMIN">     0</i>
   <i name="EREF">      0.00000000</i>
   <separator name="electronic smearing" >
    <i type="int" name="ISMEAR">     1</i>
    <i name="SIGMA">      0.20000000</i>
    <i name="KSPACING">      0.50000000</i>
    <i type="logical" name="KGAMMA"> T  </i>
    <i type="logical" name="KBLOWUP"> T  </i>
   </separator>
   <separator name="electronic projectors" >
    <i type="logical" name="LREAL"> F  </i>
    <v name="ROPT">      0.00000000      0.00000000</v>
    <i type="int" name="LMAXPAW">  -100</i>
    <i type="int" name="LMAXMIX">     2</i>
    <i type="logical" name="NLSPLINE"> F  </i>
   </separator>
   <separator name="electronic startup" >
    <i type="int" name="ISTART">     0</i>
    <i type="int" name="ICHARG">     2</i>
    <i type="int" name="INIWAV">     1</i>
   </separator>
   <separator name="electronic spin" >
    <i type="int" name="ISPIN">     2</i>
    <i type="logical" name="LNONCOLLINEAR"> F  </i>
    <v name="MAGMOM">      1.00000000      1.00000000      1.00000000      1.00000000      1.00000000      1.00000000      1.00000000      1.00000000      1.00000000      1.00000000      1.00000000      1.00000000      1.00000000      1.00000000      1.00000000      1.00000000      1.00000000      1.00000000      1.00000000      1.00000000
      1.00000000      1.00000000      1.00000000      1.00000000      1.00000000      1.00000000      1.00000000      1.00000000      1.00000000      1.00000000      1.00000000      1.00000000      1.00000000      1.00000000      1.00000000      1.00000000      1.00000000      1.00000000      1.00000000      1.00000000
      1.00000000      1.00000000      1.00000000      1.00000000      1.00000000      1.00000000      1.00000000      1.00000000      1.00000000      1.00000000      1.00000000      1.00000000      1.00000000      1.00000000      1.00000000      1.00000000      1.00000000      1.00000000      1.00000000      1.00000000
      1.00000000      1.00000000      1.00000000      1.00000000      1.00000000      1.00000000</v>
    <i name="NUPDOWN">     -1.00000000</i>
    <i type="logical" name="LSORBIT"> F  </i>
    <v name="SAXIS">      0.00000000      0.00000000      1.00000000</v>
    <i type="logical" name="LSPIRAL"> F  </i>
    <v name="QSPIRAL">      0.00000000      0.00000000      0.00000000</v>
    <i type="logical" name="LZEROZ"> F  </i>
   </separator>
   <separator name="electronic exchange-correlation" >
    <i type="logical" name="LASPH"> F  </i>
    <i type="logical" name="LMETAGGA"> F  </i>
   </separator>
   <separator name="electronic convergence" >
    <i type="int" name="NELM">    60</i>
    <i type="int" name="NELMDL">    -5</i>
    <i type="int" name="NELMIN">     2</i>
    <i name="ENINI">    400.00000000</i>
    <separator name="electronic convergence detail" >
     <i type="logical" name="LDIAG"> T  </i>
     <i type="logical" name="LSUBROT"> F  </i>
     <i name="WEIMIN">      0.00100000</i>
     <i name="EBREAK">      0.00000011</i>
     <i name="DEPER">      0.30000000</i>
     <i type="int" name="NRMM">     4</i>
     <i name="TIME">      0.40000000</i>
    </separator>
   </separator>
   <separator name="electronic mixer" >
    <i name="AMIX">      0.40000000</i>
    <i name="BMIX">      1.00000000</i>
    <i name="AMIN">      0.10000000</i>
    <i name="AMIX_MAG">      1.60000000</i>
    <i name="BMIX_MAG">      1.00000000</i>
    <separator name="electronic mixer details" >
     <i type="int" name="IMIX">     4</i>
     <i type="logical" name="MIXFIRST"> F  </i>
     <i type="int" name="MAXMIX">   -45</i>
     <i name="WC">    100.00000000</i>
     <i type="int" name="INIMIX">     1</i>
     <i type="int" name="MIXPRE">     1</i>
     <i type="int" name="MREMOVE">     5</i>
    </separator>
   </separator>
   <separator name="electronic dipolcorrection" >
    <i type="logical" name="LDIPOL"> F  </i>
    <i type="logical" name="LMONO"> F  </i>
    <i type="int" name="IDIPOL">     0</i>
    <i name="EPSILON">      1.00000000</i>
    <v name="DIPOL">   -100.00000000   -100.00000000   -100.00000000</v>
    <i name="EFIELD">      0.00000000</i>
   </separator>
  </separator>
  <separator name="grids" >
   <i type="int" name="NGX">    36</i>
   <i type="int" name="NGY">    36</i>
   <i type="int" name="NGZ">   140</i>
   <i type="int" name="NGXF">    72</i>
   <i type="int" name="NGYF">    72</i>
   <i type="int" name="NGZF">   280</i>
   <i type="logical" name="ADDGRID"> F  </i>
  </separator>
  <separator name="ionic" >
   <i type="int" name="NSW">   800</i>
   <i type="int" name="IBRION">     2</i>
   <i type="int" name="MDALGO">     0</i>
   <i type="int" name="ISIF">     2</i>
   <i name="PSTRESS">      0.00000000</i>
   <i name="EDIFFG">     -0.03000000</i>
   <i type="int" name="NFREE">     1</i>
   <i name="POTIM">      0.50000000</i>
   <i name="SMASS">     -3.00000000</i>
   <i name="SCALEE">      1.00000000</i>
  </separator>
  <separator name="ionic md" >
   <i name="TEBEG">      0.00010000</i>
   <i name="TEEND">      0.00010000</i>
   <i type="int" name="NBLOCK">     1</i>
   <i type="int" name="KBLOCK">   800</i>
   <i type="int" name="NPACO">   256</i>
   <i name="APACO">     10.00000000</i>
  </separator>
  <separator name="symmetry" >
   <i type="int" name="ISYM">     1</i>
   <i name="SYMPREC">      0.00001000</i>
  </separator>
  <separator name="dos" >
   <i type="int" name="LORBIT">     0</i>
   <v name="RWIGS">     -1.00000000     -1.00000000</v>
   <i type="int" name="NEDOS">   301</i>
   <i name="EMIN">     10.00000000</i>
   <i name="EMAX">    -10.00000000</i>
   <i name="EFERMI">      0.00000000</i>
  </separator>
  <separator name="writing" >
   <i type="int" name="NWRITE">     2</i>
   <i type="logical" name="LWAVE"> F  </i>
   <i type="logical" name="LDOWNSAMPLE"> F  </i>
   <i type="logical" name="LCHARG"> F  </i>
   <i type="logical" name="LPARD"> F  </i>
   <i type="logical" name="LVTOT"> F  </i>
   <i type="logical" name="LVHAR"> F  </i>
   <i type="logical" name="LELF"> F  </i>
   <i type="logical" name="LOPTICS"> F  </i>
   <v name="STM">      0.00000000      0.00000000      0.00000000      0.00000000      0.00000000      0.00000000      0.00000000</v>
  </separator>
  <separator name="performance" >
   <i type="int" name="NPAR">     4</i>
   <i type="int" name="NSIM">     4</i>
   <i type="int" name="NBLK">    -1</i>
   <i type="logical" name="LPLANE"> T  </i>
   <i type="logical" name="LSCALAPACK"> T  </i>
   <i type="logical" name="LSCAAWARE"> F  </i>
   <i type="logical" name="LSCALU"> F  </i>
   <i type="logical" name="LASYNC"> F  </i>
   <i type="logical" name="LORBITALREAL"> F  </i>
  </separator>
  <separator name="miscellaneous" >
   <i type="int" name="IDIOT">     3</i>
   <i type="int" name="PHON_NSTRUCT">    -1</i>
   <i type="logical" name="LMUSIC"> F  </i>
   <v name="POMASS">     63.54600000      1.00000000</v>
   <v name="DARWINR">      0.00000000      0.00000000</v>
   <v name="DARWINV">      1.00000000      1.00000000</v>
   <i type="logical" name="LCORR"> T  </i>
  </separator>
  <i type="logical" name="GGA_COMPAT"> T  </i>
  <i type="logical" name="LBERRY"> F  </i>
  <i type="int" name="ICORELEVEL">     0</i>
  <i type="logical" name="LDAU"> F  </i>
  <i type="int" name="I_CONSTRAINED_M">     0</i>
  <separator name="electronic exchange-correlation" >
   <i type="string" name="GGA">PE</i>
   <i type="int" name="VOSKOWN">     0</i>
   <i type="logical" name="LHFCALC"> F  </i>
   <i type="string" name="PRECFOCK"></i>
   <i type="logical" name="LSYMGRAD"> F  </i>
   <i type="logical" name="LHFONE"> F  </i>
   <i type="logical" name="LRHFCALC"> F  </i>
   <i type="logical" name="LTHOMAS"> F  </i>
   <i type="logical" name="LMODELHF"> F  </i>
   <i type="logical" name="LFOCKACE"> F  </i>
   <i name="ENCUT4O">     -1.00000000</i>
   <i type="int" name="EXXOEP">     0</i>
   <i type="int" name="FOURORBIT">     0</i>
   <i name="AEXX">      0.00000000</i>
   <i name="HFALPHA">      0.00000000</i>
   <i name="MCALPHA">      0.00000000</i>
   <i name="ALDAX">      1.00000000</i>
   <i name="AGGAX">      1.00000000</i>
   <i name="ALDAC">      1.00000000</i>
   <i name="AGGAC">      1.00000000</i>
   <i type="int" name="NKREDX">     1</i>
   <i type="int" name="NKREDY">     1</i>
   <i type="int" name="NKREDZ">     1</i>
   <i type="logical" name="SHIFTRED"> F  </i>
   <i type="logical" name="ODDONLY"> F  </i>
   <i type="logical" name="EVENONLY"> F  </i>
   <i type="int" name="LMAXFOCK">     0</i>
   <i type="int" name="NMAXFOCKAE">     0</i>
   <i type="logical" name="LFOCKAEDFT"> F  </i>
   <i name="HFSCREEN">      0.00000000</i>
   <i name="HFSCREENC">      0.00000000</i>
   <i type="int" name="NBANDSGWLOW">     0</i>
  </separator>
  <separator name="vdW DFT" >
   <i type="logical" name="LUSE_VDW"> F  </i>
   <i name="Zab_VDW">     -0.84910000</i>
   <i name="PARAM1">      0.12340000</i>
   <i name="PARAM2">      1.00000000</i>
   <i name="PARAM3">      0.00000000</i>
  </separator>
  <separator name="model GW" >
   <i type="int" name="MODEL_GW">     0</i>
   <i name="MODEL_EPS0">     13.27512860</i>
   <i name="MODEL_ALPHA">      1.00000000</i>
  </separator>
  <separator name="linear response parameters" >
   <i type="logical" name="LEPSILON"> F  </i>
   <i type="logical" name="LRPA"> F  </i>
   <i type="logical" name="LNABLA"> F  </i>
   <i type="logical" name="LVEL"> F  </i>
   <i name="CSHIFT">      0.10000000</i>
   <i name="OMEGAMAX">     -1.00000000</i>
   <i name="DEG_THRESHOLD">      0.00200000</i>
   <i name="RTIME">     -0.10000000</i>
   <i name="WPLASMAI">      0.00000000</i>
   <v name="DFIELD">      0.00000000      0.00000000      0.00000000</v>
   <v name="WPLASMA">      0.00000000      0.00000000      0.00000000      0.00000000      0.00000000      0.00000000      0.00000000      0.00000000      0.00000000</v>
  </separator>
  <separator name="orbital magnetization" >
   <i type="logical" name="NUCIND"> F  </i>
   <v name="MAGPOS">      0.00000000      0.00000000      0.00000000</v>
   <i type="logical" name="LNICSALL"> T  </i>
   <i type="logical" name="ORBITALMAG"> F  </i>
   <i type="logical" name="LMAGBLOCH"> F  </i>
   <i type="logical" name="LCHIMAG"> F  </i>
   <i type="logical" name="LGAUGE"> T  </i>
   <i type="int" name="MAGATOM">     0</i>
   <v name="MAGDIPOL">      0.00000000      0.00000000      0.00000000</v>
   <v name="AVECCONST">      0.00000000      0.00000000      0.00000000</v>
  </separator>
  <separator name="response functions" >
   <i type="logical" name="LFINITE_TEMPERATURE"> F  </i>
   <i type="logical" name="LADDER"> F  </i>
   <i type="logical" name="LRPAFORCE"> F  </i>
   <i type="logical" name="LFXC"> F  </i>
   <i type="logical" name="LHARTREE"> T  </i>
   <i type="int" name="IBSE">     0</i>
   <v type="int" name="KPOINT">    -1     0     0     0</v>
   <i type="logical" name="LTCTC"> F  </i>
   <i type="logical" name="LTCTE"> F  </i>
   <i type="logical" name="LTETE"> F  </i>
   <i type="logical" name="LTRIPLET"> F  </i>
   <i type="logical" name="LFXCEPS"> F  </i>
   <i type="logical" name="LFXHEG"> F  </i>
   <i type="int" name="NATURALO">     2</i>
   <i type="logical" name="LHOLEGF"> F  </i>
   <i type="logical" name="L2ORDER"> F  </i>
   <i type="logical" name="LDMP1"> F  </i>
   <i type="logical" name="LMP2LT"> F  </i>
   <i type="logical" name="LSMP2LT"> F  </i>
   <i type="logical" name="LGWLF"> F  </i>
   <i name="ENCUTGW">     -2.00000000</i>
   <i name="ENCUTGWSOFT">     -2.00000000</i>
   <i name="ENCUTLF">     -1.00000000</i>
   <i type="logical" name="LESF_SPLINES"> F  </i>
   <i type="int" name="LMAXMP2">    -1</i>
   <i name="SCISSOR">      0.00000000</i>
   <i type="int" name="NOMEGA">     0</i>
   <i type="int" name="NOMEGAR">     0</i>
   <i type="int" name="NBANDSGW">    -1</i>
   <i type="int" name="NBANDSO">    -1</i>
   <i type="int" name="NBANDSV">    -1</i>
   <i type="int" name="NELMGW">     1</i>
   <i type="int" name="NELMHF">     1</i>
   <i type="int" name="DIM">     3</i>
   <i type="int" name="IESPILON">     4</i>
   <i type="int" name="ANTIRES">     0</i>
   <i name="OMEGAMAX">    -30.00000000</i>
   <i name="OMEGAMIN">    -30.00000000</i>
   <i name="OMEGATL">   -200.00000000</i>
   <i type="int" name="OMEGAGRID">     0</i>
   <i name="CSHIFT">     -0.10000000</i>
   <i type="logical" name="LSELFENERGY"> F  </i>
   <i type="logical" name="LSPECTRAL"> F  </i>
   <i type="logical" name="LSPECTRALGW"> F  </i>
   <i type="logical" name="LSINGLES"> F  </i>
   <i type="logical" name="LFERMIGW"> F  </i>
   <i type="logical" name="ODDONLYGW"> F  </i>
   <i type="logical" name="EVENONLYGW"> F  </i>
   <i type="int" name="NKREDLFX">     1</i>
   <i type="int" name="NKREDLFY">     1</i>
   <i type="int" name="NKREDLFZ">     1</i>
   <i type="int" name="MAXMEM">  2800</i>
   <i type="int" name="TELESCOPE">     0</i>
   <i type="int" name="NTAUPAR">    -1</i>
   <i type="int" name="NOMEGAPAR">    -1</i>
   <i name="DAMP_NEWTON">      0.80000001</i>
   <i name="LAMBDA">      1.00000000</i>
  </separator>
  <separator name="External order field" >
   <i name="OFIELD_KAPPA">      0.00000000</i>
   <v name="OFIELD_K">      0.00000000      0.00000000      0.00000000</v>
   <i name="OFIELD_Q6_NEAR">      0.00000000</i>
   <i name="OFIELD_Q6_FAR">      0.00000000</i>
   <i name="OFIELD_A">      0.00000000</i>
  </separator>
  <separator name="optional k-points parameters" >
   <i type="int" name="KPOINTS_OPT_MODE">     1</i>
   <i type="logical" name="LKPOINTS_OPT"> F  </i>
  </separator>
 </parameters>
 <atominfo>
  <atoms>      66 </atoms>
  <types>       2 </types>
  <array name="atoms" >
   <dimension dim="1">ion</dimension>
   <field type="string">element</field>
   <field type="int">atomtype</field>
   <set>
    <rc><c>Cu</c><c>   1</c></rc>
    <rc><c>Cu</c><c>   1</c></rc>
    <rc><c>Cu</c><c>   1</c></rc>
    <rc><c>Cu</c><c>   1</c></rc>
    <rc><c>Cu</c><c>   1</c></rc>
    <rc><c>Cu</c><c>   1</c></rc>
    <rc><c>Cu</c><c>   1</c></rc>
    <rc><c>Cu</c><c>   1</c></rc>
    <rc><c>Cu</c><c>   1</c></rc>
    <rc><c>Cu</c><c>   1</c></rc>
    <rc><c>Cu</c><c>   1</c></rc>
    <rc><c>Cu</c><c>   1</c></rc>
    <rc><c>Cu</c><c>   1</c></rc>
    <rc><c>Cu</c><c>   1</c></rc>
    <rc><c>Cu</c><c>   1</c></rc>
    <rc><c>Cu</c><c>   1</c></rc>
    <rc><c>Cu</c><c>   1</c></rc>
    <rc><c>Cu</c><c>   1</c></rc>
    <rc><c>Cu</c><c>   1</c></rc>
    <rc><c>Cu</c><c>   1</c></rc>
    <rc><c>Cu</c><c>   1</c></rc>
    <rc><c>Cu</c><c>   1</c></rc>
    <rc><c>Cu</c><c>   1</c></rc>
    <rc><c>Cu</c><c>   1</c></rc>
    <rc><c>Cu</c><c>   1</c></rc>
    <rc><c>Cu</c><c>   1</c></rc>
    <rc><c>Cu</c><c>   1</c></rc>
    <rc><c>Cu</c><c>   1</c></rc>
    <rc><c>Cu</c><c>   1</c></rc>
    <rc><c>Cu</c><c>   1</c></rc>
    <rc><c>Cu</c><c>   1</c></rc>
    <rc><c>Cu</c><c>   1</c></rc>
    <rc><c>Cu</c><c>   1</c></rc>
    <rc><c>Cu</c><c>   1</c></rc>
    <rc><c>Cu</c><c>   1</c></rc>
    <rc><c>Cu</c><c>   1</c></rc>
    <rc><c>Cu</c><c>   1</c></rc>
    <rc><c>Cu</c><c>   1</c></rc>
    <rc><c>Cu</c><c>   1</c></rc>
    <rc><c>Cu</c><c>   1</c></rc>
    <rc><c>Cu</c><c>   1</c></rc>
    <rc><c>Cu</c><c>   1</c></rc>
    <rc><c>Cu</c><c>   1</c></rc>
    <rc><c>Cu</c><c>   1</c></rc>
    <rc><c>Cu</c><c>   1</c></rc>
    <rc><c>Cu</c><c>   1</c></rc>
    <rc><c>Cu</c><c>   1</c></rc>
    <rc><c>Cu</c><c>   1</c></rc>
    <rc><c>Cu</c><c>   1</c></rc>
    <rc><c>Cu</c><c>   1</c></rc>
    <rc><c>Cu</c><c>   1</c></rc>
    <rc><c>Cu</c><c>   1</c></rc>
    <rc><c>Cu</c><c>   1</c></rc>
    <rc><c>Cu</c><c>   1</c></rc>
    <rc><c>Cu</c><c>   1</c></rc>
    <rc><c>Cu</c><c>   1</c></rc>
    <rc><c>Cu</c><c>   1</c></rc>
    <rc><c>Cu</c><c>   1</c></rc>
    <rc><c>Cu</c><c>   1</c></rc>
    <rc><c>Cu</c><c>   1</c></rc>
    <rc><c>Cu</c><c>   1</c></rc>
    <rc><c>Cu</c><c>   1</c></rc>
    <rc><c>Cu</c><c>   1</c></rc>
    <rc><c>Cu</c><c>   1</c></rc>
    <rc><c>H </c><c>   2</c></rc>
    <rc><c>H </c><c>   2</c></rc>
   </set>
  </array>
  <array name="atomtypes" >
   <dimension dim="1">type</dimension>
   <field type="int">atomspertype</field>
   <field type="string">element</field>
   <field>mass</field>
   <field>valence</field>
   <field type="string">pseudopotential</field>
   <set>
    <rc><c>  64</c><c>Cu</c><c>     63.54600000</c><c>     11.00000000</c><c>  PAW_PBE Cu 22Jun2005                  </c></rc>
    <rc><c>   2</c><c>H </c><c>      1.00000000</c><c>      1.00000000</c><c>  PAW_PBE H 15Jun2001                   </c></rc>
   </set>
  </array>
 </atominfo>
 <structure name="initialpos" >
  <crystal>
   <varray name="basis" >
    <v>       7.26000023       0.00000000       0.00000000 </v>
    <v>       0.00000000       7.26000023       0.00000000 </v>
    <v>       0.00000000       0.00000000      27.70499992 </v>
   </varray>
   <i name="volume">   1460.26414606 </i>
   <varray name="rec_basis" >
    <v>       0.13774104       0.00000000       0.00000000 </v>
    <v>       0.00000000       0.13774104       0.00000000 </v>
    <v>       0.00000000       0.00000000       0.03609457 </v>
   </varray>
  </crystal>
  <varray name="positions" >
   <v>       0.00000000       0.00000000       0.00000000 </v>
   <v>       0.00000000       0.50000000       0.00000000 </v>
   <v>       0.50000000       0.00000000       0.00000000 </v>
   <v>       0.50000000       0.50000000       0.00000000 </v>
   <v>       0.25000000       0.25000000       0.00000000 </v>
   <v>       0.25000000       0.75000000       0.00000000 </v>
   <v>       0.75000000       0.25000000       0.00000000 </v>
   <v>       0.75000000       0.75000000       0.00000000 </v>
   <v>       0.00000000       0.25000000       0.06551164 </v>
   <v>       0.00000000       0.75000000       0.06551164 </v>
   <v>       0.50000000       0.25000000       0.06551164 </v>
   <v>       0.50000000       0.75000000       0.06551164 </v>
   <v>       0.25000000       0.00000000       0.06551164 </v>
   <v>       0.25000000       0.50000000       0.06551164 </v>
   <v>       0.75000000       0.00000000       0.06551164 </v>
   <v>       0.75000000       0.50000000       0.06551164 </v>
   <v>       0.00000000       0.00000000       0.13164128 </v>
   <v>       0.00000000       0.50000000       0.13164128 </v>
   <v>       0.50000000       0.00000000       0.13164128 </v>
   <v>       0.50000000       0.50000000       0.13164128 </v>
   <v>       0.25000000       0.25000000       0.13164128 </v>
   <v>       0.25000000       0.75000000       0.13164128 </v>
   <v>       0.75000000       0.25000000       0.13164128 </v>
   <v>       0.75000000       0.75000000       0.13164128 </v>
   <v>       0.00000000       0.25000000       0.19677891 </v>
   <v>       0.00000000       0.75000000       0.19677891 </v>
   <v>       0.50000000       0.25000000       0.19677891 </v>
   <v>       0.50000000       0.75000000       0.19677891 </v>
   <v>       0.25000000       0.00000000       0.19677891 </v>
   <v>       0.25000000       0.50000000       0.19677891 </v>
   <v>       0.75000000       0.00000000       0.19677891 </v>
   <v>       0.75000000       0.50000000       0.19677891 </v>
   <v>       0.00000000       0.00000000       0.26184662 </v>
   <v>       0.00000000       0.50000000       0.26184662 </v>
   <v>       0.50000000       0.00000000       0.26184662 </v>
   <v>       0.50000000       0.50000000       0.26184662 </v>
   <v>       0.25000000       0.25000000       0.26184662 </v>
   <v>       0.25000000       0.75000000       0.26184662 </v>
   <v>       0.75000000       0.25000000       0.26184662 </v>
   <v>       0.75000000       0.75000000       0.26184662 </v>
   <v>       0.00000000       0.25000000       0.32758887 </v>
   <v>       0.00000000       0.75000000       0.32758887 </v>
   <v>       0.50000000       0.25000000       0.32758887 </v>
   <v>       0.50000000       0.75000000       0.32758887 </v>
   <v>       0.25000000       0.00000000       0.32758887 </v>
   <v>       0.25000000       0.50000000       0.32758887 </v>
   <v>       0.75000000       0.00000000       0.32758887 </v>
   <v>       0.75000000       0.50000000       0.32758887 </v>
   <v>       0.00000000       0.00000000       0.39185763 </v>
   <v>       0.00000000       0.50000000       0.39185763 </v>
   <v>       0.50000000       0.00000000       0.39185763 </v>
   <v>       0.50000000       0.50000000       0.39185763 </v>
   <v>       0.25000000       0.25000000       0.39185763 </v>
   <v>       0.25000000       0.75000000       0.39185763 </v>
   <v>       0.75000000       0.25000000       0.39185763 </v>
   <v>       0.75000000       0.75000000       0.39185763 </v>
   <v>       0.00000000       0.25000000       0.45475490 </v>
   <v>       0.00000000       0.75000000       0.45475490 </v>
   <v>       0.50000000       0.25000000       0.45475490 </v>
   <v>       0.50000000       0.75000000       0.45475490 </v>
   <v>       0.25000000       0.00000000       0.45475490 </v>
   <v>       0.25000000       0.50000000       0.45475490 </v>
   <v>       0.75000000       0.00000000       0.45475490 </v>
   <v>       0.75000000       0.50000000       0.45475490 </v>
   <v>       0.50000000       0.50000000       0.50150658 </v>
   <v>       0.50000000       0.50000000       0.52843313 </v>
  </varray>
 </structure>
 <calculation>
  <scstep>
   <time name="dav">   32.11   32.35</time>
   <time name="total">   32.25   32.49</time>
   <energy>
    <i name="alphaZ">   2059.53800561 </i>
    <i name="ewald"> 387437.06378379 </i>
    <i name="hartreedc">-474958.86321599 </i>
    <i name="XCdc">   2932.71561926 </i>
    <i name="pawpsdc">  78601.82840687 </i>
    <i name="pawaedc"> -85374.54502045 </i>
    <i name="eentropy">      0.00567675 </i>
    <i name="bandstr">   7096.95771351 </i>
    <i name="atom">  89046.24623812 </i>
    <i name="e_fr_energy">   6840.94720747 </i>
    <i name="e_wo_entrp">   6840.94153072 </i>
    <i name="e_0_energy">   6840.94531522 </i>
   </energy>
  </scstep>
  <scstep>
   <time name="dav">   31.82   32.07</time>
   <time name="total">   31.83   32.07</time>
   <energy>
    <i name="e_fr_energy">    957.93736499 </i>
    <i name="e_wo_entrp">    957.95656231 </i>
    <i name="e_0_energy">    957.94376410 </i>
   </energy>
  </scstep>
  <scstep>
   <time name="dav">   31.86   32.10</time>
   <time name="total">   31.87   32.11</time>
   <energy>
    <i name="e_fr_energy">   -180.00843086 </i>
    <i name="e_wo_entrp">   -180.09805934 </i>
    <i name="e_0_energy">   -180.03830702 </i>
   </energy>
  </scstep>
  <scstep>
   <time name="dav">   34.38   34.64</time>
   <time name="total">   34.38   34.65</time>
   <energy>
    <i name="e_fr_energy">   -271.51127606 </i>
    <i name="e_wo_entrp">   -271.63866683 </i>
    <i name="e_0_energy">   -271.55373965 </i>
   </energy>
  </scstep>
  <scstep>
   <time name="dav">   34.38   34.65</time>
   <time name="total">   35.08   35.34</time>
   <energy>
    <i name="e_fr_energy">   -273.85871158 </i>
    <i name="e_wo_entrp">   -273.98797425 </i>
    <i name="e_0_energy">   -273.90179913 </i>
   </energy>
  </scstep>
  <scstep>
   <time name="dav">   34.31   34.57</time>
   <time name="total">   35.13   35.40</time>
   <energy>
    <i name="e_fr_energy">   -224.90764375 </i>
    <i name="e_wo_entrp">   -224.92116229 </i>
    <i name="e_0_energy">   -224.91214993 </i>
   </energy>
  </scstep>
  <scstep>
   <time name="dav">   34.74   35.01</time>
   <time name="total">   35.52   35.80</time>
   <energy>
    <i name="e_fr_energy">   -198.00917654 </i>
    <i name="e_wo_entrp">   -198.07580754 </i>
    <i name="e_0_energy">   -198.03138687 </i>
   </energy>
  </scstep>
  <scstep>
   <time name="dav">   36.11   36.37</time>
   <time name="total">   36.92   37.19</time>
   <energy>
    <i name="e_fr_energy">   -201.26117254 </i>
    <i name="e_wo_entrp">   -201.45971921 </i>
    <i name="e_0_energy">   -201.32735476 </i>
   </energy>
  </scstep>
  <scstep>
   <time name="dav">   42.76   43.50</time>
   <time name="total">   43.58   44.32</time>
   <energy>
    <i name="e_fr_energy">   -196.89671131 </i>
    <i name="e_wo_entrp">   -196.97351032 </i>
    <i name="e_0_energy">   -196.92231098 </i>
   </energy>
  </scstep>
  <scstep>
   <time name="dav">   41.02   41.31</time>
   <time name="total">   41.84   42.14</time>
   <energy>
    <i name="e_fr_energy">   -194.04849801 </i>
    <i name="e_wo_entrp">   -194.11003864 </i>
    <i name="e_0_energy">   -194.06901156 </i>
   </energy>
  </scstep>
  <scstep>
   <time name="dav">   45.11   45.52</time>
   <time name="total">   45.92   46.34</time>
   <energy>
    <i name="e_fr_energy">   -195.01155656 </i>
    <i name="e_wo_entrp">   -195.07546166 </i>
    <i name="e_0_energy">   -195.03285826 </i>
   </energy>
  </scstep>
  <scstep>
   <time name="dav">   35.77   36.05</time>
   <time name="total">   36.60   36.88</time>
   <energy>
    <i name="e_fr_energy">   -198.90973097 </i>
    <i name="e_wo_entrp">   -198.94133260 </i>
    <i name="e_0_energy">   -198.92026485 </i>
   </energy>
  </scstep>
  <scstep>
   <time name="dav">   37.44   37.71</time>
   <time name="total">   38.26   38.53</time>
   <energy>
    <i name="e_fr_energy">   -203.39883960 </i>
    <i name="e_wo_entrp">   -203.42875769 </i>
    <i name="e_0_energy">   -203.40881230 </i>
   </energy>
  </scstep>
  <scstep>
   <time name="dav">   36.88   37.15</time>
   <time name="total">   37.70   37.98</time>
   <energy>
    <i name="e_fr_energy">   -210.84392652 </i>
    <i name="e_wo_entrp">   -210.86488534 </i>
    <i name="e_0_energy">   -210.85091279 </i>
   </energy>
  </scstep>
  <scstep>
   <time name="dav">   38.59   38.88</time>
   <time name="total">   39.43   39.73</time>
   <energy>
    <i name="e_fr_energy">   -216.52979324 </i>
    <i name="e_wo_entrp">   -216.56434315 </i>
    <i name="e_0_energy">   -216.54130987 </i>
   </energy>
  </scstep>
  <scstep>
   <time name="dav">   38.18   38.46</time>
   <time name="total">   38.99   39.27</time>
   <energy>
    <i name="e_fr_energy">   -223.57124845 </i>
    <i name="e_wo_entrp">   -223.57627655 </i>
    <i name="e_0_energy">   -223.57292448 </i>
   </energy>
  </scstep>
  <scstep>
   <time name="dav">   36.17   36.46</time>
   <time name="total">   36.97   37.26</time>
   <energy>
    <i name="e_fr_energy">   -226.29304315 </i>
    <i name="e_wo_entrp">   -226.25536710 </i>
    <i name="e_0_energy">   -226.28048446 </i>
   </energy>
  </scstep>
  <scstep>
   <time name="dav">   36.17   36.43</time>
   <time name="total">   36.96   37.23</time>
   <energy>
    <i name="e_fr_energy">   -227.48596640 </i>
    <i name="e_wo_entrp">   -227.42260145 </i>
    <i name="e_0_energy">   -227.46484475 </i>
   </energy>
  </scstep>
  <scstep>
   <time name="dav">   38.56   38.81</time>
   <time name="total">   39.38   39.64</time>
   <energy>
    <i name="e_fr_energy">   -229.05258159 </i>
    <i name="e_wo_entrp">   -228.95141679 </i>
    <i name="e_0_energy">   -229.01885999 </i>
   </energy>
  </scstep>
  <scstep>
   <time name="dav">   40.49   40.78</time>
   <time name="total">   41.31   41.60</time>
   <energy>
    <i name="e_fr_energy">   -230.67461473 </i>
    <i name="e_wo_entrp">   -230.52478573 </i>
    <i name="e_0_energy">   -230.62467173 </i>
   </energy>
  </scstep>
  <scstep>
   <time name="dav">   37.51   37.77</time>
   <time name="total">   38.30   38.57</time>
   <energy>
    <i name="e_fr_energy">   -231.76296086 </i>
    <i name="e_wo_entrp">   -231.59603965 </i>
    <i name="e_0_energy">   -231.70732045 </i>
   </energy>
  </scstep>
  <scstep>
   <time name="dav">   42.53   42.81</time>
   <time name="total">   43.34   43.64</time>
   <energy>
    <i name="e_fr_energy">   -232.67095817 </i>
    <i name="e_wo_entrp">   -232.47595662 </i>
    <i name="e_0_energy">   -232.60595766 </i>
   </energy>
  </scstep>
  <scstep>
   <time name="dav">   42.69   42.98</time>
   <time name="total">   43.49   43.79</time>
   <energy>
    <i name="e_fr_energy">   -233.49963983 </i>
    <i name="e_wo_entrp">   -233.28363684 </i>
    <i name="e_0_energy">   -233.42763883 </i>
   </energy>
  </scstep>
  <scstep>
   <time name="dav">   39.18   39.43</time>
   <time name="total">   39.99   40.25</time>
   <energy>
    <i name="e_fr_energy">   -233.88958272 </i>
    <i name="e_wo_entrp">   -233.67857535 </i>
    <i name="e_0_energy">   -233.81924693 </i>
   </energy>
  </scstep>
  <scstep>
   <time name="dav">   35.65   35.87</time>
   <time name="total">   36.45   36.67</time>
   <energy>
    <i name="e_fr_energy">   -234.15540680 </i>
    <i name="e_wo_entrp">   -233.94409829 </i>
    <i name="e_0_energy">   -234.08497063 </i>
   </energy>
  </scstep>
  <scstep>
   <time name="dav">   37.84   38.09</time>
   <time name="total">   38.65   38.90</time>
   <energy>
    <i name="e_fr_energy">   -234.43395174 </i>
    <i name="e_wo_entrp">   -234.22223779 </i>
    <i name="e_0_energy">   -234.36338042 </i>
   </energy>
  </scstep>
  <scstep>
   <time name="dav">   39.41   39.69</time>
   <time name="total">   40.22   40.51</time>
   <energy>
    <i name="e_fr_energy">   -234.63946474 </i>
    <i name="e_wo_entrp">   -234.42860748 </i>
    <i name="e_0_energy">   -234.56917898 </i>
   </energy>
  </scstep>
  <scstep>
   <time name="dav">   39.16   39.41</time>
   <time name="total">   39.97   40.23</time>
   <energy>
    <i name="e_fr_energy">   -234.83570634 </i>
    <i name="e_wo_entrp">   -234.62487635 </i>
    <i name="e_0_energy">   -234.76542968 </i>
   </energy>
  </scstep>
  <scstep>
   <time name="dav">   38.06   38.31</time>
   <time name="total">   38.88   39.13</time>
   <energy>
    <i name="e_fr_energy">   -234.93892084 </i>
    <i name="e_wo_entrp">   -234.72784825 </i>
    <i name="e_0_energy">   -234.86856331 </i>
   </energy>
  </scstep>
  <scstep>
   <time name="dav">   34.75   34.97</time>
   <time name="total">   35.57   35.79</time>
   <energy>
    <i name="e_fr_energy">   -234.95519204 </i>
    <i name="e_wo_entrp">   -234.74459289 </i>
    <i name="e_0_energy">   -234.88499233 </i>
   </energy>
  </scstep>
  <scstep>
   <time name="dav">   24.23   24.39</time>
   <time name="total">   25.06   25.22</time>
   <energy>
    <i name="e_fr_energy">   -234.96140103 </i>
    <i name="e_wo_entrp">   -234.75064098 </i>
    <i name="e_0_energy">   -234.89114768 </i>
   </energy>
  </scstep>
  <scstep>
   <time name="dav">   25.36   25.56</time>
   <time name="total">   26.18   26.39</time>
   <energy>
    <i name="e_fr_energy">   -234.96324435 </i>
    <i name="e_wo_entrp">   -234.75254099 </i>
    <i name="e_0_energy">   -234.89300990 </i>
   </energy>
  </scstep>
  <scstep>
   <time name="dav">   24.64   24.82</time>
   <time name="total">   25.47   25.65</time>
   <energy>
    <i name="e_fr_energy">   -234.96362305 </i>
    <i name="e_wo_entrp">   -234.75302337 </i>
    <i name="e_0_energy">   -234.89342316 </i>
   </energy>
  </scstep>
  <scstep>
   <time name="dav">   24.20   24.37</time>
   <time name="total">   25.00   25.18</time>
   <energy>
    <i name="e_fr_energy">   -234.96382506 </i>
    <i name="e_wo_entrp">   -234.75312070 </i>
    <i name="e_0_energy">   -234.89359027 </i>
   </energy>
  </scstep>
  <scstep>
   <time name="dav">   22.99   23.16</time>
   <time name="total">   23.80   23.99</time>
   <energy>
    <i name="e_fr_energy">   -234.96410201 </i>
    <i name="e_wo_entrp">   -234.75332146 </i>
    <i name="e_0_energy">   -234.89384183 </i>
   </energy>
  </scstep>
  <scstep>
   <time name="dav">   23.86   24.03</time>
   <time name="total">   24.68   24.85</time>
   <energy>
    <i name="e_fr_energy">   -234.96444961 </i>
    <i name="e_wo_entrp">   -234.75365890 </i>
    <i name="e_0_energy">   -234.89418604 </i>
   </energy>
  </scstep>
  <scstep>
   <time name="dav">   25.23   25.41</time>
   <time name="total">   26.04   26.23</time>
   <energy>
    <i name="e_fr_energy">   -234.96504327 </i>
    <i name="e_wo_entrp">   -234.75426486 </i>
    <i name="e_0_energy">   -234.89478380 </i>
   </energy>
  </scstep>
  <scstep>
   <time name="dav">   23.65   23.80</time>
   <time name="total">   24.47   24.62</time>
   <energy>
    <i name="e_fr_energy">   -234.96536171 </i>
    <i name="e_wo_entrp">   -234.75460548 </i>
    <i name="e_0_energy">   -234.89510964 </i>
   </energy>
  </scstep>
  <scstep>
   <time name="dav">   24.34   24.54</time>
   <time name="total">   24.47   24.67</time>
   <energy>
    <i name="alphaZ">   2059.53800561 </i>
    <i name="ewald"> 387437.06378379 </i>
    <i name="hartreedc">-473990.88463719 </i>
    <i name="XCdc">   2858.79220172 </i>
    <i name="pawpsdc">  83686.54016522 </i>
    <i name="pawaedc"> -90578.88852560 </i>
    <i name="eentropy">     -0.21075313 </i>
    <i name="bandstr">   -753.16201929 </i>
    <i name="atom">  89046.24623812 </i>
    <i name="e_fr_energy">   -234.96554076 </i>
    <i name="e_wo_entrp">   -234.75478762 </i>
    <i name="e_0_energy">   -234.89528971 </i>
   </energy>
  </scstep>
  <structure>
   <crystal>
    <varray name="basis" >
     <v>       7.26000023       0.00000000       0.00000000 </v>
     <v>       0.00000000       7.26000023       0.00000000 </v>
     <v>       0.00000000       0.00000000      27.70499992 </v>
    </varray>
    <i name="volume">   1460.26414606 </i>
    <varray name="rec_basis" >
     <v>       0.13774104       0.00000000       0.00000000 </v>
     <v>       0.00000000       0.13774104       0.00000000 </v>
     <v>       0.00000000       0.00000000       0.03609457 </v>
    </varray>
   </crystal>
   <varray name="positions" >
    <v>       0.00000000       0.00000000       0.00000000 </v>
    <v>       0.00000000       0.50000000       0.00000000 </v>
    <v>       0.50000000       0.00000000       0.00000000 </v>
    <v>       0.50000000       0.50000000       0.00000000 </v>
    <v>       0.25000000       0.25000000       0.00000000 </v>
    <v>       0.25000000       0.75000000       0.00000000 </v>
    <v>       0.75000000       0.25000000       0.00000000 </v>
    <v>       0.75000000       0.75000000       0.00000000 </v>
    <v>       0.00000000       0.25000000       0.06551164 </v>
    <v>       0.00000000       0.75000000       0.06551164 </v>
    <v>       0.50000000       0.25000000       0.06551164 </v>
    <v>       0.50000000       0.75000000       0.06551164 </v>
    <v>       0.25000000       0.00000000       0.06551164 </v>
    <v>       0.25000000       0.50000000       0.06551164 </v>
    <v>       0.75000000       0.00000000       0.06551164 </v>
    <v>       0.75000000       0.50000000       0.06551164 </v>
    <v>       0.00000000       0.00000000       0.13164128 </v>
    <v>       0.00000000       0.50000000       0.13164128 </v>
    <v>       0.50000000       0.00000000       0.13164128 </v>
    <v>       0.50000000       0.50000000       0.13164128 </v>
    <v>       0.25000000       0.25000000       0.13164128 </v>
    <v>       0.25000000       0.75000000       0.13164128 </v>
    <v>       0.75000000       0.25000000       0.13164128 </v>
    <v>       0.75000000       0.75000000       0.13164128 </v>
    <v>       0.00000000       0.25000000       0.19677891 </v>
    <v>       0.00000000       0.75000000       0.19677891 </v>
    <v>       0.50000000       0.25000000       0.19677891 </v>
    <v>       0.50000000       0.75000000       0.19677891 </v>
    <v>       0.25000000       0.00000000       0.19677891 </v>
    <v>       0.25000000       0.50000000       0.19677891 </v>
    <v>       0.75000000       0.00000000       0.19677891 </v>
    <v>       0.75000000       0.50000000       0.19677891 </v>
    <v>       0.00000000       0.00000000       0.26184662 </v>
    <v>       0.00000000       0.50000000       0.26184662 </v>
    <v>       0.50000000       0.00000000       0.26184662 </v>
    <v>       0.50000000       0.50000000       0.26184662 </v>
    <v>       0.25000000       0.25000000       0.26184662 </v>
    <v>       0.25000000       0.75000000       0.26184662 </v>
    <v>       0.75000000       0.25000000       0.26184662 </v>
    <v>       0.75000000       0.75000000       0.26184662 </v>
    <v>       0.00000000       0.25000000       0.32758887 </v>
    <v>       0.00000000       0.75000000       0.32758887 </v>
    <v>       0.50000000       0.25000000       0.32758887 </v>
    <v>       0.50000000       0.75000000       0.32758887 </v>
    <v>       0.25000000       0.00000000       0.32758887 </v>
    <v>       0.25000000       0.50000000       0.32758887 </v>
    <v>       0.75000000       0.00000000       0.32758887 </v>
    <v>       0.75000000       0.50000000       0.32758887 </v>
    <v>       0.00000000       0.00000000       0.39185763 </v>
    <v>       0.00000000       0.50000000       0.39185763 </v>
    <v>       0.50000000       0.00000000       0.39185763 </v>
    <v>       0.50000000       0.50000000       0.39185763 </v>
    <v>       0.25000000       0.25000000       0.39185763 </v>
    <v>       0.25000000       0.75000000       0.39185763 </v>
    <v>       0.75000000       0.25000000       0.39185763 </v>
    <v>       0.75000000       0.75000000       0.39185763 </v>
    <v>       0.00000000       0.25000000       0.45475490 </v>
    <v>       0.00000000       0.75000000       0.45475490 </v>
    <v>       0.50000000       0.25000000       0.45475490 </v>
    <v>       0.50000000       0.75000000       0.45475490 </v>
    <v>       0.25000000       0.00000000       0.45475490 </v>
    <v>       0.25000000       0.50000000       0.45475490 </v>
    <v>       0.75000000       0.00000000       0.45475490 </v>
    <v>       0.75000000       0.50000000       0.45475490 </v>
    <v>       0.50000000       0.50000000       0.50150658 </v>
    <v>       0.50000000       0.50000000       0.52843313 </v>
   </varray>
  </structure>
  <varray name="forces" >
   <v>       0.00000000       0.00000000       0.30248736 </v>
   <v>       0.00000000       0.00000000       0.31158639 </v>
   <v>       0.00000000       0.00000000       0.31158639 </v>
   <v>       0.00000000       0.00000000       0.31110927 </v>
   <v>       0.00677642       0.00677642       0.31731790 </v>
   <v>       0.00677642      -0.00677642       0.31731790 </v>
   <v>      -0.00677642       0.00677642       0.31731790 </v>
   <v>      -0.00677642      -0.00677642       0.31731790 </v>
   <v>       0.00000000       0.00352778      -0.06273928 </v>
   <v>       0.00000000      -0.00352778      -0.06273928 </v>
   <v>       0.00000000      -0.00786661      -0.06480698 </v>
   <v>       0.00000000       0.00786661      -0.06480698 </v>
   <v>       0.00352778       0.00000000      -0.06273928 </v>
   <v>      -0.00786661       0.00000000      -0.06480698 </v>
   <v>      -0.00352778       0.00000000      -0.06273928 </v>
   <v>       0.00786661       0.00000000      -0.06480698 </v>
   <v>       0.00000000       0.00000000      -0.05019419 </v>
   <v>       0.00000000       0.00000000      -0.05776934 </v>
   <v>       0.00000000       0.00000000      -0.05776934 </v>
   <v>       0.00000000       0.00000000      -0.08589453 </v>
   <v>       0.01049634       0.01049634      -0.04779215 </v>
   <v>       0.01049634      -0.01049634      -0.04779215 </v>
   <v>      -0.01049634       0.01049634      -0.04779215 </v>
   <v>      -0.01049634      -0.01049634      -0.04779215 </v>
   <v>       0.00000000       0.00563378       0.03677873 </v>
   <v>       0.00000000      -0.00563378       0.03677873 </v>
   <v>       0.00000000       0.01111502       0.02874355 </v>
   <v>       0.00000000      -0.01111502       0.02874355 </v>
   <v>       0.00563378       0.00000000       0.03677873 </v>
   <v>       0.01111502       0.00000000       0.02874355 </v>
   <v>      -0.00563378       0.00000000       0.03677873 </v>
   <v>      -0.01111502       0.00000000       0.02874355 </v>
   <v>       0.00000000       0.00000000       0.01003787 </v>
   <v>       0.00000000       0.00000000      -0.02798817 </v>
   <v>       0.00000000       0.00000000      -0.02798817 </v>
   <v>       0.00000000       0.00000000       0.04941461 </v>
   <v>       0.00072470       0.00072470       0.02707132 </v>
   <v>       0.00072470      -0.00072470       0.02707132 </v>
   <v>      -0.00072470       0.00072470       0.02707132 </v>
   <v>      -0.00072470      -0.00072470       0.02707132 </v>
   <v>       0.00000000       0.00079090      -0.19349885 </v>
   <v>       0.00000000      -0.00079090      -0.19349885 </v>
   <v>       0.00000000      -0.02160313      -0.21871990 </v>
   <v>       0.00000000       0.02160313      -0.21871990 </v>
   <v>       0.00079090       0.00000000      -0.19349885 </v>
   <v>      -0.02160313       0.00000000      -0.21871990 </v>
   <v>      -0.00079090       0.00000000      -0.19349885 </v>
   <v>       0.02160313       0.00000000      -0.21871990 </v>
   <v>       0.00000000       0.00000000      -0.02754882 </v>
   <v>       0.00000000       0.00000000       0.00378061 </v>
   <v>       0.00000000       0.00000000       0.00378061 </v>
   <v>       0.00000000       0.00000000      -0.17158203 </v>
   <v>       0.01674920       0.01674920       0.01932102 </v>
   <v>       0.01674920      -0.01674920       0.01932102 </v>
   <v>      -0.01674920       0.01674920       0.01932102 </v>
   <v>      -0.01674920      -0.01674920       0.01932102 </v>
   <v>       0.00000000       0.01081466      -0.01004116 </v>
   <v>       0.00000000      -0.01081466      -0.01004116 </v>
   <v>       0.00000000      -0.29891443      -0.19276972 </v>
   <v>       0.00000000       0.29891443      -0.19276972 </v>
   <v>       0.01081466       0.00000000      -0.01004116 </v>
   <v>      -0.29891443       0.00000000      -0.19276972 </v>
   <v>      -0.01081466       0.00000000      -0.01004116 </v>
   <v>       0.29891443       0.00000000      -0.19276972 </v>
   <v>       0.00000000       0.00000000      -0.82215104 </v>
   <v>       0.00000000       0.00000000       1.46964462 </v>
  </varray>
  <varray name="stress" >
   <v>     -44.82412231       0.00000000       0.00000000 </v>
   <v>       0.00000000     -44.82412231       0.00000000 </v>
   <v>       0.00000000      -0.00000000     -23.07000712 </v>
  </varray>
  <energy>
   <i name="e_fr_energy">   -261.39575235 </i>
   <i name="e_wo_entrp">   -261.18499922 </i>
   <i name="e_0_energy">   -261.32550131 </i>
  </energy>
  <time name="totalsc"> 1442.33 1453.08</time>
 </calculation>
 <calculation>
  <scstep>
   <time name="dav">   33.38   33.62</time>
   <time name="total">   34.19   34.44</time>
   <energy>
    <i name="alphaZ">   2059.53800561 </i>
    <i name="ewald"> 388364.77210654 </i>
    <i name="hartreedc">-474918.56541092 </i>
    <i name="XCdc">   2858.94315594 </i>
    <i name="pawpsdc">  83686.55024453 </i>
    <i name="pawaedc"> -90578.90669005 </i>
    <i name="eentropy">     -0.20686392 </i>
    <i name="bandstr">   -753.30862737 </i>
    <i name="atom">  89046.24623812 </i>
    <i name="e_fr_energy">   -234.93784153 </i>
    <i name="e_wo_entrp">   -234.73097761 </i>
    <i name="e_0_energy">   -234.86888689 </i>
   </energy>
  </scstep>
  <scstep>
   <time name="dav">   44.04   44.43</time>
   <time name="total">   44.85   45.24</time>
   <energy>
    <i name="e_fr_energy">   -234.99018288 </i>
    <i name="e_wo_entrp">   -234.78101150 </i>
    <i name="e_0_energy">   -234.92045909 </i>
   </energy>
  </scstep>
  <scstep>
   <time name="dav">   37.60   37.94</time>
   <time name="total">   38.40   38.76</time>
   <energy>
    <i name="e_fr_energy">   -234.98949596 </i>
    <i name="e_wo_entrp">   -234.77907794 </i>
    <i name="e_0_energy">   -234.91935662 </i>
   </energy>
  </scstep>
  <scstep>
   <time name="dav">   35.03   35.30</time>
   <time name="total">   35.82   36.10</time>
   <energy>
    <i name="e_fr_energy">   -234.99830926 </i>
    <i name="e_wo_entrp">   -234.79435867 </i>
    <i name="e_0_energy">   -234.93032573 </i>
   </energy>
  </scstep>
  <scstep>
   <time name="dav">   45.35   45.70</time>
   <time name="total">   46.16   46.52</time>
   <energy>
    <i name="e_fr_energy">   -234.98892732 </i>
    <i name="e_wo_entrp">   -234.77803708 </i>
    <i name="e_0_energy">   -234.91863057 </i>
   </energy>
  </scstep>
  <scstep>
   <time name="dav">   49.30   49.63</time>
   <time name="total">   50.12   50.45</time>
   <energy>
    <i name="e_fr_energy">   -234.98522550 </i>
    <i name="e_wo_entrp">   -234.77530847 </i>
    <i name="e_0_energy">   -234.91525315 </i>
   </energy>
  </scstep>
  <scstep>
   <time name="dav">   43.21   43.50</time>
   <time name="total">   44.03   44.33</time>
   <energy>
    <i name="e_fr_energy">   -234.98398661 </i>
    <i name="e_wo_entrp">   -234.77379528 </i>
    <i name="e_0_energy">   -234.91392284 </i>
   </energy>
  </scstep>
  <scstep>
   <time name="dav">   32.89   33.12</time>
   <time name="total">   33.68   33.92</time>
   <energy>
    <i name="e_fr_energy">   -234.98424678 </i>
    <i name="e_wo_entrp">   -234.77397064 </i>
    <i name="e_0_energy">   -234.91415473 </i>
   </energy>
  </scstep>
  <scstep>
   <time name="dav">   32.71   32.97</time>
   <time name="total">   32.84   33.10</time>
   <energy>
    <i name="alphaZ">   2059.53800561 </i>
    <i name="ewald"> 388364.77210654 </i>
    <i name="hartreedc">-474914.60583323 </i>
    <i name="XCdc">   2858.73571385 </i>
    <i name="pawpsdc">  83707.90771409 </i>
    <i name="pawaedc"> -90600.72898621 </i>
    <i name="eentropy">     -0.21034993 </i>
    <i name="bandstr">   -756.63892905 </i>
    <i name="atom">  89046.24623812 </i>
    <i name="e_fr_energy">   -234.98432022 </i>
    <i name="e_wo_entrp">   -234.77397029 </i>
    <i name="e_0_energy">   -234.91420358 </i>
   </energy>
  </scstep>
  <structure>
   <crystal>
    <varray name="basis" >
     <v>       7.26000023       0.00000000       0.00000000 </v>
     <v>       0.00000000       7.26000023       0.00000000 </v>
     <v>       0.00000000       0.00000000      27.70499992 </v>
    </varray>
    <i name="volume">   1460.26414606 </i>
    <varray name="rec_basis" >
     <v>       0.13774104       0.00000000       0.00000000 </v>
     <v>       0.00000000       0.13774104       0.00000000 </v>
     <v>       0.00000000       0.00000000       0.03609457 </v>
    </varray>
   </crystal>
   <varray name="positions" >
    <v>       0.00000000       0.00000000       0.00052672 </v>
    <v>       0.00000000       0.50000000       0.00054256 </v>
    <v>       0.50000000       0.00000000       0.00054256 </v>
    <v>       0.50000000       0.50000000       0.00054173 </v>
    <v>       0.25004503       0.25004503       0.00055254 </v>
    <v>       0.25004503       0.74995497       0.00055254 </v>
    <v>       0.74995497       0.25004503       0.00055254 </v>
    <v>       0.74995497       0.74995497       0.00055254 </v>
    <v>       0.00000000       0.25002344       0.06540239 </v>
    <v>       0.00000000       0.74997656       0.06540239 </v>
    <v>       0.50000000       0.24994773       0.06539879 </v>
    <v>       0.50000000       0.75005227       0.06539879 </v>
    <v>       0.25002344       0.00000000       0.06540239 </v>
    <v>       0.24994773       0.50000000       0.06539879 </v>
    <v>       0.74997656       0.00000000       0.06540239 </v>
    <v>       0.75005227       0.50000000       0.06539879 </v>
    <v>       0.00000000       0.00000000       0.13155388 </v>
    <v>       0.00000000       0.50000000       0.13154069 </v>
    <v>       0.50000000       0.00000000       0.13154069 </v>
    <v>       0.50000000       0.50000000       0.13149171 </v>
    <v>       0.25006975       0.25006975       0.13155806 </v>
    <v>       0.25006975       0.74993025       0.13155806 </v>
    <v>       0.74993025       0.25006975       0.13155806 </v>
    <v>       0.74993025       0.74993025       0.13155806 </v>
    <v>       0.00000000       0.25003744       0.19684296 </v>
    <v>       0.00000000       0.74996256       0.19684296 </v>
    <v>       0.50000000       0.25007386       0.19682897 </v>
    <v>       0.50000000       0.74992614       0.19682897 </v>
    <v>       0.25003744       0.00000000       0.19684296 </v>
    <v>       0.25007386       0.50000000       0.19682897 </v>
    <v>       0.74996256       0.00000000       0.19684296 </v>
    <v>       0.74992614       0.50000000       0.19682897 </v>
    <v>       0.00000000       0.00000000       0.26186410 </v>
    <v>       0.00000000       0.50000000       0.26179789 </v>
    <v>       0.50000000       0.00000000       0.26179789 </v>
    <v>       0.50000000       0.50000000       0.26193267 </v>
    <v>       0.25000482       0.25000482       0.26189376 </v>
    <v>       0.25000482       0.74999518       0.26189376 </v>
    <v>       0.74999518       0.25000482       0.26189376 </v>
    <v>       0.74999518       0.74999518       0.26189376 </v>
    <v>       0.00000000       0.25000526       0.32725193 </v>
    <v>       0.00000000       0.74999474       0.32725193 </v>
    <v>       0.50000000       0.24985645       0.32720801 </v>
    <v>       0.50000000       0.75014355       0.32720801 </v>
    <v>       0.25000526       0.00000000       0.32725193 </v>
    <v>       0.24985645       0.50000000       0.32720801 </v>
    <v>       0.74999474       0.00000000       0.32725193 </v>
    <v>       0.75014355       0.50000000       0.32720801 </v>
    <v>       0.00000000       0.00000000       0.39180966 </v>
    <v>       0.00000000       0.50000000       0.39186421 </v>
    <v>       0.50000000       0.00000000       0.39186421 </v>
    <v>       0.50000000       0.50000000       0.39155885 </v>
    <v>       0.25011130       0.25011130       0.39189127 </v>
    <v>       0.25011130       0.74988870       0.39189127 </v>
    <v>       0.74988870       0.25011130       0.39189127 </v>
    <v>       0.74988870       0.74988870       0.39189127 </v>
    <v>       0.00000000       0.25007186       0.45473741 </v>
    <v>       0.00000000       0.74992814       0.45473741 </v>
    <v>       0.50000000       0.24801372       0.45441923 </v>
    <v>       0.50000000       0.75198628       0.45441923 </v>
    <v>       0.25007186       0.00000000       0.45473741 </v>
    <v>       0.24801372       0.50000000       0.45441923 </v>
    <v>       0.74992814       0.00000000       0.45473741 </v>
    <v>       0.75198628       0.50000000       0.45441923 </v>
    <v>       0.50000000       0.50000000       0.50007497 </v>
    <v>       0.50000000       0.50000000       0.53099222 </v>
   </varray>
  </structure>
  <varray name="forces" >
   <v>      -0.00000000      -0.00000000       0.23662165 </v>
   <v>      -0.00000000      -0.00000000       0.24175109 </v>
   <v>      -0.00000000       0.00000000       0.24175109 </v>
   <v>      -0.00000000      -0.00000000       0.24207454 </v>
   <v>       0.00490577       0.00490577       0.24633726 </v>
   <v>       0.00490577      -0.00490577       0.24633726 </v>
   <v>      -0.00490577       0.00490577       0.24633726 </v>
   <v>      -0.00490577      -0.00490577       0.24633726 </v>
   <v>      -0.00000000       0.00136548      -0.00394656 </v>
   <v>      -0.00000000      -0.00136548      -0.00394656 </v>
   <v>      -0.00000000      -0.00586962      -0.00636522 </v>
   <v>      -0.00000000       0.00586962      -0.00636522 </v>
   <v>       0.00136548      -0.00000000      -0.00394656 </v>
   <v>      -0.00586962      -0.00000000      -0.00636522 </v>
   <v>      -0.00136548      -0.00000000      -0.00394656 </v>
   <v>       0.00586962      -0.00000000      -0.00636522 </v>
   <v>      -0.00000000       0.00000000      -0.02695488 </v>
   <v>      -0.00000000      -0.00000000      -0.03181330 </v>
   <v>      -0.00000000       0.00000000      -0.03181330 </v>
   <v>      -0.00000000      -0.00000000      -0.05540380 </v>
   <v>       0.00613893       0.00613893      -0.02759446 </v>
   <v>       0.00613893      -0.00613893      -0.02759446 </v>
   <v>      -0.00613893       0.00613893      -0.02759446 </v>
   <v>      -0.00613893      -0.00613893      -0.02759446 </v>
   <v>      -0.00000000       0.00403213       0.01438934 </v>
   <v>      -0.00000000      -0.00403213       0.01438934 </v>
   <v>      -0.00000000       0.01044185       0.01064991 </v>
   <v>      -0.00000000      -0.01044185       0.01064991 </v>
   <v>       0.00403213       0.00000000       0.01438934 </v>
   <v>       0.01044185       0.00000000       0.01064991 </v>
   <v>      -0.00403213      -0.00000000       0.01438934 </v>
   <v>      -0.01044185      -0.00000000       0.01064991 </v>
   <v>      -0.00000000       0.00000000      -0.01837671 </v>
   <v>      -0.00000000      -0.00000000      -0.04618282 </v>
   <v>      -0.00000000      -0.00000000      -0.04618282 </v>
   <v>      -0.00000000      -0.00000000       0.01202456 </v>
   <v>      -0.00055491      -0.00055491      -0.00989197 </v>
   <v>      -0.00055491       0.00055491      -0.00989197 </v>
   <v>       0.00055491      -0.00055491      -0.00989197 </v>
   <v>       0.00055491       0.00055491      -0.00989197 </v>
   <v>      -0.00000000       0.00062570      -0.12245206 </v>
   <v>      -0.00000000      -0.00062570      -0.12245206 </v>
   <v>      -0.00000000      -0.02389875      -0.14497413 </v>
   <v>      -0.00000000       0.02389875      -0.14497413 </v>
   <v>       0.00062570       0.00000000      -0.12245206 </v>
   <v>      -0.02389875      -0.00000000      -0.14497413 </v>
   <v>      -0.00062570       0.00000000      -0.12245206 </v>
   <v>       0.02389875      -0.00000000      -0.14497413 </v>
   <v>      -0.00000000      -0.00000000      -0.04598568 </v>
   <v>      -0.00000000       0.00000000      -0.07477254 </v>
   <v>      -0.00000000      -0.00000000      -0.07477254 </v>
   <v>      -0.00000000      -0.00000000      -0.12617606 </v>
   <v>       0.00105365       0.00105365      -0.04683552 </v>
   <v>       0.00105365      -0.00105365      -0.04683552 </v>
   <v>      -0.00105365       0.00105365      -0.04683552 </v>
   <v>      -0.00105365      -0.00105365      -0.04683552 </v>
   <v>      -0.00000000      -0.01783532      -0.01713560 </v>
   <v>      -0.00000000       0.01783532      -0.01713560 </v>
   <v>      -0.00000000      -0.12881794      -0.10464729 </v>
   <v>      -0.00000000       0.12881794      -0.10464729 </v>
   <v>      -0.01783532      -0.00000000      -0.01713560 </v>
   <v>      -0.12881794      -0.00000000      -0.10464729 </v>
   <v>       0.01783532      -0.00000000      -0.01713560 </v>
   <v>       0.12881794      -0.00000000      -0.10464729 </v>
   <v>      -0.00000000       0.00000000       1.05847138 </v>
   <v>      -0.00000000      -0.00000000      -0.60439474 </v>
  </varray>
  <varray name="stress" >
   <v>     -44.22730460       0.00000000       0.00000000 </v>
   <v>       0.00000000     -44.22730460      -0.00000000 </v>
   <v>       0.00000000      -0.00000000     -24.47982990 </v>
  </varray>
  <energy>
   <i name="e_fr_energy">   -261.46497425 </i>
   <i name="e_wo_entrp">   -261.25462432 </i>
   <i name="e_0_energy">   -261.39485761 </i>
  </energy>
  <time name="totalsc">  432.90  436.29</time>
 </calculation>
 <calculation>
  <scstep>
   <time name="dav">   33.57   33.96</time>
   <time name="total">   34.38   34.77</time>
   <energy>
    <i name="alphaZ">   2059.53800561 </i>
    <i name="ewald"> 388148.39979038 </i>
    <i name="hartreedc">-474697.85419363 </i>
    <i name="XCdc">   2858.69885557 </i>
    <i name="pawpsdc">  83708.14377993 </i>
    <i name="pawaedc"> -90600.98007684 </i>
    <i name="eentropy">     -0.21105838 </i>
    <i name="bandstr">   -756.98448713 </i>
    <i name="atom">  89046.24623812 </i>
    <i name="e_fr_energy">   -235.00314637 </i>
    <i name="e_wo_entrp">   -234.79208799 </i>
    <i name="e_0_energy">   -234.93279358 </i>
   </energy>
  </scstep>
  <scstep>
   <time name="dav">   42.57   43.05</time>
   <time name="total">   43.94   44.64</time>
   <energy>
    <i name="e_fr_energy">   -235.00622581 </i>
    <i name="e_wo_entrp">   -234.79585612 </i>
    <i name="e_0_energy">   -234.93610258 </i>
   </energy>
  </scstep>
  <scstep>
   <time name="dav">   35.09   35.33</time>
   <time name="total">   35.90   36.14</time>
   <energy>
    <i name="e_fr_energy">   -235.00637575 </i>
    <i name="e_wo_entrp">   -234.79526872 </i>
    <i name="e_0_energy">   -234.93600674 </i>
   </energy>
  </scstep>
  <scstep>
   <time name="dav">   26.22   26.54</time>
   <time name="total">   27.04   27.36</time>
   <energy>
    <i name="e_fr_energy">   -235.00613163 </i>
    <i name="e_wo_entrp">   -234.79610030 </i>
    <i name="e_0_energy">   -234.93612118 </i>
   </energy>
  </scstep>
  <scstep>
   <time name="dav">   24.38   24.52</time>
   <time name="total">   24.51   24.66</time>
   <energy>
    <i name="alphaZ">   2059.53800561 </i>
    <i name="ewald"> 388148.39979038 </i>
    <i name="hartreedc">-474699.35432750 </i>
    <i name="XCdc">   2858.74411663 </i>
    <i name="pawpsdc">  83703.96739920 </i>
    <i name="pawaedc"> -90596.79036228 </i>
    <i name="eentropy">     -0.21050003 </i>
    <i name="bandstr">   -755.54632370 </i>
    <i name="atom">  89046.24623812 </i>
    <i name="e_fr_energy">   -235.00596356 </i>
    <i name="e_wo_entrp">   -234.79546353 </i>
    <i name="e_0_energy">   -234.93579688 </i>
   </energy>
  </scstep>
  <structure>
   <crystal>
    <varray name="basis" >
     <v>       7.26000023       0.00000000       0.00000000 </v>
     <v>       0.00000000       7.26000023       0.00000000 </v>
     <v>       0.00000000       0.00000000      27.70499992 </v>
    </varray>
    <i name="volume">   1460.26414606 </i>
    <varray name="rec_basis" >
     <v>       0.13774104       0.00000000       0.00000000 </v>
     <v>       0.00000000       0.13774104       0.00000000 </v>
     <v>       0.00000000       0.00000000       0.03609457 </v>
    </varray>
   </crystal>
   <varray name="positions" >
    <v>       0.00000000       0.00000000       0.00040409 </v>
    <v>       0.00000000       0.50000000       0.00041624 </v>
    <v>       0.50000000       0.00000000       0.00041624 </v>
    <v>       0.50000000       0.50000000       0.00041561 </v>
    <v>       0.25003455       0.25003455       0.00042390 </v>
    <v>       0.25003455       0.74996545       0.00042390 </v>
    <v>       0.74996545       0.25003455       0.00042390 </v>
    <v>       0.74996545       0.74996545       0.00042390 </v>
    <v>       0.00000000       0.25001798       0.06542783 </v>
    <v>       0.00000000       0.74998202       0.06542783 </v>
    <v>       0.50000000       0.24995990       0.06542507 </v>
    <v>       0.50000000       0.75004010       0.06542507 </v>
    <v>       0.25001798       0.00000000       0.06542783 </v>
    <v>       0.24995990       0.50000000       0.06542507 </v>
    <v>       0.74998202       0.00000000       0.06542783 </v>
    <v>       0.75004010       0.50000000       0.06542507 </v>
    <v>       0.00000000       0.00000000       0.13157423 </v>
    <v>       0.00000000       0.50000000       0.13156411 </v>
    <v>       0.50000000       0.00000000       0.13156411 </v>
    <v>       0.50000000       0.50000000       0.13152654 </v>
    <v>       0.25005351       0.25005351       0.13157744 </v>
    <v>       0.25005351       0.74994649       0.13157744 </v>
    <v>       0.74994649       0.25005351       0.13157744 </v>
    <v>       0.74994649       0.74994649       0.13157744 </v>
    <v>       0.00000000       0.25002872       0.19682805 </v>
    <v>       0.00000000       0.74997128       0.19682805 </v>
    <v>       0.50000000       0.25005666       0.19681731 </v>
    <v>       0.50000000       0.74994334       0.19681731 </v>
    <v>       0.25002872       0.00000000       0.19682805 </v>
    <v>       0.25005666       0.50000000       0.19681731 </v>
    <v>       0.74997128       0.00000000       0.19682805 </v>
    <v>       0.74994334       0.50000000       0.19681731 </v>
    <v>       0.00000000       0.00000000       0.26186003 </v>
    <v>       0.00000000       0.50000000       0.26180924 </v>
    <v>       0.50000000       0.00000000       0.26180924 </v>
    <v>       0.50000000       0.50000000       0.26191264 </v>
    <v>       0.25000369       0.25000369       0.26188279 </v>
    <v>       0.25000369       0.74999631       0.26188279 </v>
    <v>       0.74999631       0.25000369       0.26188279 </v>
    <v>       0.74999631       0.74999631       0.26188279 </v>
    <v>       0.00000000       0.25000403       0.32733038 </v>
    <v>       0.00000000       0.74999597       0.32733038 </v>
    <v>       0.50000000       0.24988987       0.32729669 </v>
    <v>       0.50000000       0.75011013       0.32729669 </v>
    <v>       0.25000403       0.00000000       0.32733038 </v>
    <v>       0.24988987       0.50000000       0.32729669 </v>
    <v>       0.74999597       0.00000000       0.32733038 </v>
    <v>       0.75011013       0.50000000       0.32729669 </v>
    <v>       0.00000000       0.00000000       0.39182082 </v>
    <v>       0.00000000       0.50000000       0.39186268 </v>
    <v>       0.50000000       0.00000000       0.39186268 </v>
    <v>       0.50000000       0.50000000       0.39162841 </v>
    <v>       0.25008539       0.25008539       0.39188344 </v>
    <v>       0.25008539       0.74991461       0.39188344 </v>
    <v>       0.74991461       0.25008539       0.39188344 </v>
    <v>       0.74991461       0.74991461       0.39188344 </v>
    <v>       0.00000000       0.25005513       0.45474148 </v>
    <v>       0.00000000       0.74994487       0.45474148 </v>
    <v>       0.50000000       0.24847617       0.45449738 </v>
    <v>       0.50000000       0.75152383       0.45449738 </v>
    <v>       0.25005513       0.00000000       0.45474148 </v>
    <v>       0.24847617       0.50000000       0.45449738 </v>
    <v>       0.74994487       0.00000000       0.45474148 </v>
    <v>       0.75152383       0.50000000       0.45449738 </v>
    <v>       0.50000000       0.50000000       0.50040828 </v>
    <v>       0.50000000       0.50000000       0.53039640 </v>
   </varray>
  </structure>
  <varray name="forces" >
   <v>      -0.00000000      -0.00000000       0.26660682 </v>
   <v>      -0.00000000      -0.00000000       0.27287050 </v>
   <v>      -0.00000000      -0.00000000       0.27287050 </v>
   <v>      -0.00000000      -0.00000000       0.27285760 </v>
   <v>       0.00570059       0.00570059       0.27856978 </v>
   <v>       0.00570059      -0.00570059       0.27856978 </v>
   <v>      -0.00570059       0.00570059       0.27856978 </v>
   <v>      -0.00570059      -0.00570059       0.27856978 </v>
   <v>      -0.00000000       0.00219501      -0.02094702 </v>
   <v>      -0.00000000      -0.00219501      -0.02094702 </v>
   <v>      -0.00000000      -0.00697248      -0.02342494 </v>
   <v>      -0.00000000       0.00697248      -0.02342494 </v>
   <v>       0.00219501      -0.00000000      -0.02094702 </v>
   <v>      -0.00697248      -0.00000000      -0.02342494 </v>
   <v>      -0.00219501      -0.00000000      -0.02094702 </v>
   <v>       0.00697248      -0.00000000      -0.02342494 </v>
   <v>      -0.00000000      -0.00000000      -0.03289026 </v>
   <v>      -0.00000000      -0.00000000      -0.03916572 </v>
   <v>      -0.00000000      -0.00000000      -0.03916572 </v>
   <v>      -0.00000000      -0.00000000      -0.06543202 </v>
   <v>       0.00782413       0.00782413      -0.03283620 </v>
   <v>       0.00782413      -0.00782413      -0.03283620 </v>
   <v>      -0.00782413       0.00782413      -0.03283620 </v>
   <v>      -0.00782413      -0.00782413      -0.03283620 </v>
   <v>      -0.00000000       0.00468879       0.02603560 </v>
   <v>      -0.00000000      -0.00468879       0.02603560 </v>
   <v>      -0.00000000       0.01114171       0.02046332 </v>
   <v>      -0.00000000      -0.01114171       0.02046332 </v>
   <v>       0.00468879      -0.00000000       0.02603560 </v>
   <v>       0.01114171      -0.00000000       0.02046332 </v>
   <v>      -0.00468879      -0.00000000       0.02603560 </v>
   <v>      -0.01114171      -0.00000000       0.02046332 </v>
   <v>      -0.00000000      -0.00000000      -0.00843565 </v>
   <v>      -0.00000000      -0.00000000      -0.04113897 </v>
   <v>      -0.00000000      -0.00000000      -0.04113897 </v>
   <v>      -0.00000000      -0.00000000       0.02695337 </v>
   <v>      -0.00038270      -0.00038270       0.00351227 </v>
   <v>      -0.00038270       0.00038270       0.00351227 </v>
   <v>       0.00038270      -0.00038270       0.00351227 </v>
   <v>       0.00038270       0.00038270       0.00351227 </v>
   <v>      -0.00000000       0.00036062      -0.15136895 </v>
   <v>      -0.00000000      -0.00036062      -0.15136895 </v>
   <v>      -0.00000000      -0.02514104      -0.17648000 </v>
   <v>      -0.00000000       0.02514104      -0.17648000 </v>
   <v>       0.00036062      -0.00000000      -0.15136895 </v>
   <v>      -0.02514104      -0.00000000      -0.17648000 </v>
   <v>      -0.00036062      -0.00000000      -0.15136895 </v>
   <v>       0.02514104      -0.00000000      -0.17648000 </v>
   <v>      -0.00000000      -0.00000000      -0.04403168 </v>
   <v>      -0.00000000      -0.00000000      -0.05285305 </v>
   <v>      -0.00000000      -0.00000000      -0.05285305 </v>
   <v>      -0.00000000      -0.00000000      -0.15015691 </v>
   <v>       0.00611735       0.00611735      -0.02823772 </v>
   <v>       0.00611735      -0.00611735      -0.02823772 </v>
   <v>      -0.00611735       0.00611735      -0.02823772 </v>
   <v>      -0.00611735      -0.00611735      -0.02823772 </v>
   <v>      -0.00000000      -0.00895711      -0.01398073 </v>
   <v>      -0.00000000       0.00895711      -0.01398073 </v>
   <v>      -0.00000000      -0.18751250      -0.13906662 </v>
   <v>      -0.00000000       0.18751250      -0.13906662 </v>
   <v>      -0.00895711      -0.00000000      -0.01398073 </v>
   <v>      -0.18751250      -0.00000000      -0.13906662 </v>
   <v>       0.00895711      -0.00000000      -0.01398073 </v>
   <v>       0.18751250      -0.00000000      -0.13906662 </v>
   <v>      -0.00000000      -0.00000000       0.84392025 </v>
   <v>      -0.00000000      -0.00000000      -0.35777216 </v>
  </varray>
  <varray name="stress" >
   <v>     -45.08977767       0.00000000       0.00000000 </v>
   <v>       0.00000000     -45.08977767       0.00000000 </v>
   <v>       0.00000000       0.00000000     -25.12391657 </v>
  </varray>
  <energy>
   <i name="e_fr_energy">   -261.46777695 </i>
   <i name="e_wo_entrp">   -261.25727692 </i>
   <i name="e_0_energy">   -261.39761028 </i>
  </energy>
  <time name="totalsc">  238.44  240.89</time>
 </calculation>
 <calculation>
  <scstep>
   <time name="dav">   35.39   35.87</time>
   <time name="total">   36.21   36.69</time>
   <energy>
    <i name="alphaZ">   2059.53800561 </i>
    <i name="ewald"> 389355.95706374 </i>
    <i name="hartreedc">-475903.54120238 </i>
    <i name="XCdc">   2859.03679175 </i>
    <i name="pawpsdc">  83703.16261559 </i>
    <i name="pawaedc"> -90595.92690301 </i>
    <i name="eentropy">     -0.21012935 </i>
    <i name="bandstr">   -759.26201938 </i>
    <i name="atom">  89046.24623812 </i>
    <i name="e_fr_energy">   -234.99953931 </i>
    <i name="e_wo_entrp">   -234.78940996 </i>
    <i name="e_0_energy">   -234.92949619 </i>
   </energy>
  </scstep>
  <scstep>
   <time name="dav">   43.86   44.12</time>
   <time name="total">   44.66   44.92</time>
   <energy>
    <i name="e_fr_energy">   -235.05706430 </i>
    <i name="e_wo_entrp">   -234.84681874 </i>
    <i name="e_0_energy">   -234.98698245 </i>
   </energy>
  </scstep>
  <scstep>
   <time name="dav">   35.52   35.86</time>
   <time name="total">   36.33   36.68</time>
   <energy>
    <i name="e_fr_energy">   -235.05389080 </i>
    <i name="e_wo_entrp">   -234.84318261 </i>
    <i name="e_0_energy">   -234.98365474 </i>
   </energy>
  </scstep>
  <scstep>
   <time name="dav">   35.91   36.27</time>
   <time name="total">   36.71   37.07</time>
   <energy>
    <i name="e_fr_energy">   -235.05378640 </i>
    <i name="e_wo_entrp">   -234.84446401 </i>
    <i name="e_0_energy">   -234.98401227 </i>
   </energy>
  </scstep>
  <scstep>
   <time name="dav">   37.76   38.03</time>
   <time name="total">   38.60   38.87</time>
   <energy>
    <i name="e_fr_energy">   -235.05328242 </i>
    <i name="e_wo_entrp">   -234.84278287 </i>
    <i name="e_0_energy">   -234.98311590 </i>
   </energy>
  </scstep>
  <scstep>
   <time name="dav">   35.33   35.58</time>
   <time name="total">   36.13   36.38</time>
   <energy>
    <i name="e_fr_energy">   -235.05278859 </i>
    <i name="e_wo_entrp">   -234.84296346 </i>
    <i name="e_0_energy">   -234.98284688 </i>
   </energy>
  </scstep>
  <scstep>
   <time name="dav">   40.28   40.51</time>
   <time name="total">   41.85   42.18</time>
   <energy>
    <i name="e_fr_energy">   -235.05192127 </i>
    <i name="e_wo_entrp">   -234.84229704 </i>
    <i name="e_0_energy">   -234.98204653 </i>
   </energy>
  </scstep>
  <scstep>
   <time name="dav">   33.92   34.27</time>
   <time name="total">   34.05   34.40</time>
   <energy>
    <i name="alphaZ">   2059.53800561 </i>
    <i name="ewald"> 389355.95706374 </i>
    <i name="hartreedc">-475904.72410153 </i>
    <i name="XCdc">   2858.96659847 </i>
    <i name="pawpsdc">  83739.59294016 </i>
    <i name="pawaedc"> -90633.17468078 </i>
    <i name="eentropy">     -0.20987449 </i>
    <i name="bandstr">   -757.24414787 </i>
    <i name="atom">  89046.24623812 </i>
    <i name="e_fr_energy">   -235.05195855 </i>
[...]
       <r>    12.8889     0.0000   456.0000 </r>
       <r>    12.9652     0.0000   456.0000 </r>
       <r>    13.0416     0.0000   456.0000 </r>
       <r>    13.1179     0.0000   456.0000 </r>
       <r>    13.1942     0.0000   456.0000 </r>
       <r>    13.2705     0.0000   456.0000 </r>
       <r>    13.3469     0.0000   456.0000 </r>
      </set>
      <set comment="spin 2">
       <r>    -9.5507     0.0000     0.0000 </r>
       <r>    -9.4743     0.0000     0.0000 </r>
       <r>    -9.3980     0.0000     0.0000 </r>
       <r>    -9.3217     0.0000     0.0000 </r>
       <r>    -9.2454     0.0000     0.0000 </r>
       <r>    -9.1690    -0.0000    -0.0000 </r>
       <r>    -9.0927    -0.0000    -0.0000 </r>
       <r>    -9.0164    -0.0000    -0.0000 </r>
       <r>    -8.9401    -0.0000    -0.0000 </r>
       <r>    -8.8637    -0.0000    -0.0000 </r>
       <r>    -8.7874    -0.0000    -0.0000 </r>
       <r>    -8.7111    -0.0000    -0.0000 </r>
       <r>    -8.6348    -0.0000    -0.0000 </r>
       <r>    -8.5584    -0.0000    -0.0000 </r>
       <r>    -8.4821    -0.0000    -0.0000 </r>
       <r>    -8.4058    -0.0000    -0.0000 </r>
       <r>    -8.3295    -0.0000    -0.0000 </r>
       <r>    -8.2531    -0.0000    -0.0000 </r>
       <r>    -8.1768    -0.0001    -0.0000 </r>
       <r>    -8.1005    -0.0005    -0.0000 </r>
       <r>    -8.0242    -0.0025    -0.0002 </r>
       <r>    -7.9478    -0.0092    -0.0009 </r>
       <r>    -7.8715    -0.0212    -0.0026 </r>
       <r>    -7.7952    -0.0193    -0.0040 </r>
       <r>    -7.7189     0.0461    -0.0005 </r>
       <r>    -7.6425     0.1978     0.0146 </r>
       <r>    -7.5662     0.3413     0.0406 </r>
       <r>    -7.4899     0.3548     0.0677 </r>
       <r>    -7.4136     0.3641     0.0955 </r>
       <r>    -7.3372     0.6989     0.1489 </r>
       <r>    -7.2609     1.3377     0.2510 </r>
       <r>    -7.1846     1.7284     0.3829 </r>
       <r>    -7.1083     1.5845     0.5038 </r>
       <r>    -7.0319     1.4121     0.6116 </r>
       <r>    -6.9556     1.6835     0.7401 </r>
       <r>    -6.8793     2.0748     0.8985 </r>
       <r>    -6.8030     2.1406     1.0618 </r>
       <r>    -6.7266     2.0107     1.2153 </r>
       <r>    -6.6503     1.8324     1.3552 </r>
       <r>    -6.5740     1.4435     1.4653 </r>
       <r>    -6.4977     1.1000     1.5493 </r>
       <r>    -6.4213     1.4886     1.6629 </r>
       <r>    -6.3450     2.5611     1.8584 </r>
       <r>    -6.2687     3.2644     2.1075 </r>
       <r>    -6.1924     2.9262     2.3309 </r>
       <r>    -6.1160     2.3060     2.5069 </r>
       <r>    -6.0397     2.6432     2.7086 </r>
       <r>    -5.9634     3.9392     3.0093 </r>
       <r>    -5.8871     4.9454     3.3868 </r>
       <r>    -5.8107     4.7872     3.7521 </r>
       <r>    -5.7344     3.8375     4.0450 </r>
       <r>    -5.6581     3.1422     4.2849 </r>
       <r>    -5.5818     3.4805     4.5505 </r>
       <r>    -5.5054     4.5102     4.8948 </r>
       <r>    -5.4291     4.8126     5.2621 </r>
       <r>    -5.3528     3.5544     5.5334 </r>
       <r>    -5.2765     1.7416     5.6663 </r>
       <r>    -5.2001     1.0058     5.7431 </r>
       <r>    -5.1238     1.6626     5.8700 </r>
       <r>    -5.0475     2.7379     6.0789 </r>
       <r>    -4.9712     3.5837     6.3525 </r>
       <r>    -4.8948     4.6731     6.7091 </r>
       <r>    -4.8185     6.5535     7.2093 </r>
       <r>    -4.7422     8.6448     7.8692 </r>
       <r>    -4.6659     9.7220     8.6112 </r>
       <r>    -4.5895     9.2236     9.3152 </r>
       <r>    -4.5132     7.7255     9.9048 </r>
       <r>    -4.4369     6.4655    10.3983 </r>
       <r>    -4.3606     6.1935    10.8710 </r>
       <r>    -4.2842     6.4827    11.3658 </r>
       <r>    -4.2079     6.6262    11.8716 </r>
       <r>    -4.1316     6.4962    12.3674 </r>
       <r>    -4.0553     6.4235    12.8577 </r>
       <r>    -3.9789     6.9710    13.3897 </r>
       <r>    -3.9026     8.2399    14.0186 </r>
       <r>    -3.8263     9.6388    14.7543 </r>
       <r>    -3.7500    11.0187    15.5953 </r>
       <r>    -3.6736    12.6088    16.5577 </r>
       <r>    -3.5973    13.7958    17.6107 </r>
       <r>    -3.5210    13.7552    18.6605 </r>
       <r>    -3.4447    12.6388    19.6252 </r>
       <r>    -3.3683    11.3262    20.4897 </r>
       <r>    -3.2920    11.4060    21.3602 </r>
       <r>    -3.2157    15.2547    22.5245 </r>
       <r>    -3.1394    23.8200    24.3426 </r>
       <r>    -3.0630    33.6054    26.9075 </r>
       <r>    -2.9867    38.2946    29.8304 </r>
       <r>    -2.9104    35.8034    32.5631 </r>
       <r>    -2.8341    31.7622    34.9873 </r>
       <r>    -2.7577    32.8484    37.4945 </r>
       <r>    -2.6814    38.8650    40.4609 </r>
       <r>    -2.6051    45.2941    43.9179 </r>
       <r>    -2.5288    51.6825    47.8626 </r>
       <r>    -2.4524    61.8629    52.5843 </r>
       <r>    -2.3761    74.8609    58.2981 </r>
       <r>    -2.2998    81.4552    64.5152 </r>
       <r>    -2.2235    74.7400    70.2197 </r>
       <r>    -2.1471    60.5099    74.8381 </r>
       <r>    -2.0708    51.3925    78.7607 </r>
       <r>    -1.9945    53.2323    82.8236 </r>
       <r>    -1.9182    61.8733    87.5461 </r>
       <r>    -1.8418    70.1680    92.9017 </r>
       <r>    -1.7655    73.9519    98.5461 </r>
       <r>    -1.6892    73.8009   104.1789 </r>
       <r>    -1.6129    74.2237   109.8441 </r>
       <r>    -1.5365    79.6885   115.9263 </r>
       <r>    -1.4602    90.0153   122.7967 </r>
       <r>    -1.3839   100.3674   130.4573 </r>
       <r>    -1.3076   106.2820   138.5693 </r>
       <r>    -1.2312   108.2788   146.8337 </r>
       <r>    -1.1549   109.3542   155.1802 </r>
       <r>    -1.0786   108.8567   163.4887 </r>
       <r>    -1.0023   104.4682   171.4622 </r>
       <r>    -0.9259    98.2013   178.9574 </r>
       <r>    -0.8496    93.7142   186.1102 </r>
       <r>    -0.7733    92.4289   193.1648 </r>
       <r>    -0.6970    96.2129   200.5083 </r>
       <r>    -0.6206   105.7175   208.5772 </r>
       <r>    -0.5443   115.4192   217.3866 </r>
       <r>    -0.4680   118.6566   226.4431 </r>
       <r>    -0.3917   116.2671   235.3172 </r>
       <r>    -0.3153   114.0256   244.0202 </r>
       <r>    -0.2390   114.1599   252.7335 </r>
       <r>    -0.1627   115.4440   261.5447 </r>
       <r>    -0.0864   119.9298   270.6984 </r>
       <r>    -0.0100   132.4849   280.8103 </r>
       <r>     0.0663   151.0399   292.3385 </r>
       <r>     0.1426   162.7154   304.7577 </r>
       <r>     0.2189   154.2799   316.5332 </r>
       <r>     0.2953   124.0475   326.0011 </r>
       <r>     0.3716    82.9590   332.3330 </r>
       <r>     0.4479    46.6583   335.8942 </r>
       <r>     0.5242    24.6602   337.7764 </r>
       <r>     0.6006    15.6902   338.9739 </r>
       <r>     0.6769    13.5933   340.0114 </r>
       <r>     0.7532    13.9278   341.0745 </r>
       <r>     0.8295    14.5471   342.1848 </r>
       <r>     0.9059    15.0038   343.3299 </r>
       <r>     0.9822    15.7555   344.5325 </r>
       <r>     1.0585    15.8867   345.7450 </r>
       <r>     1.1348    13.6812   346.7893 </r>
       <r>     1.2112     9.6487   347.5257 </r>
       <r>     1.2875     6.0163   347.9849 </r>
       <r>     1.3638     3.8570   348.2793 </r>
       <r>     1.4402     2.7762   348.4912 </r>
       <r>     1.5165     2.4943   348.6816 </r>
       <r>     1.5928     3.5805   348.9548 </r>
       <r>     1.6691     6.9226   349.4832 </r>
       <r>     1.7455    12.7328   350.4550 </r>
       <r>     1.8218    19.5613   351.9481 </r>
       <r>     1.8981    23.8395   353.7676 </r>
       <r>     1.9744    21.8810   355.4377 </r>
       <r>     2.0508    14.0533   356.5103 </r>
       <r>     2.1271     5.5538   356.9342 </r>
       <r>     2.2034     1.5813   357.0549 </r>
       <r>     2.2797     2.8154   357.2698 </r>
       <r>     2.3561     5.9209   357.7217 </r>
       <r>     2.4324     7.6230   358.3035 </r>
       <r>     2.5087     7.7827   358.8975 </r>
       <r>     2.5850     8.1779   359.5217 </r>
       <r>     2.6614     9.5754   360.2525 </r>
       <r>     2.7377    11.0982   361.0996 </r>
       <r>     2.8140    11.1839   361.9532 </r>
       <r>     2.8903     9.1206   362.6494 </r>
       <r>     2.9667     6.7179   363.1621 </r>
       <r>     3.0430     7.1867   363.7106 </r>
       <r>     3.1193    11.2978   364.5729 </r>
       <r>     3.1956    15.9800   365.7926 </r>
       <r>     3.2720    17.3613   367.1177 </r>
       <r>     3.3483    14.3012   368.2093 </r>
       <r>     3.4246     8.7698   368.8786 </r>
       <r>     3.5009     3.8033   369.1689 </r>
       <r>     3.5773     1.7770   369.3045 </r>
       <r>     3.6536     3.6102   369.5801 </r>
       <r>     3.7299     7.9875   370.1897 </r>
       <r>     3.8062    11.5574   371.0718 </r>
       <r>     3.8826    11.4552   371.9462 </r>
       <r>     3.9589     8.0867   372.5634 </r>
       <r>     4.0352     4.8092   372.9304 </r>
       <r>     4.1115     4.3929   373.2657 </r>
       <r>     4.1879     6.0842   373.7301 </r>
       <r>     4.2642     7.1619   374.2767 </r>
       <r>     4.3405     6.6824   374.7868 </r>
       <r>     4.4168     5.7110   375.2227 </r>
       <r>     4.4932     5.2120   375.6205 </r>
       <r>     4.5695     6.0318   376.0809 </r>
       <r>     4.6458     8.8840   376.7589 </r>
       <r>     4.7221    12.3666   377.7028 </r>
       <r>     4.7985    13.4528   378.7296 </r>
       <r>     4.8748    11.3249   379.5940 </r>
       <r>     4.9511     8.4255   380.2371 </r>
       <r>     5.0274     7.1468   380.7825 </r>
       <r>     5.1038     7.5108   381.3558 </r>
       <r>     5.1801     8.2214   381.9833 </r>
       <r>     5.2564     8.4998   382.6320 </r>
       <r>     5.3327     8.8101   383.3045 </r>
       <r>     5.4091    10.0488   384.0715 </r>
       <r>     5.4854    11.5877   384.9559 </r>
       <r>     5.5617    11.2656   385.8157 </r>
       <r>     5.6380     8.5357   386.4672 </r>
       <r>     5.7144     5.6891   386.9014 </r>
       <r>     5.7907     4.8530   387.2718 </r>
       <r>     5.8670     5.7957   387.7142 </r>
       <r>     5.9433     7.2577   388.2681 </r>
       <r>     6.0197     8.6907   388.9315 </r>
       <r>     6.0960     9.8690   389.6847 </r>
       <r>     6.1723    10.1883   390.4623 </r>
       <r>     6.2486     9.6860   391.2016 </r>
       <r>     6.3250     9.8321   391.9521 </r>
       <r>     6.4013    12.0583   392.8724 </r>
       <r>     6.4776    15.5449   394.0589 </r>
       <r>     6.5539    17.2861   395.3782 </r>
       <r>     6.6303    15.5755   396.5670 </r>
       <r>     6.7066    12.8565   397.5483 </r>
       <r>     6.7829    12.6130   398.5110 </r>
       <r>     6.8592    14.0415   399.5827 </r>
       <r>     6.9356    13.2078   400.5908 </r>
       <r>     7.0119     9.0965   401.2851 </r>
       <r>     7.0882     5.0902   401.6736 </r>
       <r>     7.1645     4.4094   402.0102 </r>
       <r>     7.2409     6.7343   402.5242 </r>
       <r>     7.3172     9.5079   403.2499 </r>
       <r>     7.3935    10.8652   404.0791 </r>
       <r>     7.4698    10.9876   404.9178 </r>
       <r>     7.5462    11.1351   405.7677 </r>
       <r>     7.6225    11.8732   406.6739 </r>
       <r>     7.6988    13.1083   407.6744 </r>
       <r>     7.7751    15.3473   408.8458 </r>
       <r>     7.8515    18.5944   410.2650 </r>
       <r>     7.9278    20.1932   411.8062 </r>
       <r>     8.0041    17.1112   413.1122 </r>
       <r>     8.0804    10.5538   413.9178 </r>
       <r>     8.1568     5.7565   414.3571 </r>
       <r>     8.2331     7.0378   414.8943 </r>
       <r>     8.3094    13.3899   415.9163 </r>
       <r>     8.3857    18.7697   417.3489 </r>
       <r>     8.4621    18.0378   418.7256 </r>
       <r>     8.5384    12.4791   419.6781 </r>
       <r>     8.6147     7.4858   420.2494 </r>
       <r>     8.6910     6.2040   420.7230 </r>
       <r>     8.7674     8.1394   421.3442 </r>
       <r>     8.8437    11.8931   422.2520 </r>
       <r>     8.9200    15.8912   423.4648 </r>
       <r>     8.9963    17.8929   424.8305 </r>
       <r>     9.0727    16.9961   426.1278 </r>
       <r>     9.1490    15.1901   427.2871 </r>
       <r>     9.2253    14.7189   428.4106 </r>
       <r>     9.3016    15.3376   429.5812 </r>
       <r>     9.3780    15.5780   430.7702 </r>
       <r>     9.4543    15.0504   431.9189 </r>
       <r>     9.5306    14.3246   433.0123 </r>
       <r>     9.6069    13.5556   434.0469 </r>
       <r>     9.6833    12.5925   435.0080 </r>
       <r>     9.7596    12.1524   435.9355 </r>
       <r>     9.8359    13.0756   436.9335 </r>
       <r>     9.9122    14.4482   438.0363 </r>
       <r>     9.9886    14.3558   439.1320 </r>
       <r>    10.0649    12.6805   440.0999 </r>
       <r>    10.1412    11.7520   440.9968 </r>
       <r>    10.2175    13.7023   442.0427 </r>
       <r>    10.2939    17.9182   443.4103 </r>
       <r>    10.3702    21.4761   445.0494 </r>
       <r>    10.4465    21.6656   446.7031 </r>
       <r>    10.5228    18.2720   448.0977 </r>
       <r>    10.5992    13.7156   449.1445 </r>
       <r>    10.6755    10.5716   449.9514 </r>
       <r>    10.7518     9.2821   450.6599 </r>
       <r>    10.8281     8.9841   451.3456 </r>
       <r>    10.9045     9.3691   452.0607 </r>
       <r>    10.9808    10.2314   452.8416 </r>
       <r>    11.0571    10.4612   453.6400 </r>
       <r>    11.1334     9.2674   454.3474 </r>
       <r>    11.2098     7.4040   454.9125 </r>
       <r>    11.2861     5.9035   455.3631 </r>
       <r>    11.3624     4.6093   455.7149 </r>
       <r>    11.4387     2.9436   455.9395 </r>
       <r>    11.5151     1.1901   456.0304 </r>
       <r>    11.5914     0.0826   456.0367 </r>
       <r>    11.6677    -0.2335   456.0189 </r>
       <r>    11.7440    -0.1658   456.0062 </r>
       <r>    11.8204    -0.0626   456.0014 </r>
       <r>    11.8967    -0.0155   456.0002 </r>
       <r>    11.9730    -0.0027   456.0000 </r>
       <r>    12.0493    -0.0003   456.0000 </r>
       <r>    12.1257    -0.0000   456.0000 </r>
       <r>    12.2020    -0.0000   456.0000 </r>
       <r>    12.2783    -0.0000   456.0000 </r>
       <r>    12.3546    -0.0000   456.0000 </r>
       <r>    12.4310    -0.0000   456.0000 </r>
       <r>    12.5073    -0.0000   456.0000 </r>
       <r>    12.5836    -0.0000   456.0000 </r>
       <r>    12.6599     0.0000   456.0000 </r>
       <r>    12.7363     0.0000   456.0000 </r>
       <r>    12.8126     0.0000   456.0000 </r>
       <r>    12.8889     0.0000   456.0000 </r>
       <r>    12.9652     0.0000   456.0000 </r>
       <r>    13.0416     0.0000   456.0000 </r>
       <r>    13.1179     0.0000   456.0000 </r>
       <r>    13.1942     0.0000   456.0000 </r>
       <r>    13.2705     0.0000   456.0000 </r>
       <r>    13.3469     0.0000   456.0000 </r>
      </set>
     </set>
    </array>
   </total>
  </dos>
 </calculation>
 <structure name="finalpos" >
  <crystal>
   <varray name="basis" >
    <v>       7.26000023       0.00000000       0.00000000 </v>
    <v>       0.00000000       7.26000023       0.00000000 </v>
    <v>       0.00000000       0.00000000      27.70499992 </v>
   </varray>
   <i name="volume">   1460.26414606 </i>
   <varray name="rec_basis" >
    <v>       0.13774104       0.00000000       0.00000000 </v>
    <v>       0.00000000       0.13774104       0.00000000 </v>
    <v>       0.00000000       0.00000000       0.03609457 </v>
   </varray>
  </crystal>
  <varray name="positions" >
   <v>      -0.00000000      -0.00000000       0.00791370 </v>
   <v>      -0.00000000       0.50000000       0.00789890 </v>
   <v>       0.50000000      -0.00000000       0.00789890 </v>
   <v>       0.50000000       0.50000000       0.00789019 </v>
   <v>       0.25006000       0.25006000       0.00791648 </v>
   <v>       0.25006000       0.74994000       0.00791648 </v>
   <v>       0.74994000       0.25006000       0.00791648 </v>
   <v>       0.74994000       0.74994000       0.00791648 </v>
   <v>      -0.00000000       0.25003151       0.07019379 </v>
   <v>      -0.00000000       0.74996849       0.07019379 </v>
   <v>       0.50000000       0.24991778       0.07018560 </v>
   <v>       0.50000000       0.75008222       0.07018560 </v>
   <v>       0.25003151      -0.00000000       0.07019379 </v>
   <v>       0.24991778       0.50000000       0.07018560 </v>
   <v>       0.74996849      -0.00000000       0.07019379 </v>
   <v>       0.75008222       0.50000000       0.07018560 </v>
   <v>      -0.00000000      -0.00000000       0.13381911 </v>
   <v>      -0.00000000       0.50000000       0.13374134 </v>
   <v>       0.50000000      -0.00000000       0.13374134 </v>
   <v>       0.50000000       0.50000000       0.13368252 </v>
   <v>       0.25003203       0.25003203       0.13376233 </v>
   <v>       0.25003203       0.74996797       0.13376233 </v>
   <v>       0.74996797       0.25003203       0.13376233 </v>
   <v>       0.74996797       0.74996797       0.13376233 </v>
   <v>      -0.00000000       0.25003246       0.19657488 </v>
   <v>      -0.00000000       0.74996754       0.19657488 </v>
   <v>       0.50000000       0.25023465       0.19658172 </v>
   <v>       0.50000000       0.74976535       0.19658172 </v>
   <v>       0.25003246      -0.00000000       0.19657488 </v>
   <v>       0.25023465       0.50000000       0.19658172 </v>
   <v>       0.74996754      -0.00000000       0.19657488 </v>
   <v>       0.74976535       0.50000000       0.19658172 </v>
   <v>      -0.00000000      -0.00000000       0.25912983 </v>
   <v>      -0.00000000       0.50000000       0.25908484 </v>
   <v>       0.50000000      -0.00000000       0.25908484 </v>
   <v>       0.50000000       0.50000000       0.25925442 </v>
   <v>       0.24992396       0.24992396       0.25915947 </v>
   <v>       0.24992396       0.75007604       0.25915947 </v>
   <v>       0.75007604       0.24992396       0.25915947 </v>
   <v>       0.75007604       0.75007604       0.25915947 </v>
   <v>      -0.00000000       0.24984944       0.32199052 </v>
   <v>      -0.00000000       0.75015056       0.32199052 </v>
   <v>       0.50000000       0.24981861       0.32189329 </v>
   <v>       0.50000000       0.75018139       0.32189329 </v>
   <v>       0.24984944      -0.00000000       0.32199052 </v>
   <v>       0.24981861       0.50000000       0.32189329 </v>
   <v>       0.75015056      -0.00000000       0.32199052 </v>
   <v>       0.75018139       0.50000000       0.32189329 </v>
   <v>      -0.00000000      -0.00000000       0.38568091 </v>
   <v>      -0.00000000       0.50000000       0.38567817 </v>
   <v>       0.50000000      -0.00000000       0.38567817 </v>
   <v>       0.50000000       0.50000000       0.38555740 </v>
   <v>       0.25003154       0.25003154       0.38568011 </v>
   <v>       0.25003154       0.74996846       0.38568011 </v>
   <v>       0.74996846       0.25003154       0.38568011 </v>
   <v>       0.74996846       0.74996846       0.38568011 </v>
   <v>      -0.00000000       0.24990245       0.44793298 </v>
   <v>      -0.00000000       0.75009755       0.44793298 </v>
   <v>       0.50000000       0.24932942       0.44770429 </v>
   <v>       0.50000000       0.75067058       0.44770429 </v>
   <v>       0.24990245      -0.00000000       0.44793298 </v>
   <v>       0.24932942       0.50000000       0.44770429 </v>
   <v>       0.75009755      -0.00000000       0.44793298 </v>
   <v>       0.75067058       0.50000000       0.44770429 </v>
   <v>       0.50000000       0.50000000       0.52916821 </v>
   <v>       0.50000000       0.50000000       0.55657390 </v>
  </varray>
 </structure>
</modeling>
