unknown system                          
           1
     7.260000    0.000000    0.000000
     0.000000    7.260000    0.000000
     0.000000    0.000000   27.705000
   Cu   H 
    64     2
Direct configuration=     1
   0.00000000  0.00000000  0.00000000
   0.00000000  0.50000000  0.00000000
   0.50000000  0.00000000  0.00000000
   0.50000000  0.50000000  0.00000000
   0.25000000  0.25000000  0.00000000
   0.25000000  0.75000000  0.00000000
   0.75000000  0.25000000  0.00000000
   0.75000000  0.75000000  0.00000000
   0.00000000  0.25000000  0.06551164
   0.00000000  0.75000000  0.06551164
   0.50000000  0.25000000  0.06551164
   0.50000000  0.75000000  0.06551164
   0.25000000  0.00000000  0.06551164
   0.25000000  0.50000000  0.06551164
   0.75000000  0.00000000  0.06551164
   0.75000000  0.50000000  0.06551164
   0.00000000  0.00000000  0.13164128
   0.00000000  0.50000000  0.13164128
   0.50000000  0.00000000  0.13164128
   0.50000000  0.50000000  0.13164128
   0.25000000  0.25000000  0.13164128
   0.25000000  0.75000000  0.13164128
   0.75000000  0.25000000  0.13164128
   0.75000000  0.75000000  0.13164128
   0.00000000  0.25000000  0.19677891
   0.00000000  0.75000000  0.19677891
   0.50000000  0.25000000  0.19677891
   0.50000000  0.75000000  0.19677891
   0.25000000  0.00000000  0.19677891
   0.25000000  0.50000000  0.19677891
   0.75000000  0.00000000  0.19677891
   0.75000000  0.50000000  0.19677891
   0.00000000  0.00000000  0.26184662
   0.00000000  0.50000000  0.26184662
   0.50000000  0.00000000  0.26184662
   0.50000000  0.50000000  0.26184662
   0.25000000  0.25000000  0.26184662
   0.25000000  0.75000000  0.26184662
   0.75000000  0.25000000  0.26184662
   0.75000000  0.75000000  0.26184662
   0.00000000  0.25000000  0.32758887
   0.00000000  0.75000000  0.32758887
   0.50000000  0.25000000  0.32758887
   0.50000000  0.75000000  0.32758887
   0.25000000  0.00000000  0.32758887
   0.25000000  0.50000000  0.32758887
   0.75000000  0.00000000  0.32758887
   0.75000000  0.50000000  0.32758887
   0.00000000  0.00000000  0.39185763
   0.00000000  0.50000000  0.39185763
   0.50000000  0.00000000  0.39185763
   0.50000000  0.50000000  0.39185763
   0.25000000  0.25000000  0.39185763
   0.25000000  0.75000000  0.39185763
   0.75000000  0.25000000  0.39185763
   0.75000000  0.75000000  0.39185763
   0.00000000  0.25000000  0.45475490
   0.00000000  0.75000000  0.45475490
   0.50000000  0.25000000  0.45475490
   0.50000000  0.75000000  0.45475490
   0.25000000  0.00000000  0.45475490
   0.25000000  0.50000000  0.45475490
   0.75000000  0.00000000  0.45475490
   0.75000000  0.50000000  0.45475490
   0.50000000  0.50000000  0.50150658
   0.50000000  0.50000000  0.52843313
Direct configuration=     2
   0.00000000  0.00000000  0.00052672
   0.00000000  0.50000000  0.00054256
   0.50000000  0.00000000  0.00054256
   0.50000000  0.50000000  0.00054173
   0.25004503  0.25004503  0.00055254
   0.25004503  0.74995497  0.00055254
   0.74995497  0.25004503  0.00055254
   0.74995497  0.74995497  0.00055254
   0.00000000  0.25002344  0.06540239
   0.00000000  0.74997656  0.06540239
   0.50000000  0.24994773  0.06539879
   0.50000000  0.75005227  0.06539879
   0.25002344  0.00000000  0.06540239
   0.24994773  0.50000000  0.06539879
   0.74997656  0.00000000  0.06540239
   0.75005227  0.50000000  0.06539879
   0.00000000  0.00000000  0.13155388
   0.00000000  0.50000000  0.13154069
   0.50000000  0.00000000  0.13154069
   0.50000000  0.50000000  0.13149171
   0.25006975  0.25006975  0.13155806
   0.25006975  0.74993025  0.13155806
   0.74993025  0.25006975  0.13155806
   0.74993025  0.74993025  0.13155806
   0.00000000  0.25003744  0.19684296
   0.00000000  0.74996256  0.19684296
   0.50000000  0.25007386  0.19682897
   0.50000000  0.74992614  0.19682897
   0.25003744  0.00000000  0.19684296
   0.25007386  0.50000000  0.19682897
   0.74996256  0.00000000  0.19684296
   0.74992614  0.50000000  0.19682897
   0.00000000  0.00000000  0.26186410
   0.00000000  0.50000000  0.26179789
   0.50000000  0.00000000  0.26179789
   0.50000000  0.50000000  0.26193267
   0.25000482  0.25000482  0.26189376
   0.25000482  0.74999518  0.26189376
   0.74999518  0.25000482  0.26189376
   0.74999518  0.74999518  0.26189376
   0.00000000  0.25000526  0.32725193
   0.00000000  0.74999474  0.32725193
   0.50000000  0.24985645  0.32720801
   0.50000000  0.75014355  0.32720801
   0.25000526  0.00000000  0.32725193
   0.24985645  0.50000000  0.32720801
   0.74999474  0.00000000  0.32725193
   0.75014355  0.50000000  0.32720801
   0.00000000  0.00000000  0.39180966
   0.00000000  0.50000000  0.39186421
   0.50000000  0.00000000  0.39186421
   0.50000000  0.50000000  0.39155885
   0.25011130  0.25011130  0.39189127
   0.25011130  0.74988870  0.39189127
   0.74988870  0.25011130  0.39189127
   0.74988870  0.74988870  0.39189127
   0.00000000  0.25007186  0.45473741
   0.00000000  0.74992814  0.45473741
   0.50000000  0.24801372  0.45441923
   0.50000000  0.75198628  0.45441923
   0.25007186  0.00000000  0.45473741
   0.24801372  0.50000000  0.45441923
   0.74992814  0.00000000  0.45473741
   0.75198628  0.50000000  0.45441923
   0.50000000  0.50000000  0.50007497
   0.50000000  0.50000000  0.53099222
Direct configuration=     3
   0.00000000  0.00000000  0.00040409
   0.00000000  0.50000000  0.00041624
   0.50000000  0.00000000  0.00041624
   0.50000000  0.50000000  0.00041561
   0.25003455  0.25003455  0.00042390
   0.25003455  0.74996545  0.00042390
   0.74996545  0.25003455  0.00042390
   0.74996545  0.74996545  0.00042390
   0.00000000  0.25001798  0.06542783
   0.00000000  0.74998202  0.06542783
   0.50000000  0.24995990  0.06542507
   0.50000000  0.75004010  0.06542507
   0.25001798  0.00000000  0.06542783
   0.24995990  0.50000000  0.06542507
   0.74998202  0.00000000  0.06542783
   0.75004010  0.50000000  0.06542507
   0.00000000  0.00000000  0.13157423
   0.00000000  0.50000000  0.13156411
   0.50000000  0.00000000  0.13156411
   0.50000000  0.50000000  0.13152654
   0.25005351  0.25005351  0.13157744
   0.25005351  0.74994649  0.13157744
   0.74994649  0.25005351  0.13157744
   0.74994649  0.74994649  0.13157744
   0.00000000  0.25002872  0.19682805
   0.00000000  0.74997128  0.19682805
   0.50000000  0.25005666  0.19681731
   0.50000000  0.74994334  0.19681731
   0.25002872  0.00000000  0.19682805
   0.25005666  0.50000000  0.19681731
   0.74997128  0.00000000  0.19682805
   0.74994334  0.50000000  0.19681731
   0.00000000  0.00000000  0.26186003
   0.00000000  0.50000000  0.26180924
   0.50000000  0.00000000  0.26180924
   0.50000000  0.50000000  0.26191264
   0.25000369  0.25000369  0.26188279
   0.25000369  0.74999631  0.26188279
   0.74999631  0.25000369  0.26188279
   0.74999631  0.74999631  0.26188279
   0.00000000  0.25000403  0.32733038
   0.00000000  0.74999597  0.32733038
   0.50000000  0.24988987  0.32729669
   0.50000000  0.75011013  0.32729669
   0.25000403  0.00000000  0.32733038
   0.24988987  0.50000000  0.32729669
   0.74999597  0.00000000  0.32733038
   0.75011013  0.50000000  0.32729669
   0.00000000  0.00000000  0.39182082
   0.00000000  0.50000000  0.39186268
   0.50000000  0.00000000  0.39186268
   0.50000000  0.50000000  0.39162841
   0.25008539  0.25008539  0.39188344
   0.25008539  0.74991461  0.39188344
   0.74991461  0.25008539  0.39188344
   0.74991461  0.74991461  0.39188344
   0.00000000  0.25005513  0.45474148
   0.00000000  0.74994487  0.45474148
   0.50000000  0.24847617  0.45449738
   0.50000000  0.75152383  0.45449738
   0.25005513  0.00000000  0.45474148
   0.24847617  0.50000000  0.45449738
   0.74994487  0.00000000  0.45474148
   0.75152383  0.50000000  0.45449738
   0.50000000  0.50000000  0.50040828
   0.50000000  0.50000000  0.53039640
Direct configuration=     4
  -0.00000000  0.00000000  0.00104425
  -0.00000000  0.50000000  0.00107274
   0.50000000  0.00000000  0.00107274
   0.50000000  0.50000000  0.00107177
   0.25008755  0.25008755  0.00109360
   0.25008755  0.74991245  0.00109360
   0.74991245  0.25008755  0.00109360
   0.74991245  0.74991245  0.00109360
  -0.00000000  0.25004068  0.06535208
  -0.00000000  0.74995932  0.06535208
   0.50000000  0.24989612  0.06534386
   0.50000000  0.75010388  0.06534386
   0.25004068  0.00000000  0.06535208
   0.24989612  0.50000000  0.06534386
   0.74995932  0.00000000  0.06535208
   0.75010388  0.50000000  0.06534386
  -0.00000000  0.00000000  0.13148684
  -0.00000000  0.50000000  0.13146136
   0.50000000  0.00000000  0.13146136
   0.50000000  0.50000000  0.13136181
   0.25012924  0.25012924  0.13149171
   0.25012924  0.74987076  0.13149171
   0.74987076  0.25012924  0.13149171
   0.74987076  0.74987076  0.13149171
  -0.00000000  0.25007247  0.19689529
  -0.00000000  0.74992753  0.19689529
   0.50000000  0.25015495  0.19687006
   0.50000000  0.74984505  0.19687006
   0.25007247  0.00000000  0.19689529
   0.25015495  0.50000000  0.19687006
   0.74992753  0.00000000  0.19689529
   0.74984505  0.50000000  0.19687006
  -0.00000000  0.00000000  0.26185258
  -0.00000000  0.50000000  0.26172266
   0.50000000  0.00000000  0.26172266
   0.50000000  0.50000000  0.26198965
   0.25000308  0.25000308  0.26190630
   0.25000308  0.74999692  0.26190630
   0.74999692  0.25000308  0.26190630
   0.74999692  0.74999692  0.26190630
  -0.00000000  0.25000829  0.32695271
  -0.00000000  0.74999171  0.32695271
   0.50000000  0.24967675  0.32686086
   0.50000000  0.75032325  0.32686086
   0.25000829  0.00000000  0.32695271
   0.24967675  0.50000000  0.32686086
   0.74999171  0.00000000  0.32695271
   0.75032325  0.50000000  0.32686086
  -0.00000000  0.00000000  0.39172973
  -0.00000000  0.50000000  0.39177740
   0.50000000  0.00000000  0.39177740
   0.50000000  0.50000000  0.39126707
   0.25016588  0.25016588  0.39184917
   0.25016588  0.74983412  0.39184917
   0.74983412  0.25016588  0.39184917
   0.74983412  0.74983412  0.39184917
  -0.00000000  0.25002533  0.45471171
  -0.00000000  0.74997467  0.45471171
   0.50000000  0.24654326  0.45414061
   0.50000000  0.75345674  0.45414061
   0.25002533  0.00000000  0.45471171
   0.24654326  0.50000000  0.45414061
   0.74997467  0.00000000  0.45471171
   0.75345674  0.50000000  0.45414061
   0.50000000  0.50000000  0.50127248
   0.50000000  0.50000000  0.53076215
Direct configuration=     5
  -0.00000000 -0.00000000  0.00215849
  -0.00000000  0.50000000  0.00221543
   0.50000000 -0.00000000  0.00221543
   0.50000000  0.50000000  0.00221388
   0.25017981  0.25017981  0.00225927
   0.25017981  0.74982019  0.00225927
   0.74982019  0.25017981  0.00225927
   0.74982019  0.74982019  0.00225927
  -0.00000000  0.25008019  0.06522024
  -0.00000000  0.74991981  0.06522024
   0.50000000  0.24978511  0.06520250
   0.50000000  0.75021489  0.06520250
   0.25008019 -0.00000000  0.06522024
   0.24978511  0.50000000  0.06520250
   0.74991981 -0.00000000  0.06522024
   0.75021489  0.50000000  0.06520250
  -0.00000000 -0.00000000  0.13133475
  -0.00000000  0.50000000  0.13128252
   0.50000000 -0.00000000  0.13128252
   0.50000000  0.50000000  0.13107510
   0.25026105  0.25026105  0.13134250
   0.25026105  0.74973895  0.13134250
   0.74973895  0.25026105  0.13134250
   0.74973895  0.74973895  0.13134250
  -0.00000000  0.25014861  0.19701233
  -0.00000000  0.74985139  0.19701233
   0.50000000  0.25032603  0.19696186
   0.50000000  0.74967397  0.19696186
   0.25014861 -0.00000000  0.19701233
   0.25032603  0.50000000  0.19696186
   0.74985139 -0.00000000  0.19701233
   0.74967397  0.50000000  0.19696186
  -0.00000000 -0.00000000  0.26183962
  -0.00000000  0.50000000  0.26157197
   0.50000000 -0.00000000  0.26157197
   0.50000000  0.50000000  0.26212371
   0.25000200  0.25000200  0.26194722
   0.25000200  0.74999800  0.26194722
   0.74999800  0.25000200  0.26194722
   0.74999800  0.74999800  0.26194722
  -0.00000000  0.25001569  0.32629536
  -0.00000000  0.74998430  0.32629536
   0.50000000  0.24930580  0.32610227
   0.50000000  0.75069420  0.32610227
   0.25001569 -0.00000000  0.32629536
   0.24930580  0.50000000  0.32610227
   0.74998430 -0.00000000  0.32629536
   0.75069420  0.50000000  0.32610227
  -0.00000000 -0.00000000  0.39157118
  -0.00000000  0.50000000  0.39162896
   0.50000000 -0.00000000  0.39162896
   0.50000000  0.50000000  0.39063813
   0.25030599  0.25030599  0.39178954
   0.25030599  0.74969401  0.39178954
   0.74969401  0.25030599  0.39178954
   0.74969401  0.74969401  0.39178954
  -0.00000000  0.24997347  0.45465990
  -0.00000000  0.75002653  0.45465990
   0.50000000  0.24317890  0.45351964
   0.50000000  0.75682110  0.45351964
   0.24997347 -0.00000000  0.45465990
   0.24317890  0.50000000  0.45351964
   0.75002653 -0.00000000  0.45465990
   0.75682110  0.50000000  0.45351964
   0.50000000  0.50000000  0.50277667
   0.50000000  0.50000000  0.53139876
Direct configuration=     6
  -0.00000000 -0.00000000  0.00239468
  -0.00000000  0.50000000  0.00245765
   0.50000000 -0.00000000  0.00245765
   0.50000000  0.50000000  0.00245598
   0.25019936  0.25019936  0.00250637
   0.25019936  0.74980064  0.00250637
   0.74980064  0.25019936  0.00250637
   0.74980064  0.74980064  0.00250637
  -0.00000000  0.25008856  0.06519229
  -0.00000000  0.74991144  0.06519229
   0.50000000  0.24976158  0.06517254
   0.50000000  0.75023842  0.06517254
   0.25008856 -0.00000000  0.06519229
   0.24976158  0.50000000  0.06517254
   0.74991144 -0.00000000  0.06519229
   0.75023842  0.50000000  0.06517254
  -0.00000000 -0.00000000  0.13130251
  -0.00000000  0.50000000  0.13124461
   0.50000000 -0.00000000  0.13124461
   0.50000000  0.50000000  0.13101432
   0.25028899  0.25028899  0.13131087
   0.25028899  0.74971101  0.13131087
   0.74971101  0.25028899  0.13131087
   0.74971101  0.74971101  0.13131087
  -0.00000000  0.25016475  0.19703714
  -0.00000000  0.74983525  0.19703714
   0.50000000  0.25036229  0.19698132
   0.50000000  0.74963771  0.19698132
   0.25016475 -0.00000000  0.19703714
   0.25036229  0.50000000  0.19698132
   0.74983525 -0.00000000  0.19703714
   0.74963771  0.50000000  0.19698132
  -0.00000000 -0.00000000  0.26183687
  -0.00000000  0.50000000  0.26154002
   0.50000000 -0.00000000  0.26154002
   0.50000000  0.50000000  0.26215213
   0.25000177  0.25000177  0.26195589
   0.25000177  0.74999823  0.26195589
   0.74999823  0.25000177  0.26195589
   0.74999823  0.74999823  0.26195589
  -0.00000000  0.25001727  0.32615601
  -0.00000000  0.74998273  0.32615601
   0.50000000  0.24922717  0.32594147
   0.50000000  0.75077283  0.32594147
   0.25001727 -0.00000000  0.32615601
   0.24922717  0.50000000  0.32594147
   0.74998273 -0.00000000  0.32615601
   0.75077283  0.50000000  0.32594147
  -0.00000000 -0.00000000  0.39153757
  -0.00000000  0.50000000  0.39159750
   0.50000000 -0.00000000  0.39159750
   0.50000000  0.50000000  0.39050481
   0.25033569  0.25033569  0.39177689
   0.25033569  0.74966431  0.39177689
   0.74966431  0.25033569  0.39177689
   0.74966431  0.74966431  0.39177689
  -0.00000000  0.24996247  0.45464892
  -0.00000000  0.75003753  0.45464892
   0.50000000  0.24246572  0.45338800
   0.50000000  0.75753428  0.45338800
   0.24996247 -0.00000000  0.45464892
   0.24246572  0.50000000  0.45338800
   0.75003753 -0.00000000  0.45464892
   0.75753428  0.50000000  0.45338800
   0.50000000  0.50000000  0.50309553
   0.50000000  0.50000000  0.53153371
Direct configuration=     7
  -0.00000000 -0.00000000  0.00293348
  -0.00000000  0.50000000  0.00299279
   0.50000000 -0.00000000  0.00299279
   0.50000000  0.50000000  0.00300823
   0.25021215  0.25021215  0.00305703
   0.25021215  0.74978785  0.00305703
   0.74978785  0.25021215  0.00305703
   0.74978785  0.74978785  0.00305703
  -0.00000000  0.25004311  0.06562059
  -0.00000000  0.74995689  0.06562059
   0.50000000  0.24972514  0.06558586
   0.50000000  0.75027486  0.06558586
   0.25004311 -0.00000000  0.06562059
   0.24972514  0.50000000  0.06558586
   0.74995689 -0.00000000  0.06562059
   0.75027486  0.50000000  0.06558586
  -0.00000000 -0.00000000  0.13133953
  -0.00000000  0.50000000  0.13128875
   0.50000000 -0.00000000  0.13128875
   0.50000000  0.50000000  0.13098142
   0.25028003  0.25028003  0.13134085
   0.25028003  0.74971997  0.13134085
   0.74971997  0.25028003  0.13134085
   0.74971997  0.74971997  0.13134085
  -0.00000000  0.25016021  0.19693088
  -0.00000000  0.74983979  0.19693088
   0.50000000  0.25048285  0.19688049
   0.50000000  0.74951715  0.19688049
   0.25016021 -0.00000000  0.19693088
   0.25048285  0.50000000  0.19688049
   0.74983979 -0.00000000  0.19693088
   0.74951715  0.50000000  0.19688049
  -0.00000000 -0.00000000  0.26158366
  -0.00000000  0.50000000  0.26121864
   0.50000000 -0.00000000  0.26121864
   0.50000000  0.50000000  0.26193605
   0.24996568  0.24996568  0.26167682
   0.24996568  0.75003432  0.26167682
   0.75003432  0.24996568  0.26167682
   0.75003432  0.75003432  0.26167682
  -0.00000000  0.24997507  0.32605209
  -0.00000000  0.75002493  0.32605209
   0.50000000  0.24894484  0.32576865
   0.50000000  0.75105516  0.32576865
   0.24997507 -0.00000000  0.32605209
   0.24894484  0.50000000  0.32576865
   0.75002493 -0.00000000  0.32605209
   0.75105516  0.50000000  0.32576865
  -0.00000000 -0.00000000  0.39119931
  -0.00000000  0.50000000  0.39081043
   0.50000000 -0.00000000  0.39081043
   0.50000000  0.50000000  0.39029060
   0.25012107  0.25012107  0.39128990
   0.25012107  0.74987893  0.39128990
   0.74987893  0.25012107  0.39128990
   0.74987893  0.74987893  0.39128990
  -0.00000000  0.24912593  0.45452373
  -0.00000000  0.75087407  0.45452373
   0.50000000  0.24237597  0.45308618
   0.50000000  0.75762403  0.45308618
   0.24912593 -0.00000000  0.45452373
   0.24237597  0.50000000  0.45308618
   0.75087407 -0.00000000  0.45452373
   0.75762403  0.50000000  0.45308618
   0.50000000  0.50000000  0.50469725
   0.50000000  0.50000000  0.53193547
Direct configuration=     8
  -0.00000000 -0.00000000  0.00323505
  -0.00000000  0.50000000  0.00329231
   0.50000000 -0.00000000  0.00329231
   0.50000000  0.50000000  0.00331733
   0.25021930  0.25021930  0.00336524
   0.25021930  0.74978070  0.00336524
   0.74978070  0.25021930  0.00336524
   0.74978070  0.74978070  0.00336524
  -0.00000000  0.25001767  0.06586032
  -0.00000000  0.74998233  0.06586032
   0.50000000  0.24970475  0.06581721
   0.50000000  0.75029525  0.06581721
   0.25001767 -0.00000000  0.06586032
   0.24970475  0.50000000  0.06581721
   0.74998233 -0.00000000  0.06586032
   0.75029525  0.50000000  0.06581721
  -0.00000000 -0.00000000  0.13136025
  -0.00000000  0.50000000  0.13131345
   0.50000000 -0.00000000  0.13131345
   0.50000000  0.50000000  0.13096300
   0.25027501  0.25027501  0.13135763
   0.25027501  0.74972499  0.13135763
   0.74972499  0.25027501  0.13135763
   0.74972499  0.74972499  0.13135763
  -0.00000000  0.25015767  0.19687140
  -0.00000000  0.74984233  0.19687140
   0.50000000  0.25055032  0.19682406
   0.50000000  0.74944968  0.19682406
   0.25015767 -0.00000000  0.19687140
   0.25055032  0.50000000  0.19682406
   0.74984233 -0.00000000  0.19687140
   0.74944968  0.50000000  0.19682406
  -0.00000000 -0.00000000  0.26144194
  -0.00000000  0.50000000  0.26103876
   0.50000000 -0.00000000  0.26103876
   0.50000000  0.50000000  0.26181511
   0.24994548  0.24994548  0.26152062
   0.24994548  0.75005452  0.26152062
   0.75005452  0.24994548  0.26152062
   0.75005452  0.75005452  0.26152062
  -0.00000000  0.24995145  0.32599392
  -0.00000000  0.75004855  0.32599392
   0.50000000  0.24878681  0.32567193
   0.50000000  0.75121319  0.32567193
   0.24995145 -0.00000000  0.32599392
   0.24878681  0.50000000  0.32567193
   0.75004855 -0.00000000  0.32599392
   0.75121319  0.50000000  0.32567193
  -0.00000000 -0.00000000  0.39100998
  -0.00000000  0.50000000  0.39036989
   0.50000000 -0.00000000  0.39036989
   0.50000000  0.50000000  0.39017070
   0.25000094  0.25000094  0.39101733
   0.25000094  0.74999906  0.39101733
   0.74999906  0.25000094  0.39101733
   0.74999906  0.74999906  0.39101733
  -0.00000000  0.24865770  0.45445366
  -0.00000000  0.75134230  0.45445366
   0.50000000  0.24232573  0.45291725
   0.50000000  0.75767427  0.45291725
   0.24865770 -0.00000000  0.45445366
   0.24232573  0.50000000  0.45291725
   0.75134230 -0.00000000  0.45445366
   0.75767427  0.50000000  0.45291725
   0.50000000  0.50000000  0.50559375
   0.50000000  0.50000000  0.53216034
Direct configuration=     9
  -0.00000000 -0.00000000  0.00340940
  -0.00000000  0.50000000  0.00346362
   0.50000000 -0.00000000  0.00346362
   0.50000000  0.50000000  0.00349540
   0.25021755  0.25021755  0.00354054
   0.25021755  0.74978245  0.00354054
   0.74978245  0.25021755  0.00354054
   0.74978245  0.74978245  0.00354054
  -0.00000000  0.25000007  0.06604203
  -0.00000000  0.74999993  0.06604203
   0.50000000  0.24969365  0.06599354
   0.50000000  0.75030635  0.06599354
   0.25000007 -0.00000000  0.06604203
   0.24969365  0.50000000  0.06599354
   0.74999993 -0.00000000  0.06604203
   0.75030635  0.50000000  0.06599354
  -0.00000000 -0.00000000  0.13139517
  -0.00000000  0.50000000  0.13135222
   0.50000000 -0.00000000  0.13135222
   0.50000000  0.50000000  0.13097763
   0.25026550  0.25026550  0.13138925
   0.25026550  0.74973450  0.13138925
   0.74973450  0.25026550  0.13138925
   0.74973450  0.74973450  0.13138925
  -0.00000000  0.25015002  0.19681984
  -0.00000000  0.74984998  0.19681984
   0.50000000  0.25058825  0.19677562
   0.50000000  0.74941175  0.19677562
   0.25015002 -0.00000000  0.19681984
   0.25058825  0.50000000  0.19677562
   0.74984998 -0.00000000  0.19681984
   0.74941175  0.50000000  0.19677562
  -0.00000000 -0.00000000  0.26134501
  -0.00000000  0.50000000  0.26092287
   0.50000000 -0.00000000  0.26092287
   0.50000000  0.50000000  0.26172663
   0.24993087  0.24993087  0.26141133
   0.24993087  0.75006913  0.26141133
   0.75006913  0.24993087  0.26141133
   0.75006913  0.75006913  0.26141133
  -0.00000000  0.24991408  0.32595330
  -0.00000000  0.75008592  0.32595330
   0.50000000  0.24873745  0.32561522
   0.50000000  0.75126255  0.32561522
   0.24991408 -0.00000000  0.32595330
   0.24873745  0.50000000  0.32561522
   0.75008592 -0.00000000  0.32595330
   0.75126255  0.50000000  0.32561522
  -0.00000000 -0.00000000  0.39088068
  -0.00000000  0.50000000  0.39009644
   0.50000000 -0.00000000  0.39009644
   0.50000000  0.50000000  0.39011018
   0.24992069  0.24992069  0.39083760
   0.24992069  0.75007931  0.39083760
   0.75007931  0.24992069  0.39083760
   0.75007931  0.75007931  0.39083760
  -0.00000000  0.24839163  0.45438557
  -0.00000000  0.75160837  0.45438557
   0.50000000  0.24239952  0.45280042
   0.50000000  0.75760048  0.45280042
   0.24839163 -0.00000000  0.45438557
   0.24239952  0.50000000  0.45280042
   0.75160837 -0.00000000  0.45438557
   0.75760048  0.50000000  0.45280042
   0.50000000  0.50000000  0.50582759
   0.50000000  0.50000000  0.53268346
Direct configuration=    10
  -0.00000000 -0.00000000  0.00393248
  -0.00000000  0.50000000  0.00397755
   0.50000000 -0.00000000  0.00397755
   0.50000000  0.50000000  0.00402958
   0.25021231  0.25021231  0.00406646
   0.25021231  0.74978769  0.00406646
   0.74978769  0.25021231  0.00406646
   0.74978769  0.74978769  0.00406646
  -0.00000000  0.24994726  0.06658717
  -0.00000000  0.75005274  0.06658717
   0.50000000  0.24966035  0.06652255
   0.50000000  0.75033965  0.06652255
   0.24994726 -0.00000000  0.06658717
   0.24966035  0.50000000  0.06652255
   0.75005274 -0.00000000  0.06658717
   0.75033965  0.50000000  0.06652255
  -0.00000000 -0.00000000  0.13149993
  -0.00000000  0.50000000  0.13146854
   0.50000000 -0.00000000  0.13146854
   0.50000000  0.50000000  0.13102150
   0.25023696  0.25023696  0.13148411
   0.25023696  0.74976304  0.13148411
   0.74976304  0.25023696  0.13148411
   0.74976304  0.74976304  0.13148411
  -0.00000000  0.25012707  0.19666514
  -0.00000000  0.74987293  0.19666514
   0.50000000  0.25070203  0.19663030
   0.50000000  0.74929797  0.19663030
   0.25012707 -0.00000000  0.19666514
   0.25070203  0.50000000  0.19663030
   0.74987293 -0.00000000  0.19666514
   0.74929797  0.50000000  0.19663030
  -0.00000000 -0.00000000  0.26105420
  -0.00000000  0.50000000  0.26057522
   0.50000000 -0.00000000  0.26057522
   0.50000000  0.50000000  0.26146121
   0.24988703  0.24988703  0.26108349
   0.24988703  0.75011297  0.26108349
   0.75011297  0.24988703  0.26108349
   0.75011297  0.75011297  0.26108349
  -0.00000000  0.24980199  0.32583141
  -0.00000000  0.75019801  0.32583141
   0.50000000  0.24858938  0.32544510
   0.50000000  0.75141062  0.32544510
   0.24980199 -0.00000000  0.32583141
   0.24858938  0.50000000  0.32544510
   0.75019801 -0.00000000  0.32583141
   0.75141062  0.50000000  0.32544510
  -0.00000000 -0.00000000  0.39049280
  -0.00000000  0.50000000  0.38927609
   0.50000000 -0.00000000  0.38927609
   0.50000000  0.50000000  0.38992863
   0.24967995  0.24967995  0.39029841
   0.24967995  0.75032005  0.39029841
   0.75032005  0.24967995  0.39029841
   0.75032005  0.75032005  0.39029841
  -0.00000000  0.24759341  0.45418131
  -0.00000000  0.75240659  0.45418131
   0.50000000  0.24262087  0.45244992
   0.50000000  0.75737913  0.45244992
   0.24759341 -0.00000000  0.45418131
   0.24262087  0.50000000  0.45244992
   0.75240659 -0.00000000  0.45418131
   0.75737913  0.50000000  0.45244992
   0.50000000  0.50000000  0.50652910
   0.50000000  0.50000000  0.53425282
Direct configuration=    11
  -0.00000000 -0.00000000  0.00497863
  -0.00000000  0.50000000  0.00500541
   0.50000000 -0.00000000  0.00500541
   0.50000000  0.50000000  0.00509796
   0.25020181  0.25020181  0.00511830
   0.25020181  0.74979819  0.00511830
   0.74979819  0.25020181  0.00511830
   0.74979819  0.74979819  0.00511830
  -0.00000000  0.24984164  0.06767744
  -0.00000000  0.75015836  0.06767744
   0.50000000  0.24959373  0.06758057
   0.50000000  0.75040627  0.06758057
   0.24984164 -0.00000000  0.06767744
   0.24959373  0.50000000  0.06758057
   0.75015836 -0.00000000  0.06767744
   0.75040627  0.50000000  0.06758057
  -0.00000000 -0.00000000  0.13170943
  -0.00000000  0.50000000  0.13170117
   0.50000000 -0.00000000  0.13170117
   0.50000000  0.50000000  0.13110925
   0.25017989  0.25017989  0.13167382
   0.25017989  0.74982011  0.13167382
   0.74982011  0.25017989  0.13167382
   0.74982011  0.74982011  0.13167382
  -0.00000000  0.25008117  0.19635574
  -0.00000000  0.74991883  0.19635574
   0.50000000  0.25092959  0.19633966
   0.50000000  0.74907041  0.19633966
   0.25008117 -0.00000000  0.19635574
   0.25092959  0.50000000  0.19633966
   0.74991883 -0.00000000  0.19635574
   0.74907041  0.50000000  0.19633966
  -0.00000000 -0.00000000  0.26047259
  -0.00000000  0.50000000  0.25987991
   0.50000000 -0.00000000  0.25987991
   0.50000000  0.50000000  0.26093037
   0.24979936  0.24979936  0.26042779
   0.24979936  0.75020064  0.26042779
   0.75020064  0.24979936  0.26042779
   0.75020064  0.75020064  0.26042779
  -0.00000000  0.24957780  0.32558765
  -0.00000000  0.75042220  0.32558765
   0.50000000  0.24829324  0.32510487
   0.50000000  0.75170676  0.32510487
   0.24957780 -0.00000000  0.32558765
   0.24829324  0.50000000  0.32510487
   0.75042220 -0.00000000  0.32558765
   0.75170676  0.50000000  0.32510487
  -0.00000000 -0.00000000  0.38971703
  -0.00000000  0.50000000  0.38763539
   0.50000000 -0.00000000  0.38763539
   0.50000000  0.50000000  0.38956552
   0.24919846  0.24919846  0.38922002
   0.24919846  0.75080154  0.38922002
   0.75080154  0.24919846  0.38922002
   0.75080154  0.75080154  0.38922002
  -0.00000000  0.24599697  0.45377280
  -0.00000000  0.75400303  0.45377280
   0.50000000  0.24306358  0.45174892
   0.50000000  0.75693642  0.45174892
   0.24599697 -0.00000000  0.45377280
   0.24306358  0.50000000  0.45174892
   0.75400303 -0.00000000  0.45377280
   0.75693642  0.50000000  0.45174892
   0.50000000  0.50000000  0.50793212
   0.50000000  0.50000000  0.53739156
Direct configuration=    12
  -0.00000000 -0.00000000  0.00461207
  -0.00000000  0.50000000  0.00464526
   0.50000000 -0.00000000  0.00464526
   0.50000000  0.50000000  0.00472361
   0.25020549  0.25020549  0.00474975
   0.25020549  0.74979451  0.00474975
   0.74979451  0.25020549  0.00474975
   0.74979451  0.74979451  0.00474975
  -0.00000000  0.24987865  0.06729543
  -0.00000000  0.75012135  0.06729543
   0.50000000  0.24961707  0.06720986
   0.50000000  0.75038293  0.06720986
   0.24987865 -0.00000000  0.06729543
   0.24961707  0.50000000  0.06720986
   0.75012135 -0.00000000  0.06729543
   0.75038293  0.50000000  0.06720986
  -0.00000000 -0.00000000  0.13163602
  -0.00000000  0.50000000  0.13161966
   0.50000000 -0.00000000  0.13161966
   0.50000000  0.50000000  0.13107850
   0.25019989  0.25019989  0.13160734
   0.25019989  0.74980011  0.13160734
   0.74980011  0.25019989  0.13160734
   0.74980011  0.74980011  0.13160734
  -0.00000000  0.25009725  0.19646415
  -0.00000000  0.74990275  0.19646415
   0.50000000  0.25084985  0.19644150
   0.50000000  0.74915015  0.19644150
   0.25009725 -0.00000000  0.19646415
   0.25084985  0.50000000  0.19644150
   0.74990275 -0.00000000  0.19646415
   0.74915015  0.50000000  0.19644150
  -0.00000000 -0.00000000  0.26067638
  -0.00000000  0.50000000  0.26012354
   0.50000000 -0.00000000  0.26012354
   0.50000000  0.50000000  0.26111637
   0.24983008  0.24983008  0.26065754
   0.24983008  0.75016992  0.26065754
   0.75016992  0.24983008  0.26065754
   0.75016992  0.75016992  0.26065754
  -0.00000000  0.24965635  0.32567306
  -0.00000000  0.75034365  0.32567306
   0.50000000  0.24839700  0.32522408
   0.50000000  0.75160300  0.32522408
   0.24965635 -0.00000000  0.32567306
   0.24839700  0.50000000  0.32522408
   0.75034365 -0.00000000  0.32567306
   0.75160300  0.50000000  0.32522408
  -0.00000000 -0.00000000  0.38998885