       N       E                     dE             d eps       ncg     rms          rms(c)
DAV:   1     0.534188137584E+03    0.53419E+03   -0.24666E+04   704   0.155E+03
DAV:   2     0.240070749394E+02   -0.51018E+03   -0.48836E+03   704   0.351E+02
DAV:   3    -0.229712714134E+02   -0.46978E+02   -0.43647E+02   752   0.159E+02
DAV:   4    -0.245689875407E+02   -0.15977E+01   -0.15905E+01   800   0.385E+01
DAV:   5    -0.246047090413E+02   -0.35722E-01   -0.35709E-01   816   0.452E+00    0.226E+01
DAV:   6    -0.190418817301E+02    0.55628E+01   -0.58441E+01   752   0.125E+02    0.112E+01
DAV:   7    -0.165543857120E+02    0.24875E+01   -0.16645E+01   780   0.838E+01    0.579E+00
DAV:   8    -0.157286601174E+02    0.82573E+00   -0.24494E+00   884   0.521E+01    0.462E+00
DAV:   9    -0.150692963783E+02    0.65936E+00   -0.14118E+00  1012   0.220E+01    0.378E+00
DAV:  10    -0.151161506143E+02   -0.46854E-01   -0.16951E+00   816   0.183E+01    0.278E+00
DAV:  11    -0.158458972914E+02   -0.72975E+00   -0.64527E-01   840   0.223E+01    0.190E+00
DAV:  12    -0.170344655399E+02   -0.11886E+01   -0.86291E-01   780   0.166E+01    0.133E+00
DAV:  13    -0.190042106358E+02   -0.19697E+01   -0.15338E+00   840   0.887E+00    0.104E+00
DAV:  14    -0.201047152746E+02   -0.11005E+01   -0.10050E+00   776   0.915E+00    0.595E-01
DAV:  15    -0.204918737531E+02   -0.38716E+00   -0.30005E-01   876   0.758E+00    0.643E-01
DAV:  16    -0.205984353745E+02   -0.10656E+00   -0.15203E-01   876   0.421E+00    0.377E-01
DAV:  17    -0.207052033233E+02   -0.10677E+00   -0.54005E-02   792   0.261E+00    0.248E-01
DAV:  18    -0.207443315277E+02   -0.39128E-01   -0.18081E-02   908   0.181E+00    0.183E-01
DAV:  19    -0.208309226110E+02   -0.86591E-01   -0.86766E-03   844   0.127E+00    0.149E-01
DAV:  20    -0.208948413344E+02   -0.63919E-01   -0.35480E-03   912   0.148E+00    0.143E-01
DAV:  21    -0.209540240547E+02   -0.59183E-01   -0.35790E-03   868   0.938E-01    0.957E-02
DAV:  22    -0.209876622976E+02   -0.33638E-01   -0.17796E-03   764   0.509E-01    0.632E-02
DAV:  23    -0.210035894399E+02   -0.15927E-01   -0.10304E-03   624   0.389E-01    0.518E-02
DAV:  24    -0.210106482184E+02   -0.70588E-02   -0.44645E-04   532   0.352E-01    0.219E-02
DAV:  25    -0.210125679004E+02   -0.19197E-02   -0.18645E-04   480   0.282E-01    0.182E-02
DAV:  26    -0.210138464799E+02   -0.12786E-02   -0.18020E-04   508   0.190E-01    0.119E-02
DAV:  27    -0.210144288460E+02   -0.58237E-03   -0.85161E-05   500   0.117E-01    0.593E-03
DAV:  28    -0.210147278790E+02   -0.29903E-03   -0.32245E-05   488   0.315E-02    0.388E-03
DAV:  29    -0.210147571924E+02   -0.29313E-04   -0.11148E-05   476   0.342E-02
   1 F= -.23004158E+02 E0= -.22998102E+02  d E =-.230042E+02  mag=     0.0002
       N       E                     dE             d eps       ncg     rms          rms(c)
DAV:   1    -0.210245934522E+02   -0.98656E-02   -0.73492E+00   736   0.129E+01    0.270E-01
DAV:   2    -0.210378240825E+02   -0.13231E-01   -0.14834E-01  1072   0.517E+00    0.307E-01
DAV:   3    -0.210366148007E+02    0.12093E-02   -0.78417E-03   784   0.330E+00    0.148E-01
DAV:   4    -0.210365652313E+02    0.49569E-04   -0.16652E-03   744   0.737E-01
   2 F= -.23027040E+02 E0= -.23021014E+02  d E =-.228820E-01  mag=     0.0002
       N       E                     dE             d eps       ncg     rms          rms(c)
DAV:   1    -0.209758644205E+02    0.60750E-01   -0.45084E+01   740   0.337E+01    0.674E-01
DAV:   2    -0.210638344362E+02   -0.87970E-01   -0.96913E-01  1088   0.126E+01    0.733E-01
DAV:   3    -0.210567905271E+02    0.70439E-02   -0.41162E-02   808   0.803E+00    0.387E-01
DAV:   4    -0.210564623032E+02    0.32822E-03   -0.10529E-02   804   0.181E+00    0.322E-01
DAV:   5    -0.210550981274E+02    0.13642E-02   -0.41136E-03  1032   0.138E+00    0.159E-01
DAV:   6    -0.210551953985E+02   -0.97271E-04   -0.56893E-03   828   0.307E+00    0.120E-01
DAV:   7    -0.210547639078E+02    0.43149E-03   -0.23401E-03   648   0.188E+00    0.408E-02
DAV:   8    -0.210547695273E+02   -0.56195E-05   -0.35375E-04   516   0.303E-01
   3 F= -.23047772E+02 E0= -.23043043E+02  d E =-.436140E-01  mag=     0.0001
       N       E                     dE             d eps       ncg     rms          rms(c)
DAV:   1    -0.210547594752E+02    0.44327E-05   -0.35098E-01   744   0.277E+00    0.415E-02
DAV:   2    -0.210553071746E+02   -0.54770E-03   -0.58535E-03  1016   0.852E-01    0.610E-02
DAV:   3    -0.210552760709E+02    0.31104E-04   -0.19870E-04   444   0.445E-01
   4 F= -.23048055E+02 E0= -.23043147E+02  d E =-.438970E-01  mag=     0.0001
       N       E                     dE             d eps       ncg     rms          rms(c)
DAV:   1    -0.210550943960E+02    0.21278E-03   -0.34444E-02   740   0.891E-01    0.363E-02
DAV:   2    -0.210551099181E+02   -0.15522E-04   -0.27037E-04   432   0.504E-01
   5 F= -.23047947E+02 E0= -.23043032E+02  d E =-.437894E-01  mag=     0.0001
       N       E                     dE             d eps       ncg     rms          rms(c)
DAV:   1    -0.210552250420E+02   -0.13065E-03   -0.18722E-02   976   0.897E-01    0.244E-02
DAV:   2    -0.210552453218E+02   -0.20280E-04   -0.26446E-04   432   0.766E-01
   6 F= -.23048027E+02 E0= -.23043071E+02  d E =-.438698E-01  mag=     0.0001
       N       E                     dE             d eps       ncg     rms          rms(c)
DAV:   1    -0.210529872353E+02    0.22378E-02   -0.15453E+00   736   0.595E+00    0.877E-02
DAV:   2    -0.210555550138E+02   -0.25678E-02   -0.27183E-02   992   0.184E+00    0.109E-01
DAV:   3    -0.210554366649E+02    0.11835E-03   -0.82751E-04   696   0.921E-01
   7 F= -.23051179E+02 E0= -.23046287E+02  d E =-.315142E-02  mag=     0.0001
       N       E                     dE             d eps       ncg     rms          rms(c)
DAV:   1    -0.210468904156E+02    0.86646E-02   -0.44299E+00   736   0.101E+01    0.161E-01
DAV:   2    -0.210541408263E+02   -0.72504E-02   -0.78160E-02  1028   0.296E+00    0.205E-01
DAV:   3    -0.210537354591E+02    0.40537E-03   -0.19830E-03   784   0.137E+00    0.141E-01
DAV:   4    -0.210535814377E+02    0.15402E-03   -0.39430E-04   432   0.627E-01
   8 F= -.23054351E+02 E0= -.23049581E+02  d E =-.632332E-02  mag=     0.0000
       N       E                     dE             d eps       ncg     rms          rms(c)
DAV:   1    -0.210505969310E+02    0.31385E-02   -0.72897E-01   736   0.432E+00    0.804E-02
DAV:   2    -0.210520117248E+02   -0.14148E-02   -0.14605E-02  1088   0.282E+00    0.105E-01
DAV:   3    -0.210517216608E+02    0.29006E-03   -0.27068E-03   864   0.200E+00    0.514E-02
DAV:   4    -0.210517481001E+02   -0.26439E-04   -0.55131E-04   572   0.387E-01
   9 F= -.23054556E+02 E0= -.23049811E+02  d E =-.652818E-02  mag=     0.0000
       N       E                     dE             d eps       ncg     rms          rms(c)
DAV:   1    -0.210478638291E+02    0.38578E-02   -0.24852E+00   736   0.760E+00    0.108E-01
DAV:   2    -0.210518275322E+02   -0.39637E-02   -0.41982E-02  1016   0.252E+00    0.137E-01
DAV:   3    -0.210516847029E+02    0.14283E-03   -0.23507E-03   712   0.152E+00    0.943E-02
DAV:   4    -0.210516417382E+02    0.42965E-04   -0.46583E-04   516   0.606E-01
  10 F= -.23057430E+02 E0= -.23052812E+02  d E =-.287437E-02  mag=     0.0000
       N       E                     dE             d eps       ncg     rms          rms(c)
DAV:   1    -0.210187209503E+02    0.32964E-01   -0.17615E+01   736   0.205E+01    0.318E-01
DAV:   2    -0.210511153591E+02   -0.32394E-01   -0.34128E-01  1072   0.760E+00    0.417E-01
DAV:   3    -0.210488788328E+02    0.22365E-02   -0.17381E-02   944   0.485E+00    0.256E-01
DAV:   4    -0.210485704998E+02    0.30833E-03   -0.37074E-03   824   0.154E+00    0.228E-01
DAV:   5    -0.210477245586E+02    0.84594E-03   -0.26745E-03   896   0.151E+00    0.130E-01
DAV:   6    -0.210475310182E+02    0.19354E-03   -0.22796E-03   968   0.159E+00    0.484E-02
DAV:   7    -0.210475050299E+02    0.25988E-04   -0.19262E-04   456   0.519E-01
  11 F= -.23061236E+02 E0= -.23056834E+02  d E =-.668042E-02  mag=     0.0000
