<?xml version="1.0" encoding="ISO-8859-1"?>
<modeling>
 <generator>
  <i name="program" type="string">vasp </i>
  <i name="version" type="string">6.3.2  </i>
  <i name="subversion" type="string">27Jun22 (build Aug 17 2022 15:43:34) complex                          parallel </i>
  <i name="platform" type="string">tv2STDVTST </i>
  <i name="date" type="string">2025 01 21 </i>
  <i name="time" type="string">16:00:41 </i>
 </generator>
 <incar>
  <i type="int" name="ISTART">     0</i>
  <i type="string" name="PREC">Normal</i>
  <i type="int" name="ISPIN">     2</i>
  <i type="int" name="ICHARG">     2</i>
  <i type="int" name="IBRION">     2</i>
  <i name="EDIFF">      0.00020000</i>
  <i name="EDIFFG">     -0.03000000</i>
  <i type="int" name="NSW">   800</i>
  <i type="int" name="ISIF">     2</i>
  <i type="int" name="ISYM">     1</i>
  <i name="ENCUT">    400.00000000</i>
  <i name="POTIM">      0.50000000</i>
  <i type="logical" name="LREAL"> F  </i>
  <i type="int" name="ISMEAR">     1</i>
  <i name="SIGMA">      0.20000000</i>
  <i type="logical" name="LWAVE"> F  </i>
  <i type="logical" name="LCHARG"> F  </i>
  <i type="string" name="GGA">PE</i>
  <i type="int" name="IDIPOL">     3</i>
  <i type="int" name="IVDW">    11</i>
 </incar>
 <primitive_cell>
  <structure name="primitive_cell" >
   <crystal>
    <varray name="basis" >
     <v>       3.63000011       0.00000000       0.00000000 </v>
     <v>       0.00000000       2.56679773       0.00000000 </v>
     <v>       0.00000000       0.00000000      21.41699400 </v>
    </varray>
    <i name="volume">    199.55232899 </i>
    <varray name="rec_basis" >
     <v>       0.27548208       0.00000000       0.00000000 </v>
     <v>       0.00000000       0.38959050       0.00000000 </v>
     <v>       0.00000000       0.00000000       0.04669189 </v>
    </varray>
   </crystal>
   <varray name="positions" >
    <v>       0.00000000       0.00000000       0.00000000 </v>
    <v>       0.50000000       0.50000000       0.05992432 </v>
    <v>       0.00000000       0.00000000       0.11984865 </v>
    <v>       0.50000000       0.50000000       0.17977297 </v>
    <v>       0.00000000       0.00000000       0.23969729 </v>
    <v>       0.50000000       0.50000000       0.29962162 </v>
   </varray>
  </structure>
  <varray name="primitive_index" >
   <v type="int" >        1 </v>
   <v type="int" >        2 </v>
   <v type="int" >        3 </v>
   <v type="int" >        4 </v>
   <v type="int" >        5 </v>
   <v type="int" >        6 </v>
  </varray>
 </primitive_cell>
 <kpoints>
  <generation param="Monkhorst-Pack">
   <v type="int" name="divisions">       3        3        1 </v>
   <v name="usershift">      0.00000000       0.00000000       0.00000000 </v>
   <v name="genvec1">      0.33333333       0.00000000       0.00000000 </v>
   <v name="genvec2">      0.00000000       0.33333333       0.00000000 </v>
   <v name="genvec3">      0.00000000       0.00000000       1.00000000 </v>
   <v name="shift">      0.00000000       0.00000000       0.00000000 </v>
  </generation>
  <varray name="kpointlist" >
   <v>       0.00000000       0.00000000       0.00000000 </v>
   <v>       0.33333333       0.00000000       0.00000000 </v>
   <v>       0.00000000       0.33333333       0.00000000 </v>
   <v>       0.33333333       0.33333333       0.00000000 </v>
  </varray>
  <varray name="weights" >
   <v>       0.11111111 </v>
   <v>       0.22222222 </v>
   <v>       0.22222222 </v>
   <v>       0.44444444 </v>
  </varray>
 </kpoints>
 <parameters>
  <separator name="general" >
   <i type="string" name="SYSTEM">unknown system</i>
   <i type="logical" name="LCOMPAT"> F  </i>
  </separator>
  <separator name="electronic" >
   <i type="string" name="PREC">normal</i>
   <i name="ENMAX">    400.00000000</i>
   <i name="ENAUG">    586.98000000</i>
   <i name="EDIFF">      0.00020000</i>
   <i type="int" name="IALGO">    38</i>
   <i type="int" name="IWAVPR">    11</i>
   <i type="int" name="NBANDS">    44</i>
   <i type="int" name="NBANDSLOW">    -1</i>
   <i type="int" name="NBANDSHIGH">    -1</i>
   <i name="NELECT">     66.00000000</i>
   <i type="int" name="TURBO">     0</i>
   <i type="int" name="IRESTART">     0</i>
   <i type="int" name="NREBOOT">     0</i>
   <i type="int" name="NMIN">     0</i>
   <i name="EREF">      0.00000000</i>
   <separator name="electronic smearing" >
    <i type="int" name="ISMEAR">     1</i>
    <i name="SIGMA">      0.20000000</i>
    <i name="KSPACING">      0.50000000</i>
    <i type="logical" name="KGAMMA"> T  </i>
    <i type="logical" name="KBLOWUP"> T  </i>
   </separator>
   <separator name="electronic projectors" >
    <i type="logical" name="LREAL"> F  </i>
    <v name="ROPT">      0.00000000</v>
    <i type="int" name="LMAXPAW">  -100</i>
    <i type="int" name="LMAXMIX">     2</i>
    <i type="logical" name="NLSPLINE"> F  </i>
   </separator>
   <separator name="electronic startup" >
    <i type="int" name="ISTART">     0</i>
    <i type="int" name="ICHARG">     2</i>
    <i type="int" name="INIWAV">     1</i>
   </separator>
   <separator name="electronic spin" >
    <i type="int" name="ISPIN">     2</i>
    <i type="logical" name="LNONCOLLINEAR"> F  </i>
    <v name="MAGMOM">      1.00000000      1.00000000      1.00000000      1.00000000      1.00000000      1.00000000</v>
    <i name="NUPDOWN">     -1.00000000</i>
    <i type="logical" name="LSORBIT"> F  </i>
    <v name="SAXIS">      0.00000000      0.00000000      1.00000000</v>
    <i type="logical" name="LSPIRAL"> F  </i>
    <v name="QSPIRAL">      0.00000000      0.00000000      0.00000000</v>
    <i type="logical" name="LZEROZ"> F  </i>
   </separator>
   <separator name="electronic exchange-correlation" >
    <i type="logical" name="LASPH"> F  </i>
    <i type="logical" name="LMETAGGA"> F  </i>
   </separator>
   <separator name="electronic convergence" >
    <i type="int" name="NELM">    60</i>
    <i type="int" name="NELMDL">    -5</i>
    <i type="int" name="NELMIN">     2</i>
    <i name="ENINI">    400.00000000</i>
    <separator name="electronic convergence detail" >
     <i type="logical" name="LDIAG"> T  </i>
     <i type="logical" name="LSUBROT"> F  </i>
     <i name="WEIMIN">      0.00100000</i>
     <i name="EBREAK">      0.00000114</i>
     <i name="DEPER">      0.30000000</i>
     <i type="int" name="NRMM">     4</i>
     <i name="TIME">      0.40000000</i>
    </separator>
   </separator>
   <separator name="electronic mixer" >
    <i name="AMIX">      0.40000000</i>
    <i name="BMIX">      1.00000000</i>
    <i name="AMIN">      0.10000000</i>
    <i name="AMIX_MAG">      1.60000000</i>
    <i name="BMIX_MAG">      1.00000000</i>
    <separator name="electronic mixer details" >
     <i type="int" name="IMIX">     4</i>
     <i type="logical" name="MIXFIRST"> F  </i>
     <i type="int" name="MAXMIX">   -45</i>
     <i name="WC">    100.00000000</i>
     <i type="int" name="INIMIX">     1</i>
     <i type="int" name="MIXPRE">     1</i>
     <i type="int" name="MREMOVE">     5</i>
    </separator>
   </separator>
   <separator name="electronic dipolcorrection" >
    <i type="logical" name="LDIPOL"> F  </i>
    <i type="logical" name="LMONO"> F  </i>
    <i type="int" name="IDIPOL">     3</i>
    <i name="EPSILON">      1.00000000</i>
    <v name="DIPOL">   -100.00000000   -100.00000000   -100.00000000</v>
    <i name="EFIELD">      0.00000000</i>
   </separator>
  </separator>
  <separator name="grids" >
   <i type="int" name="NGX">    18</i>
   <i type="int" name="NGY">    14</i>
   <i type="int" name="NGZ">   108</i>
   <i type="int" name="NGXF">    36</i>
   <i type="int" name="NGYF">    28</i>
   <i type="int" name="NGZF">   216</i>
   <i type="logical" name="ADDGRID"> F  </i>
  </separator>
  <separator name="ionic" >
   <i type="int" name="NSW">   800</i>
   <i type="int" name="IBRION">     2</i>
   <i type="int" name="MDALGO">     0</i>
   <i type="int" name="ISIF">     2</i>
   <i name="PSTRESS">      0.00000000</i>
   <i name="EDIFFG">     -0.03000000</i>
   <i type="int" name="NFREE">     1</i>
   <i name="POTIM">      0.50000000</i>
   <i name="SMASS">     -3.00000000</i>
   <i name="SCALEE">      1.00000000</i>
  </separator>
  <separator name="ionic md" >
   <i name="TEBEG">      0.00010000</i>
   <i name="TEEND">      0.00010000</i>
   <i type="int" name="NBLOCK">     1</i>
   <i type="int" name="KBLOCK">   800</i>
   <i type="int" name="NPACO">   256</i>
   <i name="APACO">     10.00000000</i>
  </separator>
  <separator name="symmetry" >
   <i type="int" name="ISYM">     1</i>
   <i name="SYMPREC">      0.00001000</i>
  </separator>
  <separator name="dos" >
   <i type="int" name="LORBIT">     0</i>
   <v name="RWIGS">     -1.00000000</v>
   <i type="int" name="NEDOS">   301</i>
   <i name="EMIN">     10.00000000</i>
   <i name="EMAX">    -10.00000000</i>
   <i name="EFERMI">      0.00000000</i>
  </separator>
  <separator name="writing" >
   <i type="int" name="NWRITE">     2</i>
   <i type="logical" name="LWAVE"> F  </i>
   <i type="logical" name="LDOWNSAMPLE"> F  </i>
   <i type="logical" name="LCHARG"> F  </i>
   <i type="logical" name="LPARD"> F  </i>
   <i type="logical" name="LVTOT"> F  </i>
   <i type="logical" name="LVHAR"> F  </i>
   <i type="logical" name="LELF"> F  </i>
   <i type="logical" name="LOPTICS"> F  </i>
   <v name="STM">      0.00000000      0.00000000      0.00000000      0.00000000      0.00000000      0.00000000      0.00000000</v>
  </separator>
  <separator name="performance" >
   <i type="int" name="NPAR">     4</i>
   <i type="int" name="NSIM">     4</i>
   <i type="int" name="NBLK">    -1</i>
   <i type="logical" name="LPLANE"> T  </i>
   <i type="logical" name="LSCALAPACK"> T  </i>
   <i type="logical" name="LSCAAWARE"> F  </i>
   <i type="logical" name="LSCALU"> F  </i>
   <i type="logical" name="LASYNC"> F  </i>
   <i type="logical" name="LORBITALREAL"> F  </i>
  </separator>
  <separator name="miscellaneous" >
   <i type="int" name="IDIOT">     3</i>
   <i type="int" name="PHON_NSTRUCT">    -1</i>
   <i type="logical" name="LMUSIC"> F  </i>
   <v name="POMASS">     63.54600000</v>
   <v name="DARWINR">      0.00000000</v>
   <v name="DARWINV">      1.00000000</v>
   <i type="logical" name="LCORR"> T  </i>
  </separator>
  <i type="logical" name="GGA_COMPAT"> T  </i>
  <i type="logical" name="LBERRY"> F  </i>
  <i type="int" name="ICORELEVEL">     0</i>
  <i type="logical" name="LDAU"> F  </i>
  <i type="int" name="I_CONSTRAINED_M">     0</i>
  <separator name="electronic exchange-correlation" >
   <i type="string" name="GGA">PE</i>
   <i type="int" name="VOSKOWN">     0</i>
   <i type="logical" name="LHFCALC"> F  </i>
   <i type="string" name="PRECFOCK"></i>
   <i type="logical" name="LSYMGRAD"> F  </i>
   <i type="logical" name="LHFONE"> F  </i>
   <i type="logical" name="LRHFCALC"> F  </i>
   <i type="logical" name="LTHOMAS"> F  </i>
   <i type="logical" name="LMODELHF"> F  </i>
   <i type="logical" name="LFOCKACE"> F  </i>
   <i name="ENCUT4O">     -1.00000000</i>
   <i type="int" name="EXXOEP">     0</i>
   <i type="int" name="FOURORBIT">     0</i>
   <i name="AEXX">      0.00000000</i>
   <i name="HFALPHA">      0.00000000</i>
   <i name="MCALPHA">      0.00000000</i>
   <i name="ALDAX">      1.00000000</i>
   <i name="AGGAX">      1.00000000</i>
   <i name="ALDAC">      1.00000000</i>
   <i name="AGGAC">      1.00000000</i>
   <i type="int" name="NKREDX">     1</i>
   <i type="int" name="NKREDY">     1</i>
   <i type="int" name="NKREDZ">     1</i>
   <i type="logical" name="SHIFTRED"> F  </i>
   <i type="logical" name="ODDONLY"> F  </i>
   <i type="logical" name="EVENONLY"> F  </i>
   <i type="int" name="LMAXFOCK">     0</i>
   <i type="int" name="NMAXFOCKAE">     0</i>
   <i type="logical" name="LFOCKAEDFT"> F  </i>
   <i name="HFSCREEN">      0.00000000</i>
   <i name="HFSCREENC">      0.00000000</i>
   <i type="int" name="NBANDSGWLOW">     0</i>
  </separator>
  <separator name="vdW DFT" >
   <i type="logical" name="LUSE_VDW"> F  </i>
   <i name="Zab_VDW">     -0.84910000</i>
   <i name="PARAM1">      0.12340000</i>
   <i name="PARAM2">      1.00000000</i>
   <i name="PARAM3">      0.00000000</i>
  </separator>
  <separator name="model GW" >
   <i type="int" name="MODEL_GW">     0</i>
   <i name="MODEL_EPS0">     19.95523290</i>
   <i name="MODEL_ALPHA">      1.00000000</i>
  </separator>
  <separator name="linear response parameters" >
   <i type="logical" name="LEPSILON"> F  </i>
   <i type="logical" name="LRPA"> F  </i>
   <i type="logical" name="LNABLA"> F  </i>
   <i type="logical" name="LVEL"> F  </i>
   <i name="CSHIFT">      0.10000000</i>
   <i name="OMEGAMAX">     -1.00000000</i>
   <i name="DEG_THRESHOLD">      0.00200000</i>
   <i name="RTIME">     -0.10000000</i>
   <i name="WPLASMAI">      0.00000000</i>
   <v name="DFIELD">      0.00000000      0.00000000      0.00000000</v>
   <v name="WPLASMA">      0.00000000      0.00000000      0.00000000      0.00000000      0.00000000      0.00000000      0.00000000      0.00000000      0.00000000</v>
  </separator>
  <separator name="orbital magnetization" >
   <i type="logical" name="NUCIND"> F  </i>
   <v name="MAGPOS">      0.00000000      0.00000000      0.00000000</v>
   <i type="logical" name="LNICSALL"> T  </i>
   <i type="logical" name="ORBITALMAG"> F  </i>
   <i type="logical" name="LMAGBLOCH"> F  </i>
   <i type="logical" name="LCHIMAG"> F  </i>
   <i type="logical" name="LGAUGE"> T  </i>
   <i type="int" name="MAGATOM">     0</i>
   <v name="MAGDIPOL">      0.00000000      0.00000000      0.00000000</v>
   <v name="AVECCONST">      0.00000000      0.00000000      0.00000000</v>
  </separator>
  <separator name="response functions" >
   <i type="logical" name="LFINITE_TEMPERATURE"> F  </i>
   <i type="logical" name="LADDER"> F  </i>
   <i type="logical" name="LRPAFORCE"> F  </i>
   <i type="logical" name="LFXC"> F  </i>
   <i type="logical" name="LHARTREE"> T  </i>
   <i type="int" name="IBSE">     0</i>
   <v type="int" name="KPOINT">    -1     0     0     0</v>
   <i type="logical" name="LTCTC"> F  </i>
   <i type="logical" name="LTCTE"> F  </i>
   <i type="logical" name="LTETE"> F  </i>
   <i type="logical" name="LTRIPLET"> F  </i>
   <i type="logical" name="LFXCEPS"> F  </i>
   <i type="logical" name="LFXHEG"> F  </i>
   <i type="int" name="NATURALO">     2</i>
   <i type="logical" name="LHOLEGF"> F  </i>
   <i type="logical" name="L2ORDER"> F  </i>
   <i type="logical" name="LDMP1"> F  </i>
   <i type="logical" name="LMP2LT"> F  </i>
   <i type="logical" name="LSMP2LT"> F  </i>
   <i type="logical" name="LGWLF"> F  </i>
   <i name="ENCUTGW">     -2.00000000</i>
   <i name="ENCUTGWSOFT">     -2.00000000</i>
   <i name="ENCUTLF">     -1.00000000</i>
   <i type="logical" name="LESF_SPLINES"> F  </i>
   <i type="int" name="LMAXMP2">    -1</i>
   <i name="SCISSOR">      0.00000000</i>
   <i type="int" name="NOMEGA">     0</i>
   <i type="int" name="NOMEGAR">     0</i>
   <i type="int" name="NBANDSGW">    -1</i>
   <i type="int" name="NBANDSO">    -1</i>
   <i type="int" name="NBANDSV">    -1</i>
   <i type="int" name="NELMGW">     1</i>
   <i type="int" name="NELMHF">     1</i>
   <i type="int" name="DIM">     3</i>
   <i type="int" name="IESPILON">     4</i>
   <i type="int" name="ANTIRES">     0</i>
   <i name="OMEGAMAX">    -30.00000000</i>
   <i name="OMEGAMIN">    -30.00000000</i>
   <i name="OMEGATL">   -200.00000000</i>
   <i type="int" name="OMEGAGRID">     0</i>
   <i name="CSHIFT">     -0.10000000</i>
   <i type="logical" name="LSELFENERGY"> F  </i>
   <i type="logical" name="LSPECTRAL"> F  </i>
   <i type="logical" name="LSPECTRALGW"> F  </i>
   <i type="logical" name="LSINGLES"> F  </i>
   <i type="logical" name="LFERMIGW"> F  </i>
   <i type="logical" name="ODDONLYGW"> F  </i>
   <i type="logical" name="EVENONLYGW"> F  </i>
   <i type="int" name="NKREDLFX">     1</i>
   <i type="int" name="NKREDLFY">     1</i>
   <i type="int" name="NKREDLFZ">     1</i>
   <i type="int" name="MAXMEM">  2800</i>
   <i type="int" name="TELESCOPE">     0</i>
   <i type="int" name="NTAUPAR">    -1</i>
   <i type="int" name="NOMEGAPAR">    -1</i>
   <i name="DAMP_NEWTON">      0.80000001</i>
   <i name="LAMBDA">      1.00000000</i>
  </separator>
  <separator name="External order field" >
   <i name="OFIELD_KAPPA">      0.00000000</i>
   <v name="OFIELD_K">      0.00000000      0.00000000      0.00000000</v>
   <i name="OFIELD_Q6_NEAR">      0.00000000</i>
   <i name="OFIELD_Q6_FAR">      0.00000000</i>
   <i name="OFIELD_A">      0.00000000</i>
  </separator>
  <separator name="optional k-points parameters" >
   <i type="int" name="KPOINTS_OPT_MODE">     1</i>
   <i type="logical" name="LKPOINTS_OPT"> F  </i>
  </separator>
 </parameters>
 <atominfo>
  <atoms>       6 </atoms>
  <types>       1 </types>
  <array name="atoms" >
   <dimension dim="1">ion</dimension>
   <field type="string">element</field>
   <field type="int">atomtype</field>
   <set>
    <rc><c>Cu</c><c>   1</c></rc>
    <rc><c>Cu</c><c>   1</c></rc>
    <rc><c>Cu</c><c>   1</c></rc>
    <rc><c>Cu</c><c>   1</c></rc>
    <rc><c>Cu</c><c>   1</c></rc>
    <rc><c>Cu</c><c>   1</c></rc>
   </set>
  </array>
  <array name="atomtypes" >
   <dimension dim="1">type</dimension>
   <field type="int">atomspertype</field>
   <field type="string">element</field>
   <field>mass</field>
   <field>valence</field>
   <field type="string">pseudopotential</field>
   <set>
    <rc><c>   6</c><c>Cu</c><c>     63.54600000</c><c>     11.00000000</c><c>  PAW_PBE Cu 22Jun2005                  </c></rc>
   </set>
  </array>
 </atominfo>
 <structure name="initialpos" >
  <crystal>
   <varray name="basis" >
    <v>       3.63000011       0.00000000       0.00000000 </v>
    <v>       0.00000000       2.56679773       0.00000000 </v>
    <v>       0.00000000       0.00000000      21.41699400 </v>
   </varray>
   <i name="volume">    199.55232899 </i>
   <varray name="rec_basis" >
    <v>       0.27548208       0.00000000       0.00000000 </v>
    <v>       0.00000000       0.38959050       0.00000000 </v>
    <v>       0.00000000       0.00000000       0.04669189 </v>
   </varray>
  </crystal>
  <varray name="positions" >
   <v>       0.00000000       0.00000000       0.00000000 </v>
   <v>       0.50000000       0.50000000       0.05992432 </v>
   <v>       0.00000000       0.00000000       0.11984865 </v>
   <v>       0.50000000       0.50000000       0.17977297 </v>
   <v>       0.00000000       0.00000000       0.23969729 </v>
   <v>       0.50000000       0.50000000       0.29962162 </v>
  </varray>
  <varray name="selective"  type="logical" >
   <v type="logical" >  F  F  F </v>
   <v type="logical" >  F  F  F </v>
   <v type="logical" >  T  T  T </v>
   <v type="logical" >  T  T  T </v>
   <v type="logical" >  T  T  T </v>
   <v type="logical" >  T  T  T </v>
  </varray>
  <nose>
   <v>      -3.00000000       0.00000000       0.00010000       0.00010000 </v>
  </nose>
 </structure>
 <calculation>
  <scstep>
   <time name="dav">    0.20    0.20</time>
   <time name="total">    0.22    0.25</time>
   <energy>
    <i name="alphaZ">    131.93436261 </i>
    <i name="ewald">  24965.97507473 </i>
    <i name="hartreedc"> -32970.99453386 </i>
    <i name="XCdc">    273.33790841 </i>
    <i name="pawpsdc">   7368.58497629 </i>
    <i name="pawaedc">  -8003.52558915 </i>
    <i name="eentropy">     -0.00109605 </i>
    <i name="bandstr">    423.13119340 </i>
    <i name="atom">   8345.74584120 </i>
    <i name="e_fr_energy">    534.18813758 </i>
    <i name="e_wo_entrp">    534.18923364 </i>
    <i name="e_0_energy">    534.18850293 </i>
   </energy>
  </scstep>
  <scstep>
   <time name="dav">    0.19    0.19</time>
   <time name="total">    0.19    0.19</time>
   <energy>
    <i name="e_fr_energy">     24.00707494 </i>
    <i name="e_wo_entrp">     24.02533776 </i>
    <i name="e_0_energy">     24.01316255 </i>
   </energy>
  </scstep>
  <scstep>
   <time name="dav">    0.20    0.20</time>
   <time name="total">    0.20    0.20</time>
   <energy>
    <i name="e_fr_energy">    -22.97127141 </i>
    <i name="e_wo_entrp">    -22.98876800 </i>
    <i name="e_0_energy">    -22.97710361 </i>
   </energy>
  </scstep>
  <scstep>
   <time name="dav">    0.20    0.21</time>
   <time name="total">    0.21    0.21</time>
   <energy>
    <i name="e_fr_energy">    -24.56898754 </i>
    <i name="e_wo_entrp">    -24.58727162 </i>
    <i name="e_0_energy">    -24.57508223 </i>
   </energy>
  </scstep>
  <scstep>
   <time name="dav">    0.21    0.21</time>
   <time name="total">    0.26    0.26</time>
   <energy>
    <i name="e_fr_energy">    -24.60470904 </i>
    <i name="e_wo_entrp">    -24.62296534 </i>
    <i name="e_0_energy">    -24.61079448 </i>
   </energy>
  </scstep>
  <scstep>
   <time name="dav">    0.21    0.21</time>
   <time name="total">    0.27    0.28</time>
   <energy>
    <i name="e_fr_energy">    -19.04188173 </i>
    <i name="e_wo_entrp">    -19.03344183 </i>
    <i name="e_0_energy">    -19.03906843 </i>
   </energy>
  </scstep>
  <scstep>
   <time name="dav">    0.20    0.20</time>
   <time name="total">    0.27    0.27</time>
   <energy>
    <i name="e_fr_energy">    -16.55438571 </i>
    <i name="e_wo_entrp">    -16.55775989 </i>
    <i name="e_0_energy">    -16.55551044 </i>
   </energy>
  </scstep>
  <scstep>
   <time name="dav">    0.22    0.22</time>
   <time name="total">    0.29    0.29</time>
   <energy>
    <i name="e_fr_energy">    -15.72866012 </i>
    <i name="e_wo_entrp">    -15.73485183 </i>
    <i name="e_0_energy">    -15.73072402 </i>
   </energy>
  </scstep>
  <scstep>
   <time name="dav">    0.25    0.25</time>
   <time name="total">    0.31    0.31</time>
   <energy>
    <i name="e_fr_energy">    -15.06929638 </i>
    <i name="e_wo_entrp">    -15.07579955 </i>
    <i name="e_0_energy">    -15.07146410 </i>
   </energy>
  </scstep>
  <scstep>
   <time name="dav">    0.21    0.21</time>
   <time name="total">    0.27    0.28</time>
   <energy>
    <i name="e_fr_energy">    -15.11615061 </i>
    <i name="e_wo_entrp">    -15.11700867 </i>
    <i name="e_0_energy">    -15.11643663 </i>
   </energy>
  </scstep>
  <scstep>
   <time name="dav">    0.21    0.21</time>
   <time name="total">    0.28    0.28</time>
   <energy>
    <i name="e_fr_energy">    -15.84589729 </i>
    <i name="e_wo_entrp">    -15.84294555 </i>
    <i name="e_0_energy">    -15.84491338 </i>
   </energy>
  </scstep>
  <scstep>
   <time name="dav">    0.20    0.20</time>
   <time name="total">    0.26    0.27</time>
   <energy>
    <i name="e_fr_energy">    -17.03446554 </i>
    <i name="e_wo_entrp">    -17.03233815 </i>
    <i name="e_0_energy">    -17.03375641 </i>
   </energy>
  </scstep>
  <scstep>
   <time name="dav">    0.21    0.21</time>
   <time name="total">    0.28    0.28</time>
   <energy>
    <i name="e_fr_energy">    -19.00421064 </i>
    <i name="e_wo_entrp">    -19.00100583 </i>
    <i name="e_0_energy">    -19.00314237 </i>
   </energy>
  </scstep>
  <scstep>
   <time name="dav">    0.20    0.20</time>
   <time name="total">    0.27    0.27</time>
   <energy>
    <i name="e_fr_energy">    -20.10471527 </i>
    <i name="e_wo_entrp">    -20.10225097 </i>
    <i name="e_0_energy">    -20.10389384 </i>
   </energy>
  </scstep>
  <scstep>
   <time name="dav">    0.22    0.22</time>
   <time name="total">    0.29    0.29</time>
   <energy>
    <i name="e_fr_energy">    -20.49187375 </i>
    <i name="e_wo_entrp">    -20.48661893 </i>
    <i name="e_0_energy">    -20.49012214 </i>
   </energy>
  </scstep>
  <scstep>
   <time name="dav">    0.22    0.22</time>
   <time name="total">    0.29    0.29</time>
   <energy>
    <i name="e_fr_energy">    -20.59843537 </i>
    <i name="e_wo_entrp">    -20.59099305 </i>
    <i name="e_0_energy">    -20.59595460 </i>
   </energy>
  </scstep>
  <scstep>
   <time name="dav">    0.20    0.20</time>
   <time name="total">    0.27    0.27</time>
   <energy>
    <i name="e_fr_energy">    -20.70520332 </i>
    <i name="e_wo_entrp">    -20.69610186 </i>
    <i name="e_0_energy">    -20.70216950 </i>
   </energy>
  </scstep>
  <scstep>
   <time name="dav">    0.22    0.23</time>
   <time name="total">    0.29    0.29</time>
   <energy>
    <i name="e_fr_energy">    -20.74433153 </i>
    <i name="e_wo_entrp">    -20.73046631 </i>
    <i name="e_0_energy">    -20.73970979 </i>
   </energy>
  </scstep>
  <scstep>
   <time name="dav">    0.21    0.22</time>
   <time name="total">    0.28    0.28</time>
   <energy>
    <i name="e_fr_energy">    -20.83092261 </i>
    <i name="e_wo_entrp">    -20.81518589 </i>
    <i name="e_0_energy">    -20.82567704 </i>
   </energy>
  </scstep>
  <scstep>
   <time name="dav">    0.23    0.23</time>
   <time name="total">    0.29    0.29</time>
   <energy>
    <i name="e_fr_energy">    -20.89484133 </i>
    <i name="e_wo_entrp">    -20.87817445 </i>
    <i name="e_0_energy">    -20.88928571 </i>
   </energy>
  </scstep>
  <scstep>
   <time name="dav">    0.22    0.22</time>
   <time name="total">    0.29    0.29</time>
   <energy>
    <i name="e_fr_energy">    -20.95402405 </i>
    <i name="e_wo_entrp">    -20.93627097 </i>
    <i name="e_0_energy">    -20.94810636 </i>
   </energy>
  </scstep>
  <scstep>
   <time name="dav">    0.20    0.20</time>
   <time name="total">    0.27    0.27</time>
   <energy>
    <i name="e_fr_energy">    -20.98766230 </i>
    <i name="e_wo_entrp">    -20.96977159 </i>
    <i name="e_0_energy">    -20.98169873 </i>
   </energy>
  </scstep>
  <scstep>
   <time name="dav">    0.17    0.17</time>
   <time name="total">    0.24    0.24</time>
   <energy>
    <i name="e_fr_energy">    -21.00358944 </i>
    <i name="e_wo_entrp">    -20.98544898 </i>
    <i name="e_0_energy">    -20.99754262 </i>
   </energy>
  </scstep>
  <scstep>
   <time name="dav">    0.16    0.16</time>
   <time name="total">    0.22    0.23</time>
   <energy>
    <i name="e_fr_energy">    -21.01064822 </i>
    <i name="e_wo_entrp">    -20.99248372 </i>
    <i name="e_0_energy">    -21.00459339 </i>
   </energy>
  </scstep>
  <scstep>
   <time name="dav">    0.15    0.15</time>
   <time name="total">    0.21    0.22</time>
   <energy>
    <i name="e_fr_energy">    -21.01256790 </i>
    <i name="e_wo_entrp">    -20.99439951 </i>
    <i name="e_0_energy">    -21.00651177 </i>
   </energy>
  </scstep>
  <scstep>
   <time name="dav">    0.16    0.16</time>
   <time name="total">    0.23    0.23</time>
   <energy>
    <i name="e_fr_energy">    -21.01384648 </i>
    <i name="e_wo_entrp">    -20.99567258 </i>
    <i name="e_0_energy">    -21.00778851 </i>
   </energy>
  </scstep>
  <scstep>
   <time name="dav">    0.15    0.15</time>
   <time name="total">    0.22    0.22</time>
   <energy>
    <i name="e_fr_energy">    -21.01442885 </i>
    <i name="e_wo_entrp">    -20.99626658 </i>
    <i name="e_0_energy">    -21.00837476 </i>
   </energy>
  </scstep>
  <scstep>
   <time name="dav">    0.15    0.15</time>
   <time name="total">    0.22    0.22</time>
   <energy>
    <i name="e_fr_energy">    -21.01472788 </i>
    <i name="e_wo_entrp">    -20.99656588 </i>
    <i name="e_0_energy">    -21.00867388 </i>
   </energy>
  </scstep>
  <scstep>
   <time name="dav">    0.15    0.15</time>
   <time name="total">    0.17    0.17</time>
   <energy>
    <i name="alphaZ">    131.93436261 </i>
    <i name="ewald">  24965.97507473 </i>
    <i name="hartreedc"> -32899.63124097 </i>
    <i name="XCdc">    266.86240469 </i>
    <i name="pawpsdc">   7779.91502833 </i>
    <i name="pawaedc">  -8424.61238857 </i>
    <i name="eentropy">     -0.01816601 </i>
    <i name="bandstr">   -187.18567320 </i>
    <i name="atom">   8345.74584120 </i>
    <i name="e_fr_energy">    -21.01475719 </i>
    <i name="e_wo_entrp">    -20.99659118 </i>
    <i name="e_0_energy">    -21.00870186 </i>
   </energy>
  </scstep>
  <dipole>
   <v name="dipole">      0.00000000       0.00000000       0.00354013 </v>
   <i name="Tr[quadrupol]">   -162.45075175 </i>
   <i name="Echarged">      0.00000000 </i>
   <i name="Edipol_quadrupol">      0.00000000 </i>
   <i name="Eion">      0.00000000 </i>
  </dipole>
  <structure>
   <crystal>
    <varray name="basis" >
     <v>       3.63000011       0.00000000       0.00000000 </v>
     <v>       0.00000000       2.56679773       0.00000000 </v>
     <v>       0.00000000       0.00000000      21.41699400 </v>
    </varray>
    <i name="volume">    199.55232899 </i>
    <varray name="rec_basis" >
     <v>       0.27548208       0.00000000       0.00000000 </v>
     <v>       0.00000000       0.38959050       0.00000000 </v>
     <v>       0.00000000       0.00000000       0.04669189 </v>
    </varray>
   </crystal>
   <varray name="positions" >
    <v>       0.00000000       0.00000000       0.00000000 </v>
    <v>       0.50000000       0.50000000       0.05992432 </v>
    <v>       0.00000000       0.00000000       0.11984865 </v>
    <v>       0.50000000       0.50000000       0.17977297 </v>
    <v>       0.00000000       0.00000000       0.23969729 </v>
    <v>       0.50000000       0.50000000       0.29962162 </v>
   </varray>
  </structure>
  <varray name="forces" >
   <v>       0.00000000       0.00000000       0.61791914 </v>
   <v>       0.00000000       0.00000000      -0.35941464 </v>
   <v>       0.00000000       0.00000000      -0.12310995 </v>
   <v>       0.00000000       0.00000000       0.12313591 </v>
   <v>       0.00000000       0.00000000       0.36232280 </v>
   <v>       0.00000000       0.00000000      -0.62085326 </v>
  </varray>
  <varray name="stress" >
   <v>     -50.83976917       0.00000000       0.00000000 </v>
   <v>       0.00000000     -38.11958733       0.00000000 </v>
   <v>       0.00000000       0.00000000     -22.73335788 </v>
  </varray>
  <energy>
   <i name="e_fr_energy">    -23.00415764 </i>
   <i name="e_wo_entrp">    -22.98599163 </i>
   <i name="e_0_energy">    -22.99810230 </i>
  </energy>
  <time name="totalsc">    7.64    7.75</time>
 </calculation>
 <calculation>
  <scstep>
   <time name="dav">    0.19    0.19</time>
   <time name="total">    0.26    0.26</time>
   <energy>
    <i name="alphaZ">    131.93436261 </i>
    <i name="ewald">  25023.22862513 </i>
    <i name="hartreedc"> -32956.69389952 </i>
    <i name="XCdc">    266.90927886 </i>
    <i name="pawpsdc">   7779.85720806 </i>
    <i name="pawaedc">  -8424.55077844 </i>
    <i name="eentropy">     -0.01784822 </i>
    <i name="bandstr">   -187.43738313 </i>
    <i name="atom">   8345.74584120 </i>
    <i name="e_fr_energy">    -21.02459345 </i>
    <i name="e_wo_entrp">    -21.00674523 </i>
    <i name="e_0_energy">    -21.01864404 </i>
   </energy>
  </scstep>
  <scstep>
   <time name="dav">    0.26    0.26</time>
   <time name="total">    0.32    0.32</time>
   <energy>
    <i name="e_fr_energy">    -21.03782408 </i>
    <i name="e_wo_entrp">    -21.01967893 </i>
    <i name="e_0_energy">    -21.03177570 </i>
   </energy>
  </scstep>
  <scstep>
   <time name="dav">    0.20    0.20</time>
   <time name="total">    0.27    0.27</time>
   <energy>
    <i name="e_fr_energy">    -21.03661480 </i>
    <i name="e_wo_entrp">    -21.01853819 </i>
    <i name="e_0_energy">    -21.03058926 </i>
   </energy>
  </scstep>
  <scstep>
   <time name="dav">    0.19    0.19</time>
   <time name="total">    0.21    0.22</time>
   <energy>
    <i name="alphaZ">    131.93436261 </i>
    <i name="ewald">  25023.22862513 </i>
    <i name="hartreedc"> -32956.84903255 </i>
    <i name="XCdc">    266.89432115 </i>
    <i name="pawpsdc">   7783.52810619 </i>
    <i name="pawaedc">  -8428.19711995 </i>
    <i name="eentropy">     -0.01807667 </i>
    <i name="bandstr">   -187.30359235 </i>
    <i name="atom">   8345.74584120 </i>
    <i name="e_fr_energy">    -21.03656523 </i>
    <i name="e_wo_entrp">    -21.01848856 </i>
    <i name="e_0_energy">    -21.03053967 </i>
   </energy>
  </scstep>
  <dipole>
   <v name="dipole">      0.00000000       0.00000000       0.00309144 </v>
   <i name="Tr[quadrupol]">   -162.45691454 </i>
   <i name="Echarged">      0.00000000 </i>
   <i name="Edipol_quadrupol">      0.00000000 </i>
   <i name="Eion">      0.00000000 </i>
  </dipole>
  <structure>
   <crystal>
    <varray name="basis" >
     <v>       3.63000011       0.00000000       0.00000000 </v>
     <v>       0.00000000       2.56679773       0.00000000 </v>
     <v>       0.00000000       0.00000000      21.41699400 </v>
    </varray>
    <i name="volume">    199.55232899 </i>
    <varray name="rec_basis" >
     <v>       0.27548208       0.00000000       0.00000000 </v>
     <v>       0.00000000       0.38959050       0.00000000 </v>
     <v>       0.00000000       0.00000000       0.04669189 </v>
    </varray>
   </crystal>
   <varray name="positions" >
    <v>       0.00000000       0.00000000       0.00000000 </v>
    <v>       0.50000000       0.50000000       0.05992432 </v>
    <v>       0.00000000       0.00000000       0.11957134 </v>
    <v>       0.50000000       0.50000000       0.18005034 </v>
    <v>       0.00000000       0.00000000       0.24051344 </v>
    <v>       0.50000000       0.50000000       0.29822312 </v>
   </varray>
  </structure>
  <varray name="forces" >
   <v>       0.00000000       0.00000000       0.61482234 </v>
   <v>       0.00000000       0.00000000      -0.34670450 </v>
   <v>       0.00000000       0.00000000      -0.06380122 </v>
   <v>       0.00000000       0.00000000       0.04071270 </v>
   <v>       0.00000000       0.00000000       0.22669905 </v>
   <v>       0.00000000       0.00000000      -0.47172837 </v>
  </varray>
  <varray name="stress" >
   <v>     -41.41758009       0.00000000       0.00000000 </v>
   <v>       0.00000000     -30.22833244       0.00000000 </v>
   <v>       0.00000000       0.00000000     -14.43725194 </v>
  </varray>
  <energy>
   <i name="e_fr_energy">    -23.02703966 </i>
   <i name="e_wo_entrp">    -23.00896299 </i>
   <i name="e_0_energy">    -23.02101410 </i>
  </energy>
  <time name="totalsc">    1.35    1.40</time>
 </calculation>
 <calculation>
  <scstep>
   <time name="dav">    0.19    0.19</time>
   <time name="total">    0.26    0.26</time>
   <energy>
    <i name="alphaZ">    131.93436261 </i>
    <i name="ewald">  25162.34325714 </i>
    <i name="hartreedc"> -33095.54889757 </i>
    <i name="XCdc">    267.03137810 </i>
    <i name="pawpsdc">   7784.22744714 </i>
    <i name="pawaedc">  -8428.93311086 </i>
    <i name="eentropy">     -0.01297992 </i>
    <i name="bandstr">   -187.76316225 </i>
    <i name="atom">   8345.74584120 </i>
    <i name="e_fr_energy">    -20.97586442 </i>
    <i name="e_wo_entrp">    -20.96288450 </i>
    <i name="e_0_energy">    -20.97153778 </i>
   </energy>
  </scstep>
  <scstep>
   <time name="dav">    0.26    0.26</time>
   <time name="total">    0.32    0.33</time>
   <energy>
    <i name="e_fr_energy">    -21.06383444 </i>
    <i name="e_wo_entrp">    -21.04866180 </i>
    <i name="e_0_energy">    -21.05877689 </i>
   </energy>
  </scstep>
  <scstep>
   <time name="dav">    0.21    0.21</time>
   <time name="total">    0.27    0.27</time>
   <energy>
    <i name="e_fr_energy">    -21.05679053 </i>
    <i name="e_wo_entrp">    -21.04231643 </i>
    <i name="e_0_energy">    -21.05196583 </i>
   </energy>
  </scstep>
  <scstep>
   <time name="dav">    0.20    0.21</time>
   <time name="total">    0.27    0.27</time>
   <energy>
    <i name="e_fr_energy">    -21.05646230 </i>
    <i name="e_wo_entrp">    -21.04194056 </i>
    <i name="e_0_energy">    -21.05162172 </i>
   </energy>
  </scstep>
  <scstep>
   <time name="dav">    0.26    0.26</time>
   <time name="total">    0.33    0.33</time>
   <energy>
    <i name="e_fr_energy">    -21.05509813 </i>
    <i name="e_wo_entrp">    -21.04124147 </i>
    <i name="e_0_energy">    -21.05047924 </i>
   </energy>
  </scstep>
  <scstep>
   <time name="dav">    0.21    0.21</time>
   <time name="total">    0.28    0.28</time>
   <energy>
    <i name="e_fr_energy">    -21.05519540 </i>
    <i name="e_wo_entrp">    -21.04056168 </i>
    <i name="e_0_energy">    -21.05031749 </i>
   </energy>
  </scstep>
  <scstep>
   <time name="dav">    0.18    0.18</time>
   <time name="total">    0.24    0.25</time>
   <energy>
    <i name="e_fr_energy">    -21.05476391 </i>
    <i name="e_wo_entrp">    -21.04063776 </i>
    <i name="e_0_energy">    -21.05005519 </i>
   </energy>
  </scstep>
  <scstep>
   <time name="dav">    0.15    0.16</time>
   <time name="total">    0.18    0.18</time>
   <energy>
    <i name="alphaZ">    131.93436261 </i>
    <i name="ewald">  25162.34325714 </i>
    <i name="hartreedc"> -33096.14945469 </i>
    <i name="XCdc">    266.98691357 </i>
    <i name="pawpsdc">   7803.20770810 </i>
    <i name="pawaedc">  -8448.33383991 </i>
    <i name="eentropy">     -0.01418616 </i>
    <i name="bandstr">   -186.77537138 </i>
    <i name="atom">   8345.74584120 </i>
    <i name="e_fr_energy">    -21.05476953 </i>
    <i name="e_wo_entrp">    -21.04058337 </i>
    <i name="e_0_energy">    -21.05004081 </i>
   </energy>
  </scstep>
  <dipole>
   <v name="dipole">      0.00000000       0.00000000       0.00878295 </v>
   <i name="Tr[quadrupol]">   -162.49120469 </i>
   <i name="Echarged">      0.00000000 </i>
   <i name="Edipol_quadrupol">      0.00000000 </i>
   <i name="Eion">      0.00000000 </i>
  </dipole>
  <structure>
   <crystal>
    <varray name="basis" >
     <v>       3.63000011       0.00000000       0.00000000 </v>
     <v>       0.00000000       2.56679773       0.00000000 </v>
     <v>       0.00000000       0.00000000      21.41699400 </v>
    </varray>
    <i name="volume">    199.55232899 </i>
    <varray name="rec_basis" >
     <v>       0.27548208       0.00000000       0.00000000 </v>
     <v>       0.00000000       0.38959050       0.00000000 </v>
     <v>       0.00000000       0.00000000       0.04669189 </v>
    </varray>
   </crystal>
   <varray name="positions" >
    <v>       0.00000000       0.00000000       0.00000000 </v>
    <v>       0.50000000       0.50000000       0.05992432 </v>
    <v>       0.00000000       0.00000000       0.11889558 </v>
    <v>       0.50000000       0.50000000       0.18072623 </v>
    <v>       0.00000000       0.00000000       0.24250224 </v>
    <v>       0.50000000       0.50000000       0.29481524 </v>
   </varray>
  </structure>
  <varray name="forces" >
   <v>       0.00000000       0.00000000       0.61336786 </v>
   <v>       0.00000000       0.00000000      -0.30493230 </v>
   <v>       0.00000000       0.00000000       0.05591563 </v>
   <v>       0.00000000       0.00000000      -0.21524051 </v>
   <v>       0.00000000       0.00000000      -0.09911777 </v>
   <v>       0.00000000       0.00000000      -0.04999290 </v>
  </varray>
  <varray name="stress" >
   <v>     -44.46829207       0.00000000       0.00000000 </v>
   <v>       0.00000000     -37.78608810       0.00000000 </v>
   <v>       0.00000000       0.00000000     -20.69348940 </v>
  </varray>
  <energy>
   <i name="e_fr_energy">    -23.04777167 </i>
   <i name="e_wo_entrp">    -23.03358551 </i>
   <i name="e_0_energy">    -23.04304295 </i>
  </energy>
  <time name="totalsc">    2.44    2.49</time>
 </calculation>
 <calculation>
  <scstep>
   <time name="dav">    0.19    0.19</time>
   <time name="total">    0.26    0.26</time>
   <energy>
    <i name="alphaZ">    131.93436261 </i>
    <i name="ewald">  25149.88868663 </i>
    <i name="hartreedc"> -33083.75871036 </i>
    <i name="XCdc">    266.97446702 </i>
    <i name="pawpsdc">   7803.06971904 </i>
    <i name="pawaedc">  -8448.18643023 </i>
    <i name="eentropy">     -0.01480661 </i>
    <i name="bandstr">   -186.70788877 </i>
    <i name="atom">   8345.74584120 </i>
    <i name="e_fr_energy">    -21.05475948 </i>
    <i name="e_wo_entrp">    -21.03995287 </i>
    <i name="e_0_energy">    -21.04982394 </i>
   </energy>
  </scstep>
  <scstep>
   <time name="dav">    0.24    0.25</time>
   <time name="total">    0.31    0.31</time>
   <energy>
    <i name="e_fr_energy">    -21.05530717 </i>
    <i name="e_wo_entrp">    -21.04070289 </i>
    <i name="e_0_energy">    -21.05043908 </i>
   </energy>
  </scstep>
  <scstep>
   <time name="dav">    0.14    0.14</time>
   <time name="total">    0.16    0.16</time>
   <energy>
    <i name="alphaZ">    131.93436261 </i>
    <i name="ewald">  25149.88868663 </i>
    <i name="hartreedc"> -33083.70417455 </i>
    <i name="XCdc">    266.97208140 </i>
    <i name="pawpsdc">   7802.13101096 </i>
    <i name="pawaedc">  -8447.19720381 </i>
    <i name="eentropy">     -0.01472215 </i>
    <i name="bandstr">   -186.81115835 </i>
    <i name="atom">   8345.74584120 </i>
    <i name="e_fr_energy">    -21.05527607 </i>
    <i name="e_wo_entrp">    -21.04055392 </i>
    <i name="e_0_energy">    -21.05036869 </i>
   </energy>
  </scstep>
  <dipole>
   <v name="dipole">      0.00000000       0.00000000       0.00838024 </v>
   <i name="Tr[quadrupol]">   -162.49413252 </i>
   <i name="Echarged">      0.00000000 </i>
   <i name="Edipol_quadrupol">      0.00000000 </i>
   <i name="Eion">      0.00000000 </i>
  </dipole>
  <structure>
   <crystal>
    <varray name="basis" >
     <v>       3.63000011       0.00000000       0.00000000 </v>
     <v>       0.00000000       2.56679773       0.00000000 </v>
     <v>       0.00000000       0.00000000      21.41699400 </v>
    </varray>
    <i name="volume">    199.55232899 </i>
    <varray name="rec_basis" >
     <v>       0.27548208       0.00000000       0.00000000 </v>
     <v>       0.00000000       0.38959050       0.00000000 </v>
     <v>       0.00000000       0.00000000       0.04669189 </v>
    </varray>
   </crystal>
   <varray name="positions" >
    <v>       0.00000000       0.00000000       0.00000000 </v>
    <v>       0.50000000       0.50000000       0.05992432 </v>
    <v>       0.00000000       0.00000000       0.11895626 </v>
    <v>       0.50000000       0.50000000       0.18066555 </v>
    <v>       0.00000000       0.00000000       0.24232367 </v>
    <v>       0.50000000       0.50000000       0.29512122 </v>
   </varray>
  </structure>
  <varray name="forces" >
   <v>       0.00000000       0.00000000       0.61290481 </v>
   <v>       0.00000000       0.00000000      -0.30449264 </v>
   <v>       0.00000000       0.00000000       0.04998572 </v>
   <v>       0.00000000       0.00000000      -0.17775669 </v>
   <v>       0.00000000       0.00000000      -0.06736931 </v>
   <v>       0.00000000       0.00000000      -0.11327189 </v>
  </varray>
  <varray name="stress" >
   <v>     -39.42570450       0.00000000       0.00000000 </v>
   <v>       0.00000000     -32.32180491       0.00000000 </v>
   <v>       0.00000000       0.00000000     -15.47463866 </v>
  </varray>
  <energy>
   <i name="e_fr_energy">    -23.04805461 </i>
   <i name="e_wo_entrp">    -23.03333246 </i>
   <i name="e_0_energy">    -23.04314723 </i>
  </energy>
  <time name="totalsc">    1.02    1.05</time>
 </calculation>
 <calculation>
  <scstep>
   <time name="dav">    0.20    0.20</time>
   <time name="total">    0.26    0.26</time>
   <energy>
    <i name="alphaZ">    131.93436261 </i>
    <i name="ewald">  25153.85523350 </i>
    <i name="hartreedc"> -33087.69649176 </i>
    <i name="XCdc">    266.97723184 </i>
    <i name="pawpsdc">   7802.00221408 </i>
    <i name="pawaedc">  -8447.07529888 </i>
    <i name="eentropy">     -0.01449972 </i>
    <i name="bandstr">   -186.78368726 </i>
    <i name="atom">   8345.74584120 </i>
    <i name="e_fr_energy">    -21.05509440 </i>
    <i name="e_wo_entrp">    -21.04059468 </i>
    <i name="e_0_energy">    -21.05026116 </i>
   </energy>
  </scstep>
  <scstep>
   <time name="dav">    0.14    0.14</time>
   <time name="total">    0.16    0.16</time>
   <energy>
    <i name="alphaZ">    131.93436261 </i>
    <i name="ewald">  25153.85523350 </i>
    <i name="hartreedc"> -33087.81183997 </i>
    <i name="XCdc">    266.97907221 </i>
    <i name="pawpsdc">   7801.93223204 </i>
    <i name="pawaedc">  -8447.01574542 </i>
    <i name="eentropy">     -0.01474439 </i>
    <i name="bandstr">   -186.65952170 </i>
    <i name="atom">   8345.74584120 </i>
    <i name="e_fr_energy">    -21.05510992 </i>
    <i name="e_wo_entrp">    -21.04036552 </i>
    <i name="e_0_energy">    -21.05019512 </i>
   </energy>
  </scstep>
  <dipole>
   <v name="dipole">      0.00000000       0.00000000       0.01001704 </v>
   <i name="Tr[quadrupol]">   -162.48329893 </i>
   <i name="Echarged">      0.00000000 </i>
   <i name="Edipol_quadrupol">      0.00000000 </i>
   <i name="Eion">      0.00000000 </i>
  </dipole>
  <structure>
   <crystal>
    <varray name="basis" >
     <v>       3.63000011       0.00000000       0.00000000 </v>
     <v>       0.00000000       2.56679773       0.00000000 </v>
     <v>       0.00000000       0.00000000      21.41699400 </v>
    </varray>
    <i name="volume">    199.55232899 </i>
    <varray name="rec_basis" >
     <v>       0.27548208       0.00000000       0.00000000 </v>
     <v>       0.00000000       0.38959050       0.00000000 </v>
     <v>       0.00000000       0.00000000       0.04669189 </v>
    </varray>
   </crystal>
   <varray name="positions" >
    <v>       0.00000000       0.00000000       0.00000000 </v>
    <v>       0.50000000       0.50000000       0.05992432 </v>
    <v>       0.00000000       0.00000000       0.11893694 </v>
    <v>       0.50000000       0.50000000       0.18068487 </v>
    <v>       0.00000000       0.00000000       0.24238053 </v>
    <v>       0.50000000       0.50000000       0.29502380 </v>
   </varray>
  </structure>
  <varray name="forces" >
   <v>       0.00000000       0.00000000       0.60666946 </v>
   <v>       0.00000000       0.00000000      -0.30935029 </v>
   <v>       0.00000000       0.00000000       0.06821398 </v>
   <v>       0.00000000       0.00000000      -0.20156566 </v>
   <v>       0.00000000       0.00000000      -0.11705978 </v>
   <v>       0.00000000       0.00000000      -0.04690771 </v>
  </varray>
  <varray name="stress" >
   <v>     -44.11602562       0.00000000       0.00000000 </v>
   <v>       0.00000000     -37.16517890       0.00000000 </v>
   <v>       0.00000000       0.00000000     -20.46289228 </v>
  </varray>
  <energy>
   <i name="e_fr_energy">    -23.04794705 </i>
   <i name="e_wo_entrp">    -23.03320266 </i>
   <i name="e_0_energy">    -23.04303225 </i>
  </energy>
  <time name="totalsc">    0.71    0.72</time>
 </calculation>
 <calculation>
  <scstep>
   <time name="dav">    0.24    0.24</time>
   <time name="total">    0.30    0.30</time>
   <energy>
    <i name="alphaZ">    131.93436261 </i>
    <i name="ewald">  25150.98997010 </i>
    <i name="hartreedc"> -33084.93233847 </i>
    <i name="XCdc">    266.97543198 </i>
    <i name="pawpsdc">   7801.86237804 </i>
    <i name="pawaedc">  -8446.93632848 </i>
    <i name="eentropy">     -0.01469712 </i>
    <i name="bandstr">   -186.67984491 </i>
    <i name="atom">   8345.74584120 </i>
    <i name="e_fr_energy">    -21.05522504 </i>
    <i name="e_wo_entrp">    -21.04052792 </i>
    <i name="e_0_energy">    -21.05032600 </i>
   </energy>
  </scstep>
  <scstep>
   <time name="dav">    0.14    0.14</time>
   <time name="total">    0.16    0.16</time>
   <energy>
    <i name="alphaZ">    131.93436261 </i>
    <i name="ewald">  25150.98997010 </i>
    <i name="hartreedc"> -33084.96480839 </i>
    <i name="XCdc">    266.97708231 </i>
    <i name="pawpsdc">   7801.62443511 </i>
    <i name="pawaedc">  -8446.70560304 </i>
    <i name="eentropy">     -0.01487022 </i>
    <i name="bandstr">   -186.64165500 </i>
    <i name="atom">   8345.74584120 </i>
    <i name="e_fr_energy">    -21.05524532 </i>
    <i name="e_wo_entrp">    -21.04037510 </i>
    <i name="e_0_energy">    -21.05028858 </i>
   </energy>
  </scstep>
  <dipole>
   <v name="dipole">      0.00000000       0.00000000       0.01032301 </v>
   <i name="Tr[quadrupol]">   -162.47498302 </i>
   <i name="Echarged">      0.00000000 </i>
   <i name="Edipol_quadrupol">      0.00000000 </i>
   <i name="Eion">      0.00000000 </i>
  </dipole>
  <structure>
   <crystal>
    <varray name="basis" >
     <v>       3.63000011       0.00000000       0.00000000 </v>
     <v>       0.00000000       2.56679773       0.00000000 </v>
     <v>       0.00000000       0.00000000      21.41699400 </v>
    </varray>
    <i name="volume">    199.55232899 </i>
    <varray name="rec_basis" >
     <v>       0.27548208       0.00000000       0.00000000 </v>
     <v>       0.00000000       0.38959050       0.00000000 </v>
     <v>       0.00000000       0.00000000       0.04669189 </v>
    </varray>
   </crystal>
   <varray name="positions" >
    <v>       0.00000000       0.00000000       0.00000000 </v>
    <v>       0.50000000       0.50000000       0.05992432 </v>
    <v>       0.00000000       0.00000000       0.11895089 </v>
    <v>       0.50000000       0.50000000       0.18067091 </v>
    <v>       0.00000000       0.00000000       0.24233945 </v>
    <v>       0.50000000       0.50000000       0.29509417 </v>
   </varray>
  </structure>
  <varray name="forces" >
   <v>       0.00000000       0.00000000       0.60855737 </v>
   <v>       0.00000000       0.00000000      -0.30691630 </v>
   <v>       0.00000000       0.00000000       0.05405741 </v>
   <v>       0.00000000       0.00000000      -0.18160481 </v>
   <v>       0.00000000       0.00000000      -0.07816490 </v>
   <v>       0.00000000       0.00000000      -0.09592877 </v>
  </varray>
  <varray name="stress" >
   <v>     -42.86167953       0.00000000       0.00000000 </v>
   <v>       0.00000000     -35.82532068       0.00000000 </v>
   <v>       0.00000000       0.00000000     -19.04599659 </v>
  </varray>
  <energy>
   <i name="e_fr_energy">    -23.04802745 </i>
   <i name="e_wo_entrp">    -23.03315723 </i>
   <i name="e_0_energy">    -23.04307071 </i>
  </energy>
  <time name="totalsc">    0.75    0.77</time>
 </calculation>
 <calculation>
  <scstep>
   <time name="dav">    0.19    0.19</time>
   <time name="total">    0.26    0.26</time>
   <energy>
    <i name="alphaZ">    131.93436261 </i>
    <i name="ewald">  25206.83436162 </i>
    <i name="hartreedc"> -33140.69640063 </i>
    <i name="XCdc">    266.99789113 </i>
    <i name="pawpsdc">   7801.56020838 </i>
    <i name="pawaedc">  -8446.63902779 </i>
    <i name="eentropy">     -0.01458682 </i>
    <i name="bandstr">   -186.77563693 </i>
    <i name="atom">   8345.74584120 </i>
    <i name="e_fr_energy">    -21.05298724 </i>
    <i name="e_wo_entrp">    -21.03840042 </i>
    <i name="e_0_energy">    -21.04812496 </i>
   </energy>
  </scstep>
  <scstep>
   <time name="dav">    0.24    0.24</time>
   <time name="total">    0.31    0.31</time>
   <energy>
    <i name="e_fr_energy">    -21.05555501 </i>
    <i name="e_wo_entrp">    -21.04088295 </i>
    <i name="e_0_energy">    -21.05066433 </i>
   </energy>
  </scstep>
  <scstep>
   <time name="dav">    0.19    0.19</time>
   <time name="total">    0.21    0.21</time>
   <energy>
    <i name="alphaZ">    131.93436261 </i>
    <i name="ewald">  25206.83436162 </i>
    <i name="hartreedc"> -33140.45331272 </i>
    <i name="XCdc">    266.98812118 </i>
    <i name="pawpsdc">   7802.32709325 </i>
    <i name="pawaedc">  -8447.36968381 </i>
    <i name="eentropy">     -0.01467537 </i>
    <i name="bandstr">   -187.04754462 </i>
    <i name="atom">   8345.74584120 </i>
    <i name="e_fr_energy">    -21.05543666 </i>
    <i name="e_wo_entrp">    -21.04076129 </i>
    <i name="e_0_energy">    -21.05054487 </i>
   </energy>
  </scstep>
  <dipole>
   <v name="dipole">      0.00000000       0.00000000       0.01005674 </v>
   <i name="Tr[quadrupol]">   -162.48581055 </i>
   <i name="Echarged">      0.00000000 </i>
   <i name="Edipol_quadrupol">      0.00000000 </i>
   <i name="Eion">      0.00000000 </i>
  </dipole>
  <structure>
   <crystal>
    <varray name="basis" >
     <v>       3.63000011       0.00000000       0.00000000 </v>
     <v>       0.00000000       2.56679773       0.00000000 </v>
     <v>       0.00000000       0.00000000      21.41699400 </v>
    </varray>
    <i name="volume">    199.55232899 </i>
    <varray name="rec_basis" >
     <v>       0.27548208       0.00000000       0.00000000 </v>
     <v>       0.00000000       0.38959050       0.00000000 </v>
     <v>       0.00000000       0.00000000       0.04669189 </v>
    </varray>
   </crystal>
   <varray name="positions" >
    <v>       0.00000000       0.00000000       0.00000000 </v>
    <v>       0.50000000       0.50000000       0.05992432 </v>
    <v>       0.00000000       0.00000000       0.11909120 </v>
    <v>       0.50000000       0.50000000       0.18011475 </v>
    <v>       0.00000000       0.00000000       0.24219040 </v>
    <v>       0.50000000       0.50000000       0.29460010 </v>
   </varray>
  </structure>
  <varray name="forces" >
   <v>       0.00000000       0.00000000       0.60604681 </v>
   <v>       0.00000000       0.00000000      -0.33229744 </v>
   <v>       0.00000000       0.00000000      -0.00417331 </v>
   <v>       0.00000000       0.00000000      -0.11978552 </v>
   <v>       0.00000000       0.00000000      -0.10071940 </v>
   <v>       0.00000000       0.00000000      -0.04907114 </v>
  </varray>
  <varray name="stress" >
   <v>     -36.88402778       0.00000000       0.00000000 </v>
   <v>       0.00000000     -30.03096684       0.00000000 </v>
   <v>       0.00000000       0.00000000     -12.78397467 </v>
  </varray>
  <energy>
   <i name="e_fr_energy">    -23.05117887 </i>
   <i name="e_wo_entrp">    -23.03650350 </i>
   <i name="e_0_energy">    -23.04628708 </i>
  </energy>
  <time name="totalsc">    1.06    1.14</time>
 </calculation>
 <calculation>
  <scstep>
   <time name="dav">    0.19    0.19</time>
   <time name="total">    0.26    0.26</time>
   <energy>
    <i name="alphaZ">    131.93436261 </i>
    <i name="ewald">  25301.14463182 </i>
    <i name="hartreedc"> -33234.60316761 </i>
    <i name="XCdc">    267.02777248 </i>
    <i name="pawpsdc">   7802.50784439 </i>
    <i name="pawaedc">  -8447.57245610 </i>
    <i name="eentropy">     -0.01438445 </i>
    <i name="bandstr">   -187.21733476 </i>
    <i name="atom">   8345.74584120 </i>
    <i name="e_fr_energy">    -21.04689042 </i>
    <i name="e_wo_entrp">    -21.03250597 </i>
    <i name="e_0_energy">    -21.04209560 </i>
   </energy>
  </scstep>
  <scstep>
   <time name="dav">    0.25    0.25</time>
   <time name="total">    0.33    0.33</time>
   <energy>
    <i name="e_fr_energy">    -21.05414083 </i>
    <i name="e_wo_entrp">    -21.03978062 </i>
    <i name="e_0_energy">    -21.04935409 </i>
   </energy>
  </scstep>
  <scstep>
   <time name="dav">    0.20    0.20</time>
   <time name="total">    0.27    0.27</time>
   <energy>
    <i name="e_fr_energy">    -21.05373546 </i>
    <i name="e_wo_entrp">    -21.03927088 </i>
    <i name="e_0_energy">    -21.04891393 </i>
   </energy>
  </scstep>
  <scstep>
   <time name="dav">    0.14    0.14</time>
   <time name="total">    0.16    0.16</time>
   <energy>
    <i name="alphaZ">    131.93436261 </i>
    <i name="ewald">  25301.14463182 </i>
    <i name="hartreedc"> -33234.11257004 </i>
    <i name="XCdc">    267.01367500 </i>
    <i name="pawpsdc">   7805.20617777 </i>
    <i name="pawaedc">  -8450.28845209 </i>
    <i name="eentropy">     -0.01431062 </i>
    <i name="bandstr">   -187.68293709 </i>
    <i name="atom">   8345.74584120 </i>
    <i name="e_fr_energy">    -21.05358144 </i>
    <i name="e_wo_entrp">    -21.03927082 </i>
    <i name="e_0_energy">    -21.04881123 </i>
   </energy>
  </scstep>
  <dipole>
   <v name="dipole">      0.00000000       0.00000000       0.01011841 </v>
   <i name="Tr[quadrupol]">   -162.48908218 </i>
   <i name="Echarged">      0.00000000 </i>
   <i name="Edipol_quadrupol">      0.00000000 </i>
   <i name="Eion">      0.00000000 </i>
  </dipole>
  <structure>
   <crystal>
    <varray name="basis" >
     <v>       3.63000011       0.00000000       0.00000000 </v>
     <v>       0.00000000       2.56679773       0.00000000 </v>
     <v>       0.00000000       0.00000000      21.41699400 </v>
    </varray>
    <i name="volume">    199.55232899 </i>
    <varray name="rec_basis" >
     <v>       0.27548208       0.00000000       0.00000000 </v>
     <v>       0.00000000       0.38959050       0.00000000 </v>
     <v>       0.00000000       0.00000000       0.04669189 </v>
    </varray>
   </crystal>
   <varray name="positions" >
    <v>       0.00000000       0.00000000       0.00000000 </v>
    <v>       0.50000000       0.50000000       0.05992432 </v>
    <v>       0.00000000       0.00000000       0.11932817 </v>
    <v>       0.50000000       0.50000000       0.17917540 </v>
    <v>       0.00000000       0.00000000       0.24193866 </v>
    <v>       0.50000000       0.50000000       0.29376563 </v>
   </varray>
  </structure>
  <varray name="forces" >
   <v>       0.00000000       0.00000000       0.61106163 </v>
   <v>       0.00000000       0.00000000      -0.35924137 </v>
   <v>       0.00000000       0.00000000      -0.08261324 </v>
   <v>       0.00000000       0.00000000      -0.01754879 </v>
   <v>       0.00000000       0.00000000      -0.12384415 </v>
   <v>       0.00000000       0.00000000      -0.02781409 </v>
  </varray>
  <varray name="stress" >
   <v>     -34.52328121       0.00000000       0.00000000 </v>
   <v>       0.00000000     -28.11497569       0.00000000 </v>
   <v>       0.00000000       0.00000000     -10.01252751 </v>
  </varray>
  <energy>
   <i name="e_fr_energy">    -23.05435077 </i>
   <i name="e_wo_entrp">    -23.04004015 </i>
   <i name="e_0_energy">    -23.04958057 </i>
  </energy>
  <time name="totalsc">    1.30    1.33</time>
 </calculation>
 <calculation>
  <scstep>
   <time name="dav">    0.19    0.19</time>
   <time name="total">    0.26    0.26</time>
   <energy>
    <i name="alphaZ">    131.93436261 </i>
    <i name="ewald">  25339.37015090 </i>
    <i name="hartreedc"> -33272.00028355 </i>
    <i name="XCdc">    267.02834115 </i>
    <i name="pawpsdc">   7806.96634930 </i>
    <i name="pawaedc">  -8452.15251851 </i>
    <i name="eentropy">     -0.01451742 </i>
    <i name="bandstr">   -187.92832262 </i>
    <i name="atom">   8345.74584120 </i>
    <i name="e_fr_energy">    -21.05059693 </i>
    <i name="e_wo_entrp">    -21.03607952 </i>
    <i name="e_0_energy">    -21.04575779 </i>
   </energy>
  </scstep>
  <scstep>
   <time name="dav">    0.26    0.26</time>
   <time name="total">    0.33    0.33</time>
   <energy>
    <i name="e_fr_energy">    -21.05201172 </i>
    <i name="e_wo_entrp">    -21.03856674 </i>
    <i name="e_0_energy">    -21.04753006 </i>
   </energy>
  </scstep>
  <scstep>
   <time name="dav">    0.22    0.22</time>
   <time name="total">    0.28    0.29</time>
   <energy>
    <i name="e_fr_energy">    -21.05172166 </i>
    <i name="e_wo_entrp">    -21.03743890 </i>
    <i name="e_0_energy">    -21.04696074 </i>
   </energy>
  </scstep>
  <scstep>
   <time name="dav">    0.16    0.17</time>
   <time name="total">    0.18    0.19</time>
   <energy>
    <i name="alphaZ">    131.93436261 </i>
    <i name="ewald">  25339.37015090 </i>
    <i name="hartreedc"> -33271.84525442 </i>
    <i name="XCdc">    267.02255522 </i>
    <i name="pawpsdc">   7808.15142219 </i>
    <i name="pawaedc">  -8453.35153653 </i>
    <i name="eentropy">     -0.01423362 </i>
    <i name="bandstr">   -188.06505564 </i>
    <i name="atom">   8345.74584120 </i>
    <i name="e_fr_energy">    -21.05174810 </i>
    <i name="e_wo_entrp">    -21.03751448 </i>
    <i name="e_0_energy">    -21.04700356 </i>
   </energy>
  </scstep>
  <dipole>
   <v name="dipole">      0.00000000       0.00000000       0.01131204 </v>
   <i name="Tr[quadrupol]">   -162.47595159 </i>
   <i name="Echarged">      0.00000000 </i>
   <i name="Edipol_quadrupol">      0.00000000 </i>
   <i name="Eion">      0.00000000 </i>
  </dipole>
  <structure>
   <crystal>
    <varray name="basis" >
     <v>       3.63000011       0.00000000       0.00000000 </v>
     <v>       0.00000000       2.56679773       0.00000000 </v>
     <v>       0.00000000       0.00000000      21.41699400 </v>
    </varray>
    <i name="volume">    199.55232899 </i>
    <varray name="rec_basis" >
     <v>       0.27548208       0.00000000       0.00000000 </v>
     <v>       0.00000000       0.38959050       0.00000000 </v>
     <v>       0.00000000       0.00000000       0.04669189 </v>
    </varray>
   </crystal>
   <varray name="positions" >
    <v>       0.00000000       0.00000000       0.00000000 </v>
    <v>       0.50000000       0.50000000       0.05992432 </v>
    <v>       0.00000000       0.00000000       0.11942423 </v>
    <v>       0.50000000       0.50000000       0.17879463 </v>
    <v>       0.00000000       0.00000000       0.24183661 </v>
    <v>       0.50000000       0.50000000       0.29342736 </v>
   </varray>
  </structure>
  <varray name="forces" >
   <v>       0.00000000       0.00000000       0.61160101 </v>
   <v>       0.00000000       0.00000000      -0.36472253 </v>
   <v>       0.00000000       0.00000000      -0.09794166 </v>
   <v>       0.00000000       0.00000000       0.01617262 </v>
   <v>       0.00000000       0.00000000      -0.12595708 </v>
   <v>       0.00000000       0.00000000      -0.03915236 </v>
  </varray>
  <varray name="stress" >
   <v>     -40.34192147       0.00000000       0.00000000 </v>
   <v>       0.00000000     -34.12422753       0.00000000 </v>
   <v>       0.00000000       0.00000000     -15.20255636 </v>
  </varray>
  <energy>
   <i name="e_fr_energy">    -23.05455562 </i>
   <i name="e_wo_entrp">    -23.04032200 </i>
   <i name="e_0_energy">    -23.04981108 </i>
  </energy>
  <time name="totalsc">    1.34    1.37</time>
 </calculation>
 <calculation>
  <scstep>
   <time name="dav">    0.19    0.19</time>
   <time name="total">    0.26    0.26</time>
   <energy>
    <i name="alphaZ">    131.93436261 </i>
    <i name="ewald">  25410.53462781 </i>
    <i name="hartreedc"> -33342.79411782 </i>
    <i name="XCdc">    267.05066781 </i>
    <i name="pawpsdc">   7808.48631657 </i>
    <i name="pawaedc">  -8453.69845919 </i>
    <i name="eentropy">     -0.01391725 </i>
    <i name="bandstr">   -188.29318557 </i>
    <i name="atom">   8345.74584120 </i>
    <i name="e_fr_energy">    -21.04786383 </i>
    <i name="e_wo_entrp">    -21.03394658 </i>
    <i name="e_0_energy">    -21.04322475 </i>
   </energy>
  </scstep>
  <scstep>
   <time name="dav">    0.25    0.25</time>
   <time name="total">    0.31    0.31</time>
   <energy>
    <i name="e_fr_energy">    -21.05182753 </i>
    <i name="e_wo_entrp">    -21.03829756 </i>
    <i name="e_0_energy">    -21.04731754 </i>
   </energy>
  </scstep>
  <scstep>
   <time name="dav">    0.19    0.19</time>
   <time name="total">    0.25    0.25</time>
   <energy>
    <i name="e_fr_energy">    -21.05168470 </i>
    <i name="e_wo_entrp">    -21.03767941 </i>
    <i name="e_0_energy">    -21.04701627 </i>
   </energy>
  </scstep>
  <scstep>
   <time name="dav">    0.15    0.16</time>
   <time name="total">    0.18    0.18</time>
   <energy>
    <i name="alphaZ">    131.93436261 </i>
    <i name="ewald">  25410.53462781 </i>
    <i name="hartreedc"> -33342.83255838 </i>
    <i name="XCdc">    267.04105430 </i>
    <i name="pawpsdc">   7810.53725283 </i>
    <i name="pawaedc">  -8455.73676583 </i>
    <i name="eentropy">     -0.01385314 </i>
    <i name="bandstr">   -188.26160312 </i>
    <i name="atom">   8345.74584120 </i>
    <i name="e_fr_energy">    -21.05164174 </i>
    <i name="e_wo_entrp">    -21.03778860 </i>
    <i name="e_0_energy">    -21.04702402 </i>
   </energy>
  </scstep>
  <dipole>
   <v name="dipole">      0.00000000       0.00000000       0.01027974 </v>
   <i name="Tr[quadrupol]">   -162.48416737 </i>
   <i name="Echarged">      0.00000000 </i>
   <i name="Edipol_quadrupol">      0.00000000 </i>
   <i name="Eion">      0.00000000 </i>
  </dipole>
  <structure>
   <crystal>
    <varray name="basis" >
     <v>       3.63000011       0.00000000       0.00000000 </v>
     <v>       0.00000000       2.56679773       0.00000000 </v>
     <v>       0.00000000       0.00000000      21.41699400 </v>
    </varray>
    <i name="volume">    199.55232899 </i>
    <varray name="rec_basis" >
     <v>       0.27548208       0.00000000       0.00000000 </v>
     <v>       0.00000000       0.38959050       0.00000000 </v>
     <v>       0.00000000       0.00000000       0.04669189 </v>
    </varray>
   </crystal>
   <varray name="positions" >
    <v>       0.00000000       0.00000000       0.00000000 </v>
    <v>       0.50000000       0.50000000       0.05992432 </v>
    <v>       0.00000000       0.00000000       0.11904170 </v>
    <v>       0.50000000       0.50000000       0.17852195 </v>
    <v>       0.00000000       0.00000000       0.24113705 </v>
    <v>       0.50000000       0.50000000       0.29292779 </v>
   </varray>
  </structure>
  <varray name="forces" >
   <v>       0.00000000       0.00000000       0.59036964 </v>
   <v>       0.00000000       0.00000000      -0.40078433 </v>
   <v>       0.00000000       0.00000000      -0.07944097 </v>
   <v>       0.00000000       0.00000000      -0.00078797 </v>
   <v>       0.00000000       0.00000000      -0.08475152 </v>
   <v>       0.00000000       0.00000000      -0.02460486 </v>
  </varray>
  <varray name="stress" >
   <v>     -35.61177141       0.00000000       0.00000000 </v>
   <v>       0.00000000     -29.59581278       0.00000000 </v>
   <v>       0.00000000       0.00000000      -9.53865588 </v>
  </varray>
  <energy>
   <i name="e_fr_energy">    -23.05742999 </i>
   <i name="e_wo_entrp">    -23.04357685 </i>
   <i name="e_0_energy">    -23.05281228 </i>
  </energy>
  <time name="totalsc">    1.28    1.33</time>
 </calculation>
 <calculation>
  <scstep>
   <time name="dav">    0.19    0.19</time>
   <time name="total">    0.26    0.26</time>
   <energy>
    <i name="alphaZ">    131.93436261 </i>
    <i name="ewald">  25599.48633922 </i>
    <i name="hartreedc"> -33531.36828979 </i>
    <i name="XCdc">    267.12352049 </i>
    <i name="pawpsdc">   7811.60482835 </i>
    <i name="pawaedc">  -8456.88519092 </i>
    <i name="eentropy">     -0.01305453 </i>
    <i name="bandstr">   -188.64707757 </i>
    <i name="atom">   8345.74584120 </i>
    <i name="e_fr_energy">    -21.01872095 </i>
    <i name="e_wo_entrp">    -21.00566642 </i>
    <i name="e_0_energy">    -21.01436944 </i>
   </energy>
  </scstep>
  <scstep>
   <time name="dav">    0.26    0.26</time>
   <time name="total">    0.32    0.32</time>
   <energy>
    <i name="e_fr_energy">    -21.05111536 </i>
    <i name="e_wo_entrp">    -21.03954278 </i>
    <i name="e_0_energy">    -21.04725783 </i>
   </energy>
  </scstep>
  <scstep>
   <time name="dav">    0.23    0.24</time>
   <time name="total">    0.30    0.30</time>
   <energy>
    <i name="e_fr_energy">    -21.04887883 </i>
    <i name="e_wo_entrp">    -21.03564802 </i>
    <i name="e_0_energy">    -21.04446856 </i>
   </energy>
  </scstep>
  <scstep>
   <time name="dav">    0.21    0.21</time>
   <time name="total">    0.27    0.28</time>
   <energy>
    <i name="e_fr_energy">    -21.04857050 </i>
    <i name="e_wo_entrp">    -21.03571636 </i>
    <i name="e_0_energy">    -21.04428579 </i>
   </energy>
  </scstep>
  <scstep>
   <time name="dav">    0.22    0.22</time>
   <time name="total">    0.29    0.29</time>
   <energy>
    <i name="e_fr_energy">    -21.04772456 </i>
    <i name="e_wo_entrp">    -21.03461733 </i>
    <i name="e_0_energy">    -21.04335548 </i>
   </energy>
  </scstep>
  <scstep>
   <time name="dav">    0.24    0.24</time>
   <time name="total">    0.30    0.30</time>
   <energy>
    <i name="e_fr_energy">    -21.04753102 </i>
    <i name="e_wo_entrp">    -21.03441248 </i>
    <i name="e_0_energy">    -21.04315817 </i>
   </energy>
  </scstep>
  <scstep>
   <time name="dav">    0.14    0.14</time>
   <time name="total">    0.16    0.17</time>
   <energy>
    <i name="alphaZ">    131.93436261 </i>
    <i name="ewald">  25599.48633922 </i>
    <i name="hartreedc"> -33531.26222960 </i>
    <i name="XCdc">    267.09647527 </i>
    <i name="pawpsdc">   7820.85950892 </i>
    <i name="pawaedc">  -8466.31380173 </i>
    <i name="eentropy">     -0.01320631 </i>
    <i name="bandstr">   -188.58079461 </i>
    <i name="atom">   8345.74584120 </i>
    <i name="e_fr_energy">    -21.04750503 </i>
    <i name="e_wo_entrp">    -21.03429872 </i>
    <i name="e_0_energy">    -21.04310293 </i>
   </energy>
  </scstep>
  <dipole>
   <v name="dipole">      0.00000000       0.00000000       0.00975213 </v>
   <i name="Tr[quadrupol]">   -162.49017657 </i>
   <i name="Echarged">      0.00000000 </i>
   <i name="Edipol_quadrupol">      0.00000000 </i>
   <i name="Eion">      0.00000000 </i>
  </dipole>
  <structure>
   <crystal>
    <varray name="basis" >
     <v>       3.63000011       0.00000000       0.00000000 </v>
     <v>       0.00000000       2.56679773       0.00000000 </v>
     <v>       0.00000000       0.00000000      21.41699400 </v>
    </varray>
    <i name="volume">    199.55232899 </i>
    <varray name="rec_basis" >
     <v>       0.27548208       0.00000000       0.00000000 </v>
     <v>       0.00000000       0.38959050       0.00000000 </v>
     <v>       0.00000000       0.00000000       0.04669189 </v>
    </varray>
   </crystal>
   <varray name="positions" >
    <v>       0.00000000       0.00000000       0.00000000 </v>
    <v>       0.50000000       0.50000000       0.05992432 </v>
    <v>       0.00000000       0.00000000       0.11802761 </v>
    <v>       0.50000000       0.50000000       0.17779908 </v>
    <v>       0.00000000       0.00000000       0.23928251 </v>
    <v>       0.50000000       0.50000000       0.29160342 </v>
   </varray>
  </structure>
  <varray name="forces" >
   <v>       0.00000000       0.00000000       0.55833291 </v>
   <v>       0.00000000       0.00000000      -0.47071580 </v>
   <v>       0.00000000       0.00000000      -0.02917896 </v>
   <v>       0.00000000       0.00000000      -0.02684571 </v>
   <v>       0.00000000       0.00000000      -0.00228856 </v>
   <v>       0.00000000       0.00000000      -0.02930389 </v>
  </varray>
  <varray name="stress" >
   <v>     -40.53418006       0.00000000       0.00000000 </v>
   <v>       0.00000000     -35.56673525       0.00000000 </v>
   <v>       0.00000000       0.00000000     -12.72840937 </v>
  </varray>
  <energy>
   <i name="e_fr_energy">    -23.06123605 </i>
   <i name="e_wo_entrp">    -23.04802973 </i>
   <i name="e_0_energy">    -23.05683394 </i>
  </energy>
  <time name="totalsc">    2.18    2.26</time>
  <eigenvalues>
   <array>
    <dimension dim="1">band</dimension>
    <dimension dim="2">kpoint</dimension>
    <dimension dim="3">spin</dimension>
    <field>eigene</field>
    <field>occ</field>
    <set>
     <set comment="spin 1">
      <set comment="kpoint 1">
       <r>   -8.8750    1.0000 </r>
       <r>   -7.2908    1.0000 </r>
       <r>   -5.2826    1.0000 </r>
       <r>   -4.7000    1.0000 </r>
       <r>   -4.3391    1.0000 </r>
       <r>   -4.0966    1.0000 </r>
       <r>   -3.7589    1.0000 </r>
       <r>   -3.5998    1.0000 </r>
       <r>   -3.4943    1.0000 </r>
       <r>   -3.4108    1.0000 </r>
       <r>   -3.2942    1.0000 </r>
       <r>   -3.0765    1.0000 </r>
       <r>   -3.0309    1.0000 </r>
       <r>   -3.0191    1.0000 </r>
       <r>   -2.8310    1.0000 </r>
       <r>   -2.7295    1.0000 </r>
       <r>   -2.6677    1.0000 </r>
       <r>   -2.5780    1.0000 </r>
       <r>   -2.5263    1.0000 </r>
       <r>   -2.4768    1.0000 </r>
       <r>   -2.2582    1.0000 </r>
       <r>   -2.2464    1.0000 </r>
       <r>   -2.2281    1.0000 </r>
       <r>   -2.1971    1.0000 </r>
       <r>   -2.0657    1.0000 </r>
       <r>   -1.9943    1.0000 </r>
       <r>   -1.8786    1.0000 </r>
       <r>   -1.6905    1.0000 </r>
       <r>   -1.6506    1.0000 </r>
       <r>   -1.5609    1.0000 </r>
       <r>   -1.5412    1.0000 </r>
       <r>   -1.4433    1.0000 </r>
       <r>   -1.3672    1.0000 </r>
       <r>   -0.4991    1.0031 </r>
       <r>    1.5687   -0.0000 </r>
       <r>    2.3017   -0.0000 </r>
       <r>    3.6341   -0.0000 </r>
       <r>    4.1378   -0.0000 </r>
       <r>    4.4935   -0.0000 </r>
       <r>    5.3969   -0.0000 </r>
       <r>    5.5152    0.0000 </r>
       <r>    7.2060    0.0000 </r>
       <r>    7.3374    0.0000 </r>
       <r>    7.7780    0.0000 </r>
      </set>
      <set comment="kpoint 2">
       <r>   -7.6093    1.0000 </r>
       <r>   -6.2243    1.0000 </r>
       <r>   -5.0239    1.0000 </r>
       <r>   -5.0112    1.0000 </r>
       <r>   -4.4529    1.0000 </r>
       <r>   -4.3332    1.0000 </r>
       <r>   -3.9054    1.0000 </r>
       <r>   -3.4050    1.0000 </r>
       <r>   -3.2962    1.0000 </r>
       <r>   -3.1730    1.0000 </r>
       <r>   -3.0902    1.0000 </r>
       <r>   -3.0370    1.0000 </r>
       <r>   -2.9913    1.0000 </r>
       <r>   -2.9343    1.0000 </r>
       <r>   -2.8420    1.0000 </r>
       <r>   -2.7382    1.0000 </r>
       <r>   -2.7089    1.0000 </r>
       <r>   -2.6286    1.0000 </r>
       <r>   -2.5219    1.0000 </r>
       <r>   -2.3863    1.0000 </r>
       <r>   -2.2272    1.0000 </r>
       <r>   -2.2238    1.0000 </r>
       <r>   -2.1006    1.0000 </r>
       <r>   -2.0539    1.0000 </r>
       <r>   -2.0266    1.0000 </r>
       <r>   -1.9998    1.0000 </r>
       <r>   -1.9622    1.0000 </r>
       <r>   -1.8417    1.0000 </r>
       <r>   -1.5425    1.0000 </r>
       <r>   -1.5376    1.0000 </r>
       <r>   -1.5228    1.0000 </r>
       <r>   -1.4824    1.0000 </r>
       <r>   -1.4334    1.0000 </r>
       <r>   -1.2053    1.0000 </r>
       <r>   -0.0323    0.4409 </r>
       <r>    0.0844    0.0575 </r>
       <r>    1.7793   -0.0000 </r>
       <r>    2.1239   -0.0000 </r>
       <r>    4.9549   -0.0000 </r>
       <r>    5.1202   -0.0000 </r>
       <r>    5.7193    0.0000 </r>
       <r>    6.7302    0.0000 </r>
       <r>    6.8851    0.0000 </r>
       <r>    7.3101    0.0000 </r>
      </set>
      <set comment="kpoint 3">
       <r>   -6.4685    1.0000 </r>
       <r>   -5.3587    1.0000 </r>
       <r>   -4.6334    1.0000 </r>
       <r>   -4.2200    1.0000 </r>
       <r>   -4.1887    1.0000 </r>
       <r>   -4.1186    1.0000 </r>
       <r>   -3.7888    1.0000 </r>
       <r>   -3.7309    1.0000 </r>
       <r>   -3.6684    1.0000 </r>
       <r>   -3.6445    1.0000 </r>
       <r>   -3.5638    1.0000 </r>
       <r>   -3.0913    1.0000 </r>
       <r>   -2.9615    1.0000 </r>
       <r>   -2.9388    1.0000 </r>
       <r>   -2.8389    1.0000 </r>
       <r>   -2.5516    1.0000 </r>
       <r>   -2.3215    1.0000 </r>
       <r>   -2.3187    1.0000 </r>
       <r>   -2.2382    1.0000 </r>
       <r>   -2.2183    1.0000 </r>
       <r>   -2.1059    1.0000 </r>
       <r>   -1.9874    1.0000 </r>
       <r>   -1.9627    1.0000 </r>
       <r>   -1.9346    1.0000 </r>
       <r>   -1.8198    1.0000 </r>
       <r>   -1.7115    1.0000 </r>
       <r>   -1.6743    1.0000 </r>
       <r>   -1.6078    1.0000 </r>
       <r>   -1.6051    1.0000 </r>
       <r>   -1.5723    1.0000 </r>
       <r>   -1.5303    1.0000 </r>
       <r>   -1.4941    1.0000 </r>
       <r>   -0.9050    1.0000 </r>
       <r>    1.3864   -0.0000 </r>
       <r>    3.4795   -0.0000 </r>
       <r>    3.5396   -0.0000 </r>
       <r>    5.2604   -0.0000 </r>
       <r>    5.7351    0.0000 </r>
       <r>    6.2800    0.0000 </r>
       <r>    6.7141    0.0000 </r>
       <r>    7.2408    0.0000 </r>
       <r>    7.8130    0.0000 </r>
       <r>    8.0825    0.0000 </r>
       <r>    8.4957    0.0000 </r>
      </set>
      <set comment="kpoint 4">
       <r>   -5.6343    1.0000 </r>
       <r>   -4.6272    1.0000 </r>
       <r>   -4.4154    1.0000 </r>
       <r>   -4.1364    1.0000 </r>
       <r>   -4.0138    1.0000 </r>
       <r>   -3.9748    1.0000 </r>
       <r>   -3.7248    1.0000 </r>
       <r>   -3.6359    1.0000 </r>
       <r>   -3.4225    1.0000 </r>
       <r>   -3.3173    1.0000 </r>
       <r>   -3.2879    1.0000 </r>
       <r>   -3.1970    1.0000 </r>
       <r>   -3.0313    1.0000 </r>
       <r>   -2.9477    1.0000 </r>
       <r>   -2.8606    1.0000 </r>
       <r>   -2.8490    1.0000 </r>
       <r>   -2.8200    1.0000 </r>
       <r>   -2.6723    1.0000 </r>
       <r>   -2.4055    1.0000 </r>
       <r>   -2.3113    1.0000 </r>
       <r>   -2.1778    1.0000 </r>
       <r>   -2.1450    1.0000 </r>
       <r>   -2.1109    1.0000 </r>
       <r>   -2.0335    1.0000 </r>
       <r>   -1.8876    1.0000 </r>
       <r>   -1.8426    1.0000 </r>
       <r>   -1.7361    1.0000 </r>
       <r>   -1.6783    1.0000 </r>
       <r>   -1.6264    1.0000 </r>
       <r>   -1.6159    1.0000 </r>
       <r>   -1.5948    1.0000 </r>
       <r>   -0.8664    1.0000 </r>
       <r>    0.6749   -0.0000 </r>
       <r>    0.9071   -0.0000 </r>
       <r>    2.4241   -0.0000 </r>
       <r>    2.8983   -0.0000 </r>
       <r>    4.4364   -0.0000 </r>
       <r>    4.9182   -0.0000 </r>
       <r>    5.2899   -0.0000 </r>
       <r>    6.5867    0.0000 </r>
       <r>    7.1181    0.0000 </r>
       <r>    7.2812    0.0000 </r>
       <r>    8.0440    0.0000 </r>
       <r>    8.4024    0.0000 </r>
      </set>
     </set>
     <set comment="spin 2">
      <set comment="kpoint 1">
       <r>   -8.8750    1.0000 </r>
       <r>   -7.2908    1.0000 </r>
       <r>   -5.2826    1.0000 </r>
       <r>   -4.7000    1.0000 </r>
       <r>   -4.3391    1.0000 </r>
       <r>   -4.0966    1.0000 </r>
       <r>   -3.7589    1.0000 </r>
       <r>   -3.5998    1.0000 </r>
       <r>   -3.4943    1.0000 </r>
       <r>   -3.4108    1.0000 </r>
       <r>   -3.2942    1.0000 </r>
       <r>   -3.0765    1.0000 </r>
       <r>   -3.0309    1.0000 </r>
       <r>   -3.0191    1.0000 </r>
       <r>   -2.8310    1.0000 </r>
       <r>   -2.7295    1.0000 </r>
       <r>   -2.6677    1.0000 </r>
       <r>   -2.5780    1.0000 </r>
       <r>   -2.5263    1.0000 </r>
       <r>   -2.4768    1.0000 </r>
       <r>   -2.2582    1.0000 </r>
       <r>   -2.2464    1.0000 </r>
       <r>   -2.2281    1.0000 </r>
       <r>   -2.1971    1.0000 </r>
       <r>   -2.0657    1.0000 </r>
       <r>   -1.9943    1.0000 </r>
       <r>   -1.8786    1.0000 </r>
       <r>   -1.6905    1.0000 </r>
       <r>   -1.6506    1.0000 </r>
       <r>   -1.5609    1.0000 </r>
       <r>   -1.5412    1.0000 </r>
       <r>   -1.4433    1.0000 </r>
       <r>   -1.3672    1.0000 </r>
       <r>   -0.4991    1.0031 </r>
       <r>    1.5687   -0.0000 </r>
       <r>    2.3017   -0.0000 </r>
       <r>    3.6345   -0.0000 </r>
       <r>    4.1397   -0.0000 </r>
       <r>    4.4935   -0.0000 </r>
       <r>    5.3984   -0.0000 </r>
       <r>    5.5164    0.0000 </r>
       <r>    7.2060    0.0000 </r>
       <r>    7.3374    0.0000 </r>
       <r>    7.7795    0.0000 </r>
      </set>
      <set comment="kpoint 2">
       <r>   -7.6093    1.0000 </r>
       <r>   -6.2243    1.0000 </r>
       <r>   -5.0239    1.0000 </r>
       <r>   -5.0112    1.0000 </r>
       <r>   -4.4529    1.0000 </r>
       <r>   -4.3332    1.0000 </r>
       <r>   -3.9054    1.0000 </r>
       <r>   -3.4050    1.0000 </r>
       <r>   -3.2962    1.0000 </r>
       <r>   -3.1730    1.0000 </r>
       <r>   -3.0902    1.0000 </r>
       <r>   -3.0370    1.0000 </r>
[...]
       <r>     5.1537     2.2641    38.0923 </r>
       <r>     5.2250     2.7077    38.2852 </r>
       <r>     5.2962     3.1363    38.5086 </r>
       <r>     5.3674     2.8894    38.7144 </r>
       <r>     5.4387     2.0170    38.8581 </r>
       <r>     5.5099     1.1750    38.9418 </r>
       <r>     5.5812     0.9261    39.0078 </r>
       <r>     5.6524     1.2849    39.0994 </r>
       <r>     5.7236     1.7441    39.2236 </r>
       <r>     5.7949     1.7199    39.3461 </r>
       <r>     5.8661     1.1232    39.4261 </r>
       <r>     5.9374     0.3923    39.4541 </r>
       <r>     6.0086    -0.0417    39.4511 </r>
       <r>     6.0798    -0.0789    39.4455 </r>
       <r>     6.1511     0.1806    39.4584 </r>
       <r>     6.2223     0.5524    39.4977 </r>
       <r>     6.2936     0.7783    39.5532 </r>
       <r>     6.3648     0.7468    39.6064 </r>
       <r>     6.4360     0.7408    39.6591 </r>
       <r>     6.5073     1.1792    39.7431 </r>
       <r>     6.5785     2.0494    39.8891 </r>
       <r>     6.6497     2.8318    40.0909 </r>
       <r>     6.7210     3.0262    40.3064 </r>
       <r>     6.7922     2.5791    40.4902 </r>
       <r>     6.8635     1.8209    40.6199 </r>
       <r>     6.9347     1.2039    40.7057 </r>
       <r>     7.0059     1.1447    40.7872 </r>
       <r>     7.0772     1.8821    40.9213 </r>
       <r>     7.1484     3.2549    41.1532 </r>
       <r>     7.2197     4.6075    41.4814 </r>
       <r>     7.2909     5.0623    41.8420 </r>
       <r>     7.3621     4.1606    42.1384 </r>
       <r>     7.4334     2.3683    42.3071 </r>
       <r>     7.5046     0.7202    42.3584 </r>
       <r>     7.5758    -0.0810    42.3527 </r>
       <r>     7.6471    -0.0250    42.3509 </r>
       <r>     7.7183     0.5041    42.3868 </r>
       <r>     7.7896     1.0651    42.4627 </r>
       <r>     7.8608     1.4429    42.5655 </r>
       <r>     7.9320     1.8117    42.6945 </r>
       <r>     8.0033     2.3360    42.8609 </r>
       <r>     8.0745     2.6449    43.0494 </r>
       <r>     8.1458     2.2506    43.2097 </r>
       <r>     8.2170     1.4408    43.3123 </r>
       <r>     8.2882     1.1040    43.3910 </r>
       <r>     8.3595     1.6032    43.5052 </r>
       <r>     8.4307     2.3092    43.6697 </r>
       <r>     8.5019     2.3762    43.8390 </r>
       <r>     8.5732     1.6676    43.9578 </r>
       <r>     8.6444     0.7349    44.0101 </r>
       <r>     8.7157     0.1137    44.0182 </r>
       <r>     8.7869    -0.0999    44.0111 </r>
       <r>     8.8581    -0.0939    44.0044 </r>
       <r>     8.9294    -0.0441    44.0013 </r>
       <r>     9.0006    -0.0140    44.0003 </r>
       <r>     9.0719    -0.0032    44.0000 </r>
       <r>     9.1431    -0.0006    44.0000 </r>
       <r>     9.2143    -0.0001    44.0000 </r>
       <r>     9.2856    -0.0000    44.0000 </r>
       <r>     9.3568    -0.0000    44.0000 </r>
       <r>     9.4280    -0.0000    44.0000 </r>
       <r>     9.4993    -0.0000    44.0000 </r>
       <r>     9.5705    -0.0000    44.0000 </r>
       <r>     9.6418    -0.0000    44.0000 </r>
       <r>     9.7130    -0.0000    44.0000 </r>
       <r>     9.7842    -0.0000    44.0000 </r>
       <r>     9.8555     0.0000    44.0000 </r>
       <r>     9.9267     0.0000    44.0000 </r>
       <r>     9.9980     0.0000    44.0000 </r>
       <r>    10.0692     0.0000    44.0000 </r>
       <r>    10.1404     0.0000    44.0000 </r>
       <r>    10.2117     0.0000    44.0000 </r>
       <r>    10.2829     0.0000    44.0000 </r>
       <r>    10.3542     0.0000    44.0000 </r>
       <r>    10.4254     0.0000    44.0000 </r>
       <r>    10.4966     0.0000    44.0000 </r>
      </set>
      <set comment="spin 2">
       <r>   -10.8750     0.0000     0.0000 </r>
       <r>   -10.8037     0.0000     0.0000 </r>
       <r>   -10.7325     0.0000     0.0000 </r>
       <r>   -10.6612     0.0000     0.0000 </r>
       <r>   -10.5900     0.0000     0.0000 </r>
       <r>   -10.5188    -0.0000    -0.0000 </r>
       <r>   -10.4475    -0.0000    -0.0000 </r>
       <r>   -10.3763    -0.0000    -0.0000 </r>
       <r>   -10.3050    -0.0000    -0.0000 </r>
       <r>   -10.2338    -0.0000    -0.0000 </r>
       <r>   -10.1626    -0.0000    -0.0000 </r>
       <r>   -10.0913    -0.0000    -0.0000 </r>
       <r>   -10.0201    -0.0000    -0.0000 </r>
       <r>    -9.9489    -0.0000    -0.0000 </r>
       <r>    -9.8776    -0.0000    -0.0000 </r>
       <r>    -9.8064    -0.0000    -0.0000 </r>
       <r>    -9.7351    -0.0000    -0.0000 </r>
       <r>    -9.6639    -0.0000    -0.0000 </r>
       <r>    -9.5927    -0.0000    -0.0000 </r>
       <r>    -9.5214    -0.0000    -0.0000 </r>
       <r>    -9.4502    -0.0002    -0.0000 </r>
       <r>    -9.3789    -0.0014    -0.0001 </r>
       <r>    -9.3077    -0.0054    -0.0005 </r>
       <r>    -9.2365    -0.0150    -0.0016 </r>
       <r>    -9.1652    -0.0244    -0.0033 </r>
       <r>    -9.0940    -0.0041    -0.0036 </r>
       <r>    -9.0228     0.0930     0.0030 </r>
       <r>    -8.9515     0.2708     0.0223 </r>
       <r>    -8.8803     0.4315     0.0531 </r>
       <r>    -8.8090     0.4450     0.0848 </r>
       <r>    -8.7378     0.2994     0.1061 </r>
       <r>    -8.6666     0.1156     0.1143 </r>
       <r>    -8.5953     0.0045     0.1146 </r>
       <r>    -8.5241    -0.0243     0.1129 </r>
       <r>    -8.4528    -0.0168     0.1117 </r>
       <r>    -8.3816    -0.0065     0.1113 </r>
       <r>    -8.3104    -0.0017     0.1111 </r>
       <r>    -8.2391    -0.0004     0.1111 </r>
       <r>    -8.1679    -0.0008     0.1110 </r>
       <r>    -8.0966    -0.0039     0.1108 </r>
       <r>    -8.0254    -0.0143     0.1098 </r>
       <r>    -7.9542    -0.0356     0.1072 </r>
       <r>    -7.8829    -0.0481     0.1038 </r>
       <r>    -7.8117     0.0195     0.1052 </r>
       <r>    -7.7405     0.2545     0.1233 </r>
       <r>    -7.6692     0.6184     0.1674 </r>
       <r>    -7.5980     0.8789     0.2300 </r>
       <r>    -7.5267     0.8302     0.2891 </r>
       <r>    -7.4555     0.5702     0.3297 </r>
       <r>    -7.3843     0.3872     0.3573 </r>
       <r>    -7.3130     0.3864     0.3848 </r>
       <r>    -7.2418     0.4105     0.4141 </r>
       <r>    -7.1705     0.3150     0.4365 </r>
       <r>    -7.0993     0.1453     0.4469 </r>
       <r>    -7.0281     0.0191     0.4482 </r>
       <r>    -6.9568    -0.0269     0.4463 </r>
       <r>    -6.8856    -0.0337     0.4439 </r>
       <r>    -6.8144    -0.0440     0.4408 </r>
       <r>    -6.7431    -0.0525     0.4371 </r>
       <r>    -6.6719     0.0095     0.4377 </r>
       <r>    -6.6006     0.2286     0.4540 </r>
       <r>    -6.5294     0.5784     0.4952 </r>
       <r>    -6.4582     0.8739     0.5575 </r>
       <r>    -6.3869     0.9774     0.6271 </r>
       <r>    -6.3157     0.9753     0.6966 </r>
       <r>    -6.2444     0.9791     0.7663 </r>
       <r>    -6.1732     0.8975     0.8303 </r>
       <r>    -6.1020     0.6160     0.8742 </r>
       <r>    -6.0307     0.2337     0.8908 </r>
       <r>    -5.9595    -0.0543     0.8869 </r>
       <r>    -5.8883    -0.1329     0.8775 </r>
       <r>    -5.8170     0.0877     0.8837 </r>
       <r>    -5.7458     0.6681     0.9313 </r>
       <r>    -5.6745     1.3973     1.0309 </r>
       <r>    -5.6033     1.7874     1.1582 </r>
       <r>    -5.5321     1.6096     1.2729 </r>
       <r>    -5.4608     1.2307     1.3605 </r>
       <r>    -5.3896     1.0939     1.4385 </r>
       <r>    -5.3183     1.1311     1.5190 </r>
       <r>    -5.2471     1.0576     1.5944 </r>
       <r>    -5.1759     0.9720     1.6636 </r>
       <r>    -5.1046     1.1879     1.7483 </r>
       <r>    -5.0334     1.5795     1.8608 </r>
       <r>    -4.9622     1.6088     1.9754 </r>
       <r>    -4.8909     1.1337     2.0561 </r>
       <r>    -4.8197     0.7741     2.1113 </r>
       <r>    -4.7484     1.1974     2.1966 </r>
       <r>    -4.6772     2.2645     2.3579 </r>
       <r>    -4.6060     3.2156     2.5870 </r>
       <r>    -4.5347     3.6364     2.8460 </r>
       <r>    -4.4635     3.7794     3.1153 </r>
       <r>    -4.3922     3.9233     3.3948 </r>
       <r>    -4.3210     4.0979     3.6867 </r>
       <r>    -4.2498     4.4729     4.0053 </r>
       <r>    -4.1785     5.2449     4.3790 </r>
       <r>    -4.1073     6.1004     4.8136 </r>
       <r>    -4.0360     6.3734     5.2676 </r>
       <r>    -3.9648     5.8016     5.6809 </r>
       <r>    -3.8936     4.9696     6.0349 </r>
       <r>    -3.8223     4.9120     6.3848 </r>
       <r>    -3.7511     5.9780     6.8107 </r>
       <r>    -3.6799     7.1929     7.3231 </r>
       <r>    -3.6086     7.3145     7.8442 </r>
       <r>    -3.5374     6.4376     8.3028 </r>
       <r>    -3.4661     5.8752     8.7213 </r>
       <r>    -3.3949     6.4371     9.1799 </r>
       <r>    -3.3237     7.5043     9.7145 </r>
       <r>    -3.2524     8.0599    10.2887 </r>
       <r>    -3.1812     8.1358    10.8683 </r>
       <r>    -3.1099     8.7343    11.4905 </r>
       <r>    -3.0387    10.4388    12.2341 </r>
       <r>    -2.9675    12.6009    13.1318 </r>
       <r>    -2.8962    13.9445    14.1252 </r>
       <r>    -2.8250    13.6306    15.0962 </r>
       <r>    -2.7538    11.8037    15.9371 </r>
       <r>    -2.6825     9.3624    16.6041 </r>
       <r>    -2.6113     7.2200    17.1184 </r>
       <r>    -2.5400     5.8788    17.5372 </r>
       <r>    -2.4688     5.6502    17.9397 </r>
       <r>    -2.3976     6.7910    18.4235 </r>
       <r>    -2.3263     9.1705    19.0768 </r>
       <r>    -2.2551    12.0469    19.9350 </r>
       <r>    -2.1838    14.4094    20.9615 </r>
       <r>    -2.1126    15.5573    22.0698 </r>
       <r>    -2.0414    15.3431    23.1628 </r>
       <r>    -1.9701    14.0310    24.1623 </r>
       <r>    -1.8989    12.2209    25.0329 </r>
       <r>    -1.8277    10.9745    25.8148 </r>
       <r>    -1.7564    11.5394    26.6368 </r>
       <r>    -1.6852    14.1519    27.6450 </r>
       <r>    -1.6139    16.9917    28.8554 </r>
       <r>    -1.5427    17.2536    30.0845 </r>
       <r>    -1.4715    13.8316    31.0699 </r>
       <r>    -1.4002     8.4307    31.6705 </r>
       <r>    -1.3290     3.7749    31.9394 </r>
       <r>    -1.2577     1.2432    32.0280 </r>
       <r>    -1.1865     0.4115    32.0573 </r>
       <r>    -1.1153     0.3185    32.0800 </r>
       <r>    -1.0440     0.6130    32.1236 </r>
       <r>    -0.9728     1.3883    32.2225 </r>
       <r>    -0.9015     2.3269    32.3883 </r>
       <r>    -0.8303     2.6426    32.5766 </r>
       <r>    -0.7591     1.9978    32.7189 </r>
       <r>    -0.6878     0.9631    32.7875 </r>
       <r>    -0.6166     0.3118    32.8097 </r>
       <r>    -0.5454     0.2201    32.8254 </r>
       <r>    -0.4741     0.3332    32.8491 </r>
       <r>    -0.4029     0.3145    32.8715 </r>
       <r>    -0.3316     0.1400    32.8815 </r>
       <r>    -0.2604    -0.0022    32.8814 </r>
       <r>    -0.1892     0.0868    32.8875 </r>
       <r>    -0.1179     0.4900    32.9224 </r>
       <r>    -0.0467     1.0813    32.9995 </r>
       <r>     0.0246     1.5343    33.1088 </r>
       <r>     0.0958     1.5469    33.2190 </r>
       <r>     0.1670     1.1116    33.2982 </r>
       <r>     0.2383     0.5147    33.3348 </r>
       <r>     0.3095     0.0567    33.3389 </r>
       <r>     0.3807    -0.1531    33.3280 </r>
       <r>     0.4520    -0.1051    33.3205 </r>
       <r>     0.5232     0.2631    33.3392 </r>
       <r>     0.5945     0.9395    33.4061 </r>
       <r>     0.6657     1.6333    33.5225 </r>
       <r>     0.7369     2.0050    33.6653 </r>
       <r>     0.8082     2.0801    33.8135 </r>
       <r>     0.8794     2.0629    33.9605 </r>
       <r>     0.9507     1.8654    34.0934 </r>
       <r>     1.0219     1.2989    34.1859 </r>
       <r>     1.0931     0.5546    34.2254 </r>
       <r>     1.1644     0.0673    34.2302 </r>
       <r>     1.2356     0.0598    34.2345 </r>
       <r>     1.3068     0.4147    34.2640 </r>
       <r>     1.3781     0.8226    34.3226 </r>
       <r>     1.4493     1.0024    34.3940 </r>
       <r>     1.5206     0.9134    34.4591 </r>
       <r>     1.5918     0.7560    34.5129 </r>
       <r>     1.6630     0.7392    34.5656 </r>
       <r>     1.7343     0.8582    34.6267 </r>
       <r>     1.8055     0.9003    34.6909 </r>
       <r>     1.8768     0.7160    34.7419 </r>
       <r>     1.9480     0.4624    34.7748 </r>
       <r>     2.0192     0.4284    34.8053 </r>
       <r>     2.0905     0.6468    34.8514 </r>
       <r>     2.1617     0.8964    34.9153 </r>
       <r>     2.2329     1.0981    34.9935 </r>
       <r>     2.3042     1.4248    35.0950 </r>
       <r>     2.3754     1.8790    35.2289 </r>
       <r>     2.4467     2.0576    35.3754 </r>
       <r>     2.5179     1.6172    35.4907 </r>
       <r>     2.5891     0.7825    35.5464 </r>
       <r>     2.6604     0.1523    35.5572 </r>
       <r>     2.7316     0.1579    35.5685 </r>
       <r>     2.8029     0.7801    35.6241 </r>
       <r>     2.8741     1.5453    35.7342 </r>
       <r>     2.9453     1.8201    35.8638 </r>
       <r>     3.0166     1.3793    35.9621 </r>
       <r>     3.0878     0.6109    36.0056 </r>
       <r>     3.1591     0.0289    36.0077 </r>
       <r>     3.2303    -0.1824    35.9947 </r>
       <r>     3.3015    -0.0491    35.9912 </r>
       <r>     3.3728     0.4373    36.0223 </r>
       <r>     3.4440     1.2017    36.1079 </r>
       <r>     3.5152     1.8768    36.2416 </r>
       <r>     3.5865     2.0130    36.3850 </r>
       <r>     3.6577     1.5314    36.4941 </r>
       <r>     3.7290     0.7938    36.5507 </r>
       <r>     3.8002     0.2140    36.5659 </r>
       <r>     3.8714    -0.0528    36.5622 </r>
       <r>     3.9427    -0.0663    36.5574 </r>
       <r>     4.0139     0.0670    36.5622 </r>
       <r>     4.0852     0.2359    36.5790 </r>
       <r>     4.1564     0.3337    36.6028 </r>
       <r>     4.2276     0.4053    36.6317 </r>
       <r>     4.2989     0.7167    36.6827 </r>
       <r>     4.3701     1.4096    36.7831 </r>
       <r>     4.4413     2.0904    36.9320 </r>
       <r>     4.5126     2.1185    37.0830 </r>
       <r>     4.5838     1.3773    37.1811 </r>
       <r>     4.6551     0.4596    37.2138 </r>
       <r>     4.7263     0.0935    37.2205 </r>
       <r>     4.7975     0.5975    37.2631 </r>
       <r>     4.8688     1.6825    37.3829 </r>
       <r>     4.9400     2.5871    37.5672 </r>
       <r>     5.0113     2.7293    37.7616 </r>
       <r>     5.0825     2.3650    37.9301 </r>
       <r>     5.1537     2.2658    38.0915 </r>
       <r>     5.2250     2.7098    38.2846 </r>
       <r>     5.2962     3.1359    38.5080 </r>
       <r>     5.3674     2.8867    38.7136 </r>
       <r>     5.4387     2.0145    38.8571 </r>
       <r>     5.5099     1.1739    38.9408 </r>
       <r>     5.5812     0.9242    39.0066 </r>
       <r>     5.6524     1.2816    39.0979 </r>
       <r>     5.7236     1.7434    39.2221 </r>
       <r>     5.7949     1.7251    39.3450 </r>
       <r>     5.8661     1.1316    39.4256 </r>
       <r>     5.9374     0.3987    39.4540 </r>
       <r>     6.0086    -0.0394    39.4512 </r>
       <r>     6.0798    -0.0789    39.4456 </r>
       <r>     6.1511     0.1801    39.4584 </r>
       <r>     6.2223     0.5523    39.4977 </r>
       <r>     6.2936     0.7788    39.5532 </r>
       <r>     6.3648     0.7477    39.6065 </r>
       <r>     6.4360     0.7407    39.6592 </r>
       <r>     6.5073     1.1744    39.7429 </r>
       <r>     6.5785     2.0371    39.8880 </r>
       <r>     6.6497     2.8154    40.0886 </r>
       <r>     6.7210     3.0158    40.3034 </r>
       <r>     6.7922     2.5816    40.4873 </r>
       <r>     6.8635     1.8330    40.6179 </r>
       <r>     6.9347     1.2167    40.7046 </r>
       <r>     7.0059     1.1516    40.7866 </r>
       <r>     7.0772     1.8808    40.9206 </r>
       <r>     7.1484     3.2473    41.1520 </r>
       <r>     7.2197     4.6000    41.4797 </r>
       <r>     7.2909     5.0617    41.8402 </r>
       <r>     7.3621     4.1682    42.1372 </r>
       <r>     7.4334     2.3786    42.3066 </r>
       <r>     7.5046     0.7268    42.3584 </r>
       <r>     7.5758    -0.0798    42.3527 </r>
       <r>     7.6471    -0.0272    42.3508 </r>
       <r>     7.7183     0.5013    42.3865 </r>
       <r>     7.7896     1.0619    42.4621 </r>
       <r>     7.8608     1.4340    42.5643 </r>
       <r>     7.9320     1.7928    42.6920 </r>
       <r>     8.0033     2.3159    42.8570 </r>
       <r>     8.0745     2.6411    43.0451 </r>
       <r>     8.1458     2.2676    43.2067 </r>
       <r>     8.2170     1.4621    43.3108 </r>
       <r>     8.2882     1.1118    43.3900 </r>
       <r>     8.3595     1.5973    43.5038 </r>
       <r>     8.4307     2.3026    43.6679 </r>
       <r>     8.5019     2.3784    43.8373 </r>
       <r>     8.5732     1.6770    43.9568 </r>
       <r>     8.6444     0.7443    44.0098 </r>
       <r>     8.7157     0.1186    44.0182 </r>
       <r>     8.7869    -0.0988    44.0112 </r>
       <r>     8.8581    -0.0944    44.0045 </r>
       <r>     8.9294    -0.0446    44.0013 </r>
       <r>     9.0006    -0.0142    44.0003 </r>
       <r>     9.0719    -0.0033    44.0000 </r>
       <r>     9.1431    -0.0006    44.0000 </r>
       <r>     9.2143    -0.0001    44.0000 </r>
       <r>     9.2856    -0.0000    44.0000 </r>
       <r>     9.3568    -0.0000    44.0000 </r>
       <r>     9.4280    -0.0000    44.0000 </r>
       <r>     9.4993    -0.0000    44.0000 </r>
       <r>     9.5705    -0.0000    44.0000 </r>
       <r>     9.6418    -0.0000    44.0000 </r>
       <r>     9.7130    -0.0000    44.0000 </r>
       <r>     9.7842    -0.0000    44.0000 </r>
       <r>     9.8555     0.0000    44.0000 </r>
       <r>     9.9267     0.0000    44.0000 </r>
       <r>     9.9980     0.0000    44.0000 </r>
       <r>    10.0692     0.0000    44.0000 </r>
       <r>    10.1404     0.0000    44.0000 </r>
       <r>    10.2117     0.0000    44.0000 </r>
       <r>    10.2829     0.0000    44.0000 </r>
       <r>    10.3542     0.0000    44.0000 </r>
       <r>    10.4254     0.0000    44.0000 </r>
       <r>    10.4966     0.0000    44.0000 </r>
      </set>
     </set>
    </array>
   </total>
  </dos>
 </calculation>
 <structure name="finalpos" >
  <crystal>
   <varray name="basis" >
    <v>       3.63000011       0.00000000       0.00000000 </v>
    <v>       0.00000000       2.56679773       0.00000000 </v>
    <v>       0.00000000       0.00000000      21.41699400 </v>
   </varray>
   <i name="volume">    199.55232899 </i>
   <varray name="rec_basis" >
    <v>       0.27548208       0.00000000       0.00000000 </v>
    <v>       0.00000000       0.38959050       0.00000000 </v>
    <v>       0.00000000       0.00000000       0.04669189 </v>
   </varray>
  </crystal>
  <varray name="positions" >
   <v>       0.00000000       0.00000000       0.00000000 </v>
   <v>       0.50000000       0.50000000       0.05992432 </v>
   <v>       0.00000000       0.00000000       0.11802761 </v>
   <v>       0.50000000       0.50000000       0.17779908 </v>
   <v>       0.00000000       0.00000000       0.23928251 </v>
   <v>       0.50000000       0.50000000       0.29160342 </v>
  </varray>
  <varray name="selective"  type="logical" >
   <v type="logical" >  F  F  F </v>
   <v type="logical" >  F  F  F </v>
   <v type="logical" >  T  T  T </v>
   <v type="logical" >  T  T  T </v>
   <v type="logical" >  T  T  T </v>
   <v type="logical" >  T  T  T </v>
  </varray>
  <nose>
   <v>      -3.00000000       0.00000000       0.00010000       0.00010000 </v>
  </nose>
 </structure>
</modeling>
