  10  10   0   0
  0.1692928E+02  0.2566798E-09  0.2566798E-09  0.2967047E-08  0.5000000E-15
  1.000000000000000E-004
  CAR 
 unknown system                          
     18.24573053     -8.83576554  301      2.02694112      1.00000000
     -8.836  0.0000E+00  0.0000E+00  0.0000E+00  0.0000E+00
     -8.745  0.0000E+00  0.0000E+00  0.0000E+00  0.0000E+00
     -8.655  0.0000E+00  0.0000E+00  0.0000E+00  0.0000E+00
     -8.565  0.0000E+00  0.0000E+00  0.0000E+00  0.0000E+00
     -8.475 -0.2442E-31 -0.2442E-31 -0.2205E-32 -0.2204E-32
     -8.384 -0.3069E-28 -0.3069E-28 -0.2772E-29 -0.2772E-29
     -8.294 -0.2558E-25 -0.2558E-25 -0.2312E-26 -0.2312E-26
     -8.204 -0.1413E-22 -0.1413E-22 -0.1278E-23 -0.1278E-23
     -8.114 -0.5169E-20 -0.5169E-20 -0.4679E-21 -0.4679E-21
     -8.023 -0.1251E-17 -0.1251E-17 -0.1134E-18 -0.1134E-18
     -7.933 -0.1936E-15 -0.1936E-15 -0.1759E-16 -0.1759E-16
     -7.843 -0.2033E-13 -0.2033E-13 -0.1853E-14 -0.1853E-14
     -7.753 -0.1403E-11 -0.1403E-11 -0.1285E-12 -0.1285E-12
     -7.662 -0.6346E-10 -0.6346E-10 -0.5857E-11 -0.5857E-11
     -7.572 -0.1871E-08 -0.1871E-08 -0.1747E-09 -0.1747E-09
     -7.482 -0.3564E-07 -0.3564E-07 -0.3392E-08 -0.3392E-08
     -7.391 -0.4327E-06 -0.4327E-06 -0.4245E-07 -0.4245E-07
     -7.301 -0.3257E-05 -0.3257E-05 -0.3364E-06 -0.3364E-06
     -7.211 -0.1428E-04 -0.1428E-04 -0.1625E-05 -0.1625E-05
     -7.121 -0.2948E-04 -0.2948E-04 -0.4286E-05 -0.4286E-05
     -7.030  0.1335E-04  0.1335E-04 -0.3081E-05 -0.3081E-05
     -6.940  0.2145E-03  0.2145E-03  0.1629E-04  0.1629E-04
     -6.850  0.4879E-03  0.4879E-03  0.6033E-04  0.6033E-04
     -6.760  0.5251E-03  0.5251E-03  0.1077E-03  0.1077E-03
     -6.669  0.2884E-03  0.2884E-03  0.1338E-03  0.1338E-03
     -6.579  0.1665E-03  0.1665E-03  0.1488E-03  0.1488E-03
     -6.489  0.3593E-03  0.3593E-03  0.1812E-03  0.1812E-03
     -6.398  0.5449E-03  0.5449E-03  0.2304E-03  0.2304E-03
     -6.308  0.4040E-03  0.4040E-03  0.2669E-03  0.2669E-03
     -6.218  0.1165E-03  0.1165E-03  0.2774E-03  0.2774E-03
     -6.128  0.5037E-04  0.5037E-04  0.2819E-03  0.2819E-03
     -6.037  0.2849E-03  0.2849E-03  0.3077E-03  0.3077E-03
     -5.947  0.5281E-03  0.5281E-03  0.3553E-03  0.3553E-03
     -5.857  0.4591E-03  0.4591E-03  0.3968E-03  0.3968E-03
     -5.767  0.2236E-03  0.2236E-03  0.4170E-03  0.4170E-03
     -5.676  0.2304E-03  0.2304E-03  0.4378E-03  0.4378E-03
     -5.586  0.4696E-03  0.4696E-03  0.4801E-03  0.4801E-03
     -5.496  0.5342E-03  0.5342E-03  0.5284E-03  0.5284E-03
     -5.405  0.3004E-03  0.3004E-03  0.5555E-03  0.5555E-03
     -5.315  0.5392E-04  0.5392E-04  0.5604E-03  0.5604E-03
     -5.225 -0.3132E-04 -0.3132E-04  0.5575E-03  0.5575E-03
     -5.135 -0.3446E-04 -0.3446E-04  0.5544E-03  0.5544E-03
     -5.044 -0.3495E-04 -0.3495E-04  0.5513E-03  0.5513E-03
     -4.954  0.1703E-04  0.1703E-04  0.5528E-03  0.5528E-03
     -4.864  0.2267E-03  0.2267E-03  0.5733E-03  0.5733E-03
     -4.774  0.5042E-03  0.5042E-03  0.6188E-03  0.6188E-03
     -4.683  0.5448E-03  0.5448E-03  0.6680E-03  0.6680E-03
     -4.593  0.2960E-03  0.2960E-03  0.6947E-03  0.6947E-03
     -4.503  0.5044E-04  0.5044E-04  0.6992E-03  0.6992E-03
     -4.412 -0.3131E-04 -0.3131E-04  0.6964E-03  0.6964E-03
     -4.322 -0.4272E-04 -0.4272E-04  0.6925E-03  0.6925E-03
     -4.232 -0.1123E-03 -0.1123E-03  0.6824E-03  0.6824E-03
     -4.142 -0.2500E-03 -0.2500E-03  0.6598E-03  0.6598E-03
     -4.051 -0.4866E-04 -0.4866E-04  0.6555E-03  0.6555E-03
     -3.961  0.1359E-02  0.1359E-02  0.7782E-03  0.7782E-03
     -3.871  0.3999E-02  0.3999E-02  0.1139E-02  0.1139E-02
     -3.781  0.5966E-02  0.5966E-02  0.1678E-02  0.1678E-02
     -3.690  0.5440E-02  0.5440E-02  0.2169E-02  0.2169E-02
     -3.600  0.3470E-02  0.3470E-02  0.2482E-02  0.2482E-02
     -3.510  0.2664E-02  0.2664E-02  0.2723E-02  0.2723E-02
     -3.419  0.3071E-02  0.3071E-02  0.3000E-02  0.3000E-02
     -3.329  0.2512E-02  0.2512E-02  0.3227E-02  0.3227E-02
     -3.239  0.1088E-02  0.1088E-02  0.3325E-02  0.3325E-02
     -3.149  0.1117E-02  0.1117E-02  0.3426E-02  0.3426E-02
     -3.058  0.2887E-02  0.2887E-02  0.3686E-02  0.3686E-02
     -2.968  0.3798E-02  0.3798E-02  0.4029E-02  0.4029E-02
     -2.878  0.2381E-02  0.2381E-02  0.4244E-02  0.4244E-02
     -2.788  0.7225E-03  0.7225E-03  0.4309E-02  0.4309E-02
     -2.697  0.1289E-02  0.1289E-02  0.4426E-02  0.4426E-02
     -2.607  0.3490E-02  0.3490E-02  0.4741E-02  0.4741E-02
     -2.517  0.4563E-02  0.4563E-02  0.5153E-02  0.5153E-02
     -2.426  0.3577E-02  0.3577E-02  0.5476E-02  0.5476E-02
     -2.336  0.2591E-02  0.2591E-02  0.5709E-02  0.5709E-02
     -2.246  0.2943E-02  0.2943E-02  0.5975E-02  0.5975E-02
     -2.156  0.3199E-02  0.3199E-02  0.6264E-02  0.6264E-02
     -2.065  0.2230E-02  0.2230E-02  0.6465E-02  0.6465E-02
     -1.975  0.1560E-02  0.1560E-02  0.6606E-02  0.6606E-02
     -1.885  0.2431E-02  0.2431E-02  0.6825E-02  0.6825E-02
     -1.795  0.4373E-02  0.4373E-02  0.7220E-02  0.7220E-02
     -1.704  0.7865E-02  0.7865E-02  0.7930E-02  0.7930E-02
     -1.614  0.1332E-01  0.1332E-01  0.9132E-02  0.9132E-02
     -1.524  0.1802E-01  0.1802E-01  0.1076E-01  0.1076E-01
     -1.433  0.1809E-01  0.1809E-01  0.1239E-01  0.1239E-01
     -1.343  0.1350E-01  0.1350E-01  0.1361E-01  0.1361E-01
     -1.253  0.8993E-02  0.8993E-02  0.1442E-01  0.1442E-01
     -1.163  0.7525E-02  0.7525E-02  0.1510E-01  0.1510E-01
     -1.072  0.7327E-02  0.7327E-02  0.1576E-01  0.1576E-01
     -0.982  0.6571E-02  0.6571E-02  0.1636E-01  0.1636E-01
     -0.892  0.6266E-02  0.6266E-02  0.1692E-01  0.1692E-01
     -0.802  0.8421E-02  0.8421E-02  0.1768E-01  0.1768E-01
     -0.711  0.1254E-01  0.1254E-01  0.1881E-01  0.1881E-01
     -0.621  0.1615E-01  0.1615E-01  0.2027E-01  0.2027E-01
     -0.531  0.1901E-01  0.1901E-01  0.2199E-01  0.2199E-01
     -0.441  0.2140E-01  0.2140E-01  0.2392E-01  0.2392E-01
     -0.350  0.2091E-01  0.2091E-01  0.2581E-01  0.2581E-01
     -0.260  0.1671E-01  0.1671E-01  0.2732E-01  0.2732E-01
     -0.170  0.1220E-01  0.1220E-01  0.2842E-01  0.2842E-01
     -0.079  0.1013E-01  0.1013E-01  0.2933E-01  0.2933E-01
      0.011  0.1052E-01  0.1052E-01  0.3028E-01  0.3028E-01
      0.101  0.1276E-01  0.1276E-01  0.3143E-01  0.3143E-01
      0.191  0.1578E-01  0.1578E-01  0.3286E-01  0.3286E-01
      0.282  0.1828E-01  0.1828E-01  0.3451E-01  0.3451E-01
      0.372  0.1915E-01  0.1915E-01  0.3624E-01  0.3624E-01
      0.462  0.1934E-01  0.1934E-01  0.3798E-01  0.3798E-01
      0.552  0.2144E-01  0.2144E-01  0.3992E-01  0.3992E-01
      0.643  0.2516E-01  0.2516E-01  0.4219E-01  0.4219E-01
      0.733  0.2751E-01  0.2751E-01  0.4467E-01  0.4467E-01
      0.823  0.2626E-01  0.2626E-01  0.4704E-01  0.4704E-01
      0.914  0.2173E-01  0.2173E-01  0.4900E-01  0.4900E-01
      1.004  0.1755E-01  0.1755E-01  0.5059E-01  0.5059E-01
      1.094  0.1672E-01  0.1672E-01  0.5210E-01  0.5210E-01
      1.184  0.1656E-01  0.1656E-01  0.5359E-01  0.5359E-01
      1.275  0.1299E-01  0.1299E-01  0.5476E-01  0.5476E-01
      1.365  0.7067E-02  0.7067E-02  0.5540E-01  0.5540E-01
      1.455  0.2305E-02  0.2305E-02  0.5561E-01  0.5561E-01
      1.545  0.1361E-04  0.1361E-04  0.5561E-01  0.5561E-01
      1.636 -0.5497E-03 -0.5497E-03  0.5556E-01  0.5556E-01
      1.726 -0.3311E-03 -0.3311E-03  0.5553E-01  0.5553E-01
      1.816  0.6597E-03  0.6597E-03  0.5559E-01  0.5559E-01
      1.907  0.2466E-02  0.2466E-02  0.5581E-01  0.5581E-01
      1.997  0.3672E-02  0.3672E-02  0.5615E-01  0.5615E-01
      2.087  0.2957E-02  0.2957E-02  0.5641E-01  0.5641E-01
      2.177  0.1296E-02  0.1296E-02  0.5653E-01  0.5653E-01
      2.268  0.3634E-03  0.3634E-03  0.5656E-01  0.5656E-01
      2.358  0.3527E-03  0.3527E-03  0.5659E-01  0.5659E-01
      2.448  0.4751E-03  0.4751E-03  0.5664E-01  0.5664E-01
      2.538  0.3044E-03  0.3044E-03  0.5666E-01  0.5666E-01
      2.629  0.3493E-04  0.3493E-04  0.5667E-01  0.5667E-01
      2.719 -0.1476E-03 -0.1476E-03  0.5665E-01  0.5665E-01
      2.809 -0.1841E-03 -0.1841E-03  0.5664E-01  0.5664E-01
      2.900  0.3624E-03  0.3624E-03  0.5667E-01  0.5667E-01
      2.990  0.1891E-02  0.1891E-02  0.5684E-01  0.5684E-01
      3.080  0.3317E-02  0.3317E-02  0.5714E-01  0.5714E-01
      3.170  0.2943E-02  0.2943E-02  0.5741E-01  0.5741E-01
      3.261  0.1252E-02  0.1252E-02  0.5752E-01  0.5752E-01
      3.351  0.6394E-04  0.6394E-04  0.5753E-01  0.5753E-01
      3.441 -0.1761E-03 -0.1761E-03  0.5751E-01  0.5751E-01
      3.531 -0.8307E-04 -0.8307E-04  0.5750E-01  0.5750E-01
      3.622 -0.1866E-04 -0.1866E-04  0.5750E-01  0.5750E-01
      3.712 -0.2472E-05 -0.2472E-05  0.5750E-01  0.5750E-01
      3.802 -0.6371E-06 -0.6371E-06  0.5750E-01  0.5750E-01
      3.893 -0.4702E-05 -0.4702E-05  0.5750E-01  0.5750E-01
      3.983 -0.3080E-04 -0.3080E-04  0.5750E-01  0.5750E-01
      4.073 -0.1141E-03 -0.1141E-03  0.5749E-01  0.5749E-01
      4.163 -0.1695E-03 -0.1695E-03  0.5747E-01  0.5747E-01
      4.254  0.3006E-03  0.3006E-03  0.5750E-01  0.5750E-01
      4.344  0.1770E-02  0.1770E-02  0.5766E-01  0.5766E-01
      4.434  0.3266E-02  0.3266E-02  0.5795E-01  0.5795E-01
      4.524  0.3030E-02  0.3030E-02  0.5823E-01  0.5823E-01
      4.615  0.1367E-02  0.1367E-02  0.5835E-01  0.5835E-01
      4.705  0.1098E-03  0.1098E-03  0.5836E-01  0.5836E-01
      4.795 -0.1775E-03 -0.1775E-03  0.5834E-01  0.5834E-01
      4.886 -0.8985E-04 -0.8985E-04  0.5834E-01  0.5834E-01
      4.976 -0.2103E-04 -0.2103E-04  0.5833E-01  0.5833E-01
      5.066 -0.3035E-05 -0.3035E-05  0.5833E-01  0.5833E-01
      5.156 -0.2513E-05 -0.2513E-05  0.5833E-01  0.5833E-01
      5.247 -0.1767E-04 -0.1767E-04  0.5833E-01  0.5833E-01
      5.337 -0.8196E-04 -0.8196E-04  0.5832E-01  0.5832E-01
      5.427 -0.1985E-03 -0.1985E-03  0.5831E-01  0.5831E-01
      5.517 -0.8403E-04 -0.8402E-04  0.5830E-01  0.5830E-01
      5.608  0.8751E-03  0.8751E-03  0.5838E-01  0.5838E-01
      5.698  0.2829E-02  0.2829E-02  0.5863E-01  0.5863E-01
      5.788  0.5106E-02  0.5106E-02  0.5909E-01  0.5909E-01
      5.879  0.6785E-02  0.6785E-02  0.5971E-01  0.5971E-01
      5.969  0.6570E-02  0.6570E-02  0.6030E-01  0.6030E-01
      6.059  0.4265E-02  0.4265E-02  0.6068E-01  0.6068E-01
      6.149  0.2131E-02  0.2131E-02  0.6088E-01  0.6088E-01
      6.240  0.1563E-02  0.1563E-02  0.6102E-01  0.6102E-01
      6.330  0.1469E-02  0.1469E-02  0.6115E-01  0.6115E-01
      6.420  0.9792E-03  0.9790E-03  0.6124E-01  0.6124E-01
      6.510  0.5238E-03  0.5234E-03  0.6129E-01  0.6129E-01
      6.601  0.4215E-03  0.4213E-03  0.6132E-01  0.6132E-01
      6.691  0.3866E-03  0.3869E-03  0.6136E-01  0.6136E-01
      6.781  0.4260E-03  0.4263E-03  0.6140E-01  0.6140E-01
      6.872  0.8566E-03  0.8568E-03  0.6148E-01  0.6148E-01
      6.962  0.1782E-02  0.1782E-02  0.6164E-01  0.6164E-01
      7.052  0.3178E-02  0.3178E-02  0.6192E-01  0.6192E-01
      7.142  0.4283E-02  0.4283E-02  0.6231E-01  0.6231E-01
      7.233  0.3790E-02  0.3789E-02  0.6265E-01  0.6265E-01
      7.323  0.2009E-02  0.2009E-02  0.6283E-01  0.6283E-01
      7.413  0.6364E-03  0.6365E-03  0.6289E-01  0.6289E-01
      7.503  0.6078E-03  0.6082E-03  0.6295E-01  0.6295E-01
      7.594  0.1734E-02  0.1735E-02  0.6310E-01  0.6310E-01
      7.684  0.2847E-02  0.2847E-02  0.6336E-01  0.6336E-01
      7.774  0.2670E-02  0.2670E-02  0.6360E-01  0.6360E-01
      7.864  0.1383E-02  0.1383E-02  0.6372E-01  0.6372E-01
      7.955  0.2623E-03  0.2623E-03  0.6375E-01  0.6375E-01
      8.045  0.2528E-03  0.2528E-03  0.6377E-01  0.6377E-01
      8.135  0.1283E-02  0.1283E-02  0.6389E-01  0.6389E-01
      8.226  0.2228E-02  0.2228E-02  0.6409E-01  0.6409E-01
      8.316  0.2329E-02  0.2329E-02  0.6430E-01  0.6430E-01
      8.406  0.2497E-02  0.2497E-02  0.6452E-01  0.6452E-01
      8.496  0.3237E-02  0.3237E-02  0.6482E-01  0.6482E-01
      8.587  0.3204E-02  0.3204E-02  0.6511E-01  0.6511E-01
      8.677  0.2084E-02  0.2084E-02  0.6529E-01  0.6529E-01
      8.767  0.1451E-02  0.1451E-02  0.6542E-01  0.6542E-01
      8.857  0.1981E-02  0.1981E-02  0.6560E-01  0.6560E-01
      8.948  0.3075E-02  0.3075E-02  0.6588E-01  0.6588E-01
      9.038  0.3770E-02  0.3770E-02  0.6622E-01  0.6622E-01
      9.128  0.3325E-02  0.3326E-02  0.6652E-01  0.6652E-01
      9.219  0.2708E-02  0.2708E-02  0.6677E-01  0.6677E-01
      9.309  0.3408E-02  0.3408E-02  0.6707E-01  0.6707E-01
      9.399  0.4393E-02  0.4393E-02  0.6747E-01  0.6747E-01
      9.489  0.3495E-02  0.3495E-02  0.6779E-01  0.6779E-01
      9.580  0.1437E-02  0.1437E-02  0.6792E-01  0.6792E-01
      9.670  0.8842E-03  0.8837E-03  0.6800E-01  0.6799E-01
      9.760  0.2223E-02  0.2223E-02  0.6820E-01  0.6820E-01
      9.850  0.3147E-02  0.3147E-02  0.6848E-01  0.6848E-01
      9.941  0.2614E-02  0.2614E-02  0.6872E-01  0.6872E-01
     10.031  0.2409E-02  0.2407E-02  0.6893E-01  0.6893E-01
     10.121  0.3082E-02  0.3080E-02  0.6921E-01  0.6921E-01
     10.212  0.2780E-02  0.2782E-02  0.6946E-01  0.6946E-01
     10.302  0.1394E-02  0.1397E-02  0.6959E-01  0.6959E-01
     10.392  0.9023E-03  0.9031E-03  0.6967E-01  0.6967E-01
     10.482  0.2090E-02  0.2089E-02  0.6986E-01  0.6986E-01
     10.573  0.3796E-02  0.3795E-02  0.7020E-01  0.7020E-01
     10.663  0.4124E-02  0.4124E-02  0.7057E-01  0.7057E-01
     10.753  0.2578E-02  0.2579E-02  0.7081E-01  0.7081E-01
     10.843  0.9006E-03  0.9013E-03  0.7089E-01  0.7089E-01
     10.934  0.8363E-03  0.8362E-03  0.7096E-01  0.7096E-01
     11.024  0.2554E-02  0.2554E-02  0.7119E-01  0.7119E-01
     11.114  0.4340E-02  0.4339E-02  0.7159E-01  0.7159E-01
     11.205  0.3882E-02  0.3882E-02  0.7194E-01  0.7194E-01
     11.295  0.1581E-02  0.1581E-02  0.7208E-01  0.7208E-01
     11.385  0.5420E-04  0.5445E-04  0.7208E-01  0.7208E-01
     11.475  0.7052E-03  0.7048E-03  0.7215E-01  0.7215E-01
     11.566  0.2906E-02  0.2905E-02  0.7241E-01  0.7241E-01
     11.656  0.4905E-02  0.4904E-02  0.7285E-01  0.7285E-01
     11.746  0.5183E-02  0.5183E-02  0.7332E-01  0.7332E-01
     11.836  0.3545E-02  0.3546E-02  0.7364E-01  0.7364E-01
     11.927  0.1243E-02  0.1244E-02  0.7375E-01  0.7375E-01
     12.017  0.6921E-04  0.6939E-04  0.7376E-01  0.7376E-01
     12.107  0.8657E-03  0.8648E-03  0.7384E-01  0.7384E-01
     12.198  0.2687E-02  0.2687E-02  0.7408E-01  0.7408E-01
     12.288  0.3352E-02  0.3352E-02  0.7438E-01  0.7438E-01
     12.378  0.2076E-02  0.2077E-02  0.7457E-01  0.7457E-01
     12.468  0.4838E-03  0.4845E-03  0.7461E-01  0.7461E-01
     12.559 -0.1465E-03 -0.1464E-03  0.7460E-01  0.7460E-01
     12.649 -0.1330E-03 -0.1331E-03  0.7459E-01  0.7459E-01
     12.739 -0.4046E-04 -0.4050E-04  0.7458E-01  0.7458E-01
     12.829 -0.8016E-05 -0.8022E-05  0.7458E-01  0.7458E-01
     12.920 -0.9445E-05 -0.9436E-05  0.7458E-01  0.7458E-01
     13.010 -0.3415E-04 -0.3412E-04  0.7458E-01  0.7458E-01
     13.100 -0.5702E-04 -0.5703E-04  0.7457E-01  0.7457E-01
     13.191  0.7086E-04  0.7067E-04  0.7458E-01  0.7458E-01
     13.281  0.5242E-03  0.5238E-03  0.7463E-01  0.7463E-01
     13.371  0.1046E-02  0.1046E-02  0.7472E-01  0.7472E-01
     13.461  0.1045E-02  0.1046E-02  0.7482E-01  0.7482E-01
     13.552  0.5227E-03  0.5232E-03  0.7486E-01  0.7486E-01
     13.642  0.7017E-04  0.7038E-04  0.7487E-01  0.7487E-01
     13.732 -0.5706E-04 -0.5704E-04  0.7487E-01  0.7487E-01
     13.822 -0.3402E-04 -0.3404E-04  0.7486E-01  0.7486E-01
     13.913 -0.8728E-05 -0.8739E-05  0.7486E-01  0.7486E-01
     14.003 -0.1284E-05 -0.1286E-05  0.7486E-01  0.7486E-01
     14.093 -0.1166E-06 -0.1169E-06  0.7486E-01  0.7486E-01
     14.184 -0.6748E-08 -0.6765E-08  0.7486E-01  0.7486E-01
     14.274 -0.2527E-09 -0.2534E-09  0.7486E-01  0.7486E-01
     14.364 -0.6177E-11 -0.6196E-11  0.7486E-01  0.7486E-01
     14.454 -0.9914E-13 -0.9949E-13  0.7486E-01  0.7486E-01
     14.545 -0.1048E-14 -0.1053E-14  0.7486E-01  0.7486E-01
     14.635 -0.7516E-17 -0.7516E-17  0.7486E-01  0.7486E-01
     14.725 -0.2603E-27 -0.2592E-27  0.7486E-01  0.7486E-01
     14.815 -0.1909E-24 -0.1901E-24  0.7486E-01  0.7486E-01
     14.906 -0.9276E-22 -0.9241E-22  0.7486E-01  0.7486E-01
     14.996 -0.2984E-19 -0.2974E-19  0.7486E-01  0.7486E-01
     15.086 -0.6180E-17 -0.6160E-17  0.7486E-01  0.7486E-01
     15.176 -0.8623E-15 -0.8598E-15  0.7486E-01  0.7486E-01
     15.267 -0.7946E-13 -0.7925E-13  0.7486E-01  0.7486E-01
     15.357 -0.4811E-11 -0.4799E-11  0.7486E-01  0.7486E-01
     15.447 -0.1906E-09 -0.1901E-09  0.7486E-01  0.7486E-01
     15.538 -0.4909E-08 -0.4900E-08  0.7486E-01  0.7486E-01
     15.628 -0.8145E-07 -0.8132E-07  0.7486E-01  0.7486E-01
     15.718 -0.8554E-06 -0.8543E-06  0.7486E-01  0.7486E-01
     15.808 -0.5494E-05 -0.5488E-05  0.7486E-01  0.7486E-01
     15.899 -0.1979E-04 -0.1978E-04  0.7486E-01  0.7486E-01
     15.989 -0.2757E-04 -0.2758E-04  0.7486E-01  0.7486E-01
     16.079  0.5709E-04  0.5698E-04  0.7486E-01  0.7486E-01
     16.169  0.3076E-03  0.3074E-03  0.7489E-01  0.7489E-01
     16.260  0.5498E-03  0.5497E-03  0.7494E-01  0.7494E-01
     16.350  0.4960E-03  0.4962E-03  0.7498E-01  0.7498E-01
     16.440  0.2159E-03  0.2160E-03  0.7500E-01  0.7500E-01
     16.531  0.1344E-04  0.1351E-04  0.7500E-01  0.7500E-01
     16.621 -0.2947E-04 -0.2947E-04  0.7500E-01  0.7500E-01
     16.711 -0.1427E-04 -0.1428E-04  0.7500E-01  0.7500E-01
     16.801 -0.3253E-05 -0.3257E-05  0.7500E-01  0.7500E-01
     16.892 -0.4321E-06 -0.4327E-06  0.7500E-01  0.7500E-01
     16.982 -0.3558E-07 -0.3564E-07  0.7500E-01  0.7500E-01
     17.072 -0.1867E-08 -0.1871E-08  0.7500E-01  0.7500E-01
     17.162 -0.6331E-10 -0.6346E-10  0.7500E-01  0.7500E-01
     17.253 -0.1400E-11 -0.1403E-11  0.7500E-01  0.7500E-01
     17.343 -0.2027E-13 -0.2033E-13  0.7500E-01  0.7500E-01
     17.433 -0.1930E-15 -0.1937E-15  0.7500E-01  0.7500E-01
     17.524 -0.1367E-17 -0.1367E-17  0.7500E-01  0.7500E-01
     17.614  0.0000E+00  0.0000E+00  0.7500E-01  0.7500E-01
     17.704  0.0000E+00  0.0000E+00  0.7500E-01  0.7500E-01
     17.794  0.0000E+00  0.0000E+00  0.7500E-01  0.7500E-01
     17.885  0.0000E+00  0.0000E+00  0.7500E-01  0.7500E-01
     17.975  0.0000E+00  0.0000E+00  0.7500E-01  0.7500E-01
     18.065  0.0000E+00  0.0000E+00  0.7500E-01  0.7500E-01
     18.155  0.0000E+00  0.0000E+00  0.7500E-01  0.7500E-01
     18.246  0.0000E+00  0.0000E+00  0.7500E-01  0.7500E-01
