   10   10  800    2
  0.1692928E+02  0.2566798E-09  0.2566798E-09  0.2967047E-08  0.5000000E-15
  1.000000000000000E-004
  CAR 
 unknown system                          
     90      3     60
 
  0.0000000E+00  0.0000000E+00  0.0000000E+00  0.1111111E+00
      1         -6.835766       -6.835765   1.000000   1.000000
      2         -6.436815       -6.436815   1.000000   1.000000
      3         -5.963402       -5.963402   1.000000   1.000000
      4         -5.573137       -5.573137   1.000000   1.000000
      5         -4.762943       -4.762942   1.000000   1.000000
      6         -3.819809       -3.819808   1.000000   1.000000
      7         -3.016239       -3.016239   1.000000   1.000000
      8         -2.583600       -2.583600   1.000000   1.000000
      9         -2.521300       -2.521300   1.000000   1.000000
     10         -0.642056       -0.642056   1.000000   1.000000
     11         -0.622947       -0.622947   1.000000   1.000000
     12         -0.548288       -0.548288   1.000000   1.000000
     13         -0.548287       -0.548287   1.000000   1.000000
     14         -0.533763       -0.533763   1.000000   1.000000
     15         -0.533760       -0.533760   1.000000   1.000000
     16         -0.465104       -0.465104   1.000000   1.000000
     17         -0.459161       -0.459161   1.000000   1.000000
     18         -0.459158       -0.459158   1.000000   1.000000
     19         -0.438783       -0.438783   1.000000   1.000000
     20         -0.438781       -0.438780   1.000000   1.000000
     21         -0.377238       -0.377238   1.000000   1.000000
     22         -0.355803       -0.355803   1.000000   1.000000
     23         -0.355799       -0.355799   1.000000   1.000000
     24         -0.324627       -0.324627   1.000000   1.000000
     25         -0.324624       -0.324624   1.000000   1.000000
     26         -0.152593       -0.152593   1.000000   1.000000
     27          0.055629        0.055629   1.000000   1.000000
     28          0.055631        0.055631   1.000000   1.000000
     29          0.074201        0.074201   1.000000   1.000000
     30          0.145367        0.145367   1.000000   1.000000
     31          0.145368        0.145368   1.000000   1.000000
     32          0.325914        0.325914   1.000000   1.000000
     33          0.325914        0.325915   1.000000   1.000000
     34          0.328931        0.328931   1.000000   1.000000
     35          0.328933        0.328933   1.000000   1.000000
     36          0.460638        0.460638   1.000000   1.000000
     37          0.460640        0.460640   1.000000   1.000000
     38          0.587986        0.587986   1.000000   1.000000
     39          0.587988        0.587988   1.000000   1.000000
     40          0.693864        0.693864   1.000000   1.000000
     41          0.693864        0.693864   1.000000   1.000000
     42          0.780910        0.780910   1.000000   1.000000
     43          0.854825        0.854825   1.000000   1.000000
     44          0.854825        0.854825   1.000000   1.000000
     45          1.083416        1.083416   1.000000   1.000000
     46          1.083417        1.083417   1.000000   1.000000
     47          1.189511        1.189511   1.000000   1.000000
     48          1.189512        1.189512   1.000000   1.000000
     49          2.088099        2.088100   0.254144   0.254142
     50          2.380919        2.380920  -0.015615  -0.015615
     51          5.877431        5.877479  -0.000000  -0.000000
     52          6.591366        6.591488  -0.000000  -0.000000
     53          7.351726        7.351848  -0.000000  -0.000000
     54          8.343528        8.343581   0.000000   0.000000
     55          8.826053        8.826158   0.000000   0.000000
     56         10.643211       10.643267   0.000000   0.000000
     57         10.864346       10.864429   0.000000   0.000000
     58         13.356890       13.356943   0.000000   0.000000
     59         13.385008       13.385086   0.000000   0.000000
     60         16.245674       16.245731   0.000000   0.000000
 
  0.3333333E+00  0.5551115E-16  0.0000000E+00  0.6666667E+00
      1         -3.861118       -3.861118   1.000000   1.000000
      2         -3.725185       -3.725185   1.000000   1.000000
      3         -3.438053       -3.438053   1.000000   1.000000
      4         -3.025049       -3.025049   1.000000   1.000000
      5         -2.591936       -2.591936   1.000000   1.000000
      6         -2.204361       -2.204361   1.000000   1.000000
      7         -1.873927       -1.873927   1.000000   1.000000
      8         -1.697786       -1.697786   1.000000   1.000000
      9         -1.622725       -1.622725   1.000000   1.000000
     10         -1.521169       -1.521169   1.000000   1.000000
     11         -1.453571       -1.453570   1.000000   1.000000
     12         -1.233769       -1.233769   1.000000   1.000000
     13         -1.043675       -1.043675   1.000000   1.000000
     14         -0.895122       -0.895121   1.000000   1.000000
     15         -0.721139       -0.721139   1.000000   1.000000
     16         -0.704283       -0.704282   1.000000   1.000000
     17         -0.574765       -0.574765   1.000000   1.000000
     18         -0.516061       -0.516061   1.000000   1.000000
     19         -0.446138       -0.446138   1.000000   1.000000
     20         -0.363695       -0.363695   1.000000   1.000000
     21         -0.361050       -0.361050   1.000000   1.000000
     22         -0.253705       -0.253705   1.000000   1.000000
     23         -0.139098       -0.139098   1.000000   1.000000
     24         -0.118836       -0.118836   1.000000   1.000000
     25          0.037675        0.037675   1.000000   1.000000
     26          0.134366        0.134366   1.000000   1.000000
     27          0.264317        0.264317   1.000000   1.000000
     28          0.339171        0.339171   1.000000   1.000000
     29          0.428777        0.428777   1.000000   1.000000
     30          0.495972        0.495972   1.000000   1.000000
     31          0.513476        0.513477   1.000000   1.000000
     32          0.578076        0.578076   1.000000   1.000000
     33          0.598721        0.598721   1.000000   1.000000
     34          0.651733        0.651733   1.000000   1.000000
     35          0.679913        0.679913   1.000000   1.000000
     36          0.732813        0.732813   1.000000   1.000000
     37          0.769016        0.769016   1.000000   1.000000
     38          0.778951        0.778951   1.000000   1.000000
     39          0.872763        0.872763   1.000000   1.000000
     40          0.897161        0.897161   1.000000   1.000000
     41          1.048032        1.048032   1.000000   1.000000
     42          1.143718        1.143718   1.000000   1.000000
     43          1.145067        1.145067   1.000000   1.000000
     44          1.196414        1.196414   1.000000   1.000000
     45          1.319527        1.319527   1.000003   1.000003
     46          1.952058        1.952059   0.793575   0.793575
     47          3.063709        3.063709  -0.000000  -0.000000
     48          4.423900        4.423900  -0.000000  -0.000000
     49          5.926807        5.926808  -0.000000  -0.000000
     50          7.146810        7.146811  -0.000000  -0.000000
     51          8.509389        8.509400   0.000000   0.000000
     52          9.008777        9.008783   0.000000   0.000000
     53          9.364661        9.364666   0.000000   0.000000
     54          9.799684        9.799717   0.000000   0.000000
     55         10.111514       10.111656   0.000000   0.000000
     56         10.598962       10.599021   0.000000   0.000000
     57         11.110363       11.110400   0.000000   0.000000
     58         11.589540       11.589561   0.000000   0.000000
     59         11.746102       11.746157   0.000000   0.000000
     60         12.223333       12.223385   0.000000   0.000000
 
 -0.3333333E+00  0.3333333E+00  0.0000000E+00  0.2222222E+00
      1         -2.402940       -2.402940   1.000000   1.000000
      2         -1.618543       -1.618543   1.000000   1.000000
      3         -1.607538       -1.607538   1.000000   1.000000
      4         -1.606250       -1.606250   1.000000   1.000000
      5         -1.544138       -1.544138   1.000000   1.000000
      6         -1.493603       -1.493603   1.000000   1.000000
      7         -1.486823       -1.486823   1.000000   1.000000
      8         -1.451235       -1.451235   1.000000   1.000000
      9         -1.444695       -1.444695   1.000000   1.000000
     10         -1.437341       -1.437341   1.000000   1.000000
     11         -1.425609       -1.425609   1.000000   1.000000
     12         -1.404008       -1.404008   1.000000   1.000000
     13         -1.267998       -1.267998   1.000000   1.000000
     14         -1.193025       -1.193025   1.000000   1.000000
     15         -1.132638       -1.132638   1.000000   1.000000
     16         -1.075263       -1.075263   1.000000   1.000000
     17         -0.773222       -0.773222   1.000000   1.000000
     18         -0.730721       -0.730721   1.000000   1.000000
     19         -0.729958       -0.729958   1.000000   1.000000
     20         -0.660371       -0.660371   1.000000   1.000000
     21         -0.479682       -0.479682   1.000000   1.000000
     22         -0.405623       -0.405623   1.000000   1.000000
     23          0.024720        0.024720   1.000000   1.000000
     24          0.108933        0.108933   1.000000   1.000000
     25          0.181913        0.181913   1.000000   1.000000
     26          0.197278        0.197278   1.000000   1.000000
     27          0.273070        0.273070   1.000000   1.000000
     28          0.273902        0.273902   1.000000   1.000000
     29          0.306405        0.306405   1.000000   1.000000
     30          0.306564        0.306564   1.000000   1.000000
     31          0.318604        0.318604   1.000000   1.000000
     32          0.602494        0.602494   1.000000   1.000000
     33          0.674814        0.674814   1.000000   1.000000
     34          0.793766        0.793766   1.000000   1.000000
     35          0.799496        0.799496   1.000000   1.000000
     36          0.829681        0.829681   1.000000   1.000000
     37          0.895673        0.895673   1.000000   1.000000
     38          0.964382        0.964382   1.000000   1.000000
     39          0.971182        0.971182   1.000000   1.000000
     40          1.015402        1.015402   1.000000   1.000000
     41          1.089677        1.089677   1.000000   1.000000
     42          5.708281        5.708281  -0.000000  -0.000000
     43          5.713284        5.713284  -0.000000  -0.000000
     44          5.735454        5.735454  -0.000000  -0.000000
     45          5.887218        5.887218  -0.000000  -0.000000
     46          5.903766        5.903766  -0.000000  -0.000000
     47          6.165172        6.165173  -0.000000  -0.000000
     48          6.298617        6.298617  -0.000000  -0.000000
     49          6.894938        6.894938  -0.000000  -0.000000
     50          7.048586        7.048586  -0.000000  -0.000000
     51          7.635918        7.635919   0.000000   0.000000
     52          7.640099        7.640100   0.000000   0.000000
     53          7.759490        7.759490   0.000000   0.000000
     54          8.187593        8.187593   0.000000   0.000000
     55          8.199757        8.199757   0.000000   0.000000
     56          8.790309        8.790309   0.000000   0.000000
     57          9.171246        9.171246   0.000000   0.000000
     58          9.417263        9.417263   0.000000   0.000000
     59         10.435777       10.435777   0.000000   0.000000
     60         11.079977       11.079977   0.000000   0.000000
