       N       E                     dE             d eps       ncg     rms          rms(c)
DAV:   1     0.790875025804E+03    0.79088E+03   -0.33419E+04   728   0.189E+03
DAV:   2     0.711808995457E+02   -0.71969E+03   -0.69025E+03   720   0.400E+02
DAV:   3    -0.328967660966E+02   -0.10408E+03   -0.97607E+02   736   0.196E+02
DAV:   4    -0.373365590633E+02   -0.44398E+01   -0.44031E+01   824   0.567E+01
DAV:   5    -0.374324495114E+02   -0.95890E-01   -0.95837E-01   840   0.715E+00    0.276E+01
DAV:   6    -0.341711963195E+02    0.32613E+01   -0.10540E+02   948   0.186E+02    0.199E+01
DAV:   7    -0.948617351403E+02   -0.60691E+02   -0.29015E+02  1064   0.252E+02    0.643E+01
DAV:   8    -0.397003697431E+02    0.55161E+02   -0.19087E+02  1224   0.126E+02    0.216E+01
DAV:   9    -0.329633657507E+02    0.67370E+01   -0.43960E+01  1136   0.101E+02    0.163E+01
DAV:  10    -0.309698897440E+02    0.19935E+01   -0.16072E+01  1076   0.521E+01    0.116E+01
DAV:  11    -0.305483753668E+02    0.42151E+00   -0.16179E+00   944   0.269E+01    0.998E+00
DAV:  12    -0.298678186044E+02    0.68056E+00   -0.14018E+00   828   0.193E+01    0.811E+00
DAV:  13    -0.296752972834E+02    0.19252E+00   -0.15592E+00   992   0.437E+01    0.646E+00
DAV:  14    -0.317095082365E+02   -0.20342E+01   -0.17302E+00  1112   0.305E+01    0.509E+00
DAV:  15    -0.333555533957E+02   -0.16460E+01   -0.16429E+00  1176   0.296E+01    0.454E+00
DAV:  16    -0.347407776084E+02   -0.13852E+01   -0.15121E+00  1068   0.208E+01    0.352E+00
DAV:  17    -0.353843748800E+02   -0.64360E+00   -0.84764E-01   964   0.238E+01    0.187E+00
DAV:  18    -0.358421389725E+02   -0.45776E+00   -0.47863E-01   916   0.165E+01    0.130E+00
DAV:  19    -0.360531354838E+02   -0.21100E+00   -0.20479E-01   988   0.934E+00    0.979E-01
DAV:  20    -0.361917647303E+02   -0.13863E+00   -0.74480E-02  1016   0.480E+00    0.774E-01
DAV:  21    -0.363632862261E+02   -0.17152E+00   -0.12756E-01  1020   0.540E+00    0.626E-01
DAV:  22    -0.364054092326E+02   -0.42123E-01   -0.38446E-02   880   0.265E+00    0.483E-01
DAV:  23    -0.364481503888E+02   -0.42741E-01   -0.25680E-02   860   0.250E+00    0.395E-01
DAV:  24    -0.366215935776E+02   -0.17344E+00   -0.25753E-02   884   0.297E+00    0.360E-01
DAV:  25    -0.368531480319E+02   -0.23155E+00   -0.12162E-02   904   0.208E+00    0.265E-01
DAV:  26    -0.369764289664E+02   -0.12328E+00   -0.12109E-02  1020   0.202E+00    0.198E-01
DAV:  27    -0.370013516249E+02   -0.24923E-01   -0.72806E-03   980   0.174E+00    0.129E-01
DAV:  28    -0.370073822709E+02   -0.60306E-02   -0.13091E-03   748   0.587E-01    0.945E-02
DAV:  29    -0.370115534839E+02   -0.41712E-02   -0.10069E-03   680   0.541E-01    0.675E-02
DAV:  30    -0.370134523483E+02   -0.18989E-02   -0.76139E-04   676   0.361E-01    0.592E-02
DAV:  31    -0.370144954419E+02   -0.10431E-02   -0.53450E-04   564   0.244E-01    0.532E-02
DAV:  32    -0.370155633914E+02   -0.10679E-02   -0.43162E-04   596   0.302E-01    0.439E-02
DAV:  33    -0.370171735210E+02   -0.16101E-02   -0.34276E-04   540   0.295E-01    0.355E-02
DAV:  34    -0.370180823117E+02   -0.90879E-03   -0.19060E-04   516   0.353E-01    0.110E-02
DAV:  35    -0.370184958043E+02   -0.41349E-03   -0.12529E-04   468   0.822E-02    0.143E-02
DAV:  36    -0.370186592488E+02   -0.16344E-03   -0.40040E-05   444   0.995E-02
   1 F= -.40688291E+02 E0= -.40679881E+02  d E =-.406883E+02  mag=     0.0007
       N       E                     dE             d eps       ncg     rms          rms(c)
DAV:   1    -0.370071305587E+02    0.11365E-01   -0.11935E+01   768   0.137E+01    0.742E-01
DAV:   2    -0.370316705780E+02   -0.24540E-01   -0.42000E-01  1152   0.884E+00    0.621E-01
DAV:   3    -0.370341882681E+02   -0.25177E-02   -0.49668E-01  1184   0.169E+01    0.583E-01
DAV:   4    -0.370187067434E+02    0.15482E-01   -0.16989E-01  1080   0.903E+00    0.282E-01
DAV:   5    -0.370200662473E+02   -0.13595E-02   -0.30247E-02  1104   0.517E+00    0.252E-01
DAV:   6    -0.370178744591E+02    0.21918E-02   -0.20683E-02  1084   0.465E+00    0.609E-02
DAV:   7    -0.370179539406E+02   -0.79481E-04   -0.28011E-03  1024   0.116E+00    0.449E-02
DAV:   8    -0.370180105246E+02   -0.56584E-04   -0.68372E-04   648   0.537E-01
   2 F= -.40713916E+02 E0= -.40705147E+02  d E =-.256250E-01  mag=     0.0005
       N       E                     dE             d eps       ncg     rms          rms(c)
DAV:   1    -0.370437937961E+02   -0.25840E-01   -0.19899E+00   760   0.555E+00    0.261E-01
DAV:   2    -0.370472427418E+02   -0.34489E-02   -0.50234E-02  1128   0.291E+00    0.212E-01
DAV:   3    -0.370480844623E+02   -0.84172E-03   -0.42745E-02  1216   0.516E+00    0.212E-01
DAV:   4    -0.370464380755E+02    0.16464E-02   -0.17781E-02   816   0.353E+00    0.103E-01
DAV:   5    -0.370463770790E+02    0.60997E-04   -0.69465E-03   688   0.268E+00    0.892E-02
DAV:   6    -0.370460652676E+02    0.31181E-03   -0.20765E-03   632   0.147E+00    0.171E-02
DAV:   7    -0.370460854851E+02   -0.20217E-04   -0.37178E-04   480   0.308E-01
   3 F= -.40723733E+02 E0= -.40715147E+02  d E =-.354417E-01  mag=     0.0004
       N       E                     dE             d eps       ncg     rms          rms(c)
DAV:   1    -0.370579760278E+02   -0.11911E-01   -0.82917E+00   744   0.115E+01    0.244E-01
DAV:   2    -0.370775383172E+02   -0.19562E-01   -0.21425E-01  1152   0.655E+00    0.361E-01
DAV:   3    -0.370734076890E+02    0.41306E-02   -0.94959E-02  1216   0.780E+00    0.242E-01
DAV:   4    -0.370723949654E+02    0.10127E-02   -0.97061E-03  1040   0.230E+00    0.162E-01
DAV:   5    -0.370723988112E+02   -0.38458E-05   -0.29596E-03   784   0.150E+00    0.134E-01
DAV:   6    -0.370721694816E+02    0.22933E-03   -0.47467E-03   928   0.206E+00    0.586E-02
DAV:   7    -0.370720721482E+02    0.97333E-04   -0.15195E-03   560   0.112E+00
   4 F= -.40752201E+02 E0= -.40743612E+02  d E =-.284679E-01  mag=     0.0003
       N       E                     dE             d eps       ncg     rms          rms(c)
DAV:   1    -0.370166293963E+02    0.55540E-01   -0.37368E+01   760   0.253E+01    0.548E-01
DAV:   2    -0.371091906894E+02   -0.92561E-01   -0.99388E-01  1144   0.142E+01    0.795E-01
DAV:   3    -0.370923354079E+02    0.16855E-01   -0.43698E-01  1200   0.172E+01    0.517E-01
DAV:   4    -0.370864350640E+02    0.59003E-02   -0.57565E-02  1168   0.568E+00    0.345E-01
DAV:   5    -0.370865246153E+02   -0.89551E-04   -0.14477E-02  1120   0.325E+00    0.298E-01
DAV:   6    -0.370852507474E+02    0.12739E-02   -0.18099E-02  1024   0.387E+00    0.151E-01
DAV:   7    -0.370849300523E+02    0.32070E-03   -0.56493E-03  1192   0.223E+00    0.523E-02
DAV:   8    -0.370848810966E+02    0.48956E-04   -0.11352E-03   704   0.809E-01
   5 F= -.40771055E+02 E0= -.40762651E+02  d E =-.473224E-01  mag=     0.0003
       N       E                     dE             d eps       ncg     rms          rms(c)
DAV:   1    -0.370850103369E+02   -0.80285E-04   -0.13395E+00   768   0.464E+00    0.862E-02
DAV:   2    -0.370879928731E+02   -0.29825E-02   -0.32473E-02  1184   0.234E+00    0.132E-01
DAV:   3    -0.370873009727E+02    0.69190E-03   -0.10659E-02  1064   0.242E+00    0.872E-02
DAV:   4    -0.370872692005E+02    0.31772E-04   -0.86397E-04   656   0.631E-01
   6 F= -.40772202E+02 E0= -.40763726E+02  d E =-.484692E-01  mag=     0.0003
       N       E                     dE             d eps       ncg     rms          rms(c)
DAV:   1    -0.370887812583E+02   -0.14803E-02   -0.71988E+00   752   0.112E+01    0.241E-01
DAV:   2    -0.371038632660E+02   -0.15082E-01   -0.16169E-01   992   0.292E+00    0.245E-01
DAV:   3    -0.371036913055E+02    0.17196E-03   -0.91339E-03   920   0.238E+00    0.202E-01
DAV:   4    -0.371036992919E+02   -0.79863E-05   -0.10208E-02   728   0.260E+00    0.174E-01
DAV:   5    -0.371030313713E+02    0.66792E-03   -0.58578E-03   600   0.197E+00    0.116E-01
DAV:   6    -0.371027835261E+02    0.24785E-03   -0.17158E-03   712   0.979E-01    0.304E-02
DAV:   7    -0.371028206908E+02   -0.37165E-04   -0.78603E-04   656   0.521E-01
   7 F= -.40791592E+02 E0= -.40783288E+02  d E =-.193897E-01  mag=     0.0002
       N       E                     dE             d eps       ncg     rms          rms(c)
DAV:   1    -0.370957066655E+02    0.70769E-02   -0.41081E+00   768   0.843E+00    0.195E-01
DAV:   2    -0.371039288521E+02   -0.82222E-02   -0.89278E-02  1032   0.214E+00    0.189E-01
DAV:   3    -0.371037577275E+02    0.17112E-03   -0.41285E-03   904   0.158E+00    0.151E-01
DAV:   4    -0.371037030483E+02    0.54679E-04   -0.29150E-03   704   0.175E+00    0.117E-01
DAV:   5    -0.371040731018E+02   -0.37005E-03   -0.99998E-03   536   0.261E+00    0.107E-01
DAV:   6    -0.371034041641E+02    0.66894E-03   -0.84110E-03   568   0.225E+00    0.446E-02
DAV:   7    -0.371033233444E+02    0.80820E-04   -0.68372E-04   472   0.783E-01
   8 F= -.40795720E+02 E0= -.40787573E+02  d E =-.235176E-01  mag=     0.0002
       N       E                     dE             d eps       ncg     rms          rms(c)
DAV:   1    -0.371075035122E+02   -0.40993E-02   -0.11173E+00   760   0.439E+00    0.970E-02
DAV:   2    -0.371096174930E+02   -0.21140E-02   -0.22486E-02  1000   0.109E+00    0.898E-02
DAV:   3    -0.371096300032E+02   -0.12510E-04   -0.16930E-03   656   0.998E-01
   9 F= -.40804157E+02 E0= -.40795738E+02  d E =-.843670E-02  mag=     0.0002
       N       E                     dE             d eps       ncg     rms          rms(c)
DAV:   1    -0.370999237899E+02    0.96937E-02   -0.10073E+01   776   0.133E+01    0.330E-01
DAV:   2    -0.371181493103E+02   -0.18226E-01   -0.20987E-01  1016   0.404E+00    0.322E-01
DAV:   3    -0.371183488406E+02   -0.19953E-03   -0.36583E-02  1016   0.502E+00    0.284E-01
DAV:   4    -0.371175634457E+02    0.78539E-03   -0.19183E-02   944   0.357E+00    0.210E-01
DAV:   5    -0.371179605093E+02   -0.39706E-03   -0.17299E-02  1096   0.319E+00    0.168E-01
DAV:   6    -0.371166039482E+02    0.13566E-02   -0.10394E-02   920   0.299E+00    0.575E-02
DAV:   7    -0.371165958559E+02    0.80923E-05   -0.14588E-03   824   0.111E+00
  10 F= -.40817870E+02 E0= -.40809717E+02  d E =-.221499E-01  mag=     0.0001
       N       E                     dE             d eps       ncg     rms          rms(c)
DAV:   1    -0.371137077664E+02    0.28962E-02   -0.94644E-01   776   0.407E+00    0.878E-02
DAV:   2    -0.371155777734E+02   -0.18700E-02   -0.19682E-02  1024   0.110E+00    0.876E-02
DAV:   3    -0.371156042521E+02   -0.26479E-04   -0.25491E-03   720   0.125E+00    0.761E-02
DAV:   4    -0.371155084402E+02    0.95812E-04   -0.14374E-03   512   0.953E-01
  11 F= -.40818998E+02 E0= -.40810951E+02  d E =-.232777E-01  mag=     0.0001
       N       E                     dE             d eps       ncg     rms          rms(c)
DAV:   1    -0.371191822905E+02   -0.35780E-02   -0.45208E-01   824   0.301E+00    0.712E-02
DAV:   2    -0.371202684022E+02   -0.10861E-02   -0.13632E-02  1216   0.236E+00    0.938E-02
DAV:   3    -0.371199412402E+02    0.32716E-03   -0.52564E-03   800   0.193E+00    0.623E-02
DAV:   4    -0.371199374930E+02    0.37472E-05   -0.12805E-03   632   0.810E-01
  12 F= -.40823955E+02 E0= -.40815911E+02  d E =-.495758E-02  mag=     0.0001
       N       E                     dE             d eps       ncg     rms          rms(c)
DAV:   1    -0.371223445756E+02   -0.24033E-02   -0.40574E+00   784   0.842E+00    0.190E-01
DAV:   2    -0.371298379816E+02   -0.74934E-02   -0.83526E-02   992   0.257E+00    0.201E-01
DAV:   3    -0.371297644648E+02    0.73517E-04   -0.88022E-03   872   0.245E+00    0.159E-01
DAV:   4    -0.371296283346E+02    0.13613E-03   -0.44813E-03   688   0.176E+00    0.127E-01
DAV:   5    -0.371298643891E+02   -0.23605E-03   -0.82652E-03   608   0.222E+00    0.113E-01
DAV:   6    -0.371292665411E+02    0.59785E-03   -0.51052E-03   592   0.190E+00    0.387E-02
DAV:   7    -0.371292222666E+02    0.44275E-04   -0.62570E-04   552   0.741E-01
  13 F= -.40834928E+02 E0= -.40826595E+02  d E =-.159309E-01  mag=     0.0001
       N       E                     dE             d eps       ncg     rms          rms(c)
DAV:   1    -0.370998796864E+02    0.29387E-01   -0.16327E+01   792   0.171E+01    0.358E-01
DAV:   2    -0.371322901677E+02   -0.32410E-01   -0.35699E-01  1024   0.497E+00    0.377E-01
DAV:   3    -0.371327182100E+02   -0.42804E-03   -0.55213E-02   944   0.612E+00    0.326E-01
DAV:   4    -0.371311712651E+02    0.15469E-02   -0.25833E-02  1104   0.388E+00    0.244E-01
DAV:   5    -0.371308334449E+02    0.33782E-03   -0.95553E-03  1256   0.240E+00    0.176E-01
DAV:   6    -0.371304459624E+02    0.38748E-03   -0.10304E-02   888   0.312E+00    0.984E-02
DAV:   7    -0.371299554000E+02    0.49056E-03   -0.34417E-03   928   0.184E+00    0.327E-02
DAV:   8    -0.371299926048E+02   -0.37205E-04   -0.81582E-04   632   0.473E-01
  14 F= -.40839604E+02 E0= -.40830927E+02  d E =-.206065E-01  mag=     0.0001
       N       E                     dE             d eps       ncg     rms          rms(c)
DAV:   1    -0.371294551229E+02    0.50028E-03   -0.17492E+00   784   0.552E+00    0.110E-01
DAV:   2    -0.371326550319E+02   -0.31999E-02   -0.35546E-02  1008   0.157E+00    0.119E-01
DAV:   3    -0.371326960137E+02   -0.40982E-04   -0.44248E-03   848   0.164E+00    0.104E-01
DAV:   4    -0.371325604198E+02    0.13559E-03   -0.19602E-03   512   0.111E+00
  15 F= -.40840806E+02 E0= -.40832311E+02  d E =-.218083E-01  mag=     0.0001
       N       E                     dE             d eps       ncg     rms          rms(c)
DAV:   1    -0.371364078659E+02   -0.37119E-02   -0.12456E+00   752   0.462E+00    0.139E-01
DAV:   2    -0.371389009165E+02   -0.24931E-02   -0.27636E-02  1080   0.193E+00    0.128E-01
DAV:   3    -0.371388933151E+02    0.76014E-05   -0.55486E-03   880   0.197E+00    0.105E-01
DAV:   4    -0.371387874361E+02    0.10588E-03   -0.40564E-03   608   0.163E+00    0.817E-02
DAV:   5    -0.371387348002E+02    0.52636E-04   -0.37761E-03   560   0.163E+00    0.548E-02
DAV:   6    -0.371386121146E+02    0.12269E-03   -0.15720E-03   504   0.114E+00
  16 F= -.40846400E+02 E0= -.40837840E+02  d E =-.559390E-02  mag=     0.0001
       N       E                     dE             d eps       ncg     rms          rms(c)
DAV:   1    -0.371386011521E+02    0.13365E-03   -0.46457E-01   752   0.285E+00    0.827E-02
DAV:   2    -0.371395490660E+02   -0.94791E-03   -0.10797E-02  1016   0.102E+00    0.785E-02
DAV:   3    -0.371395511892E+02   -0.21232E-05   -0.30847E-03   608   0.143E+00    0.741E-02
DAV:   4    -0.371394338225E+02    0.11737E-03   -0.11164E-03   456   0.846E-01
  17 F= -.40847279E+02 E0= -.40838737E+02  d E =-.647295E-02  mag=     0.0000
       N       E                     dE             d eps       ncg     rms          rms(c)
DAV:   1    -0.371410113078E+02   -0.14601E-02   -0.79649E-01   752   0.369E+00    0.807E-02
DAV:   2    -0.371425700640E+02   -0.15588E-02   -0.16772E-02   968   0.957E-01    0.822E-02
DAV:   3    -0.371425325186E+02    0.37545E-04   -0.46030E-04   520   0.475E-01
  18 F= -.40850877E+02 E0= -.40842334E+02  d E =-.359840E-02  mag=     0.0000
       N       E                     dE             d eps       ncg     rms          rms(c)
DAV:   1    -0.371413991727E+02    0.11709E-02   -0.22403E+00   752   0.620E+00    0.167E-01
DAV:   2    -0.371465367034E+02   -0.51375E-02   -0.63228E-02  1208   0.391E+00    0.201E-01
DAV:   3    -0.371453664165E+02    0.11703E-02   -0.27301E-02  1192   0.411E+00    0.155E-01
DAV:   4    -0.371451410409E+02    0.22538E-03   -0.25203E-03   896   0.114E+00    0.110E-01
DAV:   5    -0.371451933716E+02   -0.52331E-04   -0.22448E-03   728   0.148E+00    0.786E-02
DAV:   6    -0.371449699474E+02    0.22342E-03   -0.21522E-03   544   0.151E+00    0.362E-02
DAV:   7    -0.371449394599E+02    0.30487E-04   -0.37455E-04   456   0.485E-01
  19 F= -.40854149E+02 E0= -.40845705E+02  d E =-.687020E-02  mag=     0.0000
       N       E                     dE             d eps       ncg     rms          rms(c)
DAV:   1    -0.371237037316E+02    0.21266E-01   -0.89381E+00   760   0.124E+01    0.281E-01
DAV:   2    -0.371416903449E+02   -0.17987E-01   -0.19716E-01  1008   0.412E+00    0.309E-01
DAV:   3    -0.371413275719E+02    0.36277E-03   -0.20443E-02   888   0.365E+00    0.233E-01
DAV:   4    -0.371410448234E+02    0.28275E-03   -0.59793E-03   912   0.208E+00    0.181E-01
DAV:   5    -0.371420896791E+02   -0.10449E-02   -0.20648E-02   712   0.382E+00    0.185E-01
DAV:   6    -0.371405114930E+02    0.15782E-02   -0.17786E-02   784   0.327E+00    0.784E-02
DAV:   7    -0.371403308562E+02    0.18064E-03   -0.15002E-03   800   0.113E+00
  20 F= -.40851371E+02 E0= -.40843083E+02  d E =-.409252E-02  mag=     0.0000
       N       E                     dE             d eps       ncg     rms          rms(c)
DAV:   1    -0.371374708178E+02    0.30407E-02   -0.42353E+00   752   0.848E+00    0.189E-01
DAV:   2    -0.371455873532E+02   -0.81165E-02   -0.90429E-02  1000   0.273E+00    0.201E-01
DAV:   3    -0.371454495657E+02    0.13779E-03   -0.87547E-03   912   0.254E+00    0.164E-01
DAV:   4    -0.371453285024E+02    0.12106E-03   -0.47532E-03   720   0.181E+00    0.133E-01
DAV:   5    -0.371457074874E+02   -0.37898E-03   -0.91265E-03   584   0.241E+00    0.129E-01
DAV:   6    -0.371449142235E+02    0.79326E-03   -0.51392E-03   584   0.193E+00    0.424E-02
DAV:   7    -0.371448939781E+02    0.20245E-04   -0.54418E-04   584   0.606E-01
  21 F= -.40854659E+02 E0= -.40846201E+02  d E =-.737989E-02  mag=     0.0000
       N       E                     dE             d eps       ncg     rms          rms(c)
DAV:   1    -0.371454586857E+02   -0.54446E-03   -0.58967E-01   744   0.316E+00    0.139E-01
DAV:   2    -0.371464924201E+02   -0.10337E-02   -0.13832E-02  1096   0.141E+00    0.119E-01
DAV:   3    -0.371463961465E+02    0.96274E-04   -0.32940E-03   784   0.175E+00    0.922E-02
DAV:   4    -0.371462343232E+02    0.16182E-03   -0.15367E-03   544   0.115E+00
  22 F= -.40856923E+02 E0= -.40848572E+02  d E =-.226405E-02  mag=     0.0000
       N       E                     dE             d eps       ncg     rms          rms(c)
DAV:   1    -0.371467069557E+02   -0.31081E-03   -0.14471E-02  1216   0.192E+00    0.674E-02
DAV:   2    -0.371537974243E+02   -0.70905E-02   -0.99531E-02   976   0.807E+00    0.295E-01
DAV:   3    -0.371463441146E+02    0.74533E-02   -0.64851E-02   544   0.619E+00    0.168E-02
DAV:   4    -0.371464064782E+02   -0.62364E-04   -0.45394E-04   552   0.210E-01
  23 F= -.40856940E+02 E0= -.40848439E+02  d E =-.228166E-02  mag=     0.0000
       N       E                     dE             d eps       ncg     rms          rms(c)
DAV:   1    -0.371474467579E+02   -0.11026E-02   -0.92588E-01   752   0.393E+00    0.831E-02
DAV:   2    -0.371493215354E+02   -0.18748E-02   -0.20202E-02   984   0.112E+00    0.924E-02
DAV:   3    -0.371492773431E+02    0.44192E-04   -0.82032E-04   624   0.700E-01
  24 F= -.40859722E+02 E0= -.40851131E+02  d E =-.278141E-02  mag=     0.0000
       N       E                     dE             d eps       ncg     rms          rms(c)
DAV:   1    -0.371496961696E+02   -0.37463E-03   -0.20187E-01   784   0.199E+00    0.905E-02
DAV:   2    -0.371508626776E+02   -0.11665E-02   -0.15675E-02  1168   0.279E+00    0.127E-01
DAV:   3    -0.371498581752E+02    0.10045E-02   -0.11562E-02   656   0.274E+00    0.679E-02
DAV:   4    -0.371498582845E+02   -0.10932E-06   -0.10840E-03   760   0.682E-01
  25 F= -.40860266E+02 E0= -.40851871E+02  d E =-.332529E-02  mag=     0.0000
       N       E                     dE             d eps       ncg     rms          rms(c)
DAV:   1    -0.371485919304E+02    0.12662E-02   -0.78743E-01   752   0.370E+00    0.778E-02
DAV:   2    -0.371502765039E+02   -0.16846E-02   -0.18092E-02  1088   0.161E+00    0.936E-02
DAV:   3    -0.371501685152E+02    0.10799E-03   -0.23761E-03   816   0.127E+00    0.689E-02
DAV:   4    -0.371501578830E+02    0.10632E-04   -0.45789E-04   456   0.449E-01
  26 F= -.40860498E+02 E0= -.40851995E+02  d E =-.355821E-02  mag=     0.0000
       N       E                     dE             d eps       ncg     rms          rms(c)
DAV:   1    -0.371521707752E+02   -0.20023E-02   -0.67344E-01   752   0.367E+00    0.144E-01
DAV:   2    -0.371546780848E+02   -0.25073E-02   -0.35018E-02  1192   0.394E+00    0.175E-01
DAV:   3    -0.371532894453E+02    0.13886E-02   -0.19687E-02  1176   0.331E+00    0.115E-01
DAV:   4    -0.371531885374E+02    0.10091E-03   -0.17551E-03   784   0.943E-01
  27 F= -.40862344E+02 E0= -.40854050E+02  d E =-.184564E-02  mag=     0.0000
       N       E                     dE             d eps       ncg     rms          rms(c)
DAV:   1    -0.371533789353E+02   -0.89490E-04   -0.17956E-02  1128   0.153E+00    0.620E-02
DAV:   2    -0.371541659457E+02   -0.78701E-03   -0.91902E-03   792   0.310E+00    0.122E-01
DAV:   3    -0.371532410763E+02    0.92487E-03   -0.42887E-03   528   0.209E+00    0.194E-02
DAV:   4    -0.371532615873E+02   -0.20511E-04   -0.47488E-04   464   0.527E-01
  28 F= -.40862259E+02 E0= -.40853845E+02  d E =-.176082E-02  mag=     0.0000
       N       E                     dE             d eps       ncg     rms          rms(c)
DAV:   1    -0.371531924355E+02    0.48641E-04   -0.77683E-03   992   0.548E-01    0.145E-02
DAV:   2    -0.371532179116E+02   -0.25476E-04   -0.33327E-04   512   0.431E-01
  29 F= -.40862324E+02 E0= -.40853938E+02  d E =-.182566E-02  mag=     0.0000
       N       E                     dE             d eps       ncg     rms          rms(c)
DAV:   1    -0.371557007618E+02   -0.25083E-02   -0.91169E-01   752   0.403E+00    0.976E-02
DAV:   2    -0.371575591992E+02   -0.18584E-02   -0.20798E-02  1008   0.130E+00    0.103E-01
DAV:   3    -0.371575522960E+02    0.69032E-05   -0.30935E-03   800   0.147E+00    0.849E-02
DAV:   4    -0.371574801645E+02    0.72131E-04   -0.17974E-03   496   0.107E+00
  30 F= -.40865651E+02 E0= -.40857082E+02  d E =-.332644E-02  mag=     0.0000
       N       E                     dE             d eps       ncg     rms          rms(c)
DAV:   1    -0.371585937268E+02   -0.10414E-02   -0.62126E-01   784   0.342E+00    0.106E-01
DAV:   2    -0.371609384462E+02   -0.23447E-02   -0.26719E-02  1304   0.337E+00    0.163E-01
DAV:   3    -0.371596502548E+02    0.12882E-02   -0.16535E-02  1048   0.330E+00    0.923E-02
DAV:   4    -0.371595826292E+02    0.67626E-04   -0.22958E-03   768   0.122E+00    0.694E-02
DAV:   5    -0.371595536870E+02    0.28942E-04   -0.10224E-03   656   0.899E-01
  31 F= -.40866978E+02 E0= -.40858426E+02  d E =-.465390E-02  mag=     0.0000
       N       E                     dE             d eps       ncg     rms          rms(c)
DAV:   1    -0.371557916282E+02    0.37910E-02   -0.24582E+00   752   0.660E+00    0.169E-01
DAV:   2    -0.371609815739E+02   -0.51899E-02   -0.60583E-02  1048   0.300E+00    0.188E-01
DAV:   3    -0.371607822517E+02    0.19932E-03   -0.17718E-02  1120   0.341E+00    0.151E-01
DAV:   4    -0.371604811775E+02    0.30107E-03   -0.40837E-03   720   0.162E+00    0.110E-01
DAV:   5    -0.371606340296E+02   -0.15285E-03   -0.28159E-03   744   0.159E+00    0.911E-02
DAV:   6    -0.371603158434E+02    0.31819E-03   -0.24297E-03   632   0.154E+00    0.323E-02
DAV:   7    -0.371603153402E+02    0.50320E-06   -0.32460E-04   432   0.443E-01
  32 F= -.40866311E+02 E0= -.40857845E+02  d E =-.398719E-02  mag=     0.0000
       N       E                     dE             d eps       ncg     rms          rms(c)
DAV:   1    -0.371591154383E+02    0.12004E-02   -0.77458E-01   752   0.368E+00    0.917E-02
DAV:   2    -0.371606467300E+02   -0.15313E-02   -0.17895E-02  1008   0.134E+00    0.963E-02
DAV:   3    -0.371606225283E+02    0.24202E-04   -0.38317E-03   752   0.159E+00    0.864E-02
DAV:   4    -0.371605228775E+02    0.99651E-04   -0.11756E-03   480   0.901E-01
  33 F= -.40867309E+02 E0= -.40858899E+02  d E =-.498513E-02  mag=     0.0000
       N       E                     dE             d eps       ncg     rms          rms(c)
DAV:   1    -0.371629948739E+02   -0.23723E-02   -0.53030E-01   752   0.314E+00    0.100E-01
DAV:   2    -0.371646804524E+02   -0.16856E-02   -0.19032E-02  1208   0.270E+00    0.128E-01
DAV:   3    -0.371639620694E+02    0.71838E-03   -0.47617E-03   920   0.201E+00    0.744E-02
DAV:   4    -0.371639677079E+02   -0.56385E-05   -0.10957E-03   624   0.825E-01
  34 F= -.40868668E+02 E0= -.40860270E+02  d E =-.135900E-02  mag=     0.0000
       N       E                     dE             d eps       ncg     rms          rms(c)
DAV:   1    -0.371619887898E+02    0.19733E-02   -0.47835E+00   736   0.927E+00    0.299E-01
DAV:   2    -0.371730899676E+02   -0.11101E-01   -0.13653E-01  1112   0.487E+00    0.314E-01
DAV:   3    -0.371712066100E+02    0.18834E-02   -0.47158E-02  1168   0.510E+00    0.263E-01
DAV:   4    -0.371702857284E+02    0.92088E-03   -0.91620E-03   896   0.265E+00    0.176E-01
DAV:   5    -0.371705890007E+02   -0.30327E-03   -0.77879E-03  1104   0.250E+00    0.117E-01
DAV:   6    -0.371699778983E+02    0.61110E-03   -0.68473E-03   856   0.256E+00    0.441E-02
DAV:   7    -0.371699145836E+02    0.63315E-04   -0.90756E-04   568   0.833E-01
  35 F= -.40868562E+02 E0= -.40860098E+02  d E =-.125235E-02  mag=     0.0000
       N       E                     dE             d eps       ncg     rms          rms(c)
DAV:   1    -0.371666418096E+02    0.33361E-02   -0.94404E-01   736   0.399E+00    0.127E-01
DAV:   2    -0.371683697795E+02   -0.17280E-02   -0.21254E-02   976   0.121E+00    0.118E-01
DAV:   3    -0.371682572770E+02    0.11250E-03   -0.15546E-03   720   0.119E+00
  36 F= -.40869564E+02 E0= -.40861209E+02  d E =-.225428E-02  mag=     0.0000
       N       E                     dE             d eps       ncg     rms          rms(c)
DAV:   1    -0.371690307800E+02   -0.66100E-03   -0.40438E-02   984   0.151E+00    0.476E-02
DAV:   2    -0.371698845246E+02   -0.85374E-03   -0.12702E-02   624   0.317E+00    0.112E-01
DAV:   3    -0.371690598140E+02    0.82471E-03   -0.94249E-03   592   0.262E+00    0.349E-02
DAV:   4    -0.371690100368E+02    0.49777E-04   -0.78130E-04   520   0.711E-01
  37 F= -.40869765E+02 E0= -.40861244E+02  d E =-.200991E-03  mag=     0.0000
       N       E                     dE             d eps       ncg     rms          rms(c)
DAV:   1    -0.371708437429E+02   -0.17839E-02   -0.20860E-01   728   0.187E+00    0.565E-02
DAV:   2    -0.371712474284E+02   -0.40369E-03   -0.47614E-03  1016   0.672E-01    0.583E-02
DAV:   3    -0.371712111859E+02    0.36243E-04   -0.56096E-04   488   0.648E-01
  38 F= -.40870704E+02 E0= -.40862133E+02  d E =-.114056E-02  mag=     0.0000
       N       E                     dE             d eps       ncg     rms          rms(c)
DAV:   1    -0.371741226123E+02   -0.28752E-02   -0.82703E-01   728   0.376E+00    0.133E-01
DAV:   2    -0.371757201938E+02   -0.15976E-02   -0.21054E-02  1120   0.204E+00    0.133E-01
DAV:   3    -0.371755191062E+02    0.20109E-03   -0.75435E-03   832   0.228E+00    0.112E-01
DAV:   4    -0.371753535203E+02    0.16559E-03   -0.30869E-03   592   0.141E+00    0.717E-02
DAV:   5    -0.371754208429E+02   -0.67323E-04   -0.24448E-03   568   0.149E+00    0.615E-02
DAV:   6    -0.371752347192E+02    0.18612E-03   -0.10436E-03   528   0.101E+00
  39 F= -.40872197E+02 E0= -.40863661E+02  d E =-.263356E-02  mag=     0.0000
       N       E                     dE             d eps       ncg     rms          rms(c)
DAV:   1    -0.371773315312E+02   -0.19107E-02   -0.32917E+00   728   0.742E+00    0.222E-01
DAV:   2    -0.371839678138E+02   -0.66363E-02   -0.75855E-02   968   0.222E+00    0.223E-01
DAV:   3    -0.371836421130E+02    0.32570E-03   -0.11154E-02   912   0.266E+00    0.191E-01
DAV:   4    -0.371834101991E+02    0.23191E-03   -0.94763E-03   760   0.266E+00    0.146E-01
DAV:   5    -0.371836673886E+02   -0.25719E-03   -0.14478E-02   672   0.315E+00    0.120E-01
DAV:   6    -0.371828546922E+02    0.81270E-03   -0.68490E-03   624   0.234E+00    0.231E-02
DAV:   7    -0.371829056936E+02   -0.51001E-04   -0.75154E-04   712   0.401E-01
  40 F= -.40874766E+02 E0= -.40866134E+02  d E =-.520267E-02  mag=     0.0000
       N       E                     dE             d eps       ncg     rms          rms(c)
DAV:   1    -0.371726682087E+02    0.10186E-01   -0.13235E+01   728   0.150E+01    0.450E-01
DAV:   2    -0.372001906544E+02   -0.27522E-01   -0.31595E-01   960   0.411E+00    0.445E-01
DAV:   3    -0.371990655295E+02    0.11251E-02   -0.44448E-02   976   0.524E+00    0.384E-01
DAV:   4    -0.371982217596E+02    0.84377E-03   -0.40023E-02   872   0.556E+00    0.293E-01
DAV:   5    -0.371994402152E+02   -0.12185E-02   -0.61550E-02  1200   0.616E+00    0.249E-01
DAV:   6    -0.371959605902E+02    0.34796E-02   -0.28423E-02  1200   0.472E+00    0.471E-02
DAV:   7    -0.371960785728E+02   -0.11798E-03   -0.19084E-03   976   0.731E-01
  41 F= -.40877490E+02 E0= -.40868720E+02  d E =-.792668E-02  mag=     0.0000
       N       E                     dE             d eps       ncg     rms          rms(c)
DAV:   1    -0.371978355854E+02   -0.18750E-02   -0.22035E-01   800   0.199E+00    0.537E-02
DAV:   2    -0.371982557078E+02   -0.42012E-03   -0.46497E-03  1064   0.677E-01    0.486E-02
DAV:   3    -0.371982599305E+02   -0.42227E-05   -0.10213E-03   576   0.867E-01
  42 F= -.40879396E+02 E0= -.40870504E+02  d E =-.190550E-02  mag=     0.0000
       N       E                     dE             d eps       ncg     rms          rms(c)
DAV:   1    -0.371987668759E+02   -0.51117E-03   -0.15613E-01   824   0.181E+00    0.650E-02
DAV:   2    -0.371993138846E+02   -0.54701E-03   -0.66525E-03  1160   0.158E+00    0.762E-02
DAV:   3    -0.371990389847E+02    0.27490E-03   -0.41642E-03   528   0.162E+00    0.534E-02
DAV:   4    -0.371990302076E+02    0.87771E-05   -0.84937E-04   480   0.789E-01
  43 F= -.40879989E+02 E0= -.40870970E+02  d E =-.249835E-02  mag=     0.0000
       N       E                     dE             d eps       ncg     rms          rms(c)
DAV:   1    -0.371990827510E+02   -0.43766E-04   -0.12889E-02  1096   0.836E-01    0.273E-02
DAV:   2    -0.371991408433E+02   -0.58092E-04   -0.89552E-04   528   0.837E-01
  44 F= -.40880059E+02 E0= -.40871041E+02  d E =-.256917E-02  mag=     0.0000
       N       E                     dE             d eps       ncg     rms          rms(c)
DAV:   1    -0.372003741022E+02   -0.12914E-02   -0.30155E-01   816   0.244E+00    0.488E-02
DAV:   2    -0.372011509073E+02   -0.77681E-03   -0.88108E-03  1200   0.150E+00    0.677E-02
DAV:   3    -0.372009504870E+02    0.20042E-03   -0.33649E-03   656   0.141E+00    0.477E-02
DAV:   4    -0.372009503936E+02    0.93405E-07   -0.46203E-04   464   0.448E-01
  45 F= -.40881114E+02 E0= -.40872159E+02  d E =-.105481E-02  mag=     0.0000
       N       E                     dE             d eps       ncg     rms          rms(c)
DAV:   1    -0.372013593694E+02   -0.40888E-03   -0.12161E-01   792   0.150E+00    0.456E-02
DAV:   2    -0.372015855507E+02   -0.22618E-03   -0.26029E-03  1040   0.684E-01    0.467E-02
DAV:   3    -0.372015623073E+02    0.23243E-04   -0.57454E-04   464   0.658E-01
  46 F= -.40881270E+02 E0= -.40872395E+02  d E =-.121024E-02  mag=     0.0000
       N       E                     dE             d eps       ncg     rms          rms(c)
DAV:   1    -0.372014290079E+02    0.15654E-03   -0.10596E-02  1104   0.760E-01    0.237E-02
DAV:   2    -0.372019505221E+02   -0.52151E-03   -0.72199E-03   512   0.209E+00    0.824E-02
DAV:   3    -0.372014071573E+02    0.54336E-03   -0.50298E-03   512   0.169E+00    0.117E-02
DAV:   4    -0.372014140195E+02   -0.68622E-05   -0.94509E-05   448   0.235E-01
  47 F= -.40881252E+02 E0= -.40872357E+02  d E =-.119266E-02  mag=     0.0000
       N       E                     dE             d eps       ncg     rms          rms(c)
DAV:   1    -0.372014910986E+02   -0.83941E-04   -0.24956E-03   888   0.273E-01    0.900E-03
DAV:   2    -0.372014924414E+02   -0.13428E-05   -0.25056E-05   424   0.140E-01
  48 F= -.40881266E+02 E0= -.40872332E+02  d E =-.120701E-02  mag=     0.0000
       N       E                     dE             d eps       ncg     rms          rms(c)
DAV:   1    -0.372014669238E+02    0.24175E-04   -0.81199E-05   384   0.180E-01    0.878E-03
DAV:   2    -0.372015091743E+02   -0.42250E-04   -0.53118E-04   440   0.598E-01
  49 F= -.40881300E+02 E0= -.40872428E+02  d E =-.124036E-02  mag=     0.0000
       N       E                     dE             d eps       ncg     rms          rms(c)
DAV:   1    -0.372014923799E+02   -0.25456E-04   -0.40163E-04   432   0.502E-01    0.496E-03
DAV:   2    -0.372014987307E+02   -0.63508E-05   -0.79665E-05   440   0.196E-01
  50 F= -.40881274E+02 E0= -.40872333E+02  d E =-.121452E-02  mag=     0.0000
       N       E                     dE             d eps       ncg     rms          rms(c)
DAV:   1    -0.372014856097E+02    0.67702E-05   -0.68216E-05   392   0.200E-01    0.303E-03
DAV:   2    -0.372014909818E+02   -0.53721E-05   -0.58406E-05   424   0.207E-01
  51 F= -.40881274E+02 E0= -.40872363E+02  d E =-.121446E-02  mag=     0.0000
       N       E                     dE             d eps       ncg     rms          rms(c)
DAV:   1    -0.372014915606E+02   -0.59510E-05   -0.49827E-05   376   0.177E-01    0.156E-03
DAV:   2    -0.372014940692E+02   -0.25086E-05   -0.24487E-05   408   0.118E-01
  52 F= -.40881273E+02 E0= -.40872331E+02  d E =-.121341E-02  mag=     0.0000
       N       E                     dE             d eps       ncg     rms          rms(c)
DAV:   1    -0.372018293277E+02   -0.33777E-03   -0.13694E-02   800   0.499E-01    0.919E-03
DAV:   2    -0.372018423534E+02   -0.13026E-04   -0.14598E-04   440   0.164E-01
  53 F= -.40881348E+02 E0= -.40872439E+02  d E =-.749318E-04  mag=     0.0000
