 vasp.6.3.2 27Jun22 (build Aug 17 2022 15:43:34) complex                        
  
 executed on           tv2STDVTST date 2025.02.04  14:13:28
 running   20 mpi-ranks, with    1 threads/rank
 distrk:  each k-point on   20 cores,    1 groups
 distr:  one band on NCORE=   5 cores,    4 groups


--------------------------------------------------------------------------------------------------------


 -----------------------------------------------------------------------------
|                                                                             |
|           W    W    AA    RRRRR   N    N  II  N    N   GGGG   !!!           |
|           W    W   A  A   R    R  NN   N  II  NN   N  G    G  !!!           |
|           W    W  A    A  R    R  N N  N  II  N N  N  G       !!!           |
|           W WW W  AAAAAA  RRRRR   N  N N  II  N  N N  G  GGG   !            |
|           WW  WW  A    A  R   R   N   NN  II  N   NN  G    G                |
|           W    W  A    A  R    R  N    N  II  N    N   GGGG   !!!           |
|                                                                             |
|     Found issues when parsing the INCAR file                                |
|     In line 61: Tagname --- R W I G S contains invalid characters.          |
|     Please check if the interpretation in the OUTCAR file is correct.       |
|                                                                             |
 -----------------------------------------------------------------------------

 INCAR:
    = \=\=\=\=\=\=\=\=\=\=\=\=\=\=\=\=\=\=\=\=\=\=\=\=\=\=\=\=\=\=\=\=\=\=\=\=\=\=\=\=\=\=\=\=\=\=\=\=\=\=\=\=\=\=\=\=\=\=\=\=\=\=\=\=\=\=\=\=\=\=\=\=
    = \=\=\=\=\=\=\=\=\=\=\=\=\=\=\=\=\=\=\=\=\=\=\=\=\=\=\=\=\=\=\=\=\=\=\=\=\=\=\=\=\=\=\=\=\=\=\=\=\=\=\=\=\=\=\=\=\=\=\=\=\=\=\=\=\=\=\=\=\=\=\=\=
   ISTART = 0
   ICHARG = 2
   IPIPOL = 3
   IVDW = 11
    = \=\=\=\=\=\=\=\=\=\=\=\=\=\=\=\=\=\=\=\=\=\=\=\=\=\=\=\=\=\=\=\=\=\=\=\=\=\=\=\=\=\=\=\=\=\=\=\=\=\=\=\=\=\=\=\=\=\=\=\=\=\=\=\=\=\=\=\=\=\=\=\=
    = \=\=\=\=\=\=\=\=\=\=\=\=\=\=\=\=\=\=\=\=\=\=\=\=\=\=\=\=\=\=\=\=\=\=\=\=\=\=\=\=\=\=\=\=\=\=\=\=\=\=\=\=\=\=\=\=\=\=\=\=\=\=\=\=\=\=\=\=\=\=\=\=
   ISPIN = 2
    = \=\=\=\=\=\=\=\=\=\=\=\=\=\=\=\=\=\=\=\=\=\=\=\=\=\=\=\=\=\=\=\=\=\=\=\=\=\=\=\=\=\=\=\=\=\=\=\=\=\=\=\=\=\=\=\=\=\=\=\=\=\=\=\=\=\=\=\=\=\=\=\=
    = \=\=\=\=\=\=\=\=\=\=\=\=\=\=\=\=\=\=\=\=\=\=\=\=\=\=\=\=\=\=\=\=\=\=\=\=\=\=\=\=\=\=\=\=\=\=\=\=\=\=\=\=\=\=\=\=\=\=\=\=\=\=\=\=\=\=\=\=\=\=\=\=
   ENCUT = 400
   PREC = Normal
   EDIFF = 2E-04
   GGA = PE
   ISMEAR = 1
   SIGMA = 0.2
   LREAL = .FALSE.
    = \=\=\=\=\=\=\=\=\=\=\=\=\=\=\=\=\=\=\=\=\=\=\=\=\=\=\=\=\=\=\=\=\=\=\=\=\=\=\=\=\=\=\=\=\=\=\=\=\=\=\=\=\=\=\=\=\=\=\=\=\=\=\=\=\=\=\=\=\=\=\=\=
    = \=\=\=\=\=\=\=\=\=\=\=\=\=\=\=\=\=\=\=\=\=\=\=\=\=\=\=\=\=\=\=\=\=\=\=\=\=\=\=\=\=\=\=\=\=\=\=\=\=\=\=\=\=\=\=\=\=\=\=\=\=\=\=\=\=\=\=\=\=\=\=\=
   ISYM = 1
   NSW = 800
   IBRION = 2
   POTIM = 0.5
   ISIF = 2
   EDIFFG = -.03
    = \=\=\=\=\=\=\=\=\=\=\=\=\=\=\=\=\=\=\=\=\=\=\=\=\=\=\=\=\=\=\=\=\=\=\=\=\=\=\=\=\=\=\=\=\=\=\=\=\=\=\=\=\=\=\=\=\=\=\=\=\=\=\=\=\=\=\=\=\=\=\=\=
    = \=\=\=\=\=\=\=\=\=\=\=\=\=\=\=\=\=\=\=\=\=\=\=\=\=\=\=\=\=\=\=\=\=\=\=\=\=\=\=\=\=\=\=\=\=\=\=\=\=\=\=\=\=\=\=\=\=\=\=\=\=\=\=\=\=\=\=\=\=\=\=\=
   NPAR = 4
   LWAVE = .FALSE.
   LCHARG = .FALSE.

 POTCAR:    PAW_PBE Cu 22Jun2005                  
 POTCAR:    PAW_PBE H 15Jun2001                   
 -----------------------------------------------------------------------------
|                                                                             |
|           W    W    AA    RRRRR   N    N  II  N    N   GGGG   !!!           |
|           W    W   A  A   R    R  NN   N  II  NN   N  G    G  !!!           |
|           W    W  A    A  R    R  N N  N  II  N N  N  G       !!!           |
|           W WW W  AAAAAA  RRRRR   N  N N  II  N  N N  G  GGG   !            |
|           WW  WW  A    A  R   R   N   NN  II  N   NN  G    G                |
|           W    W  A    A  R    R  N    N  II  N    N   GGGG   !!!           |
|                                                                             |
|     You use a magnetic or noncollinear calculation, but did not specify     |
|     the initial magnetic moment with the MAGMOM tag. Note that a            |
|     default of 1 will be used for all atoms. This ferromagnetic setup       |
|     may break the symmetry of the crystal, in particular it may rule        |
|     out finding an antiferromagnetic solution. Thence, we recommend         |
|     setting the initial magnetic moment manually or verifying carefully     |
|     that this magnetic setup is desired.                                    |
|                                                                             |
 -----------------------------------------------------------------------------

 POTCAR:    PAW_PBE Cu 22Jun2005                  
   SHA256 =  0e71e558f37a4e8407882b4609ceaae59938afaad9ced71dfe8490308a0ab630 Cu/POTCAR             
   COPYR  = (c) Copyright 22Jun2005 Georg Kresse                                                    
   COPYR  = This file is part of the software VASP. Any use, copying, and all other rights are regul
   COPYR  = If you do not have a valid VASP license, you may not use, copy or distribute this file. 
   VRHFIN =Cu: d10 p1                                                                               
   LEXCH  = PE                                                                                      
   EATOM  =  1390.9808 eV,  102.2342 Ry                                                             
                                                                                                    
   TITEL  = PAW_PBE Cu 22Jun2005                                                                    
   LULTRA =        F    use ultrasoft PP ?                                                          
   IUNSCR =        1    unscreen: 0-lin 1-nonlin 2-no                                               
   RPACOR =    2.000    partial core radius                                                         
   POMASS =   63.546; ZVAL   =   11.000    mass and valenz                                          
   RCORE  =    2.300    outmost cutoff radius                                                       
   RWIGS  =    2.200; RWIGS  =    1.164    wigner-seitz radius (au A)                               
   ENMAX  =  295.446; ENMIN  =  221.585 eV                                                          
   ICORE  =        3    local potential                                                             
   LCOR   =        T    correct aug charges                                                         
   LPAW   =        T    paw PP                                                                      
   EAUG   =  586.980                                                                                
   DEXC   =    0.000                                                                                
   RMAX   =    2.344    core radius for proj-oper                                                   
   RAUG   =    1.300    factor for augmentation sphere                                              
   RDEP   =    2.302    radius for radial grids                                                     
   RDEPT  =    1.771    core radius for aug-charge                                                  
                                                                                                    
   Atomic configuration                                                                             
    9 entries                                                                                       
     n  l   j            E        occ.                                                              
     1  0  0.50     -8850.2468   2.0000                                                             
     2  0  0.50     -1062.3498   2.0000                                                             
     2  1  1.50      -916.8226   6.0000                                                             
     3  0  0.50      -114.6929   2.0000                                                             
     3  1  1.50       -72.1325   6.0000                                                             
     3  2  2.50        -5.0394  10.0000                                                             
     4  0  0.50        -4.6097   1.0000                                                             
     4  1  0.50        -4.0817   0.0000                                                             
     4  3  2.50        -1.3606   0.0000                                                             
   Description                                                                                      
     l       E           TYP  RCUT    TYP  RCUT                                                     
     2     -5.0393973     23  2.200                                                                 
     2     10.8846608     23  2.200                                                                 
     0     -4.6097109     23  2.200                                                                 
     0      8.2520465     23  2.200                                                                 
     1     -2.7211652     23  2.200                                                                 
     1     21.7055443     23  2.200                                                                 
     3      2.7211652     23  2.300                                                                 
  local pseudopotential read in
  partial core-charges read in
  partial kinetic energy density read in
  atomic valenz-charges read in
  non local Contribution for L=           2  read in
    real space projection operators read in
  non local Contribution for L=           2  read in
    real space projection operators read in
  non local Contribution for L=           0  read in
    real space projection operators read in
  non local Contribution for L=           0  read in
    real space projection operators read in
  non local Contribution for L=           1  read in
    real space projection operators read in
  non local Contribution for L=           1  read in
    real space projection operators read in
    PAW grid and wavefunctions read in
 
   number of l-projection  operators is LMAX  =           6
   number of lm-projection operators is LMMAX =          18
 
 POTCAR:    PAW_PBE H 15Jun2001                   
   SHA256 =  030f79b5d3ab3cf0e668861823c8fb652ff669f3e15e46930bd03bfd63a607b6 H/POTCAR              
   COPYR  = (c) Copyright 15Jun2001 Georg Kresse                                                    
   COPYR  = This file is part of the software VASP. Any use, copying, and all other rights are regul
   COPYR  = If you do not have a valid VASP license, you may not use, copy or distribute this file. 
   VRHFIN =H: ultrasoft test                                                                        
   LEXCH  = PE                                                                                      
   EATOM  =    12.4884 eV,    0.9179 Ry                                                             
                                                                                                    
   TITEL  = PAW_PBE H 15Jun2001                                                                     
   LULTRA =        F    use ultrasoft PP ?                                                          
   IUNSCR =        0    unscreen: 0-lin 1-nonlin 2-no                                               
   RPACOR =    0.000    partial core radius                                                         
   POMASS =    1.000; ZVAL   =    1.000    mass and valenz                                          
   RCORE  =    1.100    outmost cutoff radius                                                       
   RWIGS  =    0.700; RWIGS  =    0.370    wigner-seitz radius (au A)                               
   ENMAX  =  250.000; ENMIN  =  200.000 eV                                                          
   RCLOC  =    0.701    cutoff for local pot                                                        
   LCOR   =        T    correct aug charges                                                         
   LPAW   =        T    paw PP                                                                      
   EAUG   =  400.000                                                                                
   RMAX   =    1.123    core radius for proj-oper                                                   
   RAUG   =    1.200    factor for augmentation sphere                                              
   RDEP   =    1.112    radius for radial grids                                                     
   RDEPT  =    0.926    core radius for aug-charge                                                  
                                                                                                    
   Atomic configuration                                                                             
    2 entries                                                                                       
     n  l   j            E        occ.                                                              
     1  0  0.50        -6.4927   1.0000                                                             
     2  1  0.50        -3.4015   0.0000                                                             
   Description                                                                                      
     l       E           TYP  RCUT    TYP  RCUT                                                     
     0     -6.4927494     23  1.100                                                                 
     0      6.8029130     23  1.100                                                                 
     1     -4.0817478     23  1.100                                                                 
  local pseudopotential read in
  atomic valenz-charges read in
  non local Contribution for L=           0  read in
    real space projection operators read in
  non local Contribution for L=           0  read in
    real space projection operators read in
  non local Contribution for L=           1  read in
    real space projection operators read in
    PAW grid and wavefunctions read in
 
   number of l-projection  operators is LMAX  =           3
   number of lm-projection operators is LMMAX =           5
 
  PAW_PBE Cu 22Jun2005                  :
 energy of atom  1       EATOM=-1390.9808
 kinetic energy error for atom=    0.0232 (will be added to EATOM!!)
  PAW_PBE H 15Jun2001                   :
 energy of atom  2       EATOM=  -12.4884
 kinetic energy error for atom=    0.0098 (will be added to EATOM!!)
 
 
 POSCAR: FCC Cu
  positions in cartesian coordinates
  No initial velocities read in
 exchange correlation table for  LEXCH =        8
   RHO(1)=    0.500       N(1)  =     2000
   RHO(2)=  100.500       N(2)  =     4000

 VTST: version 4.2, (08/11/21)

 CHAIN: initializing optimizer
 
 OPT: Using VASP Conjugate-Gradient optimizer
 CHAIN: Read ICHAIN            0
 
 POSCAR: FCC Cu
  positions in cartesian coordinates
  No initial velocities read in
 


--------------------------------------------------------------------------------------------------------


 ion  position               nearest neighbor table
   1  0.000  0.000  0.000-   2 2.57   2 2.57   2 2.57
   2  0.333  0.333  0.071-   3 2.51   3 2.51   3 2.51   1 2.57   1 2.57   1 2.57
   3  0.667  0.667  0.139-   2 2.51   2 2.51   2 2.51   4 2.53   4 2.53   4 2.53
   4  0.000  0.000  0.208-   5 2.51   5 2.51   5 2.51   3 2.53   3 2.53   3 2.53
   5  0.333  0.333  0.277-   4 2.51   4 2.51   4 2.51   6 2.53   6 2.53   6 2.53
   6  0.667  0.667  0.346-   7 2.51   7 2.51   7 2.51   5 2.53   5 2.53   5 2.53
   7  0.000  0.000  0.414-   8 2.49   8 2.49   8 2.49   6 2.51   6 2.51   6 2.51
   8  0.333  0.333  0.481-   7 2.49   7 2.49   7 2.49
   9  0.000  1.000  0.534-  10 0.75
  10  0.000  1.000  0.559-   9 0.75
 
  LATTYP: Found a hexagonal cell.
 ALAT       =     2.5667977333
 C/A-ratio  =    11.5593335643
  
  Lattice vectors:
  
 A1 = (  -1.2833988667,  -2.2229120434,   0.0000000000)
 A2 = (   2.5667977333,   0.0000000000,   0.0000000000)
 A3 = (   0.0000000000,   0.0000000000,  29.6704711914)


Analysis of symmetry for initial positions (statically):
=====================================================================
 Subroutine PRICEL returns:
 Original cell was already a primitive cell.
 

 Routine SETGRP: Setting up the symmetry group for a 
 hexagonal supercell.


 Subroutine GETGRP returns: Found  6 space group operations
 (whereof  6 operations were pure point group operations)
 out of a pool of 24 trial point group operations.


The static configuration has the point symmetry C_3v.


Analysis of symmetry for dynamics (positions and initial velocities):
=====================================================================
 Subroutine PRICEL returns:
 Original cell was already a primitive cell.
 

 Routine SETGRP: Setting up the symmetry group for a 
 hexagonal supercell.


 Subroutine GETGRP returns: Found  6 space group operations
 (whereof  6 operations were pure point group operations)
 out of a pool of 24 trial point group operations.


The dynamic configuration has the point symmetry C_3v.


Analysis of structural, dynamic, and magnetic symmetry:
=====================================================================
 Subroutine PRICEL returns:
 Original cell was already a primitive cell.
 

 Routine SETGRP: Setting up the symmetry group for a 
 hexagonal supercell.


 Subroutine GETGRP returns: Found  6 space group operations
 (whereof  6 operations were pure point group operations)
 out of a pool of 24 trial point group operations.


The overall configuration has the point symmetry C_3v.


 Subroutine INISYM returns: Found  6 space group operations
 (whereof  6 operations are pure point group operations),
 and found     1 'primitive' translations


----------------------------------------------------------------------------------------

                                     Primitive cell                                     

  volume of cell :     169.2928

  direct lattice vectors                    reciprocal lattice vectors
     2.566797733  0.000000000  0.000000000     0.389590495 -0.224930177  0.000000000
     1.283398867  2.222912043  0.000000000     0.000000000  0.449860355  0.000000000
     0.000000000  0.000000000 29.670471191     0.000000000  0.000000000  0.033703543

  length of vectors
     2.566797733  2.566797733 29.670471191     0.449860355  0.449860355  0.033703543

  position of ions in fractional coordinates (direct lattice)
     0.000000000  0.000000000  0.000000000
     0.333333333  0.333333333  0.070635264
     0.666666667  0.666666667  0.139085938
     0.000000000  0.000000000  0.208165116
     0.333333333  0.333333333  0.276562395
     0.666666667  0.666666667  0.345560339
     0.000000000  0.000000000  0.414005934
     0.333333333  0.333333333  0.481392695
     0.000000000  1.000000000  0.534259303
     0.000000000  1.000000000  0.559402146

  ion indices of the primitive-cell ions
   primitive index   ion index
                 1           1
                 2           2
                 3           3
                 4           4
                 5           5
                 6           6
                 7           7
                 8           8
                 9           9
                10          10

----------------------------------------------------------------------------------------

 
 
 KPOINTS: Auto-mesh                               

Automatic generation of k-mesh.
 Grid dimensions read from file:
 generate k-points for:    3    3    1

 Generating k-lattice:

  Cartesian coordinates                     Fractional coordinates (reciprocal lattice)
     0.129863498 -0.074976726  0.000000000     0.333333333  0.000000000  0.000000000
     0.000000000  0.149953452  0.000000000     0.000000000  0.333333333  0.000000000
     0.000000000  0.000000000  0.033703543     0.000000000  0.000000000  1.000000000

  Length of vectors
     0.149953452  0.149953452  0.033703543

  Shift w.r.t. Gamma in fractional coordinates (k-lattice)
     0.000000000  0.000000000  0.000000000

 
 Subroutine IBZKPT returns following result:
 ===========================================
 
 Found      3 irreducible k-points:
 
 Following reciprocal coordinates:
            Coordinates               Weight
  0.000000  0.000000  0.000000      1.000000
  0.333333  0.000000  0.000000      6.000000
 -0.333333  0.333333  0.000000      2.000000
 
 Following cartesian coordinates:
            Coordinates               Weight
  0.000000  0.000000  0.000000      1.000000
  0.129863 -0.074977  0.000000      6.000000
 -0.129863  0.224930  0.000000      2.000000
 


--------------------------------------------------------------------------------------------------------




 Dimension of arrays:
   k-points           NKPTS =      3   k-points in BZ     NKDIM =      3   number of bands    NBANDS=     60
   number of dos      NEDOS =    301   number of ions     NIONS =     10
   non local maximal  LDIM  =      6   non local SUM 2l+1 LMDIM =     18
   total plane-waves  NPLWV =  29400
   max r-space proj   IRMAX =      1   max aug-charges    IRDMAX=   5229
   dimension x,y,z NGX =    14 NGY =   14 NGZ =  150
   dimension x,y,z NGXF=    28 NGYF=   28 NGZF=  300
   support grid    NGXF=    28 NGYF=   28 NGZF=  300
   ions per type =               8   2
   NGX,Y,Z   is equivalent  to a cutoff of   9.07,  9.07,  8.40 a.u.
   NGXF,Y,Z  is equivalent  to a cutoff of  18.13, 18.13, 16.81 a.u.

 SYSTEM =  unknown system                          
 POSCAR =  FCC Cu                                  

 Startparameter for this run:
   NWRITE =      2    write-flag & timer
   PREC   = normal    normal or accurate (medium, high low for compatibility)
   ISTART =      0    job   : 0-new  1-cont  2-samecut
   ICHARG =      2    charge: 1-file 2-atom 10-const
   ISPIN  =      2    spin polarized calculation?
   LNONCOLLINEAR =      F non collinear calculations
   LSORBIT =      F    spin-orbit coupling
   INIWAV =      1    electr: 0-lowe 1-rand  2-diag
   LASPH  =      F    aspherical Exc in radial PAW
 Electronic Relaxation 1
   ENCUT  =  400.0 eV  29.40 Ry    5.42 a.u.   4.19  4.19 48.39*2*pi/ulx,y,z
   ENINI  =  400.0     initial cutoff
   ENAUG  =  587.0 eV  augmentation charge cutoff
   NELM   =     60;   NELMIN=  2; NELMDL= -5     # of ELM steps 
   EDIFF  = 0.2E-03   stopping-criterion for ELM
   LREAL  =      F    real-space projection
   NLSPLINE    = F    spline interpolate recip. space projectors
   LCOMPAT=      F    compatible to vasp.4.4
   GGA_COMPAT  = T    GGA compatible to vasp.4.4-vasp.4.6
   LMAXPAW     = -100 max onsite density
   LMAXMIX     =    2 max onsite mixed and CHGCAR
   VOSKOWN=      0    Vosko Wilk Nusair interpolation
   ROPT   =    0.00000   0.00000
 Ionic relaxation
   EDIFFG = -.3E-01   stopping-criterion for IOM
   NSW    =    800    number of steps for IOM
   NBLOCK =      1;   KBLOCK =    800    inner block; outer block 
   IBRION =      2    ionic relax: 0-MD 1-quasi-New 2-CG
   NFREE  =      1    steps in history (QN), initial steepest desc. (CG)
   ISIF   =      2    stress and relaxation
   IWAVPR =     11    prediction:  0-non 1-charg 2-wave 3-comb
   ISYM   =      1    0-nonsym 1-usesym 2-fastsym
   LCORR  =      T    Harris-Foulkes like correction to forces

   POTIM  = 0.5000    time-step for ionic-motion
   TEIN   =    0.0    initial temperature
   TEBEG  =    0.0;   TEEND  =   0.0 temperature during run
   SMASS  =  -3.00    Nose mass-parameter (am)
   estimated Nose-frequenzy (Omega)   =  0.10E-29 period in steps = 0.13E+47 mass=  -0.151E-27a.u.
   SCALEE = 1.0000    scale energy and forces
   NPACO  =    256;   APACO  = 10.0  distance and # of slots for P.C.
   PSTRESS=    0.0 pullay stress

  Mass of Ions in am
   POMASS =  63.55  1.00
  Ionic Valenz
   ZVAL   =  11.00  1.00
  Atomic Wigner-Seitz radii
   RWIGS  =  -1.00 -1.00
  virtual crystal weights 
   VCA    =   1.00  1.00
   NELECT =      90.0000    total number of electrons
   NUPDOWN=      -1.0000    fix difference up-down

 DOS related values:
   EMIN   =  10.00;   EMAX   =-10.00  energy-range for DOS
   EFERMI =   0.00
   ISMEAR =     1;   SIGMA  =   0.20  broadening in eV -4-tet -1-fermi 0-gaus

 Electronic relaxation 2 (details)
   IALGO  =     38    algorithm
   LDIAG  =      T    sub-space diagonalisation (order eigenvalues)
   LSUBROT=      F    optimize rotation matrix (better conditioning)
   TURBO    =      0    0=normal 1=particle mesh
   IRESTART =      0    0=no restart 2=restart with 2 vectors
   NREBOOT  =      0    no. of reboots
   NMIN     =      0    reboot dimension
   EREF     =   0.00    reference energy to select bands
   IMIX   =      4    mixing-type and parameters
     AMIX     =   0.40;   BMIX     =  1.00
     AMIX_MAG =   1.60;   BMIX_MAG =  1.00
     AMIN     =   0.10
     WC   =   100.;   INIMIX=   1;  MIXPRE=   1;  MAXMIX= -45

 Intra band minimization:
   WEIMIN = 0.0010     energy-eigenvalue tresh-hold
   EBREAK =  0.83E-06  absolut break condition
   DEPER  =   0.30     relativ break condition  

   TIME   =   0.40     timestep for ELM

  volume/ion in A,a.u.               =      16.93       114.24
  Fermi-wavevector in a.u.,A,eV,Ry     =   1.326202  2.506158 23.930072  1.758811
  Thomas-Fermi vector in A             =   2.455606
 
 Write flags
   LWAVE        =      F    write WAVECAR
   LDOWNSAMPLE  =      F    k-point downsampling of WAVECAR
   LCHARG       =      F    write CHGCAR
   LVTOT        =      F    write LOCPOT, total local potential
   LVHAR        =      F    write LOCPOT, Hartree potential only
   LELF         =      F    write electronic localiz. function (ELF)
   LORBIT       =      0    0 simple, 1 ext, 2 COOP (PROOUT), +10 PAW based schemes


 Dipole corrections
   LMONO  =      F    monopole corrections only (constant potential shift)
   LDIPOL =      F    correct potential (dipole corrections)
   IDIPOL =      0    1-x, 2-y, 3-z, 4-all directions 
   EPSILON=  1.0000000 bulk dielectric constant

 Exchange correlation treatment:
   GGA     =    PE    GGA type
   LEXCH   =     8    internal setting for exchange type
   LIBXC   =     F    Libxc                    
   VOSKOWN =     0    Vosko Wilk Nusair interpolation
   LHFCALC =     F    Hartree Fock is set to
   LHFONE  =     F    Hartree Fock one center treatment
   AEXX    =    0.0000 exact exchange contribution

 Linear response parameters
   LEPSILON=     F    determine dielectric tensor
   LRPA    =     F    only Hartree local field effects (RPA)
   LNABLA  =     F    use nabla operator in PAW spheres
   LVEL    =     F    velocity operator in full k-point grid
   CSHIFT  =0.1000    complex shift for real part using Kramers Kronig
   OMEGAMAX=  -1.0    maximum frequency
   DEG_THRESHOLD= 0.2000000E-02 threshold for treating states as degnerate
   RTIME   =   -0.100 relaxation time in fs
  (WPLASMAI=    0.000 imaginary part of plasma frequency in eV, 0.658/RTIME)
   DFIELD  = 0.0000000 0.0000000 0.0000000 field for delta impulse in time
 
  Optional k-point grid parameters
   LKPOINTS_OPT  =     F    use optional k-point grid
   KPOINTS_OPT_MODE=     1    mode for optional k-point grid
 
 Orbital magnetization related:
   ORBITALMAG=     F  switch on orbital magnetization
   LCHIMAG   =     F  perturbation theory with respect to B field
   DQ        =  0.001000  dq finite difference perturbation B field
   LLRAUG    =     F  two centre corrections for induced B field



--------------------------------------------------------------------------------------------------------


 conjugate gradient relaxation of ions
 charge density and potential will be updated during run
 spin polarized calculation
 Variant of blocked Davidson
 Davidson routine will perform the subspace rotation
 perform sub-space diagonalisation
    after iterative eigenvector-optimisation
 modified Broyden-mixing scheme, WC =      100.0
 initial mixing is a Kerker type mixing with AMIX =  0.4000 and BMIX =      1.0000
 Hartree-type preconditioning will be used
 using additional bands           15
 reciprocal scheme for non local part
 use partial core corrections
 calculate Harris-corrections to forces 
   (improved forces if not selfconsistent)
 use gradient corrections 
 use of overlap-Matrix (Vanderbilt PP)
 Methfessel and Paxton  Order N= 1 SIGMA  =   0.20


--------------------------------------------------------------------------------------------------------


  energy-cutoff  :      400.00
  volume of cell :      169.29
      direct lattice vectors                 reciprocal lattice vectors
     2.566797733  0.000000000  0.000000000     0.389590495 -0.224930177  0.000000000
     1.283398867  2.222912043  0.000000000     0.000000000  0.449860355  0.000000000
     0.000000000  0.000000000 29.670471191     0.000000000  0.000000000  0.033703543

  length of vectors
     2.566797733  2.566797733 29.670471191     0.449860355  0.449860355  0.033703543


 
 k-points in units of 2pi/SCALE and weight: Auto-mesh                               
   0.00000000  0.00000000  0.00000000       0.111
   0.12986350 -0.07497673  0.00000000       0.667
  -0.12986350  0.22493018  0.00000000       0.222
 
 k-points in reciprocal lattice and weights: Auto-mesh                               
   0.00000000  0.00000000  0.00000000       0.111
   0.33333333  0.00000000  0.00000000       0.667
  -0.33333333  0.33333333  0.00000000       0.222
 
 position of ions in fractional coordinates (direct lattice) 
   0.00000000  0.00000000  0.00000000
   0.33333333  0.33333333  0.07063526
   0.66666667  0.66666667  0.13908594
   0.00000000  0.00000000  0.20816512
   0.33333333  0.33333333  0.27656240
   0.66666667  0.66666667  0.34556034
   0.00000000  0.00000000  0.41400593
   0.33333333  0.33333333  0.48139269
   0.00000000  1.00000000  0.53425930
   0.00000000  1.00000000  0.55940215
 
 position of ions in cartesian coordinates  (Angst):
   0.00000000  0.00000000  0.00000000
   1.28339887  0.74097068  2.09578157
   2.56679773  1.48194136  4.12674532
   0.00000000  0.00000000  6.17635708
   1.28339887  0.74097068  8.20573658
   2.56679773  1.48194136 10.25293808
   0.00000000  0.00000000 12.28375114
   1.28339887  0.74097068 14.28314809
   1.28339887  2.22291204 15.85172525
   1.28339887  2.22291204 16.59772525
 


--------------------------------------------------------------------------------------------------------


 k-point   1 :   0.0000 0.0000 0.0000  plane waves:    3091
 k-point   2 :   0.3333 0.0000 0.0000  plane waves:    3081
 k-point   3 :  -0.3333 0.3333 0.0000  plane waves:    3096

 maximum and minimum number of plane-waves per node :       629      605

 maximum number of plane-waves:      3096
 maximum index in each direction: 
   IXMAX=    4   IYMAX=    4   IZMAX=   48
   IXMIN=   -4   IYMIN=   -4   IZMIN=  -48


 parallel 3D FFT for wavefunctions:
    minimum data exchange during FFTs selected (reduces bandwidth)
 parallel 3D FFT for charge:
    minimum data exchange during FFTs selected (reduces bandwidth)


 total amount of memory used by VASP MPI-rank0    34212. kBytes
=======================================================================

   base      :      30000. kBytes
   nonl-proj :        634. kBytes
   fftplans  :        716. kBytes
   grid      :       1856. kBytes
   one-center:         62. kBytes
   wavefun   :        944. kBytes
 
     INWAV:  cpu time      0.0000: real time      0.0004
 Broyden mixing: mesh for mixing (old mesh)
   NGX =  9   NGY =  9   NGZ = 97
  (NGX  = 28   NGY  = 28   NGZ  =300)
  gives a total of   7857 points

 initial charge density was supplied:
 charge density of overlapping atoms calculated
 number of electron      90.0000000 magnetization      10.0000000
 keeping initial charge density in first step


--------------------------------------------------------------------------------------------------------


 Maximum index for augmentation-charges          479 (set IRDMAX)


--------------------------------------------------------------------------------------------------------


 First call to EWALD:  gamma=   0.320
 Maximum number of real-space cells 6x 6x 1
 Maximum number of reciprocal cells 2x 2x13

    FEWALD:  cpu time      0.0020: real time      0.0020


--------------------------------------- Iteration      1(   1)  ---------------------------------------


    POTLOK:  cpu time      0.0225: real time      0.0228
    SETDIJ:  cpu time      0.0068: real time      0.0069
     EDDAV:  cpu time      0.2180: real time      0.2199
       DOS:  cpu time      0.0015: real time      0.0015
    --------------------------------------------
      LOOP:  cpu time      0.2488: real time      0.2510

 eigenvalue-minimisations  :   728
 total energy-change (2. order) : 0.7908750E+03  (-0.3341902E+04)
 number of electron      90.0000000 magnetization      10.0000000
 augmentation part       90.0000000 magnetization      10.0000000

 Free energy of the ion-electron system (eV)
  ---------------------------------------------------
  alpha Z        PSCENC =       285.34744303
  Ewald energy   TEWEN  =     52241.59344990
  -Hartree energ DENC   =    -63294.98769043
  -exchange      EXHF   =         0.00000000
  -V(xc)+E(xc)   XCENC  =       372.50714578
  PAW double counting   =      9828.36862813   -10674.97285505
  entropy T*S    EENTRO =         0.00277567
  eigenvalues    EBANDS =       880.39774184
  atomic energy  EATOM  =     11152.61838693
  Solvation  Ediel_sol  =         0.00000000
  ---------------------------------------------------
  free energy    TOTEN  =       790.87502580 eV

  energy without entropy =      790.87225014  energy(sigma->0) =      790.87410058


--------------------------------------------------------------------------------------------------------




--------------------------------------- Iteration      1(   2)  ---------------------------------------


     EDDAV:  cpu time      0.2061: real time      0.2094
       DOS:  cpu time      0.0007: real time      0.0007
    --------------------------------------------
      LOOP:  cpu time      0.2068: real time      0.2101

 eigenvalue-minimisations  :   720
 total energy-change (2. order) :-0.7196941E+03  (-0.6902537E+03)
 number of electron      90.0000000 magnetization      10.0000000
 augmentation part       90.0000000 magnetization      10.0000000

 Free energy of the ion-electron system (eV)
  ---------------------------------------------------
  alpha Z        PSCENC =       285.34744303
  Ewald energy   TEWEN  =     52241.59344990
  -Hartree energ DENC   =    -63294.98769043
  -exchange      EXHF   =         0.00000000
  -V(xc)+E(xc)   XCENC  =       372.50714578
  PAW double counting   =      9828.36862813   -10674.97285505
  entropy T*S    EENTRO =         0.00371967
  eigenvalues    EBANDS =       160.70267158
  atomic energy  EATOM  =     11152.61838693
  Solvation  Ediel_sol  =         0.00000000
  ---------------------------------------------------
  free energy    TOTEN  =        71.18089955 eV

  energy without entropy =       71.17717988  energy(sigma->0) =       71.17965966


--------------------------------------------------------------------------------------------------------




--------------------------------------- Iteration      1(   3)  ---------------------------------------


     EDDAV:  cpu time      0.2075: real time      0.2097
       DOS:  cpu time      0.0007: real time      0.0007
    --------------------------------------------
      LOOP:  cpu time      0.2082: real time      0.2105

 eigenvalue-minimisations  :   736
 total energy-change (2. order) :-0.1040777E+03  (-0.9760687E+02)
 number of electron      90.0000000 magnetization      10.0000000
 augmentation part       90.0000000 magnetization      10.0000000

 Free energy of the ion-electron system (eV)
  ---------------------------------------------------
  alpha Z        PSCENC =       285.34744303
  Ewald energy   TEWEN  =     52241.59344990
  -Hartree energ DENC   =    -63294.98769043
  -exchange      EXHF   =         0.00000000
  -V(xc)+E(xc)   XCENC  =       372.50714578
  PAW double counting   =      9828.36862813   -10674.97285505
  entropy T*S    EENTRO =         0.02714414
  eigenvalues    EBANDS =        56.60158147
  atomic energy  EATOM  =     11152.61838693
  Solvation  Ediel_sol  =         0.00000000
  ---------------------------------------------------
  free energy    TOTEN  =       -32.89676610 eV

  energy without entropy =      -32.92391024  energy(sigma->0) =      -32.90581414


--------------------------------------------------------------------------------------------------------




--------------------------------------- Iteration      1(   4)  ---------------------------------------


     EDDAV:  cpu time      0.2262: real time      0.2285
       DOS:  cpu time      0.0008: real time      0.0008
    --------------------------------------------
      LOOP:  cpu time      0.2270: real time      0.2293

 eigenvalue-minimisations  :   824
 total energy-change (2. order) :-0.4439793E+01  (-0.4403140E+01)
 number of electron      90.0000000 magnetization      10.0000000
 augmentation part       90.0000000 magnetization      10.0000000

 Free energy of the ion-electron system (eV)
  ---------------------------------------------------
  alpha Z        PSCENC =       285.34744303
  Ewald energy   TEWEN  =     52241.59344990
  -Hartree energ DENC   =    -63294.98769043
  -exchange      EXHF   =         0.00000000
  -V(xc)+E(xc)   XCENC  =       372.50714578
  PAW double counting   =      9828.36862813   -10674.97285505
  entropy T*S    EENTRO =         0.03226181
  eigenvalues    EBANDS =        52.15667083
  atomic energy  EATOM  =     11152.61838693
  Solvation  Ediel_sol  =         0.00000000
  ---------------------------------------------------
  free energy    TOTEN  =       -37.33655906 eV

  energy without entropy =      -37.36882088  energy(sigma->0) =      -37.34731300


--------------------------------------------------------------------------------------------------------




--------------------------------------- Iteration      1(   5)  ---------------------------------------


     EDDAV:  cpu time      0.2268: real time      0.2287
       DOS:  cpu time      0.0008: real time      0.0008
    CHARGE:  cpu time      0.0536: real time      0.0538
    MIXING:  cpu time      0.0010: real time      0.0010
    --------------------------------------------
      LOOP:  cpu time      0.2821: real time      0.2843

 eigenvalue-minimisations  :   840
 total energy-change (2. order) :-0.9589045E-01  (-0.9583744E-01)
 number of electron      89.9999971 magnetization       9.3942072
 augmentation part       52.1921287 magnetization       9.0187190

 Broyden mixing:
  rms(total) = 0.27577E+01    rms(broyden)= 0.27576E+01
  rms(prec ) = 0.28226E+01
  weight for this iteration     100.00

 Free energy of the ion-electron system (eV)
  ---------------------------------------------------
  alpha Z        PSCENC =       285.34744303
  Ewald energy   TEWEN  =     52241.59344990
  -Hartree energ DENC   =    -63294.98769043
  -exchange      EXHF   =         0.00000000
  -V(xc)+E(xc)   XCENC  =       372.50714578
  PAW double counting   =      9828.36862813   -10674.97285505
  entropy T*S    EENTRO =         0.03234331
  eigenvalues    EBANDS =        52.06069889
  atomic energy  EATOM  =     11152.61838693
  Solvation  Ediel_sol  =         0.00000000
  ---------------------------------------------------
  free energy    TOTEN  =       -37.43244951 eV

  energy without entropy =      -37.46479282  energy(sigma->0) =      -37.44323061


--------------------------------------------------------------------------------------------------------




--------------------------------------- Iteration      1(   6)  ---------------------------------------


    POTLOK:  cpu time      0.0203: real time      0.0206
    SETDIJ:  cpu time      0.0063: real time      0.0064
     EDDAV:  cpu time      0.2694: real time      0.2714
       DOS:  cpu time      0.0009: real time      0.0009
    CHARGE:  cpu time      0.0534: real time      0.0538
    MIXING:  cpu time      0.0008: real time      0.0008
    --------------------------------------------
      LOOP:  cpu time      0.3511: real time      0.3538

 eigenvalue-minimisations  :   948
 total energy-change (2. order) : 0.3261253E+01  (-0.1053984E+02)
 number of electron      89.9999989 magnetization       9.1428182
 augmentation part       56.7832882 magnetization       6.8915834

 Broyden mixing:
  rms(total) = 0.19870E+01    rms(broyden)= 0.19867E+01
  rms(prec ) = 0.29122E+01
  weight for this iteration     100.00

 eigenvalues of (default mixing * dielectric matrix)
  average eigenvalue GAMMA=   0.7145
  0.7145

 Free energy of the ion-electron system (eV)
  ---------------------------------------------------
  alpha Z        PSCENC =       285.34744303
  Ewald energy   TEWEN  =     52241.59344990
  -Hartree energ DENC   =    -63109.09068098
  -exchange      EXHF   =         0.00000000
  -V(xc)+E(xc)   XCENC  =       365.08572635
  PAW double counting   =     10015.23799900   -10820.03474247
  entropy T*S    EENTRO =        -0.04053625
  eigenvalues    EBANDS =      -164.88824185
  atomic energy  EATOM  =     11152.61838693
  Solvation  Ediel_sol  =         0.00000000
  ---------------------------------------------------
  free energy    TOTEN  =       -34.17119632 eV

  energy without entropy =      -34.13066007  energy(sigma->0) =      -34.15768424


--------------------------------------------------------------------------------------------------------




--------------------------------------- Iteration      1(   7)  ---------------------------------------


    POTLOK:  cpu time      0.0204: real time      0.0207
    SETDIJ:  cpu time      0.0061: real time      0.0061
     EDDAV:  cpu time      0.2768: real time      0.2790
       DOS:  cpu time      0.0008: real time      0.0008
    CHARGE:  cpu time      0.0512: real time      0.0514
    MIXING:  cpu time      0.0007: real time      0.0007
    --------------------------------------------
      LOOP:  cpu time      0.3559: real time      0.3586

 eigenvalue-minimisations  :  1064
 total energy-change (2. order) :-0.6069054E+02  (-0.2901460E+02)
 number of electron      89.9999966 magnetization       9.0057059
 augmentation part       50.4778570 magnetization       5.7011234

 Broyden mixing:
  rms(total) = 0.64340E+01    rms(broyden)= 0.64337E+01
  rms(prec ) = 0.11630E+02
  weight for this iteration     100.00

 eigenvalues of (default mixing * dielectric matrix)
  average eigenvalue GAMMA=   0.4164
  0.7585  0.0743

 Free energy of the ion-electron system (eV)
  ---------------------------------------------------
  alpha Z        PSCENC =       285.34744303
  Ewald energy   TEWEN  =     52241.59344990
  -Hartree energ DENC   =    -63211.27551693
  -exchange      EXHF   =         0.00000000
  -V(xc)+E(xc)   XCENC  =       365.85069175
  PAW double counting   =     10125.52592388   -10948.53272012
  entropy T*S    EENTRO =        -0.00423324
  eigenvalues    EBANDS =      -105.98516036
  atomic energy  EATOM  =     11152.61838693
  Solvation  Ediel_sol  =         0.00000000
  ---------------------------------------------------
  free energy    TOTEN  =       -94.86173514 eV

  energy without entropy =      -94.85750190  energy(sigma->0) =      -94.86032406


--------------------------------------------------------------------------------------------------------




--------------------------------------- Iteration      1(   8)  ---------------------------------------


    POTLOK:  cpu time      0.0192: real time      0.0198
    SETDIJ:  cpu time      0.0059: real time      0.0059
     EDDAV:  cpu time      0.3104: real time      0.3127
       DOS:  cpu time      0.0007: real time      0.0007
    CHARGE:  cpu time      0.0497: real time      0.0499
    MIXING:  cpu time      0.0007: real time      0.0007
    --------------------------------------------
      LOOP:  cpu time      0.3866: real time      0.3897

 eigenvalue-minimisations  :  1224
 total energy-change (2. order) : 0.5516137E+02  (-0.1908652E+02)
 number of electron      89.9999976 magnetization       8.8178129
 augmentation part       56.1041077 magnetization       6.7678390

 Broyden mixing:
  rms(total) = 0.21558E+01    rms(broyden)= 0.21553E+01
  rms(prec ) = 0.27068E+01
  weight for this iteration     100.00

 eigenvalues of (default mixing * dielectric matrix)
  average eigenvalue GAMMA=   0.3966
  0.8155  0.2972  0.0772

 Free energy of the ion-electron system (eV)
  ---------------------------------------------------
  alpha Z        PSCENC =       285.34744303
  Ewald energy   TEWEN  =     52241.59344990
  -Hartree energ DENC   =    -63192.85768853
  -exchange      EXHF   =         0.00000000
  -V(xc)+E(xc)   XCENC  =       365.41087592
  PAW double counting   =     10143.67413802   -10972.20664692
  entropy T*S    EENTRO =        -0.05732038
  eigenvalues    EBANDS =       -63.22300773
  atomic energy  EATOM  =     11152.61838693
  Solvation  Ediel_sol  =         0.00000000
  ---------------------------------------------------
  free energy    TOTEN  =       -39.70036974 eV

  energy without entropy =      -39.64304937  energy(sigma->0) =      -39.68126295


--------------------------------------------------------------------------------------------------------




--------------------------------------- Iteration      1(   9)  ---------------------------------------


    POTLOK:  cpu time      0.0194: real time      0.0203
    SETDIJ:  cpu time      0.0060: real time      0.0060
     EDDAV:  cpu time      0.2909: real time      0.2933
       DOS:  cpu time      0.0008: real time      0.0008
    CHARGE:  cpu time      0.0505: real time      0.0508
    MIXING:  cpu time      0.0007: real time      0.0008
    --------------------------------------------
      LOOP:  cpu time      0.3684: real time      0.3719

 eigenvalue-minimisations  :  1136
 total energy-change (2. order) : 0.6737004E+01  (-0.4396009E+01)
 number of electron      89.9999960 magnetization       8.6915739
 augmentation part       57.1133856 magnetization       7.3604180

 Broyden mixing:
  rms(total) = 0.16316E+01    rms(broyden)= 0.16313E+01
  rms(prec ) = 0.18263E+01
  weight for this iteration     100.00

 eigenvalues of (default mixing * dielectric matrix)
  average eigenvalue GAMMA=   0.3562
  0.8416  0.0805  0.2514  0.2514

 Free energy of the ion-electron system (eV)
  ---------------------------------------------------
  alpha Z        PSCENC =       285.34744303
  Ewald energy   TEWEN  =     52241.59344990
  -Hartree energ DENC   =    -63063.42962375
  -exchange      EXHF   =         0.00000000
  -V(xc)+E(xc)   XCENC  =       365.46541311
  PAW double counting   =     10200.42245081   -11038.27541149
  entropy T*S    EENTRO =        -0.02889444
  eigenvalues    EBANDS =      -176.67657985
  atomic energy  EATOM  =     11152.61838693
  Solvation  Ediel_sol  =         0.00000000
  ---------------------------------------------------
  free energy    TOTEN  =       -32.96336575 eV

  energy without entropy =      -32.93447131  energy(sigma->0) =      -32.95373427


--------------------------------------------------------------------------------------------------------




--------------------------------------- Iteration      1(  10)  ---------------------------------------


    POTLOK:  cpu time      0.0189: real time      0.0191
    SETDIJ:  cpu time      0.0059: real time      0.0059
     EDDAV:  cpu time      0.2762: real time      0.2787
       DOS:  cpu time      0.0007: real time      0.0007
    CHARGE:  cpu time      0.0489: real time      0.0491
    MIXING:  cpu time      0.0009: real time      0.0009
    --------------------------------------------
      LOOP:  cpu time      0.3515: real time      0.3545

 eigenvalue-minimisations  :  1076
 total energy-change (2. order) : 0.1993476E+01  (-0.1607165E+01)
 number of electron      89.9999968 magnetization       8.5863839
 augmentation part       57.3024824 magnetization       7.2498848

 Broyden mixing:
  rms(total) = 0.11573E+01    rms(broyden)= 0.11571E+01
  rms(prec ) = 0.11997E+01
  weight for this iteration     100.00

 eigenvalues of (default mixing * dielectric matrix)
  average eigenvalue GAMMA=   0.3565
  0.8730  0.3028  0.3028  0.0797  0.2240

 Free energy of the ion-electron system (eV)
  ---------------------------------------------------
  alpha Z        PSCENC =       285.34744303
  Ewald energy   TEWEN  =     52241.59344990
  -Hartree energ DENC   =    -63092.41973145
  -exchange      EXHF   =         0.00000000
  -V(xc)+E(xc)   XCENC  =       366.06746037
  PAW double counting   =     10243.43905079   -11086.98797877
  entropy T*S    EENTRO =        -0.00938917
  eigenvalues    EBANDS =      -140.61858138
  atomic energy  EATOM  =     11152.61838693
  Solvation  Ediel_sol  =         0.00000000
  ---------------------------------------------------
  free energy    TOTEN  =       -30.96988974 eV

  energy without entropy =      -30.96050057  energy(sigma->0) =      -30.96676002


--------------------------------------------------------------------------------------------------------




--------------------------------------- Iteration      1(  11)  ---------------------------------------


    POTLOK:  cpu time      0.0190: real time      0.0192
    SETDIJ:  cpu time      0.0058: real time      0.0058
     EDDAV:  cpu time      0.2530: real time      0.2556
       DOS:  cpu time      0.0008: real time      0.0008
    CHARGE:  cpu time      0.0500: real time      0.0502
    MIXING:  cpu time      0.0009: real time      0.0009
    --------------------------------------------
      LOOP:  cpu time      0.3295: real time      0.3326

 eigenvalue-minimisations  :   944
 total energy-change (2. order) : 0.4215144E+00  (-0.1617932E+00)
 number of electron      89.9999970 magnetization       8.1506631
 augmentation part       56.9720402 magnetization       6.7343201

 Broyden mixing:
  rms(total) = 0.99826E+00    rms(broyden)= 0.99824E+00
  rms(prec ) = 0.10522E+01
  weight for this iteration     100.00

 eigenvalues of (default mixing * dielectric matrix)
  average eigenvalue GAMMA=   0.4698
  0.9476  0.6296  0.6296  0.0800  0.2944  0.2378

 Free energy of the ion-electron system (eV)
  ---------------------------------------------------
  alpha Z        PSCENC =       285.34744303
  Ewald energy   TEWEN  =     52241.59344990
  -Hartree energ DENC   =    -63114.46868646
  -exchange      EXHF   =         0.00000000
  -V(xc)+E(xc)   XCENC  =       366.53492233
  PAW double counting   =     10275.97986343   -11123.51403646
  entropy T*S    EENTRO =        -0.00864664
  eigenvalues    EBANDS =      -114.63107144
  atomic energy  EATOM  =     11152.61838693
  Solvation  Ediel_sol  =         0.00000000
  ---------------------------------------------------
  free energy    TOTEN  =       -30.54837537 eV

  energy without entropy =      -30.53972873  energy(sigma->0) =      -30.54549315


--------------------------------------------------------------------------------------------------------




--------------------------------------- Iteration      1(  12)  ---------------------------------------


    POTLOK:  cpu time      0.0191: real time      0.0193
    SETDIJ:  cpu time      0.0058: real time      0.0058
     EDDAV:  cpu time      0.2238: real time      0.2258
       DOS:  cpu time      0.0008: real time      0.0008
    CHARGE:  cpu time      0.0560: real time      0.0562
    MIXING:  cpu time      0.0012: real time      0.0012
    --------------------------------------------
      LOOP:  cpu time      0.3066: real time      0.3092

 eigenvalue-minimisations  :   828
 total energy-change (2. order) : 0.6805568E+00  (-0.1401793E+00)
 number of electron      89.9999971 magnetization       7.1736037
 augmentation part       56.4512392 magnetization       5.6542860

 Broyden mixing:
  rms(total) = 0.81084E+00    rms(broyden)= 0.81083E+00
  rms(prec ) = 0.86891E+00
  weight for this iteration     100.00

 eigenvalues of (default mixing * dielectric matrix)
  average eigenvalue GAMMA=   0.5598
  1.3699  0.7001  0.7001  0.0800  0.4205  0.4205  0.2274

 Free energy of the ion-electron system (eV)
  ---------------------------------------------------
  alpha Z        PSCENC =       285.34744303
  Ewald energy   TEWEN  =     52241.59344990
  -Hartree energ DENC   =    -63150.31968294
  -exchange      EXHF   =         0.00000000
  -V(xc)+E(xc)   XCENC  =       367.41853058
  PAW double counting   =     10363.62852631   -11218.94298200
  entropy T*S    EENTRO =        -0.01122515
  eigenvalues    EBANDS =       -71.20026528
  atomic energy  EATOM  =     11152.61838693
  Solvation  Ediel_sol  =         0.00000000
  ---------------------------------------------------
  free energy    TOTEN  =       -29.86781860 eV

  energy without entropy =      -29.85659346  energy(sigma->0) =      -29.86407689


--------------------------------------------------------------------------------------------------------




--------------------------------------- Iteration      1(  13)  ---------------------------------------


    POTLOK:  cpu time      0.0203: real time      0.0206
    SETDIJ:  cpu time      0.0061: real time      0.0062
     EDDAV:  cpu time      0.2634: real time      0.2657
       DOS:  cpu time      0.0007: real time      0.0007
    CHARGE:  cpu time      0.0498: real time      0.0500
    MIXING:  cpu time      0.0012: real time      0.0013
    --------------------------------------------
      LOOP:  cpu time      0.3416: real time      0.3444

 eigenvalue-minimisations  :   992
 total energy-change (2. order) : 0.1925213E+00  (-0.1559243E+00)
 number of electron      89.9999976 magnetization       5.9912521
 augmentation part       56.1376963 magnetization       4.4279288

 Broyden mixing:
  rms(total) = 0.64551E+00    rms(broyden)= 0.64548E+00
  rms(prec ) = 0.71693E+00
  weight for this iteration     100.00

 eigenvalues of (default mixing * dielectric matrix)
  average eigenvalue GAMMA=   0.6584
  1.3165  1.3165  0.7679  0.7679  0.0800  0.3947  0.3947  0.2289

 Free energy of the ion-electron system (eV)
  ---------------------------------------------------
  alpha Z        PSCENC =       285.34744303
  Ewald energy   TEWEN  =     52241.59344990
  -Hartree energ DENC   =    -63174.08400641
  -exchange      EXHF   =         0.00000000
  -V(xc)+E(xc)   XCENC  =       367.92021796
  PAW double counting   =     10518.72651214   -11382.68576963
  entropy T*S    EENTRO =        -0.01314033
  eigenvalues    EBANDS =       -39.09839087
  atomic energy  EATOM  =     11152.61838693
  Solvation  Ediel_sol  =         0.00000000
  ---------------------------------------------------
  free energy    TOTEN  =       -29.67529728 eV

  energy without entropy =      -29.66215695  energy(sigma->0) =      -29.67091717


--------------------------------------------------------------------------------------------------------




--------------------------------------- Iteration      1(  14)  ---------------------------------------


    POTLOK:  cpu time      0.0198: real time      0.0201
    SETDIJ:  cpu time      0.0059: real time      0.0059
     EDDAV:  cpu time      0.2853: real time      0.2874
       DOS:  cpu time      0.0007: real time      0.0007
    CHARGE:  cpu time      0.0501: real time      0.0503
    MIXING:  cpu time      0.0011: real time      0.0011
    --------------------------------------------
      LOOP:  cpu time      0.3630: real time      0.3656

 eigenvalue-minimisations  :  1112
 total energy-change (2. order) :-0.2034211E+01  (-0.1730196E+00)
 number of electron      89.9999973 magnetization       4.4880939
 augmentation part       56.3090988 magnetization       3.2074427

 Broyden mixing:
  rms(total) = 0.50890E+00    rms(broyden)= 0.50889E+00
  rms(prec ) = 0.55055E+00
  weight for this iteration     100.00

 eigenvalues of (default mixing * dielectric matrix)
  average eigenvalue GAMMA=   0.8363
  2.9929  1.2274  0.7679  0.7679  0.6814  0.0800  0.3902  0.3902  0.2285

 Free energy of the ion-electron system (eV)
  ---------------------------------------------------
  alpha Z        PSCENC =       285.34744303
  Ewald energy   TEWEN  =     52241.59344990
  -Hartree energ DENC   =    -63169.03832850
  -exchange      EXHF   =         0.00000000
  -V(xc)+E(xc)   XCENC  =       366.08619386
  PAW double counting   =     10608.38629197   -11474.25901757
  entropy T*S    EENTRO =        -0.00995708
  eigenvalues    EBANDS =       -42.43397078
  atomic energy  EATOM  =     11152.61838693
  Solvation  Ediel_sol  =         0.00000000
  ---------------------------------------------------
  free energy    TOTEN  =       -31.70950824 eV

  energy without entropy =      -31.69955116  energy(sigma->0) =      -31.70618921


--------------------------------------------------------------------------------------------------------




--------------------------------------- Iteration      1(  15)  ---------------------------------------


    POTLOK:  cpu time      0.0189: real time      0.0192
    SETDIJ:  cpu time      0.0058: real time      0.0059
     EDDAV:  cpu time      0.3005: real time      0.3032
       DOS:  cpu time      0.0007: real time      0.0007
    CHARGE:  cpu time      0.0500: real time      0.0502
    MIXING:  cpu time      0.0013: real time      0.0013
    --------------------------------------------
      LOOP:  cpu time      0.3773: real time      0.3805

 eigenvalue-minimisations  :  1176
 total energy-change (2. order) :-0.1646045E+01  (-0.1642882E+00)
 number of electron      89.9999971 magnetization       3.3525844
 augmentation part       56.5620360 magnetization       2.3278690

 Broyden mixing:
  rms(total) = 0.45447E+00    rms(broyden)= 0.45444E+00
  rms(prec ) = 0.46897E+00
  weight for this iteration     100.00

 eigenvalues of (default mixing * dielectric matrix)
  average eigenvalue GAMMA=   1.0060
  4.1764  1.7176  0.7872  0.7872  0.7541  0.7541  0.0800  0.3877  0.3877  0.2285

 Free energy of the ion-electron system (eV)
  ---------------------------------------------------
  alpha Z        PSCENC =       285.34744303
  Ewald energy   TEWEN  =     52241.59344990
  -Hartree energ DENC   =    -63160.94573253
  -exchange      EXHF   =         0.00000000
  -V(xc)+E(xc)   XCENC  =       364.74327805
  PAW double counting   =     10669.79532359   -11535.49356158
  entropy T*S    EENTRO =        -0.01826398
  eigenvalues    EBANDS =       -50.99587681
  atomic energy  EATOM  =     11152.61838693
  Solvation  Ediel_sol  =         0.00000000
  ---------------------------------------------------
  free energy    TOTEN  =       -33.35555340 eV

  energy without entropy =      -33.33728942  energy(sigma->0) =      -33.34946540


--------------------------------------------------------------------------------------------------------




--------------------------------------- Iteration      1(  16)  ---------------------------------------


    POTLOK:  cpu time      0.0189: real time      0.0191
    SETDIJ:  cpu time      0.0058: real time      0.0058
     EDDAV:  cpu time      0.2765: real time      0.2790
       DOS:  cpu time      0.0007: real time      0.0007
    CHARGE:  cpu time      0.0501: real time      0.0504
    MIXING:  cpu time      0.0012: real time      0.0012
    --------------------------------------------
      LOOP:  cpu time      0.3533: real time      0.3563

 eigenvalue-minimisations  :  1068
 total energy-change (2. order) :-0.1385224E+01  (-0.1512055E+00)
 number of electron      89.9999971 magnetization       2.1637381
 augmentation part       56.5077291 magnetization       1.4245208

 Broyden mixing:
  rms(total) = 0.35250E+00    rms(broyden)= 0.35249E+00
  rms(prec ) = 0.36848E+00
  weight for this iteration     100.00

 eigenvalues of (default mixing * dielectric matrix)
  average eigenvalue GAMMA=   1.2638
  6.9154  1.9864  0.8440  0.8440  0.7812  0.7812  0.0800  0.2285  0.3874  0.3874
  0.6658

 Free energy of the ion-electron system (eV)
  ---------------------------------------------------
  alpha Z        PSCENC =       285.34744303
  Ewald energy   TEWEN  =     52241.59344990
  -Hartree energ DENC   =    -63184.47763167
  -exchange      EXHF   =         0.00000000
  -V(xc)+E(xc)   XCENC  =       364.10562637
  PAW double counting   =     10635.95417694   -11498.92092217
  entropy T*S    EENTRO =        -0.01957481
  eigenvalues    EBANDS =       -30.94173214
  atomic energy  EATOM  =     11152.61838693
  Solvation  Ediel_sol  =         0.00000000
  ---------------------------------------------------
  free energy    TOTEN  =       -34.74077761 eV

  energy without entropy =      -34.72120280  energy(sigma->0) =      -34.73425267


--------------------------------------------------------------------------------------------------------




--------------------------------------- Iteration      1(  17)  ---------------------------------------


    POTLOK:  cpu time      0.0190: real time      0.0205
    SETDIJ:  cpu time      0.0060: real time      0.0060
     EDDAV:  cpu time      0.2521: real time      0.2540
       DOS:  cpu time      0.0008: real time      0.0008
    CHARGE:  cpu time      0.0503: real time      0.0506
    MIXING:  cpu time      0.0013: real time      0.0013
    --------------------------------------------
      LOOP:  cpu time      0.3294: real time      0.3331

 eigenvalue-minimisations  :   964
 total energy-change (2. order) :-0.6435973E+00  (-0.8476427E-01)
 number of electron      89.9999972 magnetization       1.3965805
 augmentation part       56.2545242 magnetization       0.7608870

 Broyden mixing:
  rms(total) = 0.18739E+00    rms(broyden)= 0.18737E+00
  rms(prec ) = 0.20134E+00
  weight for this iteration     100.00

 eigenvalues of (default mixing * dielectric matrix)
  average eigenvalue GAMMA=   1.4722
  9.6295  1.8801  1.0530  1.0530  0.8065  0.8065  0.0800  0.2285  0.3871  0.3871
  0.7089  0.6457

 Free energy of the ion-electron system (eV)
  ---------------------------------------------------
  alpha Z        PSCENC =       285.34744303
  Ewald energy   TEWEN  =     52241.59344990
  -Hartree energ DENC   =    -63209.68864909
  -exchange      EXHF   =         0.00000000
  -V(xc)+E(xc)   XCENC  =       364.17786422
  PAW double counting   =     10614.50343692   -11477.01167980
  entropy T*S    EENTRO =        -0.01273299
  eigenvalues    EBANDS =        -6.91189401
  atomic energy  EATOM  =     11152.61838693
  Solvation  Ediel_sol  =         0.00000000
  ---------------------------------------------------
  free energy    TOTEN  =       -35.38437488 eV

  energy without entropy =      -35.37164189  energy(sigma->0) =      -35.38013055


--------------------------------------------------------------------------------------------------------




--------------------------------------- Iteration      1(  18)  ---------------------------------------


    POTLOK:  cpu time      0.0189: real time      0.0191
    SETDIJ:  cpu time      0.0058: real time      0.0058
     EDDAV:  cpu time      0.2424: real time      0.2444
       DOS:  cpu time      0.0008: real time      0.0008
    CHARGE:  cpu time      0.0493: real time      0.0495
    MIXING:  cpu time      0.0014: real time      0.0014
    --------------------------------------------
      LOOP:  cpu time      0.3185: real time      0.3210

 eigenvalue-minimisations  :   916
 total energy-change (2. order) :-0.4577641E+00  (-0.4786308E-01)
 number of electron      89.9999973 magnetization       1.1864456
 augmentation part       56.1271265 magnetization       0.7130819

 Broyden mixing:
  rms(total) = 0.12982E+00    rms(broyden)= 0.12981E+00
  rms(prec ) = 0.14758E+00
  weight for this iteration     100.00

 eigenvalues of (default mixing * dielectric matrix)
  average eigenvalue GAMMA=   1.5910
 11.6837  2.1375  1.2355  0.8222  0.8222  0.9528  0.0800  0.7206  0.7206  0.2285
  0.3874  0.3874  0.5049

 Free energy of the ion-electron system (eV)
  ---------------------------------------------------
  alpha Z        PSCENC =       285.34744303
  Ewald energy   TEWEN  =     52241.59344990
  -Hartree energ DENC   =    -63214.01418559
  -exchange      EXHF   =         0.00000000
  -V(xc)+E(xc)   XCENC  =       364.11350606
  PAW double counting   =     10599.28606257   -11462.06644420
  entropy T*S    EENTRO =        -0.00802425
  eigenvalues    EBANDS =        -2.71233342
  atomic energy  EATOM  =     11152.61838693
  Solvation  Ediel_sol  =         0.00000000
  ---------------------------------------------------
  free energy    TOTEN  =       -35.84213897 eV

  energy without entropy =      -35.83411472  energy(sigma->0) =      -35.83946422


--------------------------------------------------------------------------------------------------------




--------------------------------------- Iteration      1(  19)  ---------------------------------------


    POTLOK:  cpu time      0.0188: real time      0.0191
    SETDIJ:  cpu time      0.0058: real time      0.0059
     EDDAV:  cpu time      0.2574: real time      0.2598
       DOS:  cpu time      0.0008: real time      0.0008
    CHARGE:  cpu time      0.0505: real time      0.0507
    MIXING:  cpu time      0.0014: real time      0.0014
    --------------------------------------------
      LOOP:  cpu time      0.3349: real time      0.3377

 eigenvalue-minimisations  :   988
 total energy-change (2. order) :-0.2109965E+00  (-0.2047907E-01)
 number of electron      89.9999973 magnetization       1.0332849
 augmentation part       56.1192132 magnetization       0.6227019

 Broyden mixing:
  rms(total) = 0.97898E-01    rms(broyden)= 0.97888E-01
  rms(prec ) = 0.10423E+00
  weight for this iteration     100.00

 eigenvalues of (default mixing * dielectric matrix)
  average eigenvalue GAMMA=   1.5693
 12.0954  2.3279  1.1690  0.8841  0.8841  0.7994  0.7994  0.0800  0.7994  0.2285
  0.3872  0.3872  0.5647  0.5647

 Free energy of the ion-electron system (eV)
  ---------------------------------------------------
  alpha Z        PSCENC =       285.34744303
  Ewald energy   TEWEN  =     52241.59344990
  -Hartree energ DENC   =    -63215.04302276
  -exchange      EXHF   =         0.00000000
  -V(xc)+E(xc)   XCENC  =       363.92008411
  PAW double counting   =     10584.91451285   -11447.03766819
  entropy T*S    EENTRO =        -0.01064398
  eigenvalues    EBANDS =        -2.35567738
  atomic energy  EATOM  =     11152.61838693
  Solvation  Ediel_sol  =         0.00000000
  ---------------------------------------------------
  free energy    TOTEN  =       -36.05313548 eV

  energy without entropy =      -36.04249150  energy(sigma->0) =      -36.04958749


--------------------------------------------------------------------------------------------------------




--------------------------------------- Iteration      1(  20)  ---------------------------------------


    POTLOK:  cpu time      0.0189: real time      0.0191
    SETDIJ:  cpu time      0.0058: real time      0.0059
     EDDAV:  cpu time      0.2646: real time      0.2667
       DOS:  cpu time      0.0008: real time      0.0008
    CHARGE:  cpu time      0.0514: real time      0.0517
    MIXING:  cpu time      0.0017: real time      0.0017
    --------------------------------------------
      LOOP:  cpu time      0.3433: real time      0.3458

 eigenvalue-minimisations  :  1016
 total energy-change (2. order) :-0.1386292E+00  (-0.7448018E-02)
 number of electron      89.9999973 magnetization       0.7722458
 augmentation part       56.1618308 magnetization       0.4052849

 Broyden mixing:
  rms(total) = 0.77386E-01    rms(broyden)= 0.77379E-01
  rms(prec ) = 0.84362E-01
  weight for this iteration     100.00

 eigenvalues of (default mixing * dielectric matrix)
  average eigenvalue GAMMA=   1.6454
 12.7317  2.8343  1.5439  1.1165  1.1165  0.8086  0.8086  0.0800  0.7848  0.7848
  0.2285  0.3873  0.3873  0.5557  0.5118

 Free energy of the ion-electron system (eV)
  ---------------------------------------------------
  alpha Z        PSCENC =       285.34744303
  Ewald energy   TEWEN  =     52241.59344990
  -Hartree energ DENC   =    -63209.99963632
  -exchange      EXHF   =         0.00000000
  -V(xc)+E(xc)   XCENC  =       363.73044282
  PAW double counting   =     10572.55793438   -11434.02877231
  entropy T*S    EENTRO =        -0.01451376
  eigenvalues    EBANDS =        -7.99649941
  atomic energy  EATOM  =     11152.61838693
  Solvation  Ediel_sol  =         0.00000000
  ---------------------------------------------------
  free energy    TOTEN  =       -36.19176473 eV

  energy without entropy =      -36.17725097  energy(sigma->0) =      -36.18692681


--------------------------------------------------------------------------------------------------------




--------------------------------------- Iteration      1(  21)  ---------------------------------------


    POTLOK:  cpu time      0.0188: real time      0.0190
    SETDIJ:  cpu time      0.0058: real time      0.0058
     EDDAV:  cpu time      0.2778: real time      0.2805
       DOS:  cpu time      0.0008: real time      0.0008
    CHARGE:  cpu time      0.0533: real time      0.0535
    MIXING:  cpu time      0.0019: real time      0.0019
    --------------------------------------------
      LOOP:  cpu time      0.3584: real time      0.3616

 eigenvalue-minimisations  :  1020
 total energy-change (2. order) :-0.1715215E+00  (-0.1275560E-01)
 number of electron      89.9999973 magnetization       0.6235975
 augmentation part       56.2072377 magnetization       0.3542003

 Broyden mixing:
  rms(total) = 0.62610E-01    rms(broyden)= 0.62586E-01
  rms(prec ) = 0.63749E-01
  weight for this iteration     100.00

 eigenvalues of (default mixing * dielectric matrix)
  average eigenvalue GAMMA=   1.6827
 13.3402  3.2426  2.1835  1.0613  1.0613  0.0800  0.7986  0.7986  0.8269  0.8269
  0.2285  0.6141  0.6141  0.3873  0.3873  0.4728

 Free energy of the ion-electron system (eV)
  ---------------------------------------------------
  alpha Z        PSCENC =       285.34744303
  Ewald energy   TEWEN  =     52241.59344990
  -Hartree energ DENC   =    -63201.85113417
  -exchange      EXHF   =         0.00000000
  -V(xc)+E(xc)   XCENC  =       363.53616028
  PAW double counting   =     10559.09983686   -11420.21500496
  entropy T*S    EENTRO =        -0.02136537
  eigenvalues    EBANDS =       -16.47105872
  atomic energy  EATOM  =     11152.61838693
  Solvation  Ediel_sol  =         0.00000000
  ---------------------------------------------------
  free energy    TOTEN  =       -36.36328623 eV

  energy without entropy =      -36.34192085  energy(sigma->0) =      -36.35616444


--------------------------------------------------------------------------------------------------------




--------------------------------------- Iteration      1(  22)  ---------------------------------------


    POTLOK:  cpu time      0.0199: real time      0.0201
    SETDIJ:  cpu time      0.0061: real time      0.0061
     EDDAV:  cpu time      0.2357: real time      0.2379
       DOS:  cpu time      0.0007: real time      0.0007
    CHARGE:  cpu time      0.0532: real time      0.0534
    MIXING:  cpu time      0.0017: real time      0.0018
    --------------------------------------------
      LOOP:  cpu time      0.3174: real time      0.3200

 eigenvalue-minimisations  :   880
 total energy-change (2. order) :-0.4212301E-01  (-0.3844634E-02)
 number of electron      89.9999973 magnetization       0.4894587
 augmentation part       56.1829406 magnetization       0.2508312

 Broyden mixing:
  rms(total) = 0.48264E-01    rms(broyden)= 0.48255E-01
  rms(prec ) = 0.49016E-01
  weight for this iteration     100.00

 eigenvalues of (default mixing * dielectric matrix)
  average eigenvalue GAMMA=   1.7315
 13.8896  4.0403  2.0856  1.3940  0.0800  0.9984  0.9984  0.7950  0.7950  0.9396
  0.2285  0.3873  0.3873  0.7068  0.6849  0.5501  0.4756

 Free energy of the ion-electron system (eV)
  ---------------------------------------------------
  alpha Z        PSCENC =       285.34744303
  Ewald energy   TEWEN  =     52241.59344990
  -Hartree energ DENC   =    -63201.74780682
  -exchange      EXHF   =         0.00000000
  -V(xc)+E(xc)   XCENC  =       363.56416892
  PAW double counting   =     10562.67747357   -11424.29597022
  entropy T*S    EENTRO =        -0.02297244
  eigenvalues    EBANDS =       -16.13958211
  atomic energy  EATOM  =     11152.61838693
  Solvation  Ediel_sol  =         0.00000000
  ---------------------------------------------------
  free energy    TOTEN  =       -36.40540923 eV

  energy without entropy =      -36.38243679  energy(sigma->0) =      -36.39775175


--------------------------------------------------------------------------------------------------------




--------------------------------------- Iteration      1(  23)  ---------------------------------------


    POTLOK:  cpu time      0.0188: real time      0.0190
    SETDIJ:  cpu time      0.0059: real time      0.0059
     EDDAV:  cpu time      0.2318: real time      0.2335
       DOS:  cpu time      0.0008: real time      0.0008
    CHARGE:  cpu time      0.0532: real time      0.0534
    MIXING:  cpu time      0.0019: real time      0.0019
    --------------------------------------------
      LOOP:  cpu time      0.3124: real time      0.3146

 eigenvalue-minimisations  :   860
 total energy-change (2. order) :-0.4274116E-01  (-0.2568030E-02)
 number of electron      89.9999973 magnetization       0.3783892
 augmentation part       56.1694444 magnetization       0.1835767

 Broyden mixing:
  rms(total) = 0.39486E-01    rms(broyden)= 0.39478E-01
  rms(prec ) = 0.42039E-01
  weight for this iteration     100.00

 eigenvalues of (default mixing * dielectric matrix)
  average eigenvalue GAMMA=   1.7849
 14.3094  4.8829  2.0359  2.0359  1.0628  1.0628  0.0800  0.7954  0.7954  0.8617
  0.8617  0.2285  0.3873  0.3873  0.6647  0.6647  0.5458  0.4653

 Free energy of the ion-electron system (eV)
  ---------------------------------------------------
  alpha Z        PSCENC =       285.34744303
  Ewald energy   TEWEN  =     52241.59344990
  -Hartree energ DENC   =    -63199.92862867
  -exchange      EXHF   =         0.00000000
  -V(xc)+E(xc)   XCENC  =       363.56334255
  PAW double counting   =     10566.12882324   -11428.14287808
  entropy T*S    EENTRO =        -0.02374820
  eigenvalues    EBANDS =       -17.60434109
  atomic energy  EATOM  =     11152.61838693
  Solvation  Ediel_sol  =         0.00000000
  ---------------------------------------------------
  free energy    TOTEN  =       -36.44815039 eV

  energy without entropy =      -36.42440219  energy(sigma->0) =      -36.44023432


--------------------------------------------------------------------------------------------------------




--------------------------------------- Iteration      1(  24)  ---------------------------------------


    POTLOK:  cpu time      0.0188: real time      0.0190
    SETDIJ:  cpu time      0.0057: real time      0.0058
     EDDAV:  cpu time      0.2357: real time      0.2376
       DOS:  cpu time      0.0007: real time      0.0007
    CHARGE:  cpu time      0.0517: real time      0.0519
    MIXING:  cpu time      0.0020: real time      0.0020
    --------------------------------------------
      LOOP:  cpu time      0.3146: real time      0.3171

 eigenvalue-minimisations  :   884
 total energy-change (2. order) :-0.1734432E+00  (-0.2575252E-02)
 number of electron      89.9999973 magnetization       0.2860184
 augmentation part       56.1798560 magnetization       0.1221925

 Broyden mixing:
  rms(total) = 0.36015E-01    rms(broyden)= 0.36006E-01
  rms(prec ) = 0.37580E-01
  weight for this iteration     100.00

 eigenvalues of (default mixing * dielectric matrix)
  average eigenvalue GAMMA=   1.8189
 14.7278  5.7478  2.4519  1.9504  1.0394  1.0394  1.0064  1.0064  0.7978  0.7978
  0.0800  0.2285  0.7143  0.6872  0.3873  0.3873  0.5254  0.5254  0.4586

 Free energy of the ion-electron system (eV)
  ---------------------------------------------------
  alpha Z        PSCENC =       285.34744303
  Ewald energy   TEWEN  =     52241.59344990
  -Hartree energ DENC   =    -63197.48841797
  -exchange      EXHF   =         0.00000000
  -V(xc)+E(xc)   XCENC  =       363.36662401
  PAW double counting   =     10568.67939879   -11430.75475200
  entropy T*S    EENTRO =        -0.02437932
  eigenvalues    EBANDS =       -19.95934695
  atomic energy  EATOM  =     11152.61838693
  Solvation  Ediel_sol  =         0.00000000
  ---------------------------------------------------
  free energy    TOTEN  =       -36.62159358 eV

  energy without entropy =      -36.59721426  energy(sigma->0) =      -36.61346714


--------------------------------------------------------------------------------------------------------




--------------------------------------- Iteration      1(  25)  ---------------------------------------


    POTLOK:  cpu time      0.0188: real time      0.0190
    SETDIJ:  cpu time      0.0058: real time      0.0058
     EDDAV:  cpu time      0.2400: real time      0.2422
       DOS:  cpu time      0.0008: real time      0.0008
    CHARGE:  cpu time      0.0518: real time      0.0520
    MIXING:  cpu time      0.0021: real time      0.0021
    --------------------------------------------
      LOOP:  cpu time      0.3192: real time      0.3220

 eigenvalue-minimisations  :   904
 total energy-change (2. order) :-0.2315545E+00  (-0.1216229E-02)
 number of electron      89.9999973 magnetization       0.1878503
 augmentation part       56.1832573 magnetization       0.0463910

 Broyden mixing:
  rms(total) = 0.26493E-01    rms(broyden)= 0.26487E-01
  rms(prec ) = 0.27962E-01
  weight for this iteration     100.00

 eigenvalues of (default mixing * dielectric matrix)
  average eigenvalue GAMMA=   1.9458
 15.6248  7.2876  3.0693  1.9333  1.5668  1.0766  1.0766  0.0800  0.7972  0.7972
  0.8638  0.8638  0.2285  0.7416  0.3873  0.3873  0.5952  0.5952  0.4853  0.4582

 Free energy of the ion-electron system (eV)
  ---------------------------------------------------
  alpha Z        PSCENC =       285.34744303
  Ewald energy   TEWEN  =     52241.59344990
  -Hartree energ DENC   =    -63196.02381712
  -exchange      EXHF   =         0.00000000
  -V(xc)+E(xc)   XCENC  =       363.13736822
  PAW double counting   =     10572.12455551   -11434.29182405
  entropy T*S    EENTRO =        -0.02418694
  eigenvalues    EBANDS =       -21.33452354
  atomic energy  EATOM  =     11152.61838693
  Solvation  Ediel_sol  =         0.00000000
  ---------------------------------------------------
  free energy    TOTEN  =       -36.85314803 eV

  energy without entropy =      -36.82896109  energy(sigma->0) =      -36.84508572


--------------------------------------------------------------------------------------------------------




--------------------------------------- Iteration      1(  26)  ---------------------------------------


    POTLOK:  cpu time      0.0189: real time      0.0192
    SETDIJ:  cpu time      0.0058: real time      0.0058
     EDDAV:  cpu time      0.2676: real time      0.2697
       DOS:  cpu time      0.0008: real time      0.0008
[...]
     14      -0.8951      1.00000
     15      -0.7211      1.00000
     16      -0.7043      1.00000
     17      -0.5748      1.00000
     18      -0.5161      1.00000
     19      -0.4461      1.00000
     20      -0.3637      1.00000
     21      -0.3610      1.00000
     22      -0.2537      1.00000
     23      -0.1391      1.00000
     24      -0.1188      1.00000
     25       0.0377      1.00000
     26       0.1344      1.00000
     27       0.2643      1.00000
     28       0.3392      1.00000
     29       0.4288      1.00000
     30       0.4960      1.00000
     31       0.5135      1.00000
     32       0.5781      1.00000
     33       0.5987      1.00000
     34       0.6517      1.00000
     35       0.6799      1.00000
     36       0.7328      1.00000
     37       0.7690      1.00000
     38       0.7790      1.00000
     39       0.8728      1.00000
     40       0.8972      1.00000
     41       1.0480      1.00000
     42       1.1437      1.00000
     43       1.1451      1.00000
     44       1.1964      1.00000
     45       1.3195      1.00000
     46       1.9521      0.79357
     47       3.0637     -0.00000
     48       4.4239     -0.00000
     49       5.9268     -0.00000
     50       7.1468     -0.00000
     51       8.5094      0.00000
     52       9.0088      0.00000
     53       9.3647      0.00000
     54       9.7997      0.00000
     55      10.1117      0.00000
     56      10.5990      0.00000
     57      11.1104      0.00000
     58      11.5896      0.00000
     59      11.7462      0.00000
     60      12.2234      0.00000

 k-point     3 :      -0.3333    0.3333    0.0000
  band No.  band energies     occupation 
      1      -2.4029      1.00000
      2      -1.6185      1.00000
      3      -1.6075      1.00000
      4      -1.6063      1.00000
      5      -1.5441      1.00000
      6      -1.4936      1.00000
      7      -1.4868      1.00000
      8      -1.4512      1.00000
      9      -1.4447      1.00000
     10      -1.4373      1.00000
     11      -1.4256      1.00000
     12      -1.4040      1.00000
     13      -1.2680      1.00000
     14      -1.1930      1.00000
     15      -1.1326      1.00000
     16      -1.0753      1.00000
     17      -0.7732      1.00000
     18      -0.7307      1.00000
     19      -0.7300      1.00000
     20      -0.6604      1.00000
     21      -0.4797      1.00000
     22      -0.4056      1.00000
     23       0.0247      1.00000
     24       0.1089      1.00000
     25       0.1819      1.00000
     26       0.1973      1.00000
     27       0.2731      1.00000
     28       0.2739      1.00000
     29       0.3064      1.00000
     30       0.3066      1.00000
     31       0.3186      1.00000
     32       0.6025      1.00000
     33       0.6748      1.00000
     34       0.7938      1.00000
     35       0.7995      1.00000
     36       0.8297      1.00000
     37       0.8957      1.00000
     38       0.9644      1.00000
     39       0.9712      1.00000
     40       1.0154      1.00000
     41       1.0897      1.00000
     42       5.7083     -0.00000
     43       5.7133     -0.00000
     44       5.7355     -0.00000
     45       5.8872     -0.00000
     46       5.9038     -0.00000
     47       6.1652     -0.00000
     48       6.2986     -0.00000
     49       6.8949     -0.00000
     50       7.0486     -0.00000
     51       7.6359      0.00000
     52       7.6401      0.00000
     53       7.7595      0.00000
     54       8.1876      0.00000
     55       8.1998      0.00000
     56       8.7903      0.00000
     57       9.1712      0.00000
     58       9.4173      0.00000
     59      10.4358      0.00000
     60      11.0800      0.00000


--------------------------------------------------------------------------------------------------------


 soft charge-density along one line, spin component           1
         0         1         2         3         4         5         6         7         8         9
 total charge-density along one line
 
 soft charge-density along one line, spin component           2
         0         1         2         3         4         5         6         7         8         9
 total charge-density along one line
 
 pseudopotential strength for first ion, spin component:           1
 -6.050  -0.000   0.000  -0.004   0.000  -2.343   0.000  -0.000
 -0.000  -6.103  -0.000   0.000  -0.004   0.000  -2.307   0.000
  0.000  -0.000  -6.128  -0.000   0.000  -0.000   0.000  -2.289
 -0.004   0.000  -0.000  -6.103  -0.000   0.003  -0.000   0.000
  0.000  -0.004   0.000  -0.000  -6.050  -0.000   0.003  -0.000
 -2.343   0.000  -0.000   0.003  -0.000   8.629  -0.000   0.000
  0.000  -2.307   0.000  -0.000   0.003  -0.000   8.606  -0.000
 -0.000   0.000  -2.289   0.000  -0.000   0.000  -0.000   8.594
  0.003  -0.000   0.000  -2.307   0.000  -0.002  -0.000  -0.000
 -0.000   0.003  -0.000   0.000  -2.343   0.000  -0.002   0.000
  0.000   0.000   0.003   0.000   0.000   0.000   0.000   0.001
  0.000   0.000   0.005   0.000   0.000   0.000   0.000   0.003
  0.000  -0.012  -0.000  -0.000   0.000   0.000   0.012  -0.000
 -0.000   0.000  -0.011   0.000  -0.000  -0.000  -0.000   0.010
  0.000  -0.000  -0.000  -0.012   0.000   0.000  -0.000  -0.000
  0.000  -0.014  -0.000   0.000   0.000   0.000   0.014  -0.000
  0.000   0.000  -0.012   0.000   0.000  -0.000  -0.000   0.011
  0.000   0.000  -0.000  -0.014   0.000   0.000  -0.000  -0.000
 pseudopotential strength for first ion, spin component:           2
 -6.050  -0.000   0.000  -0.004   0.000  -2.343   0.000  -0.000
 -0.000  -6.103  -0.000   0.000  -0.004   0.000  -2.307   0.000
  0.000  -0.000  -6.128  -0.000   0.000  -0.000   0.000  -2.289
 -0.004   0.000  -0.000  -6.103  -0.000   0.003  -0.000   0.000
  0.000  -0.004   0.000  -0.000  -6.050  -0.000   0.003  -0.000
 -2.343   0.000  -0.000   0.003  -0.000   8.629  -0.000   0.000
  0.000  -2.307   0.000  -0.000   0.003  -0.000   8.606  -0.000
 -0.000   0.000  -2.289   0.000  -0.000   0.000  -0.000   8.594
  0.003  -0.000   0.000  -2.307   0.000  -0.002  -0.000  -0.000
 -0.000   0.003  -0.000   0.000  -2.343   0.000  -0.002   0.000
  0.000   0.000   0.003   0.000   0.000   0.000   0.000   0.001
  0.000   0.000   0.005   0.000   0.000   0.000   0.000   0.003
  0.000  -0.012  -0.000  -0.000   0.000   0.000   0.012  -0.000
 -0.000   0.000  -0.011   0.000  -0.000  -0.000  -0.000   0.010
  0.000  -0.000  -0.000  -0.012   0.000   0.000  -0.000  -0.000
  0.000  -0.014  -0.000   0.000   0.000   0.000   0.014  -0.000
  0.000   0.000  -0.012   0.000   0.000  -0.000  -0.000   0.011
  0.000   0.000  -0.000  -0.014   0.000   0.000  -0.000  -0.000
 total augmentation occupancy for first ion, spin component:           1
  1.932   0.000  -0.000  -0.004  -0.000  -0.016  -0.000   0.000   0.005  -0.000   0.000  -0.000  -0.000  -0.000   0.006   0.000
  0.000   1.928   0.000   0.000  -0.004  -0.000  -0.024  -0.000  -0.000   0.005   0.000   0.000   0.008  -0.000   0.000  -0.014
 -0.000   0.000   1.915   0.000  -0.000   0.000  -0.000  -0.018  -0.000   0.000  -0.066   0.028  -0.000   0.077  -0.000   0.000
 -0.004   0.000   0.000   1.928  -0.000   0.005  -0.000  -0.000  -0.024   0.000  -0.000  -0.000   0.000   0.000   0.008  -0.000
 -0.000  -0.004  -0.000  -0.000   1.932   0.000   0.005   0.000   0.000  -0.016   0.000  -0.000   0.006  -0.000   0.000  -0.001
 -0.016  -0.000   0.000   0.005  -0.000   0.013  -0.000  -0.000   0.000  -0.000   0.000  -0.000  -0.000  -0.000   0.004   0.000
 -0.000  -0.024  -0.000  -0.000   0.005  -0.000   0.010  -0.000   0.000   0.000   0.000   0.000   0.019   0.000   0.000  -0.001
  0.000  -0.000  -0.018  -0.000   0.000  -0.000  -0.000   0.012  -0.000  -0.000  -0.022   0.001  -0.000   0.021  -0.000   0.000
  0.005  -0.000  -0.000  -0.024   0.000   0.000   0.000  -0.000   0.010   0.000  -0.000   0.000   0.000  -0.000   0.019  -0.000
  0.000   0.005   0.000   0.000  -0.016   0.000   0.000  -0.000   0.000   0.013   0.000  -0.000   0.004  -0.000   0.000  -0.000
  0.000  -0.000  -0.066   0.000   0.000   0.000   0.000  -0.022  -0.000   0.000   1.754  -0.149   0.000   0.176  -0.000   0.000
 -0.000  -0.000   0.028   0.000  -0.000  -0.000   0.000   0.001   0.000  -0.000  -0.149   0.018   0.000  -0.025  -0.000   0.000
 -0.000   0.008  -0.000   0.000   0.006  -0.000   0.019  -0.000   0.000   0.004   0.000   0.000   0.234  -0.000   0.000  -0.015
 -0.000  -0.000   0.077   0.000  -0.000  -0.000   0.000   0.021  -0.000  -0.000   0.176  -0.025  -0.000   0.113  -0.000   0.000
  0.006   0.000  -0.000   0.008   0.000   0.004   0.000  -0.000   0.019   0.000   0.000   0.000   0.000   0.000   0.234  -0.000
  0.000  -0.014   0.000  -0.000  -0.001   0.000  -0.001   0.000  -0.000  -0.000   0.000   0.000  -0.015   0.000  -0.000   0.001
  0.000  -0.000  -0.020   0.000   0.000   0.000   0.000  -0.001   0.000   0.000  -0.023   0.003   0.000  -0.009   0.000   0.000
 -0.001  -0.000   0.000  -0.014  -0.000  -0.000  -0.000   0.000  -0.001  -0.000   0.000   0.000  -0.000  -0.000  -0.015   0.000
 total augmentation occupancy for first ion, spin component:           2
 -0.000  -0.000  -0.000   0.000   0.000   0.000  -0.000  -0.000   0.000   0.000  -0.000  -0.000   0.000   0.000  -0.000   0.000
 -0.000  -0.000  -0.000  -0.000   0.000  -0.000   0.000  -0.000   0.000   0.000   0.000   0.000  -0.000   0.000  -0.000   0.000
 -0.000  -0.000   0.000  -0.000  -0.000  -0.000  -0.000   0.000  -0.000  -0.000   0.000   0.000   0.000  -0.000   0.000   0.000
  0.000  -0.000  -0.000  -0.000   0.000   0.000   0.000  -0.000   0.000   0.000   0.000  -0.000  -0.000   0.000  -0.000   0.000
  0.000   0.000  -0.000   0.000  -0.000   0.000   0.000  -0.000   0.000   0.000  -0.000  -0.000  -0.000   0.000  -0.000  -0.000
  0.000  -0.000  -0.000   0.000   0.000   0.000   0.000  -0.000  -0.000   0.000   0.000   0.000  -0.000  -0.000   0.000  -0.000
 -0.000   0.000  -0.000   0.000   0.000   0.000  -0.000   0.000  -0.000  -0.000  -0.000   0.000  -0.000   0.000  -0.000  -0.000
 -0.000  -0.000   0.000  -0.000  -0.000  -0.000   0.000   0.000   0.000  -0.000  -0.000  -0.000  -0.000   0.000  -0.000  -0.000
  0.000   0.000  -0.000   0.000   0.000  -0.000  -0.000   0.000  -0.000  -0.000  -0.000   0.000  -0.000  -0.000  -0.000  -0.000
  0.000   0.000  -0.000   0.000   0.000   0.000  -0.000  -0.000  -0.000   0.000   0.000   0.000   0.000  -0.000   0.000   0.000
 -0.000   0.000   0.000   0.000  -0.000   0.000  -0.000  -0.000  -0.000   0.000   0.000  -0.000   0.000  -0.000   0.000   0.000
 -0.000  -0.000   0.000  -0.000  -0.000   0.000   0.000  -0.000  -0.000   0.000  -0.000   0.000   0.000  -0.000  -0.000   0.000
  0.000  -0.000   0.000  -0.000  -0.000  -0.000  -0.000  -0.000  -0.000   0.000   0.000   0.000   0.000  -0.000   0.000  -0.000
  0.000   0.000  -0.000   0.000   0.000  -0.000   0.000   0.000   0.000  -0.000  -0.000  -0.000  -0.000   0.000   0.000   0.000
 -0.000  -0.000   0.000  -0.000  -0.000   0.000  -0.000  -0.000  -0.000   0.000   0.000  -0.000   0.000  -0.000   0.000  -0.000
  0.000   0.000   0.000   0.000  -0.000  -0.000  -0.000  -0.000  -0.000   0.000   0.000  -0.000  -0.000   0.000  -0.000   0.000
  0.000   0.000  -0.000   0.000   0.000   0.000   0.000  -0.000   0.000   0.000   0.000   0.000   0.000  -0.000  -0.000   0.000
 -0.000   0.000   0.000   0.000  -0.000   0.000  -0.000  -0.000  -0.000   0.000   0.000   0.000  -0.000   0.000  -0.000   0.000


------------------------ aborting loop because EDIFF is reached ----------------------------------------


    CHARGE:  cpu time      0.0517: real time      0.0519
    FORLOC:  cpu time      0.0011: real time      0.0011
    FORNL :  cpu time      0.0948: real time      0.0951
    STRESS:  cpu time      0.1076: real time      0.1080
    FORCOR:  cpu time      0.0185: real time      0.0187
    FORHAR:  cpu time      0.0029: real time      0.0029
    MIXING:  cpu time      0.0004: real time      0.0004
    OFIELD:  cpu time      0.0000: real time      0.0000

 ---------------------------------------------------------------------------------------------

         DFTD3 V3.0 Rev 1        
 Edisp (eV)   -3.67951

 E6    (eV) :    -1.5331
 E8    (eV) :    -2.1464
 % E8        : 58.33
    FORVDW:  cpu time      0.0727: real time      0.0730

  FORCE on cell =-STRESS in cart. coord.  units (eV):
  Direction    XX          YY          ZZ          XY          YZ          ZX
  --------------------------------------------------------------------------------------
  Alpha Z   285.34744   285.34744   285.34744
  Ewald   59370.92147 59370.92147-65254.92122    -0.00000     0.00000    -0.00000
  Hartree 62606.71772 62606.71772-60788.62505     0.00000    -0.00000    -0.00000
  E(xc)    -521.02704  -521.02689  -521.11888    -0.00013     0.00000     0.00000
  Local  ************************124975.03940     0.00403    -0.00000    -0.00000
  n-local  -177.99350  -171.09041  -179.74307     5.97859    -1.16493     2.02426
  augment   759.79711   759.80157   753.55779    -0.00386     0.00001     0.00001
  Kinetic   755.82622   729.45713   734.18097   -22.83579    -2.29931     3.98254
  Fock        0.00000     0.00000     0.00000     0.00000     0.00000     0.00000
  vdW        -4.34924    -4.34924    -3.76793     0.00000     0.00000     0.00000
  -------------------------------------------------------------------------------------
  Total      -4.31370    -4.31370    -0.05054    -0.00000    -0.00000    -0.00000
  in kB     -40.82458   -40.82458    -0.47830    -0.00000    -0.00000    -0.00000
  external pressure =      -27.38 kB  Pullay stress =        0.00 kB


 VOLUME and BASIS-vectors are now :
 -----------------------------------------------------------------------------
  energy-cutoff  :      400.00
  volume of cell :      169.29
      direct lattice vectors                 reciprocal lattice vectors
     2.566797733  0.000000000  0.000000000     0.389590495 -0.224930177  0.000000000
     1.283398867  2.222912043  0.000000000     0.000000000  0.449860355  0.000000000
     0.000000000  0.000000000 29.670471191     0.000000000  0.000000000  0.033703543

  length of vectors
     2.566797733  2.566797733 29.670471191     0.449860355  0.449860355  0.033703543


 FORCES acting on ions
    electron-ion (+dipol)            ewald-force                    non-local-force                 convergence-correction
 -----------------------------------------------------------------------------------------------
   -.304E-05 -.176E-05 0.609E+04   0.105E-07 -.334E-08 -.609E+04   0.694E-17 0.000E+00 -.356E+01   -.938E-07 -.541E-07 -.133E+00
   0.190E-05 0.232E-05 0.438E+04   -.266E-07 0.213E-09 -.438E+04   0.000E+00 0.000E+00 0.271E+00   -.211E-06 -.122E-06 -.198E+00
   -.998E-05 -.548E-05 0.267E+04   0.259E-07 0.103E-07 -.267E+04   0.000E+00 0.173E-17 0.130E+00   -.455E-06 -.263E-06 -.167E+00
   0.167E-05 0.966E-06 0.978E+03   0.337E-09 -.103E-07 -.977E+03   0.173E-17 0.173E-17 -.817E+00   0.285E-06 0.165E-06 -.104E+00
   0.258E-05 0.272E-05 -.732E+03   -.258E-07 0.133E-09 0.731E+03   0.260E-17 0.000E+00 0.783E+00   -.801E-07 -.463E-07 0.189E-01
   -.463E-05 -.239E-05 -.243E+04   0.257E-07 0.104E-07 0.243E+04   0.867E-18 -.173E-17 -.712E-01   -.108E-07 -.623E-08 0.864E-01
   0.357E-05 0.206E-05 -.413E+04   0.702E-09 -.107E-07 0.413E+04   -.139E-16 0.000E+00 0.617E-02   -.445E-07 -.257E-07 0.148E+00
   0.651E-05 0.500E-05 -.585E+04   -.107E-07 0.287E-08 0.584E+04   -.208E-16 -.139E-16 0.433E+01   0.159E-06 0.919E-07 0.128E+00
   0.477E-06 0.321E-06 -.501E+03   0.300E-10 0.409E-09 0.496E+03   0.108E-18 0.000E+00 0.482E+01   -.173E-10 -.102E-10 0.321E-02
   0.251E-06 0.191E-06 -.482E+03   0.604E-11 0.500E-10 0.487E+03   0.325E-18 0.217E-18 -.488E+01   -.639E-10 -.386E-10 0.354E-02
 -----------------------------------------------------------------------------------------------
   -.676E-06 0.395E-05 -.795E+00   0.219E-12 -.563E-13 0.273E-11   -.221E-16 -.119E-16 0.102E+01   -.451E-06 -.260E-06 -.214E+00
 
 
 POSITION                                       TOTAL-FORCE (eV/Angst)
 -----------------------------------------------------------------------------------
      0.00000     -0.00000      0.02751        -0.000000     -0.000000     -0.007005
      1.28340      0.74097      2.02129         0.000000     -0.000000     -0.009417
      2.56680      1.48194      4.03786        -0.000000     -0.000000     -0.014564
     -0.00000     -0.00000      6.06129         0.000000     -0.000000      0.010373
      1.28340      0.74097      8.07203        -0.000000      0.000000     -0.013012
      2.56680      1.48194     10.09826         0.000000      0.000000      0.004642
     -0.00000      0.00000     12.11245         0.000000     -0.000000      0.010086
      1.28340      0.74097     14.10242        -0.000000     -0.000000      0.002293
      1.28340      2.22291     16.29148         0.000000     -0.000000      0.001501
      1.28340      2.22291     17.04930        -0.000000      0.000000      0.015102
 -----------------------------------------------------------------------------------
    total drift:                               -0.000001      0.000004      0.009212


--------------------------------------------------------------------------------------------------------



  FREE ENERGIE OF THE ION-ELECTRON SYSTEM (eV)
  ---------------------------------------------------
  free  energy   TOTEN  =       -40.88134773 eV

  energy  without entropy=      -40.85462224  energy(sigma->0) =      -40.87243923
 
 d Force = 0.6890633E-04[ 0.366E-04, 0.101E-03]  d Energy = 0.7493178E-04-0.603E-05
 d Force = 0.1103671E+02[ 0.110E+02, 0.110E+02]  d Ewald  = 0.1103671E+02-0.456E-07


--------------------------------------------------------------------------------------------------------


    POTLOK:  cpu time      0.0262: real time      0.0263


--------------------------------------------------------------------------------------------------------


 stress matrix after NEB project (eV)
     -4.31370     -0.00000     -0.00000
     -0.00000     -4.31370     -0.00000
     -0.00000     -0.00000     -0.05054
  FORCES: max atom, RMS     0.015102    0.009928
  FORCE total and by dimension    0.031395    0.015102
  Stress total and by dimension    6.100696    4.313695
 Conjugate gradient step on ions:
 trial-energy change:   -0.000075  1 .order   -0.000069   -0.000101   -0.000037
  (g-gl).g = 0.189E-03      g.g   = 0.193E-03  gl.gl    = 0.339E-02
 g(Force)  = 0.193E-03   g(Stress)= 0.000E+00 ortho     =-0.379E-04
 gamma     =   0.05578
 trial     =   0.53022
 opt step  =   0.83021  (harmonic =   0.83021) maximal distance =0.00115972
 next E    =   -40.881352   (d E  =  -0.00008)


--------------------------------------------------------------------------------------------------------


  
 reached required accuracy - stopping structural energy minimisation
     LOOP+:  cpu time      0.8594: real time      0.8927
    4ORBIT:  cpu time      0.0000: real time      0.0000

 total amount of memory used by VASP MPI-rank0    34212. kBytes
=======================================================================

   base      :      30000. kBytes
   nonl-proj :        634. kBytes
   fftplans  :        716. kBytes
   grid      :       1856. kBytes
   one-center:         62. kBytes
   wavefun   :        944. kBytes
 
  
  
 General timing and accounting informations for this job:
 ========================================================
  
                  Total CPU time used (sec):      102.269
                            User time (sec):      101.505
                          System time (sec):        0.763
                         Elapsed time (sec):      105.623
  
                   Maximum memory used (kb):      233200.
                   Average memory used (kb):          N/A
  
                          Minor page faults:       233459
                          Major page faults:         6553
                 Voluntary context switches:         3486
