<?xml version="1.0" encoding="ISO-8859-1"?>
<modeling>
 <generator>
  <i name="program" type="string">vasp </i>
  <i name="version" type="string">6.3.2  </i>
  <i name="subversion" type="string">27Jun22 (build Aug 17 2022 15:43:34) complex                          parallel </i>
  <i name="platform" type="string">tv2STDVTST </i>
  <i name="date" type="string">2025 02 04 </i>
  <i name="time" type="string">14:13:28 </i>
 </generator>
 <incar>
  <i type="int" name="ISTART">     0</i>
  <i type="string" name="PREC">Normal</i>
  <i type="int" name="ISPIN">     2</i>
  <i type="int" name="ICHARG">     2</i>
  <i type="int" name="IBRION">     2</i>
  <i name="EDIFF">      0.00020000</i>
  <i name="EDIFFG">     -0.03000000</i>
  <i type="int" name="NSW">   800</i>
  <i type="int" name="ISIF">     2</i>
  <i type="int" name="ISYM">     1</i>
  <i name="ENCUT">    400.00000000</i>
  <i name="POTIM">      0.50000000</i>
  <i type="logical" name="LREAL"> F  </i>
  <i type="int" name="ISMEAR">     1</i>
  <i name="SIGMA">      0.20000000</i>
  <i type="logical" name="LWAVE"> F  </i>
  <i type="logical" name="LCHARG"> F  </i>
  <i type="string" name="GGA">PE</i>
  <i type="int" name="IVDW">    11</i>
 </incar>
 <primitive_cell>
  <structure name="primitive_cell" >
   <crystal>
    <varray name="basis" >
     <v>       2.56679773       0.00000000       0.00000000 </v>
     <v>       1.28339887       2.22291204       0.00000000 </v>
     <v>       0.00000000       0.00000000      29.67047119 </v>
    </varray>
    <i name="volume">    169.29275369 </i>
    <varray name="rec_basis" >
     <v>       0.38959050      -0.22493018       0.00000000 </v>
     <v>       0.00000000       0.44986035       0.00000000 </v>
     <v>       0.00000000       0.00000000       0.03370354 </v>
    </varray>
   </crystal>
   <varray name="positions" >
    <v>       0.00000000       0.00000000       0.00000000 </v>
    <v>       0.33333333       0.33333333       0.07063526 </v>
    <v>       0.66666667       0.66666667       0.13908594 </v>
    <v>       0.00000000       0.00000000       0.20816512 </v>
    <v>       0.33333333       0.33333333       0.27656240 </v>
    <v>       0.66666667       0.66666667       0.34556034 </v>
    <v>       0.00000000       0.00000000       0.41400593 </v>
    <v>       0.33333333       0.33333333       0.48139269 </v>
    <v>       0.00000000       1.00000000       0.53425930 </v>
    <v>       0.00000000       1.00000000       0.55940215 </v>
   </varray>
  </structure>
  <varray name="primitive_index" >
   <v type="int" >        1 </v>
   <v type="int" >        2 </v>
   <v type="int" >        3 </v>
   <v type="int" >        4 </v>
   <v type="int" >        5 </v>
   <v type="int" >        6 </v>
   <v type="int" >        7 </v>
   <v type="int" >        8 </v>
   <v type="int" >        9 </v>
   <v type="int" >       10 </v>
  </varray>
 </primitive_cell>
 <kpoints>
  <generation param="Monkhorst-Pack">
   <v type="int" name="divisions">       3        3        1 </v>
   <v name="usershift">      0.00000000       0.00000000       0.00000000 </v>
   <v name="genvec1">      0.33333333       0.00000000       0.00000000 </v>
   <v name="genvec2">      0.00000000       0.33333333       0.00000000 </v>
   <v name="genvec3">      0.00000000       0.00000000       1.00000000 </v>
   <v name="shift">      0.00000000       0.00000000       0.00000000 </v>
  </generation>
  <varray name="kpointlist" >
   <v>       0.00000000       0.00000000       0.00000000 </v>
   <v>       0.33333333       0.00000000       0.00000000 </v>
   <v>      -0.33333333       0.33333333       0.00000000 </v>
  </varray>
  <varray name="weights" >
   <v>       0.11111111 </v>
   <v>       0.66666667 </v>
   <v>       0.22222222 </v>
  </varray>
 </kpoints>
 <parameters>
  <separator name="general" >
   <i type="string" name="SYSTEM">unknown system</i>
   <i type="logical" name="LCOMPAT"> F  </i>
  </separator>
  <separator name="electronic" >
   <i type="string" name="PREC">normal</i>
   <i name="ENMAX">    400.00000000</i>
   <i name="ENAUG">    586.98000000</i>
   <i name="EDIFF">      0.00020000</i>
   <i type="int" name="IALGO">    38</i>
   <i type="int" name="IWAVPR">    11</i>
   <i type="int" name="NBANDS">    60</i>
   <i type="int" name="NBANDSLOW">    -1</i>
   <i type="int" name="NBANDSHIGH">    -1</i>
   <i name="NELECT">     90.00000000</i>
   <i type="int" name="TURBO">     0</i>
   <i type="int" name="IRESTART">     0</i>
   <i type="int" name="NREBOOT">     0</i>
   <i type="int" name="NMIN">     0</i>
   <i name="EREF">      0.00000000</i>
   <separator name="electronic smearing" >
    <i type="int" name="ISMEAR">     1</i>
    <i name="SIGMA">      0.20000000</i>
    <i name="KSPACING">      0.50000000</i>
    <i type="logical" name="KGAMMA"> T  </i>
    <i type="logical" name="KBLOWUP"> T  </i>
   </separator>
   <separator name="electronic projectors" >
    <i type="logical" name="LREAL"> F  </i>
    <v name="ROPT">      0.00000000      0.00000000</v>
    <i type="int" name="LMAXPAW">  -100</i>
    <i type="int" name="LMAXMIX">     2</i>
    <i type="logical" name="NLSPLINE"> F  </i>
   </separator>
   <separator name="electronic startup" >
    <i type="int" name="ISTART">     0</i>
    <i type="int" name="ICHARG">     2</i>
    <i type="int" name="INIWAV">     1</i>
   </separator>
   <separator name="electronic spin" >
    <i type="int" name="ISPIN">     2</i>
    <i type="logical" name="LNONCOLLINEAR"> F  </i>
    <v name="MAGMOM">      1.00000000      1.00000000      1.00000000      1.00000000      1.00000000      1.00000000      1.00000000      1.00000000      1.00000000      1.00000000</v>
    <i name="NUPDOWN">     -1.00000000</i>
    <i type="logical" name="LSORBIT"> F  </i>
    <v name="SAXIS">      0.00000000      0.00000000      1.00000000</v>
    <i type="logical" name="LSPIRAL"> F  </i>
    <v name="QSPIRAL">      0.00000000      0.00000000      0.00000000</v>
    <i type="logical" name="LZEROZ"> F  </i>
   </separator>
   <separator name="electronic exchange-correlation" >
    <i type="logical" name="LASPH"> F  </i>
    <i type="logical" name="LMETAGGA"> F  </i>
   </separator>
   <separator name="electronic convergence" >
    <i type="int" name="NELM">    60</i>
    <i type="int" name="NELMDL">    -5</i>
    <i type="int" name="NELMIN">     2</i>
    <i name="ENINI">    400.00000000</i>
    <separator name="electronic convergence detail" >
     <i type="logical" name="LDIAG"> T  </i>
     <i type="logical" name="LSUBROT"> F  </i>
     <i name="WEIMIN">      0.00100000</i>
     <i name="EBREAK">      0.00000083</i>
     <i name="DEPER">      0.30000000</i>
     <i type="int" name="NRMM">     4</i>
     <i name="TIME">      0.40000000</i>
    </separator>
   </separator>
   <separator name="electronic mixer" >
    <i name="AMIX">      0.40000000</i>
    <i name="BMIX">      1.00000000</i>
    <i name="AMIN">      0.10000000</i>
    <i name="AMIX_MAG">      1.60000000</i>
    <i name="BMIX_MAG">      1.00000000</i>
    <separator name="electronic mixer details" >
     <i type="int" name="IMIX">     4</i>
     <i type="logical" name="MIXFIRST"> F  </i>
     <i type="int" name="MAXMIX">   -45</i>
     <i name="WC">    100.00000000</i>
     <i type="int" name="INIMIX">     1</i>
     <i type="int" name="MIXPRE">     1</i>
     <i type="int" name="MREMOVE">     5</i>
    </separator>
   </separator>
   <separator name="electronic dipolcorrection" >
    <i type="logical" name="LDIPOL"> F  </i>
    <i type="logical" name="LMONO"> F  </i>
    <i type="int" name="IDIPOL">     0</i>
    <i name="EPSILON">      1.00000000</i>
    <v name="DIPOL">   -100.00000000   -100.00000000   -100.00000000</v>
    <i name="EFIELD">      0.00000000</i>
   </separator>
  </separator>
  <separator name="grids" >
   <i type="int" name="NGX">    14</i>
   <i type="int" name="NGY">    14</i>
   <i type="int" name="NGZ">   150</i>
   <i type="int" name="NGXF">    28</i>
   <i type="int" name="NGYF">    28</i>
   <i type="int" name="NGZF">   300</i>
   <i type="logical" name="ADDGRID"> F  </i>
  </separator>
  <separator name="ionic" >
   <i type="int" name="NSW">   800</i>
   <i type="int" name="IBRION">     2</i>
   <i type="int" name="MDALGO">     0</i>
   <i type="int" name="ISIF">     2</i>
   <i name="PSTRESS">      0.00000000</i>
   <i name="EDIFFG">     -0.03000000</i>
   <i type="int" name="NFREE">     1</i>
   <i name="POTIM">      0.50000000</i>
   <i name="SMASS">     -3.00000000</i>
   <i name="SCALEE">      1.00000000</i>
  </separator>
  <separator name="ionic md" >
   <i name="TEBEG">      0.00010000</i>
   <i name="TEEND">      0.00010000</i>
   <i type="int" name="NBLOCK">     1</i>
   <i type="int" name="KBLOCK">   800</i>
   <i type="int" name="NPACO">   256</i>
   <i name="APACO">     10.00000000</i>
  </separator>
  <separator name="symmetry" >
   <i type="int" name="ISYM">     1</i>
   <i name="SYMPREC">      0.00001000</i>
  </separator>
  <separator name="dos" >
   <i type="int" name="LORBIT">     0</i>
   <v name="RWIGS">     -1.00000000     -1.00000000</v>
   <i type="int" name="NEDOS">   301</i>
   <i name="EMIN">     10.00000000</i>
   <i name="EMAX">    -10.00000000</i>
   <i name="EFERMI">      0.00000000</i>
  </separator>
  <separator name="writing" >
   <i type="int" name="NWRITE">     2</i>
   <i type="logical" name="LWAVE"> F  </i>
   <i type="logical" name="LDOWNSAMPLE"> F  </i>
   <i type="logical" name="LCHARG"> F  </i>
   <i type="logical" name="LPARD"> F  </i>
   <i type="logical" name="LVTOT"> F  </i>
   <i type="logical" name="LVHAR"> F  </i>
   <i type="logical" name="LELF"> F  </i>
   <i type="logical" name="LOPTICS"> F  </i>
   <v name="STM">      0.00000000      0.00000000      0.00000000      0.00000000      0.00000000      0.00000000      0.00000000</v>
  </separator>
  <separator name="performance" >
   <i type="int" name="NPAR">     4</i>
   <i type="int" name="NSIM">     4</i>
   <i type="int" name="NBLK">    -1</i>
   <i type="logical" name="LPLANE"> T  </i>
   <i type="logical" name="LSCALAPACK"> T  </i>
   <i type="logical" name="LSCAAWARE"> F  </i>
   <i type="logical" name="LSCALU"> F  </i>
   <i type="logical" name="LASYNC"> F  </i>
   <i type="logical" name="LORBITALREAL"> F  </i>
  </separator>
  <separator name="miscellaneous" >
   <i type="int" name="IDIOT">     3</i>
   <i type="int" name="PHON_NSTRUCT">    -1</i>
   <i type="logical" name="LMUSIC"> F  </i>
   <v name="POMASS">     63.54600000      1.00000000</v>
   <v name="DARWINR">      0.00000000      0.00000000</v>
   <v name="DARWINV">      1.00000000      1.00000000</v>
   <i type="logical" name="LCORR"> T  </i>
  </separator>
  <i type="logical" name="GGA_COMPAT"> T  </i>
  <i type="logical" name="LBERRY"> F  </i>
  <i type="int" name="ICORELEVEL">     0</i>
  <i type="logical" name="LDAU"> F  </i>
  <i type="int" name="I_CONSTRAINED_M">     0</i>
  <separator name="electronic exchange-correlation" >
   <i type="string" name="GGA">PE</i>
   <i type="int" name="VOSKOWN">     0</i>
   <i type="logical" name="LHFCALC"> F  </i>
   <i type="string" name="PRECFOCK"></i>
   <i type="logical" name="LSYMGRAD"> F  </i>
   <i type="logical" name="LHFONE"> F  </i>
   <i type="logical" name="LRHFCALC"> F  </i>
   <i type="logical" name="LTHOMAS"> F  </i>
   <i type="logical" name="LMODELHF"> F  </i>
   <i type="logical" name="LFOCKACE"> F  </i>
   <i name="ENCUT4O">     -1.00000000</i>
   <i type="int" name="EXXOEP">     0</i>
   <i type="int" name="FOURORBIT">     0</i>
   <i name="AEXX">      0.00000000</i>
   <i name="HFALPHA">      0.00000000</i>
   <i name="MCALPHA">      0.00000000</i>
   <i name="ALDAX">      1.00000000</i>
   <i name="AGGAX">      1.00000000</i>
   <i name="ALDAC">      1.00000000</i>
   <i name="AGGAC">      1.00000000</i>
   <i type="int" name="NKREDX">     1</i>
   <i type="int" name="NKREDY">     1</i>
   <i type="int" name="NKREDZ">     1</i>
   <i type="logical" name="SHIFTRED"> F  </i>
   <i type="logical" name="ODDONLY"> F  </i>
   <i type="logical" name="EVENONLY"> F  </i>
   <i type="int" name="LMAXFOCK">     0</i>
   <i type="int" name="NMAXFOCKAE">     0</i>
   <i type="logical" name="LFOCKAEDFT"> F  </i>
   <i name="HFSCREEN">      0.00000000</i>
   <i name="HFSCREENC">      0.00000000</i>
   <i type="int" name="NBANDSGWLOW">     0</i>
  </separator>
  <separator name="vdW DFT" >
   <i type="logical" name="LUSE_VDW"> F  </i>
   <i name="Zab_VDW">     -0.84910000</i>
   <i name="PARAM1">      0.12340000</i>
   <i name="PARAM2">      1.00000000</i>
   <i name="PARAM3">      0.00000000</i>
  </separator>
  <separator name="model GW" >
   <i type="int" name="MODEL_GW">     0</i>
   <i name="MODEL_EPS0">     10.15756522</i>
   <i name="MODEL_ALPHA">      1.00000000</i>
  </separator>
  <separator name="linear response parameters" >
   <i type="logical" name="LEPSILON"> F  </i>
   <i type="logical" name="LRPA"> F  </i>
   <i type="logical" name="LNABLA"> F  </i>
   <i type="logical" name="LVEL"> F  </i>
   <i name="CSHIFT">      0.10000000</i>
   <i name="OMEGAMAX">     -1.00000000</i>
   <i name="DEG_THRESHOLD">      0.00200000</i>
   <i name="RTIME">     -0.10000000</i>
   <i name="WPLASMAI">      0.00000000</i>
   <v name="DFIELD">      0.00000000      0.00000000      0.00000000</v>
   <v name="WPLASMA">      0.00000000      0.00000000      0.00000000      0.00000000      0.00000000      0.00000000      0.00000000      0.00000000      0.00000000</v>
  </separator>
  <separator name="orbital magnetization" >
   <i type="logical" name="NUCIND"> F  </i>
   <v name="MAGPOS">      0.00000000      0.00000000      0.00000000</v>
   <i type="logical" name="LNICSALL"> T  </i>
   <i type="logical" name="ORBITALMAG"> F  </i>
   <i type="logical" name="LMAGBLOCH"> F  </i>
   <i type="logical" name="LCHIMAG"> F  </i>
   <i type="logical" name="LGAUGE"> T  </i>
   <i type="int" name="MAGATOM">     0</i>
   <v name="MAGDIPOL">      0.00000000      0.00000000      0.00000000</v>
   <v name="AVECCONST">      0.00000000      0.00000000      0.00000000</v>
  </separator>
  <separator name="response functions" >
   <i type="logical" name="LFINITE_TEMPERATURE"> F  </i>
   <i type="logical" name="LADDER"> F  </i>
   <i type="logical" name="LRPAFORCE"> F  </i>
   <i type="logical" name="LFXC"> F  </i>
   <i type="logical" name="LHARTREE"> T  </i>
   <i type="int" name="IBSE">     0</i>
   <v type="int" name="KPOINT">    -1     0     0     0</v>
   <i type="logical" name="LTCTC"> F  </i>
   <i type="logical" name="LTCTE"> F  </i>
   <i type="logical" name="LTETE"> F  </i>
   <i type="logical" name="LTRIPLET"> F  </i>
   <i type="logical" name="LFXCEPS"> F  </i>
   <i type="logical" name="LFXHEG"> F  </i>
   <i type="int" name="NATURALO">     2</i>
   <i type="logical" name="LHOLEGF"> F  </i>
   <i type="logical" name="L2ORDER"> F  </i>
   <i type="logical" name="LDMP1"> F  </i>
   <i type="logical" name="LMP2LT"> F  </i>
   <i type="logical" name="LSMP2LT"> F  </i>
   <i type="logical" name="LGWLF"> F  </i>
   <i name="ENCUTGW">     -2.00000000</i>
   <i name="ENCUTGWSOFT">     -2.00000000</i>
   <i name="ENCUTLF">     -1.00000000</i>
   <i type="logical" name="LESF_SPLINES"> F  </i>
   <i type="int" name="LMAXMP2">    -1</i>
   <i name="SCISSOR">      0.00000000</i>
   <i type="int" name="NOMEGA">     0</i>
   <i type="int" name="NOMEGAR">     0</i>
   <i type="int" name="NBANDSGW">    -1</i>
   <i type="int" name="NBANDSO">    -1</i>
   <i type="int" name="NBANDSV">    -1</i>
   <i type="int" name="NELMGW">     1</i>
   <i type="int" name="NELMHF">     1</i>
   <i type="int" name="DIM">     3</i>
   <i type="int" name="IESPILON">     4</i>
   <i type="int" name="ANTIRES">     0</i>
   <i name="OMEGAMAX">    -30.00000000</i>
   <i name="OMEGAMIN">    -30.00000000</i>
   <i name="OMEGATL">   -200.00000000</i>
   <i type="int" name="OMEGAGRID">     0</i>
   <i name="CSHIFT">     -0.10000000</i>
   <i type="logical" name="LSELFENERGY"> F  </i>
   <i type="logical" name="LSPECTRAL"> F  </i>
   <i type="logical" name="LSPECTRALGW"> F  </i>
   <i type="logical" name="LSINGLES"> F  </i>
   <i type="logical" name="LFERMIGW"> F  </i>
   <i type="logical" name="ODDONLYGW"> F  </i>
   <i type="logical" name="EVENONLYGW"> F  </i>
   <i type="int" name="NKREDLFX">     1</i>
   <i type="int" name="NKREDLFY">     1</i>
   <i type="int" name="NKREDLFZ">     1</i>
   <i type="int" name="MAXMEM">  2800</i>
   <i type="int" name="TELESCOPE">     0</i>
   <i type="int" name="NTAUPAR">    -1</i>
   <i type="int" name="NOMEGAPAR">    -1</i>
   <i name="DAMP_NEWTON">      0.80000001</i>
   <i name="LAMBDA">      1.00000000</i>
  </separator>
  <separator name="External order field" >
   <i name="OFIELD_KAPPA">      0.00000000</i>
   <v name="OFIELD_K">      0.00000000      0.00000000      0.00000000</v>
   <i name="OFIELD_Q6_NEAR">      0.00000000</i>
   <i name="OFIELD_Q6_FAR">      0.00000000</i>
   <i name="OFIELD_A">      0.00000000</i>
  </separator>
  <separator name="optional k-points parameters" >
   <i type="int" name="KPOINTS_OPT_MODE">     1</i>
   <i type="logical" name="LKPOINTS_OPT"> F  </i>
  </separator>
 </parameters>
 <atominfo>
  <atoms>      10 </atoms>
  <types>       2 </types>
  <array name="atoms" >
   <dimension dim="1">ion</dimension>
   <field type="string">element</field>
   <field type="int">atomtype</field>
   <set>
    <rc><c>Cu</c><c>   1</c></rc>
    <rc><c>Cu</c><c>   1</c></rc>
    <rc><c>Cu</c><c>   1</c></rc>
    <rc><c>Cu</c><c>   1</c></rc>
    <rc><c>Cu</c><c>   1</c></rc>
    <rc><c>Cu</c><c>   1</c></rc>
    <rc><c>Cu</c><c>   1</c></rc>
    <rc><c>Cu</c><c>   1</c></rc>
    <rc><c>H </c><c>   2</c></rc>
    <rc><c>H </c><c>   2</c></rc>
   </set>
  </array>
  <array name="atomtypes" >
   <dimension dim="1">type</dimension>
   <field type="int">atomspertype</field>
   <field type="string">element</field>
   <field>mass</field>
   <field>valence</field>
   <field type="string">pseudopotential</field>
   <set>
    <rc><c>   8</c><c>Cu</c><c>     63.54600000</c><c>     11.00000000</c><c>  PAW_PBE Cu 22Jun2005                  </c></rc>
    <rc><c>   2</c><c>H </c><c>      1.00000000</c><c>      1.00000000</c><c>  PAW_PBE H 15Jun2001                   </c></rc>
   </set>
  </array>
 </atominfo>
 <structure name="initialpos" >
  <crystal>
   <varray name="basis" >
    <v>       2.56679773       0.00000000       0.00000000 </v>
    <v>       1.28339887       2.22291204       0.00000000 </v>
    <v>       0.00000000       0.00000000      29.67047119 </v>
   </varray>
   <i name="volume">    169.29275369 </i>
   <varray name="rec_basis" >
    <v>       0.38959050      -0.22493018       0.00000000 </v>
    <v>       0.00000000       0.44986035       0.00000000 </v>
    <v>       0.00000000       0.00000000       0.03370354 </v>
   </varray>
  </crystal>
  <varray name="positions" >
   <v>       0.00000000       0.00000000       0.00000000 </v>
   <v>       0.33333333       0.33333333       0.07063526 </v>
   <v>       0.66666667       0.66666667       0.13908594 </v>
   <v>       0.00000000       0.00000000       0.20816512 </v>
   <v>       0.33333333       0.33333333       0.27656240 </v>
   <v>       0.66666667       0.66666667       0.34556034 </v>
   <v>       0.00000000       0.00000000       0.41400593 </v>
   <v>       0.33333333       0.33333333       0.48139269 </v>
   <v>       0.00000000       1.00000000       0.53425930 </v>
   <v>       0.00000000       1.00000000       0.55940215 </v>
  </varray>
 </structure>
 <calculation>
  <scstep>
   <time name="dav">    0.22    0.22</time>
   <time name="total">    0.25    0.25</time>
   <energy>
    <i name="alphaZ">    285.34744303 </i>
    <i name="ewald">  52241.59344990 </i>
    <i name="hartreedc"> -63294.98769043 </i>
    <i name="XCdc">    372.50714578 </i>
    <i name="pawpsdc">   9828.36862813 </i>
    <i name="pawaedc"> -10674.97285505 </i>
    <i name="eentropy">      0.00277567 </i>
    <i name="bandstr">    880.39774184 </i>
    <i name="atom">  11152.61838693 </i>
    <i name="e_fr_energy">    790.87502580 </i>
    <i name="e_wo_entrp">    790.87225014 </i>
    <i name="e_0_energy">    790.87410058 </i>
   </energy>
  </scstep>
  <scstep>
   <time name="dav">    0.21    0.21</time>
   <time name="total">    0.21    0.21</time>
   <energy>
    <i name="e_fr_energy">     71.18089955 </i>
    <i name="e_wo_entrp">     71.17717988 </i>
    <i name="e_0_energy">     71.17965966 </i>
   </energy>
  </scstep>
  <scstep>
   <time name="dav">    0.21    0.21</time>
   <time name="total">    0.21    0.21</time>
   <energy>
    <i name="e_fr_energy">    -32.89676610 </i>
    <i name="e_wo_entrp">    -32.92391024 </i>
    <i name="e_0_energy">    -32.90581414 </i>
   </energy>
  </scstep>
  <scstep>
   <time name="dav">    0.23    0.23</time>
   <time name="total">    0.23    0.23</time>
   <energy>
    <i name="e_fr_energy">    -37.33655906 </i>
    <i name="e_wo_entrp">    -37.36882088 </i>
    <i name="e_0_energy">    -37.34731300 </i>
   </energy>
  </scstep>
  <scstep>
   <time name="dav">    0.23    0.23</time>
   <time name="total">    0.28    0.28</time>
   <energy>
    <i name="e_fr_energy">    -37.43244951 </i>
    <i name="e_wo_entrp">    -37.46479282 </i>
    <i name="e_0_energy">    -37.44323061 </i>
   </energy>
  </scstep>
  <scstep>
   <time name="dav">    0.27    0.27</time>
   <time name="total">    0.35    0.35</time>
   <energy>
    <i name="e_fr_energy">    -34.17119632 </i>
    <i name="e_wo_entrp">    -34.13066007 </i>
    <i name="e_0_energy">    -34.15768424 </i>
   </energy>
  </scstep>
  <scstep>
   <time name="dav">    0.28    0.28</time>
   <time name="total">    0.36    0.36</time>
   <energy>
    <i name="e_fr_energy">    -94.86173514 </i>
    <i name="e_wo_entrp">    -94.85750190 </i>
    <i name="e_0_energy">    -94.86032406 </i>
   </energy>
  </scstep>
  <scstep>
   <time name="dav">    0.31    0.31</time>
   <time name="total">    0.39    0.39</time>
   <energy>
    <i name="e_fr_energy">    -39.70036974 </i>
    <i name="e_wo_entrp">    -39.64304937 </i>
    <i name="e_0_energy">    -39.68126295 </i>
   </energy>
  </scstep>
  <scstep>
   <time name="dav">    0.29    0.29</time>
   <time name="total">    0.37    0.37</time>
   <energy>
    <i name="e_fr_energy">    -32.96336575 </i>
    <i name="e_wo_entrp">    -32.93447131 </i>
    <i name="e_0_energy">    -32.95373427 </i>
   </energy>
  </scstep>
  <scstep>
   <time name="dav">    0.28    0.28</time>
   <time name="total">    0.35    0.35</time>
   <energy>
    <i name="e_fr_energy">    -30.96988974 </i>
    <i name="e_wo_entrp">    -30.96050057 </i>
    <i name="e_0_energy">    -30.96676002 </i>
   </energy>
  </scstep>
  <scstep>
   <time name="dav">    0.25    0.26</time>
   <time name="total">    0.33    0.33</time>
   <energy>
    <i name="e_fr_energy">    -30.54837537 </i>
    <i name="e_wo_entrp">    -30.53972873 </i>
    <i name="e_0_energy">    -30.54549315 </i>
   </energy>
  </scstep>
  <scstep>
   <time name="dav">    0.22    0.23</time>
   <time name="total">    0.31    0.31</time>
   <energy>
    <i name="e_fr_energy">    -29.86781860 </i>
    <i name="e_wo_entrp">    -29.85659346 </i>
    <i name="e_0_energy">    -29.86407689 </i>
   </energy>
  </scstep>
  <scstep>
   <time name="dav">    0.26    0.27</time>
   <time name="total">    0.34    0.34</time>
   <energy>
    <i name="e_fr_energy">    -29.67529728 </i>
    <i name="e_wo_entrp">    -29.66215695 </i>
    <i name="e_0_energy">    -29.67091717 </i>
   </energy>
  </scstep>
  <scstep>
   <time name="dav">    0.29    0.29</time>
   <time name="total">    0.36    0.37</time>
   <energy>
    <i name="e_fr_energy">    -31.70950824 </i>
    <i name="e_wo_entrp">    -31.69955116 </i>
    <i name="e_0_energy">    -31.70618921 </i>
   </energy>
  </scstep>
  <scstep>
   <time name="dav">    0.30    0.30</time>
   <time name="total">    0.38    0.38</time>
   <energy>
    <i name="e_fr_energy">    -33.35555340 </i>
    <i name="e_wo_entrp">    -33.33728942 </i>
    <i name="e_0_energy">    -33.34946540 </i>
   </energy>
  </scstep>
  <scstep>
   <time name="dav">    0.28    0.28</time>
   <time name="total">    0.35    0.36</time>
   <energy>
    <i name="e_fr_energy">    -34.74077761 </i>
    <i name="e_wo_entrp">    -34.72120280 </i>
    <i name="e_0_energy">    -34.73425267 </i>
   </energy>
  </scstep>
  <scstep>
   <time name="dav">    0.25    0.25</time>
   <time name="total">    0.33    0.33</time>
   <energy>
    <i name="e_fr_energy">    -35.38437488 </i>
    <i name="e_wo_entrp">    -35.37164189 </i>
    <i name="e_0_energy">    -35.38013055 </i>
   </energy>
  </scstep>
  <scstep>
   <time name="dav">    0.24    0.24</time>
   <time name="total">    0.32    0.32</time>
   <energy>
    <i name="e_fr_energy">    -35.84213897 </i>
    <i name="e_wo_entrp">    -35.83411472 </i>
    <i name="e_0_energy">    -35.83946422 </i>
   </energy>
  </scstep>
  <scstep>
   <time name="dav">    0.26    0.26</time>
   <time name="total">    0.33    0.34</time>
   <energy>
    <i name="e_fr_energy">    -36.05313548 </i>
    <i name="e_wo_entrp">    -36.04249150 </i>
    <i name="e_0_energy">    -36.04958749 </i>
   </energy>
  </scstep>
  <scstep>
   <time name="dav">    0.26    0.27</time>
   <time name="total">    0.34    0.35</time>
   <energy>
    <i name="e_fr_energy">    -36.19176473 </i>
    <i name="e_wo_entrp">    -36.17725097 </i>
    <i name="e_0_energy">    -36.18692681 </i>
   </energy>
  </scstep>
  <scstep>
   <time name="dav">    0.28    0.28</time>
   <time name="total">    0.36    0.36</time>
   <energy>
    <i name="e_fr_energy">    -36.36328623 </i>
    <i name="e_wo_entrp">    -36.34192085 </i>
    <i name="e_0_energy">    -36.35616444 </i>
   </energy>
  </scstep>
  <scstep>
   <time name="dav">    0.24    0.24</time>
   <time name="total">    0.32    0.32</time>
   <energy>
    <i name="e_fr_energy">    -36.40540923 </i>
    <i name="e_wo_entrp">    -36.38243679 </i>
    <i name="e_0_energy">    -36.39775175 </i>
   </energy>
  </scstep>
  <scstep>
   <time name="dav">    0.23    0.23</time>
   <time name="total">    0.31    0.31</time>
   <energy>
    <i name="e_fr_energy">    -36.44815039 </i>
    <i name="e_wo_entrp">    -36.42440219 </i>
    <i name="e_0_energy">    -36.44023432 </i>
   </energy>
  </scstep>
  <scstep>
   <time name="dav">    0.24    0.24</time>
   <time name="total">    0.31    0.32</time>
   <energy>
    <i name="e_fr_energy">    -36.62159358 </i>
    <i name="e_wo_entrp">    -36.59721426 </i>
    <i name="e_0_energy">    -36.61346714 </i>
   </energy>
  </scstep>
  <scstep>
   <time name="dav">    0.24    0.24</time>
   <time name="total">    0.32    0.32</time>
   <energy>
    <i name="e_fr_energy">    -36.85314803 </i>
    <i name="e_wo_entrp">    -36.82896109 </i>
    <i name="e_0_energy">    -36.84508572 </i>
   </energy>
  </scstep>
  <scstep>
   <time name="dav">    0.27    0.27</time>
   <time name="total">    0.35    0.35</time>
   <energy>
    <i name="e_fr_energy">    -36.97642897 </i>
    <i name="e_wo_entrp">    -36.95376317 </i>
    <i name="e_0_energy">    -36.96887370 </i>
   </energy>
  </scstep>
  <scstep>
   <time name="dav">    0.26    0.26</time>
   <time name="total">    0.34    0.34</time>
   <energy>
    <i name="e_fr_energy">    -37.00135162 </i>
    <i name="e_wo_entrp">    -36.97808418 </i>
    <i name="e_0_energy">    -36.99359581 </i>
   </energy>
  </scstep>
  <scstep>
   <time name="dav">    0.21    0.21</time>
   <time name="total">    0.29    0.29</time>
   <energy>
    <i name="e_fr_energy">    -37.00738227 </i>
    <i name="e_wo_entrp">    -36.98386128 </i>
    <i name="e_0_energy">    -36.99954194 </i>
   </energy>
  </scstep>
  <scstep>
   <time name="dav">    0.20    0.20</time>
   <time name="total">    0.28    0.28</time>
   <energy>
    <i name="e_fr_energy">    -37.01155348 </i>
    <i name="e_wo_entrp">    -36.98700419 </i>
    <i name="e_0_energy">    -37.00337039 </i>
   </energy>
  </scstep>
  <scstep>
   <time name="dav">    0.19    0.20</time>
   <time name="total">    0.27    0.28</time>
   <energy>
    <i name="e_fr_energy">    -37.01345235 </i>
    <i name="e_wo_entrp">    -36.98879922 </i>
    <i name="e_0_energy">    -37.00523464 </i>
   </energy>
  </scstep>
  <scstep>
   <time name="dav">    0.17    0.18</time>
   <time name="total">    0.25    0.26</time>
   <energy>
    <i name="e_fr_energy">    -37.01449544 </i>
    <i name="e_wo_entrp">    -36.98896552 </i>
    <i name="e_0_energy">    -37.00598547 </i>
   </energy>
  </scstep>
  <scstep>
   <time name="dav">    0.18    0.18</time>
   <time name="total">    0.26    0.26</time>
   <energy>
    <i name="e_fr_energy">    -37.01556339 </i>
    <i name="e_wo_entrp">    -36.99021517 </i>
    <i name="e_0_energy">    -37.00711398 </i>
   </energy>
  </scstep>
  <scstep>
   <time name="dav">    0.17    0.17</time>
   <time name="total">    0.25    0.25</time>
   <energy>
    <i name="e_fr_energy">    -37.01717352 </i>
    <i name="e_wo_entrp">    -36.99200173 </i>
    <i name="e_0_energy">    -37.00878292 </i>
   </energy>
  </scstep>
  <scstep>
   <time name="dav">    0.18    0.18</time>
   <time name="total">    0.26    0.26</time>
   <energy>
    <i name="e_fr_energy">    -37.01808231 </i>
    <i name="e_wo_entrp">    -36.99294405 </i>
    <i name="e_0_energy">    -37.00970289 </i>
   </energy>
  </scstep>
  <scstep>
   <time name="dav">    0.16    0.16</time>
   <time name="total">    0.24    0.24</time>
   <energy>
    <i name="e_fr_energy">    -37.01849580 </i>
    <i name="e_wo_entrp">    -36.99325949 </i>
    <i name="e_0_energy">    -37.01008370 </i>
   </energy>
  </scstep>
  <scstep>
   <time name="dav">    0.15    0.15</time>
   <time name="total">    0.18    0.18</time>
   <energy>
    <i name="alphaZ">    285.34744303 </i>
    <i name="ewald">  52241.59344990 </i>
    <i name="hartreedc"> -63193.19700864 </i>
    <i name="XCdc">    363.02689149 </i>
    <i name="pawpsdc">  10572.79388909 </i>
    <i name="pawaedc"> -11434.88047075 </i>
    <i name="eentropy">     -0.02522999 </i>
    <i name="bandstr">    -24.29601031 </i>
    <i name="atom">  11152.61838693 </i>
    <i name="e_fr_energy">    -37.01865925 </i>
    <i name="e_wo_entrp">    -36.99342926 </i>
    <i name="e_0_energy">    -37.01024925 </i>
   </energy>
  </scstep>
  <structure>
   <crystal>
    <varray name="basis" >
     <v>       2.56679773       0.00000000       0.00000000 </v>
     <v>       1.28339887       2.22291204       0.00000000 </v>
     <v>       0.00000000       0.00000000      29.67047119 </v>
    </varray>
    <i name="volume">    169.29275369 </i>
    <varray name="rec_basis" >
     <v>       0.38959050      -0.22493018       0.00000000 </v>
     <v>       0.00000000       0.44986035       0.00000000 </v>
     <v>       0.00000000       0.00000000       0.03370354 </v>
    </varray>
   </crystal>
   <varray name="positions" >
    <v>       0.00000000       0.00000000       0.00000000 </v>
    <v>       0.33333333       0.33333333       0.07063526 </v>
    <v>       0.66666667       0.66666667       0.13908594 </v>
    <v>       0.00000000       0.00000000       0.20816512 </v>
    <v>       0.33333333       0.33333333       0.27656240 </v>
    <v>       0.66666667       0.66666667       0.34556034 </v>
    <v>       0.00000000       0.00000000       0.41400593 </v>
    <v>       0.33333333       0.33333333       0.48139269 </v>
    <v>       0.00000000       1.00000000       0.53425930 </v>
    <v>       0.00000000       1.00000000       0.55940215 </v>
   </varray>
  </structure>
  <varray name="forces" >
   <v>      -0.00000000       0.00000000       0.47130696 </v>
   <v>       0.00000000      -0.00000000      -0.39687296 </v>
   <v>       0.00000000      -0.00000000       0.00685505 </v>
   <v>      -0.00000000       0.00000000      -0.00276649 </v>
   <v>      -0.00000000      -0.00000000      -0.02062982 </v>
   <v>      -0.00000000       0.00000000      -0.02022665 </v>
   <v>       0.00000000       0.00000000      -0.09235336 </v>
   <v>       0.00000000       0.00000000      -0.58565532 </v>
   <v>      -0.00000000       0.00000000      -0.64487628 </v>
   <v>      -0.00000000       0.00000000       1.28521888 </v>
  </varray>
  <varray name="stress" >
   <v>     -46.52055878      -0.00000000       0.00000000 </v>
   <v>      -0.00000000     -46.52055878      -0.00000000 </v>
   <v>      -0.00000000      -0.00000000      -3.36155170 </v>
  </varray>
  <energy>
   <i name="e_fr_energy">    -40.68829122 </i>
   <i name="e_wo_entrp">    -40.66306123 </i>
   <i name="e_0_energy">    -40.67988123 </i>
  </energy>
  <time name="totalsc">   11.38   11.51</time>
 </calculation>
 <calculation>
  <scstep>
   <time name="dav">    0.21    0.21</time>
   <time name="total">    0.29    0.29</time>
   <energy>
    <i name="alphaZ">    285.34744303 </i>
    <i name="ewald">  52463.02779314 </i>
    <i name="hartreedc"> -63415.56368407 </i>
    <i name="XCdc">    363.00545056 </i>
    <i name="pawpsdc">  10572.81946432 </i>
    <i name="pawaedc"> -11434.89954717 </i>
    <i name="eentropy">     -0.02858663 </i>
    <i name="bandstr">    -23.33385068 </i>
    <i name="atom">  11152.61838693 </i>
    <i name="e_fr_energy">    -37.00713056 </i>
    <i name="e_wo_entrp">    -36.97854393 </i>
    <i name="e_0_energy">    -36.99760168 </i>
   </energy>
  </scstep>
  <scstep>
   <time name="dav">    0.29    0.30</time>
   <time name="total">    0.37    0.37</time>
   <energy>
    <i name="e_fr_energy">    -37.03167058 </i>
    <i name="e_wo_entrp">    -37.00051925 </i>
    <i name="e_0_energy">    -37.02128680 </i>
   </energy>
  </scstep>
  <scstep>
   <time name="dav">    0.30    0.30</time>
   <time name="total">    0.38    0.38</time>
   <energy>
    <i name="e_fr_energy">    -37.03418827 </i>
    <i name="e_wo_entrp">    -37.00895780 </i>
    <i name="e_0_energy">    -37.02577811 </i>
   </energy>
  </scstep>
  <scstep>
   <time name="dav">    0.28    0.28</time>
   <time name="total">    0.36    0.36</time>
   <energy>
    <i name="e_fr_energy">    -37.01870674 </i>
    <i name="e_wo_entrp">    -36.99038984 </i>
    <i name="e_0_energy">    -37.00926778 </i>
   </energy>
  </scstep>
  <scstep>
   <time name="dav">    0.28    0.29</time>
   <time name="total">    0.36    0.37</time>
   <energy>
    <i name="e_fr_energy">    -37.02006625 </i>
    <i name="e_wo_entrp">    -36.99690073 </i>
    <i name="e_0_energy">    -37.01234441 </i>
   </energy>
  </scstep>
  <scstep>
   <time name="dav">    0.28    0.28</time>
   <time name="total">    0.36    0.38</time>
   <energy>
    <i name="e_fr_energy">    -37.01787446 </i>
    <i name="e_wo_entrp">    -36.99059223 </i>
    <i name="e_0_energy">    -37.00878038 </i>
   </energy>
  </scstep>
  <scstep>
   <time name="dav">    0.26    0.27</time>
   <time name="total">    0.34    0.35</time>
   <energy>
    <i name="e_fr_energy">    -37.01795394 </i>
    <i name="e_wo_entrp">    -36.99202596 </i>
    <i name="e_0_energy">    -37.00931128 </i>
   </energy>
  </scstep>
  <scstep>
   <time name="dav">    0.19    0.19</time>
   <time name="total">    0.21    0.22</time>
   <energy>
    <i name="alphaZ">    285.34744303 </i>
    <i name="ewald">  52463.02779314 </i>
    <i name="hartreedc"> -63407.48611766 </i>
    <i name="XCdc">    362.87856661 </i>
    <i name="pawpsdc">  10574.85048808 </i>
    <i name="pawaedc"> -11437.05192724 </i>
    <i name="eentropy">     -0.02630763 </i>
    <i name="bandstr">    -31.17633579 </i>
    <i name="atom">  11152.61838693 </i>
    <i name="e_fr_energy">    -37.01801052 </i>
    <i name="e_wo_entrp">    -36.99170290 </i>
    <i name="e_0_energy">    -37.00924132 </i>
   </energy>
  </scstep>
  <structure>
   <crystal>
    <varray name="basis" >
     <v>       2.56679773       0.00000000       0.00000000 </v>
     <v>       1.28339887       2.22291204       0.00000000 </v>
     <v>       0.00000000       0.00000000      29.67047119 </v>
    </varray>
    <i name="volume">    169.29275369 </i>
    <varray name="rec_basis" >
     <v>       0.38959050      -0.22493018       0.00000000 </v>
     <v>       0.00000000       0.44986035       0.00000000 </v>
     <v>       0.00000000       0.00000000       0.03370354 </v>
    </varray>
   </crystal>
   <varray name="positions" >
    <v>      -0.00000000       0.00000000       0.00076632 </v>
    <v>       0.33333333       0.33333333       0.06998997 </v>
    <v>       0.66666667       0.66666667       0.13909708 </v>
    <v>      -0.00000000       0.00000000       0.20816062 </v>
    <v>       0.33333333       0.33333333       0.27652885 </v>
    <v>       0.66666667       0.66666667       0.34552745 </v>
    <v>       0.00000000       0.00000000       0.41385577 </v>
    <v>       0.33333333       0.33333333       0.48044045 </v>
    <v>       0.00000000       1.00000000       0.53321077 </v>
    <v>       0.00000000       1.00000000       0.56149185 </v>
   </varray>
  </structure>
  <varray name="forces" >
   <v>       0.00000000       0.00000000       0.30415855 </v>
   <v>       0.00000000       0.00000000      -0.14237845 </v>
   <v>      -0.00000000      -0.00000000      -0.07038071 </v>
   <v>       0.00000000       0.00000000      -0.00817932 </v>
   <v>      -0.00000000      -0.00000000      -0.01428229 </v>
   <v>       0.00000000       0.00000000      -0.04905470 </v>
   <v>       0.00000000      -0.00000000      -0.20483442 </v>
   <v>      -0.00000000      -0.00000000      -0.26354463 </v>
   <v>       0.00000000       0.00000000       0.91691544 </v>
   <v>       0.00000000       0.00000000      -0.46841948 </v>
  </varray>
  <varray name="stress" >
   <v>     -44.43866909      -0.00000000      -0.00000000 </v>
   <v>      -0.00000000     -44.43866909       0.00000000 </v>
   <v>      -0.00000000       0.00000000     -11.98283524 </v>
  </varray>
  <energy>
   <i name="e_fr_energy">    -40.71391618 </i>
   <i name="e_wo_entrp">    -40.68760855 </i>
   <i name="e_0_energy">    -40.70514697 </i>
  </energy>
  <time name="totalsc">    3.07    3.18</time>
 </calculation>
 <calculation>
  <scstep>
   <time name="dav">    0.21    0.21</time>
   <time name="total">    0.29    0.29</time>
   <energy>
    <i name="alphaZ">    285.34744303 </i>
    <i name="ewald">  52371.81940765 </i>
    <i name="hartreedc"> -63316.14650804 </i>
    <i name="XCdc">    362.88653987 </i>
    <i name="pawpsdc">  10575.10134736 </i>
    <i name="pawaedc"> -11437.30617799 </i>
    <i name="eentropy">     -0.02586684 </i>
    <i name="bandstr">    -31.33836576 </i>
    <i name="atom">  11152.61838693 </i>
    <i name="e_fr_energy">    -37.04379380 </i>
    <i name="e_wo_entrp">    -37.01792695 </i>
    <i name="e_0_energy">    -37.03517152 </i>
   </energy>
  </scstep>
  <scstep>
   <time name="dav">    0.29    0.29</time>
   <time name="total">    0.37    0.37</time>
   <energy>
    <i name="e_fr_energy">    -37.04724274 </i>
    <i name="e_wo_entrp">    -37.02324908 </i>
    <i name="e_0_energy">    -37.03924485 </i>
   </energy>
  </scstep>
  <scstep>
   <time name="dav">    0.32    0.32</time>
   <time name="total">    0.40    0.40</time>
   <energy>
    <i name="e_fr_energy">    -37.04808446 </i>
    <i name="e_wo_entrp">    -37.01931922 </i>
    <i name="e_0_energy">    -37.03849605 </i>
   </energy>
  </scstep>
  <scstep>
   <time name="dav">    0.23    0.23</time>
   <time name="total">    0.31    0.31</time>
   <energy>
    <i name="e_fr_energy">    -37.04643808 </i>
    <i name="e_wo_entrp">    -37.02214407 </i>
    <i name="e_0_energy">    -37.03834007 </i>
   </energy>
  </scstep>
  <scstep>
   <time name="dav">    0.20    0.20</time>
   <time name="total">    0.28    0.28</time>
   <energy>
    <i name="e_fr_energy">    -37.04637708 </i>
    <i name="e_wo_entrp">    -37.01963577 </i>
    <i name="e_0_energy">    -37.03746331 </i>
   </energy>
  </scstep>
  <scstep>
   <time name="dav">    0.19    0.19</time>
   <time name="total">    0.27    0.27</time>
   <energy>
    <i name="e_fr_energy">    -37.04606527 </i>
    <i name="e_wo_entrp">    -37.02052254 </i>
    <i name="e_0_energy">    -37.03755102 </i>
   </energy>
  </scstep>
  <scstep>
   <time name="dav">    0.16    0.16</time>
   <time name="total">    0.18    0.19</time>
   <energy>
    <i name="alphaZ">    285.34744303 </i>
    <i name="ewald">  52371.81940765 </i>
    <i name="hartreedc"> -63319.09300627 </i>
    <i name="XCdc">    362.93537282 </i>
    <i name="pawpsdc">  10574.00976628 </i>
    <i name="pawaedc"> -11436.17399257 </i>
    <i name="eentropy">     -0.02575800 </i>
    <i name="bandstr">    -28.48370536 </i>
    <i name="atom">  11152.61838693 </i>
    <i name="e_fr_energy">    -37.04608549 </i>
    <i name="e_wo_entrp">    -37.02032749 </i>
    <i name="e_0_energy">    -37.03749949 </i>
   </energy>
  </scstep>
  <structure>
   <crystal>
    <varray name="basis" >
     <v>       2.56679773       0.00000000       0.00000000 </v>
     <v>       1.28339887       2.22291204       0.00000000 </v>
     <v>       0.00000000       0.00000000      29.67047119 </v>
    </varray>
    <i name="volume">    169.29275369 </i>
    <varray name="rec_basis" >
     <v>       0.38959050      -0.22493018       0.00000000 </v>
     <v>       0.00000000       0.44986035       0.00000000 </v>
     <v>       0.00000000       0.00000000       0.03370354 </v>
    </varray>
   </crystal>
   <varray name="positions" >
    <v>      -0.00000000       0.00000000       0.00045170 </v>
    <v>       0.33333333       0.33333333       0.07025490 </v>
    <v>       0.66666667       0.66666667       0.13909251 </v>
    <v>      -0.00000000       0.00000000       0.20816246 </v>
    <v>       0.33333333       0.33333333       0.27654262 </v>
    <v>       0.66666667       0.66666667       0.34554095 </v>
    <v>       0.00000000       0.00000000       0.41391742 </v>
    <v>       0.33333333       0.33333333       0.48083140 </v>
    <v>       0.00000000       1.00000000       0.53364125 </v>
    <v>       0.00000000       1.00000000       0.56063390 </v>
   </varray>
  </structure>
  <varray name="forces" >
   <v>      -0.00000000       0.00000000       0.36561475 </v>
   <v>      -0.00000000      -0.00000000      -0.25116907 </v>
   <v>       0.00000000       0.00000000      -0.03956706 </v>
   <v>      -0.00000000       0.00000000      -0.00608794 </v>
   <v>       0.00000000      -0.00000000      -0.01661175 </v>
   <v>      -0.00000000       0.00000000      -0.03098262 </v>
   <v>       0.00000000       0.00000000      -0.15469293 </v>
   <v>      -0.00000000       0.00000000      -0.38850731 </v>
   <v>      -0.00000000      -0.00000000       0.62741089 </v>
   <v>      -0.00000000      -0.00000000      -0.10540696 </v>
  </varray>
  <varray name="stress" >
   <v>     -46.16020355      -0.00000000      -0.00000000 </v>
   <v>      -0.00000000     -46.16020355       0.00000000 </v>
   <v>      -0.00000000      -0.00000000     -11.85553696 </v>
  </varray>
  <energy>
   <i name="e_fr_energy">    -40.72373296 </i>
   <i name="e_wo_entrp">    -40.69797496 </i>
   <i name="e_0_energy">    -40.71514696 </i>
  </energy>
  <time name="totalsc">    2.50    2.57</time>
 </calculation>
 <calculation>
  <scstep>
   <time name="dav">    0.21    0.21</time>
   <time name="total">    0.28    0.29</time>
   <energy>
    <i name="alphaZ">    285.34744303 </i>
    <i name="ewald">  52592.68114358 </i>
    <i name="hartreedc"> -63539.66402713 </i>
    <i name="XCdc">    362.98428194 </i>
    <i name="pawpsdc">  10574.00283126 </i>
    <i name="pawaedc"> -11436.16392114 </i>
    <i name="eentropy">     -0.02466150 </i>
    <i name="bandstr">    -28.83945301 </i>
    <i name="atom">  11152.61838693 </i>
    <i name="e_fr_energy">    -37.05797603 </i>
    <i name="e_wo_entrp">    -37.03331453 </i>
    <i name="e_0_energy">    -37.04975553 </i>
   </energy>
  </scstep>
  <scstep>
   <time name="dav">    0.29    0.30</time>
   <time name="total">    0.37    0.37</time>
   <energy>
    <i name="e_fr_energy">    -37.07753832 </i>
    <i name="e_wo_entrp">    -37.04601289 </i>
    <i name="e_0_energy">    -37.06702984 </i>
   </energy>
  </scstep>
  <scstep>
   <time name="dav">    0.31    0.31</time>
   <time name="total">    0.39    0.39</time>
   <energy>
    <i name="e_fr_energy">    -37.07340769 </i>
    <i name="e_wo_entrp">    -37.04986318 </i>
    <i name="e_0_energy">    -37.06555952 </i>
   </energy>
  </scstep>
  <scstep>
   <time name="dav">    0.27    0.28</time>
   <time name="total">    0.35    0.35</time>
   <energy>
    <i name="e_fr_energy">    -37.07239497 </i>
    <i name="e_wo_entrp">    -37.04687545 </i>
    <i name="e_0_energy">    -37.06388846 </i>
   </energy>
  </scstep>
  <scstep>
   <time name="dav">    0.22    0.22</time>
   <time name="total">    0.29    0.30</time>
   <energy>
    <i name="e_fr_energy">    -37.07239881 </i>
    <i name="e_wo_entrp">    -37.04582395 </i>
    <i name="e_0_energy">    -37.06354052 </i>
   </energy>
  </scstep>
  <scstep>
   <time name="dav">    0.25    0.25</time>
   <time name="total">    0.33    0.33</time>
   <energy>
    <i name="e_fr_energy">    -37.07216948 </i>
    <i name="e_wo_entrp">    -37.04632329 </i>
    <i name="e_0_energy">    -37.06355408 </i>
   </energy>
  </scstep>
  <scstep>
   <time name="dav">    0.17    0.18</time>
   <time name="total">    0.20    0.20</time>
   <energy>
    <i name="alphaZ">    285.34744303 </i>
    <i name="ewald">  52592.68114358 </i>
    <i name="hartreedc"> -63539.41601123 </i>
    <i name="XCdc">    362.98189607 </i>
    <i name="pawpsdc">  10582.32421071 </i>
    <i name="pawaedc"> -11444.62833433 </i>
    <i name="eentropy">     -0.02576705 </i>
    <i name="bandstr">    -28.95503987 </i>
    <i name="atom">  11152.61838693 </i>
    <i name="e_fr_energy">    -37.07207215 </i>
    <i name="e_wo_entrp">    -37.04630510 </i>
    <i name="e_0_energy">    -37.06348313 </i>
   </energy>
  </scstep>
  <structure>
   <crystal>
    <varray name="basis" >
     <v>       2.56679773       0.00000000       0.00000000 </v>
     <v>       1.28339887       2.22291204       0.00000000 </v>
     <v>       0.00000000       0.00000000      29.67047119 </v>
    </varray>
    <i name="volume">    169.29275369 </i>
    <varray name="rec_basis" >
     <v>       0.38959050      -0.22493018       0.00000000 </v>
     <v>       0.00000000       0.44986035       0.00000000 </v>
     <v>       0.00000000       0.00000000       0.03370354 </v>
    </varray>
   </crystal>
   <varray name="positions" >
    <v>      -0.00000000       0.00000000       0.00119955 </v>
    <v>       0.33333333       0.33333333       0.06970979 </v>
    <v>       0.66666667       0.66666667       0.13903640 </v>
    <v>      -0.00000000       0.00000000       0.20815219 </v>
    <v>       0.33333333       0.33333333       0.27650898 </v>
    <v>       0.66666667       0.66666667       0.34548604 </v>
    <v>       0.00000000       0.00000000       0.41364693 </v>
    <v>       0.33333333       0.33333333       0.48000033 </v>
    <v>       0.00000000       1.00000000       0.53430097 </v>
    <v>       0.00000000       1.00000000       0.56102794 </v>
   </varray>
  </structure>
  <varray name="forces" >
   <v>      -0.00000000       0.00000000       0.21057211 </v>
   <v>       0.00000000       0.00000000      -0.02228911 </v>
   <v>       0.00000000       0.00000000      -0.08593637 </v>
   <v>      -0.00000000       0.00000000      -0.01488947 </v>
   <v>       0.00000000       0.00000000      -0.01842973 </v>
   <v>      -0.00000000       0.00000000      -0.07253756 </v>
   <v>      -0.00000000       0.00000000      -0.21983255 </v>
   <v>      -0.00000000      -0.00000000      -0.25503907 </v>
   <v>       0.00000000       0.00000000       0.53501822 </v>
   <v>       0.00000000       0.00000000      -0.05663647 </v>
  </varray>
  <varray name="stress" >
   <v>     -44.69904837      -0.00000000      -0.00000000 </v>
   <v>      -0.00000000     -44.69904837      -0.00000000 </v>
   <v>      -0.00000000      -0.00000000      -7.02219084 </v>
  </varray>
  <energy>
   <i name="e_fr_energy">    -40.75220082 </i>
   <i name="e_wo_entrp">    -40.72643378 </i>
   <i name="e_0_energy">    -40.74361181 </i>
  </energy>
  <time name="totalsc">    2.62    2.67</time>
 </calculation>
 <calculation>
  <scstep>
   <time name="dav">    0.21    0.21</time>
   <time name="total">    0.29    0.29</time>
   <energy>
    <i name="alphaZ">    285.34744303 </i>
    <i name="ewald">  53062.49925070 </i>
    <i name="hartreedc"> -64008.42378574 </i>
    <i name="XCdc">    363.10735289 </i>
    <i name="pawpsdc">  10582.48266233 </i>
    <i name="pawaedc"> -11444.79006299 </i>
    <i name="eentropy">     -0.02327046 </i>
    <i name="bandstr">    -29.83460608 </i>
    <i name="atom">  11152.61838693 </i>
    <i name="e_fr_energy">    -37.01662940 </i>
    <i name="e_wo_entrp">    -36.99335893 </i>
    <i name="e_0_energy">    -37.00887258 </i>
   </energy>
  </scstep>
  <scstep>
   <time name="dav">    0.29    0.29</time>
   <time name="total">    0.37    0.37</time>
   <energy>
    <i name="e_fr_energy">    -37.10919069 </i>
    <i name="e_wo_entrp">    -37.07430680 </i>
    <i name="e_0_energy">    -37.09756273 </i>
   </energy>
  </scstep>
  <scstep>
   <time name="dav">    0.30    0.31</time>
   <time name="total">    0.38    0.38</time>
   <energy>
    <i name="e_fr_energy">    -37.09233541 </i>
    <i name="e_wo_entrp">    -37.07123501 </i>
    <i name="e_0_energy">    -37.08530194 </i>
   </energy>
  </scstep>
  <scstep>
   <time name="dav">    0.30    0.30</time>
   <time name="total">    0.37    0.37</time>
   <energy>
    <i name="e_fr_energy">    -37.08643506 </i>
    <i name="e_wo_entrp">    -37.06213769 </i>
    <i name="e_0_energy">    -37.07833594 </i>
   </energy>
  </scstep>
  <scstep>
   <time name="dav">    0.29    0.29</time>
   <time name="total">    0.36    0.37</time>
   <energy>
    <i name="e_fr_energy">    -37.08652462 </i>
    <i name="e_wo_entrp">    -37.05988436 </i>
    <i name="e_0_energy">    -37.07764453 </i>
   </energy>
  </scstep>
  <scstep>
   <time name="dav">    0.27    0.27</time>
   <time name="total">    0.34    0.34</time>
   <energy>
    <i name="e_fr_energy">    -37.08525075 </i>
    <i name="e_wo_entrp">    -37.05901738 </i>
    <i name="e_0_energy">    -37.07650629 </i>
   </energy>
  </scstep>
  <scstep>
   <time name="dav">    0.32    0.32</time>
   <time name="total">    0.39    0.40</time>
   <energy>
    <i name="e_fr_energy">    -37.08493005 </i>
    <i name="e_wo_entrp">    -37.05898804 </i>
    <i name="e_0_energy">    -37.07628272 </i>
   </energy>
  </scstep>
  <scstep>
   <time name="dav">    0.20    0.20</time>
   <time name="total">    0.23    0.23</time>
   <energy>
    <i name="alphaZ">    285.34744303 </i>
    <i name="ewald">  53062.49925070 </i>
    <i name="hartreedc"> -64007.86936150 </i>
    <i name="XCdc">    363.09271462 </i>
    <i name="pawpsdc">  10603.70930960 </i>
    <i name="pawaedc"> -11466.36725757 </i>
    <i name="eentropy">     -0.02521154 </i>
    <i name="bandstr">    -30.09015537 </i>
    <i name="atom">  11152.61838693 </i>
    <i name="e_fr_energy">    -37.08488110 </i>
    <i name="e_wo_entrp">    -37.05966956 </i>
    <i name="e_0_energy">    -37.07647725 </i>
   </energy>
  </scstep>
  <structure>
   <crystal>
    <varray name="basis" >
     <v>       2.56679773       0.00000000       0.00000000 </v>
     <v>       1.28339887       2.22291204       0.00000000 </v>
     <v>       0.00000000       0.00000000      29.67047119 </v>
    </varray>
    <i name="volume">    169.29275369 </i>
    <varray name="rec_basis" >
     <v>       0.38959050      -0.22493018       0.00000000 </v>
     <v>       0.00000000       0.44986035       0.00000000 </v>
     <v>       0.00000000       0.00000000       0.03370354 </v>
    </varray>
   </crystal>
   <varray name="positions" >
    <v>      -0.00000000       0.00000000       0.00277561 </v>
    <v>       0.33333333       0.33333333       0.06856099 </v>
    <v>       0.66666667       0.66666667       0.13891815 </v>
    <v>      -0.00000000       0.00000000       0.20813054 </v>
    <v>       0.33333333       0.33333333       0.27643808 </v>
    <v>       0.66666667       0.66666667       0.34537030 </v>
    <v>       0.00000000       0.00000000       0.41307689 </v>
    <v>       0.33333333       0.33333333       0.47824889 </v>
    <v>       0.00000000       1.00000000       0.53569132 </v>
    <v>       0.00000000       1.00000000       0.56185837 </v>
   </varray>
  </structure>
  <varray name="forces" >
   <v>       0.00000000       0.00000000      -0.23025003 </v>
   <v>       0.00000000       0.00000000       0.52467585 </v>
   <v>      -0.00000000      -0.00000000      -0.18799524 </v>
   <v>       0.00000000       0.00000000      -0.04258019 </v>
   <v>       0.00000000       0.00000000      -0.02747382 </v>
   <v>      -0.00000000      -0.00000000      -0.13222986 </v>
   <v>       0.00000000       0.00000000      -0.33784673 </v>
   <v>       0.00000000      -0.00000000       0.06229877 </v>
   <v>       0.00000000       0.00000000       0.25917419 </v>
   <v>       0.00000000       0.00000000       0.11222707 </v>
  </varray>
  <varray name="stress" >
   <v>     -41.80102989      -0.00000000      -0.00000000 </v>
   <v>      -0.00000000     -41.80102989       0.00000000 </v>
   <v>       0.00000000       0.00000000       3.81370159 </v>
  </varray>
  <energy>
   <i name="e_fr_energy">    -40.77105533 </i>
   <i name="e_wo_entrp">    -40.74584379 </i>
   <i name="e_0_energy">    -40.76265148 </i>
  </energy>
  <time name="totalsc">    3.14    3.17</time>
 </calculation>
 <calculation>
  <scstep>
   <time name="dav">    0.21    0.21</time>
   <time name="total">    0.29    0.29</time>
   <energy>
    <i name="alphaZ">    285.34744303 </i>
    <i name="ewald">  52972.40383935 </i>
    <i name="hartreedc"> -63918.22732313 </i>
    <i name="XCdc">    363.06767141 </i>
    <i name="pawpsdc">  10603.75226821 </i>
    <i name="pawaedc"> -11466.40253930 </i>
    <i name="eentropy">     -0.02611797 </i>
    <i name="bandstr">    -29.61863888 </i>
    <i name="atom">  11152.61838693 </i>
    <i name="e_fr_energy">    -37.08501034 </i>
    <i name="e_wo_entrp">    -37.05889237 </i>
    <i name="e_0_energy">    -37.07630435 </i>
   </energy>
  </scstep>
  <scstep>
   <time name="dav">    0.30    0.30</time>
   <time name="total">    0.38    0.38</time>
   <energy>
    <i name="e_fr_energy">    -37.08799287 </i>
    <i name="e_wo_entrp">    -37.06494062 </i>
    <i name="e_0_energy">    -37.08030879 </i>
   </energy>
  </scstep>
  <scstep>
   <time name="dav">    0.28    0.28</time>
   <time name="total">    0.35    0.36</time>
   <energy>
    <i name="e_fr_energy">    -37.08730097 </i>
    <i name="e_wo_entrp">    -37.06156087 </i>
    <i name="e_0_energy">    -37.07872094 </i>
   </energy>
  </scstep>
  <scstep>
   <time name="dav">    0.19    0.19</time>
   <time name="total">    0.22    0.22</time>
   <energy>
    <i name="alphaZ">    285.34744303 </i>
    <i name="ewald">  52972.40383935 </i>
    <i name="hartreedc"> -63918.41504918 </i>
    <i name="XCdc">    363.06586038 </i>
    <i name="pawpsdc">  10601.52395373 </i>
    <i name="pawaedc"> -11464.11211621 </i>
    <i name="eentropy">     -0.02542749 </i>
    <i name="bandstr">    -29.49415973 </i>
    <i name="atom">  11152.61838693 </i>
    <i name="e_fr_energy">    -37.08726920 </i>
    <i name="e_wo_entrp">    -37.06184171 </i>
    <i name="e_0_energy">    -37.07879337 </i>
   </energy>
  </scstep>
  <structure>
   <crystal>
    <varray name="basis" >
     <v>       2.56679773       0.00000000       0.00000000 </v>
     <v>       1.28339887       2.22291204       0.00000000 </v>
     <v>       0.00000000       0.00000000      29.67047119 </v>
    </varray>
    <i name="volume">    169.29275369 </i>
    <varray name="rec_basis" >
     <v>       0.38959050      -0.22493018       0.00000000 </v>
     <v>       0.00000000       0.44986035       0.00000000 </v>
     <v>       0.00000000       0.00000000       0.03370354 </v>
    </varray>
   </crystal>
   <varray name="positions" >
    <v>      -0.00000000       0.00000000       0.00247490 </v>
    <v>       0.33333333       0.33333333       0.06878018 </v>
    <v>       0.66666667       0.66666667       0.13894071 </v>
    <v>      -0.00000000       0.00000000       0.20813467 </v>
    <v>       0.33333333       0.33333333       0.27645161 </v>
    <v>       0.66666667       0.66666667       0.34539238 </v>
    <v>       0.00000000       0.00000000       0.41318565 </v>
    <v>       0.33333333       0.33333333       0.47858306 </v>
    <v>       0.00000000       1.00000000       0.53542604 </v>
    <v>       0.00000000       1.00000000       0.56169992 </v>
   </varray>
  </structure>
  <varray name="forces" >
   <v>       0.00000000      -0.00000000      -0.15691203 </v>
   <v>       0.00000000       0.00000000       0.42654507 </v>
   <v>      -0.00000000       0.00000000      -0.16631337 </v>
   <v>       0.00000000       0.00000000      -0.03317172 </v>
   <v>      -0.00000000       0.00000000      -0.02302575 </v>
   <v>      -0.00000000       0.00000000      -0.12012936 </v>
   <v>      -0.00000000       0.00000000      -0.31289389 </v>
   <v>       0.00000000      -0.00000000       0.00488133 </v>
   <v>       0.00000000       0.00000000       0.31084390 </v>
   <v>       0.00000000       0.00000000       0.07017583 </v>
  </varray>
  <varray name="stress" >
   <v>     -39.41379969      -0.00000000      -0.00000000 </v>
   <v>      -0.00000000     -39.41379969      -0.00000000 </v>
   <v>       0.00000000      -0.00000000       4.51746056 </v>
  </varray>
  <energy>
   <i name="e_fr_energy">    -40.77220218 </i>
   <i name="e_wo_entrp">    -40.74677469 </i>
   <i name="e_0_energy">    -40.76372635 </i>
  </energy>
  <time name="totalsc">    1.64    1.70</time>
 </calculation>
 <calculation>
  <scstep>
   <time name="dav">    0.21    0.21</time>
   <time name="total">    0.28    0.29</time>
   <energy>
    <i name="alphaZ">    285.34744303 </i>
    <i name="ewald">  53219.33822085 </i>
    <i name="hartreedc"> -64164.82252021 </i>
    <i name="XCdc">    363.08238903 </i>
    <i name="pawpsdc">  10600.63341733 </i>
    <i name="pawaedc"> -11463.19809379 </i>
    <i name="eentropy">     -0.02485652 </i>
    <i name="bandstr">    -30.06316790 </i>
    <i name="atom">  11152.61838693 </i>
    <i name="e_fr_energy">    -37.08878126 </i>
    <i name="e_wo_entrp">    -37.06392473 </i>
    <i name="e_0_energy">    -37.08049575 </i>
   </energy>
  </scstep>
  <scstep>
   <time name="dav">    0.26    0.26</time>
   <time name="total">    0.33    0.33</time>
   <energy>
    <i name="e_fr_energy">    -37.10386327 </i>
    <i name="e_wo_entrp">    -37.07833852 </i>
    <i name="e_0_energy">    -37.09535502 </i>
   </energy>
  </scstep>
  <scstep>
   <time name="dav">    0.24    0.25</time>
   <time name="total">    0.32    0.32</time>
   <energy>
    <i name="e_fr_energy">    -37.10369131 </i>
    <i name="e_wo_entrp">    -37.07990709 </i>
    <i name="e_0_energy">    -37.09576324 </i>
   </energy>
  </scstep>
  <scstep>
   <time name="dav">    0.21    0.21</time>
   <time name="total">    0.28    0.28</time>
   <energy>
    <i name="e_fr_energy">    -37.10369929 </i>
    <i name="e_wo_entrp">    -37.07709067 </i>
    <i name="e_0_energy">    -37.09482975 </i>
   </energy>
  </scstep>
  <scstep>
   <time name="dav">    0.18    0.18</time>
   <time name="total">    0.26    0.26</time>
   <energy>
    <i name="e_fr_energy">    -37.10303137 </i>
    <i name="e_wo_entrp">    -37.07894232 </i>
    <i name="e_0_energy">    -37.09500169 </i>
   </energy>
  </scstep>
  <scstep>
   <time name="dav">    0.20    0.20</time>
   <time name="total">    0.28    0.28</time>
   <energy>
    <i name="e_fr_energy">    -37.10278353 </i>
    <i name="e_wo_entrp">    -37.07746858 </i>
    <i name="e_0_energy">    -37.09434521 </i>
   </energy>
  </scstep>
  <scstep>
   <time name="dav">    0.19    0.19</time>
   <time name="total">    0.22    0.22</time>
   <energy>
    <i name="alphaZ">    285.34744303 </i>
    <i name="ewald">  53219.33822085 </i>
    <i name="hartreedc"> -64164.79608226 </i>
    <i name="XCdc">    363.10748338 </i>
    <i name="pawpsdc">  10602.99689569 </i>
    <i name="pawaedc"> -11465.63068264 </i>
    <i name="eentropy">     -0.02491306 </i>
    <i name="bandstr">    -30.05957260 </i>
    <i name="atom">  11152.61838693 </i>
    <i name="e_fr_energy">    -37.10282069 </i>
    <i name="e_wo_entrp">    -37.07790763 </i>
    <i name="e_0_energy">    -37.09451634 </i>
   </energy>
  </scstep>
  <structure>
   <crystal>
    <varray name="basis" >
     <v>       2.56679773       0.00000000       0.00000000 </v>
     <v>       1.28339887       2.22291204       0.00000000 </v>
     <v>       0.00000000       0.00000000      29.67047119 </v>
    </varray>
    <i name="volume">    169.29275369 </i>
    <varray name="rec_basis" >
     <v>       0.38959050      -0.22493018       0.00000000 </v>
     <v>       0.00000000       0.44986035       0.00000000 </v>
     <v>       0.00000000       0.00000000       0.03370354 </v>
    </varray>
   </crystal>
   <varray name="positions" >
    <v>      -0.00000000       0.00000000       0.00263608 </v>
    <v>       0.33333333       0.33333333       0.06928749 </v>
    <v>       0.66666667       0.66666667       0.13857218 </v>
    <v>      -0.00000000       0.00000000       0.20806175 </v>
    <v>       0.33333333       0.33333333       0.27638415 </v>
    <v>       0.66666667       0.66666667       0.34511705 </v>
    <v>       0.00000000       0.00000000       0.41238751 </v>
    <v>       0.33333333       0.33333333       0.47806471 </v>
    <v>       0.00000000       1.00000000       0.53646743 </v>
    <v>       0.00000000       1.00000000       0.56209078 </v>
   </varray>
  </structure>
  <varray name="forces" >
   <v>      -0.00000000      -0.00000000      -0.09492956 </v>
   <v>       0.00000000       0.00000000       0.24684468 </v>
   <v>      -0.00000000      -0.00000000      -0.02332012 </v>
   <v>       0.00000000       0.00000000      -0.06729154 </v>
   <v>       0.00000000       0.00000000      -0.05626761 </v>
   <v>      -0.00000000      -0.00000000      -0.16944576 </v>
   <v>       0.00000000       0.00000000      -0.16603687 </v>
   <v>      -0.00000000       0.00000000      -0.03238491 </v>
   <v>       0.00000000       0.00000000      -0.12738998 </v>
   <v>       0.00000000       0.00000000       0.49022166 </v>
  </varray>
  <varray name="stress" >
   <v>     -42.38382255      -0.00000000      -0.00000000 </v>
   <v>      -0.00000000     -42.38382254       0.00000000 </v>
   <v>      -0.00000000       0.00000000       5.44990079 </v>
  </varray>
  <energy>
   <i name="e_fr_energy">    -40.79159192 </i>
   <i name="e_wo_entrp">    -40.76667886 </i>
   <i name="e_0_energy">    -40.78328757 </i>
  </energy>
  <time name="totalsc">    2.36    2.40</time>
 </calculation>
 <calculation>
  <scstep>
   <time name="dav">    0.21    0.21</time>
   <time name="total">    0.29    0.29</time>
   <energy>
    <i name="alphaZ">    285.34744303 </i>
    <i name="ewald">  53406.72444586 </i>
    <i name="hartreedc"> -64352.17939624 </i>
    <i name="XCdc">    363.12393815 </i>
    <i name="pawpsdc">  10603.00792647 </i>
    <i name="pawaedc"> -11465.64058362 </i>
    <i name="eentropy">     -0.02484141 </i>
    <i name="bandstr">    -30.07302584 </i>
    <i name="atom">  11152.61838693 </i>
    <i name="e_fr_energy">    -37.09570667 </i>
    <i name="e_wo_entrp">    -37.07086525 </i>
    <i name="e_0_energy">    -37.08742619 </i>
   </energy>
  </scstep>
  <scstep>
   <time name="dav">    0.26    0.27</time>
   <time name="total">    0.34    0.34</time>
   <energy>
    <i name="e_fr_energy">    -37.10392885 </i>
    <i name="e_wo_entrp">    -37.07994734 </i>
    <i name="e_0_energy">    -37.09593501 </i>
   </energy>
  </scstep>
  <scstep>
   <time name="dav">    0.24    0.24</time>
   <time name="total">    0.31    0.32</time>
   <energy>
    <i name="e_fr_energy">    -37.10375773 </i>
    <i name="e_wo_entrp">    -37.07916140 </i>
    <i name="e_0_energy">    -37.09555895 </i>
   </energy>
  </scstep>
  <scstep>
   <time name="dav">    0.20    0.20</time>
   <time name="total">    0.28    0.28</time>
   <energy>
    <i name="e_fr_energy">    -37.10370305 </i>
    <i name="e_wo_entrp">    -37.07909664 </i>
    <i name="e_0_energy">    -37.09550091 </i>
   </energy>
  </scstep>
  <scstep>
   <time name="dav">    0.17    0.17</time>
   <time name="total">    0.25    0.25</time>
   <energy>
    <i name="e_fr_energy">    -37.10407310 </i>
    <i name="e_wo_entrp">    -37.08171281 </i>
    <i name="e_0_energy">    -37.09661967 </i>
   </energy>
  </scstep>
  <scstep>
   <time name="dav">    0.18    0.18</time>
   <time name="total">    0.25    0.25</time>
   <energy>
    <i name="e_fr_energy">    -37.10340416 </i>
    <i name="e_wo_entrp">    -37.07809907 </i>
    <i name="e_0_energy">    -37.09496913 </i>
   </energy>
  </scstep>
  <scstep>
   <time name="dav">    0.16    0.16</time>
   <time name="total">    0.18    0.18</time>
   <energy>
    <i name="alphaZ">    285.34744303 </i>
    <i name="ewald">  53406.72444586 </i>
    <i name="hartreedc"> -64351.90212334 </i>
    <i name="XCdc">    363.13780375 </i>
    <i name="pawpsdc">  10606.01022391 </i>
    <i name="pawaedc"> -11468.66279900 </i>
    <i name="eentropy">     -0.02444162 </i>
    <i name="bandstr">    -30.35226287 </i>
    <i name="atom">  11152.61838693 </i>
    <i name="e_fr_energy">    -37.10332334 </i>
    <i name="e_wo_entrp">    -37.07888173 </i>
    <i name="e_0_energy">    -37.09517614 </i>
   </energy>
  </scstep>
  <structure>
   <crystal>
    <varray name="basis" >
     <v>       2.56679773       0.00000000       0.00000000 </v>
     <v>       1.28339887       2.22291204       0.00000000 </v>
     <v>       0.00000000       0.00000000      29.67047119 </v>
    </varray>
    <i name="volume">    169.29275369 </i>
    <varray name="rec_basis" >
     <v>       0.38959050      -0.22493018       0.00000000 </v>
     <v>       0.00000000       0.44986035       0.00000000 </v>
     <v>       0.00000000       0.00000000       0.03370354 </v>
    </varray>
   </crystal>
   <varray name="positions" >
    <v>      -0.00000000       0.00000000       0.00275789 </v>
    <v>       0.33333333       0.33333333       0.06967087 </v>
    <v>       0.66666667       0.66666667       0.13829368 </v>
    <v>      -0.00000000       0.00000000       0.20800665 </v>
    <v>       0.33333333       0.33333333       0.27633316 </v>
    <v>       0.66666667       0.66666667       0.34490897 </v>
    <v>       0.00000000       0.00000000       0.41178434 </v>
    <v>       0.33333333       0.33333333       0.47767298 </v>
    <v>       0.00000000       1.00000000       0.53725442 </v>
    <v>       0.00000000       1.00000000       0.56238616 </v>
   </varray>
  </structure>
  <varray name="forces" >
   <v>      -0.00000000      -0.00000000      -0.05038466 </v>
   <v>      -0.00000000      -0.00000000       0.10493778 </v>
   <v>       0.00000000      -0.00000000       0.10219186 </v>
   <v>      -0.00000000       0.00000000      -0.09425716 </v>
   <v>      -0.00000000       0.00000000      -0.09006213 </v>
   <v>      -0.00000000       0.00000000      -0.21236660 </v>
   <v>      -0.00000000       0.00000000      -0.05099280 </v>
   <v>       0.00000000      -0.00000000      -0.05132022 </v>
   <v>      -0.00000000       0.00000000      -0.53876843 </v>
   <v>      -0.00000000       0.00000000       0.88102238 </v>
  </varray>
  <varray name="stress" >
   <v>     -38.54886683      -0.00000000      -0.00000000 </v>
   <v>      -0.00000000     -38.54886682       0.00000000 </v>
   <v>       0.00000000       0.00000000      12.86271411 </v>
  </varray>
  <energy>
   <i name="e_fr_energy">    -40.79571982 </i>
   <i name="e_wo_entrp">    -40.77127820 </i>
   <i name="e_0_energy">    -40.78757261 </i>
  </energy>
  <time name="totalsc">    2.30    2.39</time>
 </calculation>
 <calculation>
  <scstep>
   <time name="dav">    0.21    0.21</time>
   <time name="total">    0.28    0.29</time>
   <energy>
    <i name="alphaZ">    285.34744303 </i>
    <i name="ewald">  53506.51968793 </i>
    <i name="hartreedc"> -64451.97691195 </i>
    <i name="XCdc">    363.13767311 </i>
    <i name="pawpsdc">  10606.09938174 </i>
    <i name="pawaedc"> -11468.76465333 </i>
    <i name="eentropy">     -0.02480149 </i>
    <i name="bandstr">    -30.06370948 </i>
    <i name="atom">  11152.61838693 </i>
    <i name="e_fr_energy">    -37.10750351 </i>
    <i name="e_wo_entrp">    -37.08270203 </i>
    <i name="e_0_energy">    -37.09923635 </i>
   </energy>
  </scstep>
  <scstep>
   <time name="dav">    0.26    0.26</time>
   <time name="total">    0.33    0.34</time>
   <energy>
    <i name="e_fr_energy">    -37.10961749 </i>
    <i name="e_wo_entrp">    -37.08570687 </i>
    <i name="e_0_energy">    -37.10164729 </i>
   </energy>
  </scstep>
  <scstep>
   <time name="dav">    0.19    0.19</time>
   <time name="total">    0.22    0.22</time>
   <energy>
    <i name="alphaZ">    285.34744303 </i>
    <i name="ewald">  53506.51968793 </i>
    <i name="hartreedc"> -64451.63979096 </i>
    <i name="XCdc">    363.13200323 </i>
    <i name="pawpsdc">  10606.33481822 </i>
    <i name="pawaedc"> -11468.98792199 </i>
    <i name="eentropy">     -0.02525408 </i>
    <i name="bandstr">    -30.40900232 </i>
    <i name="atom">  11152.61838693 </i>
    <i name="e_fr_energy">    -37.10963000 </i>
    <i name="e_wo_entrp">    -37.08437592 </i>
    <i name="e_0_energy">    -37.10121198 </i>
   </energy>
  </scstep>
  <structure>
   <crystal>
    <varray name="basis" >
     <v>       2.56679773       0.00000000       0.00000000 </v>
     <v>       1.28339887       2.22291204       0.00000000 </v>
     <v>       0.00000000       0.00000000      29.67047119 </v>
    </varray>
    <i name="volume">    169.29275369 </i>
    <varray name="rec_basis" >
     <v>       0.38959050      -0.22493018       0.00000000 </v>
     <v>       0.00000000       0.44986035       0.00000000 </v>
     <v>       0.00000000       0.00000000       0.03370354 </v>
    </varray>
   </crystal>
   <varray name="positions" >
    <v>       0.00000000       0.00000000       0.00280225 </v>
    <v>       0.33333333       0.33333333       0.06988300 </v>
    <v>       0.66666667       0.66666667       0.13818869 </v>
    <v>      -0.00000000       0.00000000       0.20795436 </v>
    <v>       0.33333333       0.33333333       0.27628400 </v>
    <v>       0.66666667       0.66666667       0.34475107 </v>
    <v>       0.00000000       0.00000000       0.41148201 </v>
    <v>       0.33333333       0.33333333       0.47747161 </v>
    <v>       0.00000000       1.00000000       0.53748229 </v>
    <v>       0.00000000       1.00000000       0.56276984 </v>
   </varray>
  </structure>
  <varray name="forces" >
   <v>      -0.00000000      -0.00000000      -0.03624972 </v>
   <v>      -0.00000000       0.00000000       0.03050566 </v>
   <v>       0.00000000       0.00000000       0.15067369 </v>
   <v>      -0.00000000      -0.00000000      -0.09359541 </v>
   <v>       0.00000000       0.00000000      -0.10086981 </v>
   <v>       0.00000000       0.00000000      -0.21900188 </v>
   <v>      -0.00000000      -0.00000000      -0.00934386 </v>
   <v>      -0.00000000       0.00000000      -0.05060580 </v>
   <v>       0.00000000       0.00000000      -0.39294578 </v>
   <v>      -0.00000000       0.00000000       0.72143289 </v>
  </varray>
  <varray name="stress" >
   <v>     -42.50108433      -0.00000000       0.00000000 </v>
   <v>      -0.00000000     -42.50108433       0.00000000 </v>
   <v>      -0.00000000       0.00000000       7.12925150 </v>
  </varray>
  <energy>
   <i name="e_fr_energy">    -40.80415652 </i>
   <i name="e_wo_entrp">    -40.77890244 </i>
   <i name="e_0_energy">    -40.79573849 </i>
  </energy>
  <time name="totalsc">    1.24    1.28</time>
 </calculation>
 <calculation>
  <scstep>
   <time name="dav">    0.21    0.22</time>
   <time name="total">    0.29    0.30</time>
   <energy>
    <i name="alphaZ">    285.34744303 </i>
    <i name="ewald">  53806.97346421 </i>
    <i name="hartreedc"> -64751.98900901 </i>
    <i name="XCdc">    363.13077244 </i>
    <i name="pawpsdc">  10606.31537025 </i>
    <i name="pawaedc"> -11468.96692363 </i>
    <i name="eentropy">     -0.02544556 </i>
    <i name="bandstr">    -30.50398245 </i>
    <i name="atom">  11152.61838693 </i>
    <i name="e_fr_energy">    -37.09992379 </i>
    <i name="e_wo_entrp">    -37.07447823 </i>
    <i name="e_0_energy">    -37.09144194 </i>
   </energy>
  </scstep>
  <scstep>
   <time name="dav">    0.26    0.27</time>
   <time name="total">    0.34    0.34</time>
   <energy>
    <i name="e_fr_energy">    -37.11814931 </i>
    <i name="e_wo_entrp">    -37.09415088 </i>
    <i name="e_0_energy">    -37.11014983 </i>
   </energy>
  </scstep>
  <scstep>
   <time name="dav">    0.26    0.27</time>
   <time name="total">    0.34    0.34</time>
   <energy>
    <i name="e_fr_energy">    -37.11834884 </i>
    <i name="e_wo_entrp">    -37.09485691 </i>
    <i name="e_0_energy">    -37.11051820 </i>
   </energy>
  </scstep>
  <scstep>
   <time name="dav">    0.25    0.25</time>
   <time name="total">    0.32    0.33</time>
   <energy>
    <i name="e_fr_energy">    -37.11756345 </i>
    <i name="e_wo_entrp">    -37.09177302 </i>
    <i name="e_0_energy">    -37.10896664 </i>
   </energy>
  </scstep>
  <scstep>
   <time name="dav">    0.28    0.28</time>
   <time name="total">    0.36    0.36</time>
   <energy>
    <i name="e_fr_energy">    -37.11796051 </i>
    <i name="e_wo_entrp">    -37.09671986 </i>
    <i name="e_0_energy">    -37.11088029 </i>
   </energy>
  </scstep>
  <scstep>
   <time name="dav">    0.25    0.25</time>
   <time name="total">    0.32    0.32</time>
   <energy>
    <i name="e_fr_energy">    -37.11660395 </i>
    <i name="e_wo_entrp">    -37.09184604 </i>
    <i name="e_0_energy">    -37.10835131 </i>
   </energy>
  </scstep>
  <scstep>
   <time name="dav">    0.22    0.23</time>
   <time name="total">    0.25    0.25</time>
   <energy>
    <i name="alphaZ">    285.34744303 </i>
    <i name="ewald">  53806.97346421 </i>
    <i name="hartreedc"> -64749.28635150 </i>
    <i name="XCdc">    363.10452450 </i>
    <i name="pawpsdc">  10609.25720375 </i>
    <i name="pawaedc"> -11472.00103423 </i>
    <i name="eentropy">     -0.02445774 </i>
    <i name="bandstr">    -33.10577480 </i>
    <i name="atom">  11152.61838693 </i>
    <i name="e_fr_energy">    -37.11659586 </i>
    <i name="e_wo_entrp">    -37.09213812 </i>
    <i name="e_0_energy">    -37.10844328 </i>
   </energy>
  </scstep>
  <structure>
   <crystal>
    <varray name="basis" >
     <v>       2.56679773       0.00000000       0.00000000 </v>
     <v>       1.28339887       2.22291204       0.00000000 </v>
     <v>       0.00000000       0.00000000      29.67047119 </v>
    </varray>
    <i name="volume">    169.29275369 </i>
    <varray name="rec_basis" >
     <v>       0.38959050      -0.22493018       0.00000000 </v>
     <v>       0.00000000       0.44986035       0.00000000 </v>
     <v>       0.00000000       0.00000000       0.03370354 </v>
    </varray>
   </crystal>
   <varray name="positions" >
    <v>       0.00000000       0.00000000       0.00293531 </v>
    <v>       0.33333333       0.33333333       0.07051940 </v>
    <v>       0.66666667       0.66666667       0.13787372 </v>
    <v>      -0.00000000       0.00000000       0.20779751 </v>
    <v>       0.33333333       0.33333333       0.27613653 </v>
    <v>       0.66666667       0.66666667       0.34427735 </v>
    <v>       0.00000000       0.00000000       0.41057501 </v>
    <v>       0.33333333       0.33333333       0.47686753 </v>
    <v>       0.00000000       1.00000000       0.53816591 </v>
    <v>       0.00000000       1.00000000       0.56392087 </v>
   </varray>
  </structure>
  <varray name="forces" >
   <v>      -0.00000000       0.00000000       0.05423878 </v>
   <v>      -0.00000000       0.00000000      -0.18058859 </v>
   <v>       0.00000000       0.00000000       0.30733823 </v>
   <v>      -0.00000000       0.00000000      -0.10543152 </v>
   <v>      -0.00000000       0.00000000      -0.14913192 </v>
   <v>       0.00000000       0.00000000      -0.24289734 </v>
   <v>      -0.00000000      -0.00000000       0.11450406 </v>
   <v>       0.00000000      -0.00000000      -0.05559068 </v>
   <v>      -0.00000000       0.00000000       0.02240556 </v>
   <v>      -0.00000000       0.00000000       0.23515342 </v>
  </varray>
  <varray name="stress" >
   <v>     -39.86365096      -0.00000000      -0.00000000 </v>
   <v>      -0.00000000     -39.86365096      -0.00000000 </v>
   <v>       0.00000000      -0.00000000       8.20618693 </v>
  </varray>
  <energy>
   <i name="e_fr_energy">    -40.81786971 </i>
   <i name="e_wo_entrp">    -40.79341197 </i>
   <i name="e_0_energy">    -40.80971713 </i>
  </energy>
  <time name="totalsc">    2.62    2.67</time>
 </calculation>
 <calculation>
  <scstep>
   <time name="dav">    0.21    0.22</time>
   <time name="total">    0.29    0.29</time>
   <energy>
    <i name="alphaZ">    285.34744303 </i>
    <i name="ewald">  53899.59365936 </i>
    <i name="hartreedc"> -64842.09527428 </i>
    <i name="XCdc">    363.10534596 </i>
    <i name="pawpsdc">  10609.38651191 </i>
    <i name="pawaedc"> -11472.13654460 </i>
    <i name="eentropy">     -0.02470388 </i>
    <i name="bandstr">    -32.90853219 </i>
    <i name="atom">  11152.61838693 </i>
    <i name="e_fr_energy">    -37.11370777 </i>
    <i name="e_wo_entrp">    -37.08900388 </i>
    <i name="e_0_energy">    -37.10547314 </i>
   </energy>
  </scstep>
  <scstep>
   <time name="dav">    0.26    0.27</time>
   <time name="total">    0.34    0.34</time>
   <energy>
    <i name="e_fr_energy">    -37.11557777 </i>
    <i name="e_wo_entrp">    -37.09188040 </i>
    <i name="e_0_energy">    -37.10767865 </i>
   </energy>
  </scstep>
  <scstep>
   <time name="dav">    0.20    0.21</time>
   <time name="total">    0.28    0.28</time>
   <energy>
    <i name="e_fr_energy">    -37.11560425 </i>
    <i name="e_wo_entrp">    -37.09061003 </i>
    <i name="e_0_energy">    -37.10727285 </i>
   </energy>
  </scstep>
  <scstep>
   <time name="dav">    0.17    0.17</time>
   <time name="total">    0.19    0.19</time>
   <energy>
    <i name="alphaZ">    285.34744303 </i>
    <i name="ewald">  53899.59365936 </i>
    <i name="hartreedc"> -64841.54957983 </i>
    <i name="XCdc">    363.09919278 </i>
    <i name="pawpsdc">  10609.75136387 </i>
    <i name="pawaedc"> -11472.49177933 </i>
    <i name="eentropy">     -0.02413985 </i>
    <i name="bandstr">    -33.46005540 </i>
    <i name="atom">  11152.61838693 </i>
    <i name="e_fr_energy">    -37.11550844 </i>
    <i name="e_wo_entrp">    -37.09136859 </i>
    <i name="e_0_energy">    -37.10746182 </i>
   </energy>
  </scstep>
  <structure>
   <crystal>
    <varray name="basis" >
     <v>       2.56679773       0.00000000       0.00000000 </v>
     <v>       1.28339887       2.22291204       0.00000000 </v>
     <v>       0.00000000       0.00000000      29.67047119 </v>
    </varray>
    <i name="volume">    169.29275369 </i>
    <varray name="rec_basis" >
     <v>       0.38959050      -0.22493018       0.00000000 </v>
[...]
       <r>    11.2045     3.1055    57.5487 </r>
       <r>    11.2948     1.2645    57.6628 </r>
       <r>    11.3851     0.0434    57.6667 </r>
       <r>    11.4754     0.5642    57.7177 </r>
       <r>    11.5656     2.3247    57.9275 </r>
       <r>    11.6559     3.9238    58.2817 </r>
       <r>    11.7462     4.1463    58.6560 </r>
       <r>    11.8364     2.8359    58.9120 </r>
       <r>    11.9267     0.9943    59.0018 </r>
       <r>    12.0170     0.0554    59.0068 </r>
       <r>    12.1073     0.6926    59.0693 </r>
       <r>    12.1975     2.1500    59.2634 </r>
       <r>    12.2878     2.6812    59.5054 </r>
       <r>    12.3781     1.6609    59.6554 </r>
       <r>    12.4683     0.3871    59.6903 </r>
       <r>    12.5586    -0.1172    59.6797 </r>
       <r>    12.6489    -0.1064    59.6701 </r>
       <r>    12.7392    -0.0324    59.6672 </r>
       <r>    12.8294    -0.0064    59.6666 </r>
       <r>    12.9197    -0.0076    59.6659 </r>
       <r>    13.0100    -0.0273    59.6635 </r>
       <r>    13.1002    -0.0456    59.6594 </r>
       <r>    13.1905     0.0567    59.6645 </r>
       <r>    13.2808     0.4194    59.7023 </r>
       <r>    13.3711     0.8370    59.7779 </r>
       <r>    13.4613     0.8363    59.8534 </r>
       <r>    13.5516     0.4182    59.8911 </r>
       <r>    13.6419     0.0561    59.8962 </r>
       <r>    13.7321    -0.0456    59.8921 </r>
       <r>    13.8224    -0.0272    59.8896 </r>
       <r>    13.9127    -0.0070    59.8890 </r>
       <r>    14.0030    -0.0010    59.8889 </r>
       <r>    14.0932    -0.0001    59.8889 </r>
       <r>    14.1835    -0.0000    59.8889 </r>
       <r>    14.2738    -0.0000    59.8889 </r>
       <r>    14.3640    -0.0000    59.8889 </r>
       <r>    14.4543    -0.0000    59.8889 </r>
       <r>    14.5446    -0.0000    59.8889 </r>
       <r>    14.6349    -0.0000    59.8889 </r>
       <r>    14.7251    -0.0000    59.8889 </r>
       <r>    14.8154    -0.0000    59.8889 </r>
       <r>    14.9057    -0.0000    59.8889 </r>
       <r>    14.9960    -0.0000    59.8889 </r>
       <r>    15.0862    -0.0000    59.8889 </r>
       <r>    15.1765    -0.0000    59.8889 </r>
       <r>    15.2668    -0.0000    59.8889 </r>
       <r>    15.3570    -0.0000    59.8889 </r>
       <r>    15.4473    -0.0000    59.8889 </r>
       <r>    15.5376    -0.0000    59.8889 </r>
       <r>    15.6279    -0.0001    59.8889 </r>
       <r>    15.7181    -0.0007    59.8888 </r>
       <r>    15.8084    -0.0044    59.8884 </r>
       <r>    15.8987    -0.0158    59.8870 </r>
       <r>    15.9889    -0.0221    59.8850 </r>
       <r>    16.0792     0.0457    59.8891 </r>
       <r>    16.1695     0.2461    59.9113 </r>
       <r>    16.2598     0.4398    59.9510 </r>
       <r>    16.3500     0.3968    59.9869 </r>
       <r>    16.4403     0.1727    60.0025 </r>
       <r>    16.5306     0.0108    60.0034 </r>
       <r>    16.6208    -0.0236    60.0013 </r>
       <r>    16.7111    -0.0114    60.0003 </r>
       <r>    16.8014    -0.0026    60.0000 </r>
       <r>    16.8917    -0.0003    60.0000 </r>
       <r>    16.9819    -0.0000    60.0000 </r>
       <r>    17.0722    -0.0000    60.0000 </r>
       <r>    17.1625    -0.0000    60.0000 </r>
       <r>    17.2527    -0.0000    60.0000 </r>
       <r>    17.3430    -0.0000    60.0000 </r>
       <r>    17.4333    -0.0000    60.0000 </r>
       <r>    17.5236    -0.0000    60.0000 </r>
       <r>    17.6138     0.0000    60.0000 </r>
       <r>    17.7041     0.0000    60.0000 </r>
       <r>    17.7944     0.0000    60.0000 </r>
       <r>    17.8846     0.0000    60.0000 </r>
       <r>    17.9749     0.0000    60.0000 </r>
       <r>    18.0652     0.0000    60.0000 </r>
       <r>    18.1555     0.0000    60.0000 </r>
       <r>    18.2457     0.0000    60.0000 </r>
      </set>
      <set comment="spin 2">
       <r>    -8.8358     0.0000     0.0000 </r>
       <r>    -8.7455     0.0000     0.0000 </r>
       <r>    -8.6552     0.0000     0.0000 </r>
       <r>    -8.5650     0.0000     0.0000 </r>
       <r>    -8.4747    -0.0000    -0.0000 </r>
       <r>    -8.3844    -0.0000    -0.0000 </r>
       <r>    -8.2941    -0.0000    -0.0000 </r>
       <r>    -8.2039    -0.0000    -0.0000 </r>
       <r>    -8.1136    -0.0000    -0.0000 </r>
       <r>    -8.0233    -0.0000    -0.0000 </r>
       <r>    -7.9330    -0.0000    -0.0000 </r>
       <r>    -7.8428    -0.0000    -0.0000 </r>
       <r>    -7.7525    -0.0000    -0.0000 </r>
       <r>    -7.6622    -0.0000    -0.0000 </r>
       <r>    -7.5720    -0.0000    -0.0000 </r>
       <r>    -7.4817    -0.0000    -0.0000 </r>
       <r>    -7.3914    -0.0003    -0.0000 </r>
       <r>    -7.3011    -0.0026    -0.0003 </r>
       <r>    -7.2109    -0.0114    -0.0013 </r>
       <r>    -7.1206    -0.0236    -0.0034 </r>
       <r>    -7.0303     0.0107    -0.0025 </r>
       <r>    -6.9401     0.1716     0.0130 </r>
       <r>    -6.8498     0.3903     0.0483 </r>
       <r>    -6.7595     0.4201     0.0862 </r>
       <r>    -6.6692     0.2307     0.1070 </r>
       <r>    -6.5790     0.1332     0.1190 </r>
       <r>    -6.4887     0.2874     0.1450 </r>
       <r>    -6.3984     0.4359     0.1843 </r>
       <r>    -6.3082     0.3232     0.2135 </r>
       <r>    -6.2179     0.0932     0.2219 </r>
       <r>    -6.1276     0.0403     0.2256 </r>
       <r>    -6.0373     0.2279     0.2461 </r>
       <r>    -5.9471     0.4225     0.2843 </r>
       <r>    -5.8568     0.3672     0.3174 </r>
       <r>    -5.7665     0.1789     0.3336 </r>
       <r>    -5.6763     0.1843     0.3502 </r>
       <r>    -5.5860     0.3757     0.3841 </r>
       <r>    -5.4957     0.4274     0.4227 </r>
       <r>    -5.4054     0.2403     0.4444 </r>
       <r>    -5.3152     0.0431     0.4483 </r>
       <r>    -5.2249    -0.0251     0.4460 </r>
       <r>    -5.1346    -0.0276     0.4435 </r>
       <r>    -5.0444    -0.0280     0.4410 </r>
       <r>    -4.9541     0.0136     0.4422 </r>
       <r>    -4.8638     0.1814     0.4586 </r>
       <r>    -4.7735     0.4033     0.4950 </r>
       <r>    -4.6833     0.4358     0.5344 </r>
       <r>    -4.5930     0.2368     0.5557 </r>
       <r>    -4.5027     0.0404     0.5594 </r>
       <r>    -4.4125    -0.0250     0.5571 </r>
       <r>    -4.3222    -0.0342     0.5540 </r>
       <r>    -4.2319    -0.0898     0.5459 </r>
       <r>    -4.1416    -0.2000     0.5279 </r>
       <r>    -4.0514    -0.0389     0.5244 </r>
       <r>    -3.9611     1.0876     0.6225 </r>
       <r>    -3.8708     3.1996     0.9114 </r>
       <r>    -3.7806     4.7726     1.3422 </r>
       <r>    -3.6903     4.3522     1.7351 </r>
       <r>    -3.6000     2.7763     1.9857 </r>
       <r>    -3.5097     2.1310     2.1781 </r>
       <r>    -3.4195     2.4569     2.3999 </r>
       <r>    -3.3292     2.0096     2.5813 </r>
       <r>    -3.2389     0.8708     2.6599 </r>
       <r>    -3.1487     0.8937     2.7406 </r>
       <r>    -3.0584     2.3098     2.9491 </r>
       <r>    -2.9681     3.0380     3.2233 </r>
       <r>    -2.8778     1.9052     3.3953 </r>
       <r>    -2.7876     0.5780     3.4475 </r>
       <r>    -2.6973     1.0313     3.5406 </r>
       <r>    -2.6070     2.7920     3.7926 </r>
       <r>    -2.5167     3.6505     4.1222 </r>
       <r>    -2.4265     2.8616     4.3805 </r>
       <r>    -2.3362     2.0724     4.5676 </r>
       <r>    -2.2459     2.3542     4.7801 </r>
       <r>    -2.1557     2.5590     5.0111 </r>
       <r>    -2.0654     1.7839     5.1721 </r>
       <r>    -1.9751     1.2483     5.2848 </r>
       <r>    -1.8848     1.9449     5.4604 </r>
       <r>    -1.7946     3.4982     5.7762 </r>
       <r>    -1.7043     6.2923     6.3442 </r>
       <r>    -1.6140    10.6537     7.3059 </r>
       <r>    -1.5238    14.4188     8.6075 </r>
       <r>    -1.4335    14.4726     9.9140 </r>
       <r>    -1.3432    10.8035    10.8892 </r>
       <r>    -1.2529     7.1940    11.5386 </r>
       <r>    -1.1627     6.0197    12.0820 </r>
       <r>    -1.0724     5.8617    12.6112 </r>
       <r>    -0.9821     5.2567    13.0857 </r>
       <r>    -0.8919     5.0132    13.5383 </r>
       <r>    -0.8016     6.7372    14.1464 </r>
       <r>    -0.7113    10.0283    15.0517 </r>
       <r>    -0.6210    12.9208    16.2181 </r>
       <r>    -0.5308    15.2083    17.5910 </r>
       <r>    -0.4405    17.1196    19.1364 </r>
       <r>    -0.3502    16.7247    20.6462 </r>
       <r>    -0.2600    13.3645    21.8526 </r>
       <r>    -0.1697     9.7586    22.7335 </r>
       <r>    -0.0794     8.1010    23.4648 </r>
       <r>     0.0109     8.4187    24.2248 </r>
       <r>     0.1011    10.2057    25.1460 </r>
       <r>     0.1914    12.6257    26.2858 </r>
       <r>     0.2817    14.6258    27.6061 </r>
       <r>     0.3719    15.3167    28.9887 </r>
       <r>     0.4622    15.4724    30.3855 </r>
       <r>     0.5525    17.1508    31.9337 </r>
       <r>     0.6428    20.1263    33.7505 </r>
       <r>     0.7330    22.0114    35.7375 </r>
       <r>     0.8233    21.0050    37.6337 </r>
       <r>     0.9136    17.3823    39.2028 </r>
       <r>     1.0038    14.0437    40.4706 </r>
       <r>     1.0941    13.3763    41.6781 </r>
       <r>     1.1844    13.2453    42.8737 </r>
       <r>     1.2747    10.3894    43.8116 </r>
       <r>     1.3649     5.6538    44.3220 </r>
       <r>     1.4552     1.8439    44.4884 </r>
       <r>     1.5455     0.0109    44.4894 </r>
       <r>     1.6357    -0.4398    44.4497 </r>
       <r>     1.7260    -0.2649    44.4258 </r>
       <r>     1.8163     0.5278    44.4734 </r>
       <r>     1.9066     1.9725    44.6515 </r>
       <r>     1.9968     2.9379    44.9167 </r>
       <r>     2.0871     2.3657    45.1303 </r>
       <r>     2.1774     1.0372    45.2239 </r>
       <r>     2.2676     0.2907    45.2501 </r>
       <r>     2.3579     0.2822    45.2756 </r>
       <r>     2.4482     0.3801    45.3099 </r>
       <r>     2.5385     0.2435    45.3319 </r>
       <r>     2.6287     0.0279    45.3344 </r>
       <r>     2.7190    -0.1181    45.3238 </r>
       <r>     2.8093    -0.1473    45.3105 </r>
       <r>     2.8995     0.2899    45.3366 </r>
       <r>     2.9898     1.5126    45.4732 </r>
       <r>     3.0801     2.6535    45.7127 </r>
       <r>     3.1704     2.3540    45.9252 </r>
       <r>     3.2606     1.0017    46.0156 </r>
       <r>     3.3509     0.0512    46.0203 </r>
       <r>     3.4412    -0.1409    46.0075 </r>
       <r>     3.5315    -0.0665    46.0015 </r>
       <r>     3.6217    -0.0149    46.0002 </r>
       <r>     3.7120    -0.0020    46.0000 </r>
       <r>     3.8023    -0.0005    46.0000 </r>
       <r>     3.8925    -0.0038    45.9996 </r>
       <r>     3.9828    -0.0246    45.9974 </r>
       <r>     4.0731    -0.0913    45.9892 </r>
       <r>     4.1634    -0.1356    45.9769 </r>
       <r>     4.2536     0.2405    45.9986 </r>
       <r>     4.3439     1.4156    46.1264 </r>
       <r>     4.4342     2.6125    46.3623 </r>
       <r>     4.5244     2.4237    46.5810 </r>
       <r>     4.6147     1.0938    46.6798 </r>
       <r>     4.7050     0.0878    46.6877 </r>
       <r>     4.7953    -0.1420    46.6749 </r>
       <r>     4.8855    -0.0719    46.6684 </r>
       <r>     4.9758    -0.0168    46.6669 </r>
       <r>     5.0661    -0.0024    46.6667 </r>
       <r>     5.1563    -0.0020    46.6665 </r>
       <r>     5.2466    -0.0141    46.6652 </r>
       <r>     5.3369    -0.0656    46.6593 </r>
       <r>     5.4272    -0.1588    46.6450 </r>
       <r>     5.5174    -0.0672    46.6389 </r>
       <r>     5.6077     0.7000    46.7021 </r>
       <r>     5.6980     2.2635    46.9064 </r>
       <r>     5.7882     4.0846    47.2751 </r>
       <r>     5.8785     5.4281    47.7651 </r>
       <r>     5.9688     5.2562    48.2396 </r>
       <r>     6.0591     3.4121    48.5476 </r>
       <r>     6.1493     1.7046    48.7015 </r>
       <r>     6.2396     1.2504    48.8144 </r>
       <r>     6.3299     1.1755    48.9205 </r>
       <r>     6.4201     0.7832    48.9912 </r>
       <r>     6.5104     0.4187    49.0290 </r>
       <r>     6.6007     0.3370    49.0594 </r>
       <r>     6.6910     0.3095    49.0874 </r>
       <r>     6.7812     0.3411    49.1182 </r>
       <r>     6.8715     0.6854    49.1800 </r>
       <r>     6.9618     1.4256    49.3087 </r>
       <r>     7.0520     2.5420    49.5382 </r>
       <r>     7.1423     3.4260    49.8475 </r>
       <r>     7.2326     3.0314    50.1211 </r>
       <r>     7.3229     1.6072    50.2662 </r>
       <r>     7.4131     0.5092    50.3122 </r>
       <r>     7.5034     0.4865    50.3561 </r>
       <r>     7.5937     1.3878    50.4814 </r>
       <r>     7.6839     2.2779    50.6870 </r>
       <r>     7.7742     2.1363    50.8799 </r>
       <r>     7.8645     1.1067    50.9798 </r>
       <r>     7.9548     0.2098    50.9987 </r>
       <r>     8.0450     0.2022    51.0170 </r>
       <r>     8.1353     1.0263    51.1096 </r>
       <r>     8.2256     1.7824    51.2705 </r>
       <r>     8.3158     1.8633    51.4387 </r>
       <r>     8.4061     1.9974    51.6190 </r>
       <r>     8.4964     2.5894    51.8528 </r>
       <r>     8.5867     2.5635    52.0842 </r>
       <r>     8.6769     1.6674    52.2347 </r>
       <r>     8.7672     1.1609    52.3395 </r>
       <r>     8.8575     1.5850    52.4826 </r>
       <r>     8.9478     2.4601    52.7046 </r>
       <r>     9.0380     3.0159    52.9769 </r>
       <r>     9.1283     2.6605    53.2171 </r>
       <r>     9.2186     2.1667    53.4127 </r>
       <r>     9.3088     2.7265    53.6588 </r>
       <r>     9.3991     3.5146    53.9760 </r>
       <r>     9.4894     2.7959    54.2284 </r>
       <r>     9.5797     1.1492    54.3322 </r>
       <r>     9.6699     0.7070    54.3960 </r>
       <r>     9.7602     1.7784    54.5565 </r>
       <r>     9.8505     2.5179    54.7838 </r>
       <r>     9.9407     2.0909    54.9726 </r>
       <r>    10.0310     1.9253    55.1464 </r>
       <r>    10.1213     2.4644    55.3689 </r>
       <r>    10.2116     2.2260    55.5698 </r>
       <r>    10.3018     1.1177    55.6707 </r>
       <r>    10.3921     0.7225    55.7359 </r>
       <r>    10.4824     1.6714    55.8868 </r>
       <r>    10.5726     3.0359    56.1608 </r>
       <r>    10.6629     3.2994    56.4587 </r>
       <r>    10.7532     2.0633    56.6450 </r>
       <r>    10.8435     0.7210    56.7100 </r>
       <r>    10.9337     0.6690    56.7704 </r>
       <r>    11.0240     2.0430    56.9549 </r>
       <r>    11.1143     3.4716    57.2682 </r>
       <r>    11.2045     3.1059    57.5486 </r>
       <r>    11.2948     1.2651    57.6628 </r>
       <r>    11.3851     0.0436    57.6668 </r>
       <r>    11.4754     0.5638    57.7177 </r>
       <r>    11.5656     2.3240    57.9274 </r>
       <r>    11.6559     3.9230    58.2816 </r>
       <r>    11.7462     4.1461    58.6559 </r>
       <r>    11.8364     2.8367    58.9119 </r>
       <r>    11.9267     0.9952    59.0018 </r>
       <r>    12.0170     0.0555    59.0068 </r>
       <r>    12.1073     0.6918    59.0692 </r>
       <r>    12.1975     2.1492    59.2633 </r>
       <r>    12.2878     2.6814    59.5053 </r>
       <r>    12.3781     1.6617    59.6553 </r>
       <r>    12.4683     0.3876    59.6903 </r>
       <r>    12.5586    -0.1171    59.6797 </r>
       <r>    12.6489    -0.1065    59.6701 </r>
       <r>    12.7392    -0.0324    59.6672 </r>
       <r>    12.8294    -0.0064    59.6666 </r>
       <r>    12.9197    -0.0075    59.6659 </r>
       <r>    13.0100    -0.0273    59.6635 </r>
       <r>    13.1002    -0.0456    59.6594 </r>
       <r>    13.1905     0.0565    59.6645 </r>
       <r>    13.2808     0.4190    59.7023 </r>
       <r>    13.3711     0.8368    59.7778 </r>
       <r>    13.4613     0.8365    59.8533 </r>
       <r>    13.5516     0.4185    59.8911 </r>
       <r>    13.6419     0.0563    59.8962 </r>
       <r>    13.7321    -0.0456    59.8921 </r>
       <r>    13.8224    -0.0272    59.8896 </r>
       <r>    13.9127    -0.0070    59.8890 </r>
       <r>    14.0030    -0.0010    59.8889 </r>
       <r>    14.0932    -0.0001    59.8889 </r>
       <r>    14.1835    -0.0000    59.8889 </r>
       <r>    14.2738    -0.0000    59.8889 </r>
       <r>    14.3640    -0.0000    59.8889 </r>
       <r>    14.4543    -0.0000    59.8889 </r>
       <r>    14.5446    -0.0000    59.8889 </r>
       <r>    14.6349    -0.0000    59.8889 </r>
       <r>    14.7251    -0.0000    59.8889 </r>
       <r>    14.8154    -0.0000    59.8889 </r>
       <r>    14.9057    -0.0000    59.8889 </r>
       <r>    14.9960    -0.0000    59.8889 </r>
       <r>    15.0862    -0.0000    59.8889 </r>
       <r>    15.1765    -0.0000    59.8889 </r>
       <r>    15.2668    -0.0000    59.8889 </r>
       <r>    15.3570    -0.0000    59.8889 </r>
       <r>    15.4473    -0.0000    59.8889 </r>
       <r>    15.5376    -0.0000    59.8889 </r>
       <r>    15.6279    -0.0001    59.8889 </r>
       <r>    15.7181    -0.0007    59.8888 </r>
       <r>    15.8084    -0.0044    59.8884 </r>
       <r>    15.8987    -0.0158    59.8870 </r>
       <r>    15.9889    -0.0221    59.8850 </r>
       <r>    16.0792     0.0456    59.8891 </r>
       <r>    16.1695     0.2459    59.9113 </r>
       <r>    16.2598     0.4398    59.9510 </r>
       <r>    16.3500     0.3969    59.9869 </r>
       <r>    16.4403     0.1728    60.0025 </r>
       <r>    16.5306     0.0108    60.0034 </r>
       <r>    16.6208    -0.0236    60.0013 </r>
       <r>    16.7111    -0.0114    60.0003 </r>
       <r>    16.8014    -0.0026    60.0000 </r>
       <r>    16.8917    -0.0003    60.0000 </r>
       <r>    16.9819    -0.0000    60.0000 </r>
       <r>    17.0722    -0.0000    60.0000 </r>
       <r>    17.1625    -0.0000    60.0000 </r>
       <r>    17.2527    -0.0000    60.0000 </r>
       <r>    17.3430    -0.0000    60.0000 </r>
       <r>    17.4333    -0.0000    60.0000 </r>
       <r>    17.5236    -0.0000    60.0000 </r>
       <r>    17.6138     0.0000    60.0000 </r>
       <r>    17.7041     0.0000    60.0000 </r>
       <r>    17.7944     0.0000    60.0000 </r>
       <r>    17.8846     0.0000    60.0000 </r>
       <r>    17.9749     0.0000    60.0000 </r>
       <r>    18.0652     0.0000    60.0000 </r>
       <r>    18.1555     0.0000    60.0000 </r>
       <r>    18.2457     0.0000    60.0000 </r>
      </set>
     </set>
    </array>
   </total>
  </dos>
 </calculation>
 <structure name="finalpos" >
  <crystal>
   <varray name="basis" >
    <v>       2.56679773       0.00000000       0.00000000 </v>
    <v>       1.28339887       2.22291204       0.00000000 </v>
    <v>       0.00000000       0.00000000      29.67047119 </v>
   </varray>
   <i name="volume">    169.29275369 </i>
   <varray name="rec_basis" >
    <v>       0.38959050      -0.22493018       0.00000000 </v>
    <v>       0.00000000       0.44986035       0.00000000 </v>
    <v>       0.00000000       0.00000000       0.03370354 </v>
   </varray>
  </crystal>
  <varray name="positions" >
   <v>       0.00000000      -0.00000000       0.00092725 </v>
   <v>       0.33333333       0.33333333       0.06812448 </v>
   <v>       0.66666667       0.66666667       0.13609033 </v>
   <v>      -0.00000000      -0.00000000       0.20428703 </v>
   <v>       0.33333333       0.33333333       0.27205613 </v>
   <v>       0.66666667       0.66666667       0.34034715 </v>
   <v>      -0.00000000       0.00000000       0.40823261 </v>
   <v>       0.33333333       0.33333333       0.47530161 </v>
   <v>       0.00000000       1.00000000       0.54908056 </v>
   <v>       0.00000000       1.00000000       0.57462198 </v>
  </varray>
 </structure>
</modeling>
