unknown system                          
           1
     2.566798    0.000000    0.000000
     1.283399    2.222912    0.000000
     0.000000    0.000000   29.670471
   Cu   H 
     8     2
Direct configuration=     1
   0.00000000  0.00000000  0.00000000
   0.33333333  0.33333333  0.07063526
   0.66666667  0.66666667  0.13908594
   0.00000000  0.00000000  0.20816512
   0.33333333  0.33333333  0.27656240
   0.66666667  0.66666667  0.34556034
   0.00000000  0.00000000  0.41400593
   0.33333333  0.33333333  0.48139269
   0.00000000  1.00000000  0.53425930
   0.00000000  1.00000000  0.55940215
Direct configuration=     2
  -0.00000000  0.00000000  0.00076632
   0.33333333  0.33333333  0.06998997
   0.66666667  0.66666667  0.13909708
  -0.00000000  0.00000000  0.20816062
   0.33333333  0.33333333  0.27652885
   0.66666667  0.66666667  0.34552745
   0.00000000  0.00000000  0.41385577
   0.33333333  0.33333333  0.48044045
   0.00000000  1.00000000  0.53321077
   0.00000000  1.00000000  0.56149185
Direct configuration=     3
  -0.00000000  0.00000000  0.00045170
   0.33333333  0.33333333  0.07025490
   0.66666667  0.66666667  0.13909251
  -0.00000000  0.00000000  0.20816246
   0.33333333  0.33333333  0.27654262
   0.66666667  0.66666667  0.34554095
   0.00000000  0.00000000  0.41391742
   0.33333333  0.33333333  0.48083140
   0.00000000  1.00000000  0.53364125
   0.00000000  1.00000000  0.56063390
Direct configuration=     4
  -0.00000000  0.00000000  0.00119955
   0.33333333  0.33333333  0.06970979
   0.66666667  0.66666667  0.13903640
  -0.00000000  0.00000000  0.20815219
   0.33333333  0.33333333  0.27650898
   0.66666667  0.66666667  0.34548604
   0.00000000  0.00000000  0.41364693
   0.33333333  0.33333333  0.48000033
   0.00000000  1.00000000  0.53430097
   0.00000000  1.00000000  0.56102794
Direct configuration=     5
  -0.00000000  0.00000000  0.00277561
   0.33333333  0.33333333  0.06856099
   0.66666667  0.66666667  0.13891815
  -0.00000000  0.00000000  0.20813054
   0.33333333  0.33333333  0.27643808
   0.66666667  0.66666667  0.34537030
   0.00000000  0.00000000  0.41307689
   0.33333333  0.33333333  0.47824889
   0.00000000  1.00000000  0.53569132
   0.00000000  1.00000000  0.56185837
Direct configuration=     6
  -0.00000000  0.00000000  0.00247490
   0.33333333  0.33333333  0.06878018
   0.66666667  0.66666667  0.13894071
  -0.00000000  0.00000000  0.20813467
   0.33333333  0.33333333  0.27645161
   0.66666667  0.66666667  0.34539238
   0.00000000  0.00000000  0.41318565
   0.33333333  0.33333333  0.47858306
   0.00000000  1.00000000  0.53542604
   0.00000000  1.00000000  0.56169992
Direct configuration=     7
  -0.00000000  0.00000000  0.00263608
   0.33333333  0.33333333  0.06928749
   0.66666667  0.66666667  0.13857218
  -0.00000000  0.00000000  0.20806175
   0.33333333  0.33333333  0.27638415
   0.66666667  0.66666667  0.34511705
   0.00000000  0.00000000  0.41238751
   0.33333333  0.33333333  0.47806471
   0.00000000  1.00000000  0.53646743
   0.00000000  1.00000000  0.56209078
Direct configuration=     8
  -0.00000000  0.00000000  0.00275789
   0.33333333  0.33333333  0.06967087
   0.66666667  0.66666667  0.13829368
  -0.00000000  0.00000000  0.20800665
   0.33333333  0.33333333  0.27633316
   0.66666667  0.66666667  0.34490897
   0.00000000  0.00000000  0.41178434
   0.33333333  0.33333333  0.47767298
   0.00000000  1.00000000  0.53725442
   0.00000000  1.00000000  0.56238616
Direct configuration=     9
   0.00000000  0.00000000  0.00280225
   0.33333333  0.33333333  0.06988300
   0.66666667  0.66666667  0.13818869
  -0.00000000  0.00000000  0.20795436
   0.33333333  0.33333333  0.27628400
   0.66666667  0.66666667  0.34475107
   0.00000000  0.00000000  0.41148201
   0.33333333  0.33333333  0.47747161
   0.00000000  1.00000000  0.53748229
   0.00000000  1.00000000  0.56276984
Direct configuration=    10
   0.00000000  0.00000000  0.00293531
   0.33333333  0.33333333  0.07051940
   0.66666667  0.66666667  0.13787372
  -0.00000000  0.00000000  0.20779751
   0.33333333  0.33333333  0.27613653
   0.66666667  0.66666667  0.34427735
   0.00000000  0.00000000  0.41057501
   0.33333333  0.33333333  0.47686753
   0.00000000  1.00000000  0.53816591
   0.00000000  1.00000000  0.56392087
Direct configuration=    11
   0.00000000  0.00000000  0.00297619
   0.33333333  0.33333333  0.07071489
   0.66666667  0.66666667  0.13777696
  -0.00000000  0.00000000  0.20774933
   0.33333333  0.33333333  0.27609123
   0.66666667  0.66666667  0.34413182
   0.00000000  0.00000000  0.41029638
   0.33333333  0.33333333  0.47668195
   0.00000000  1.00000000  0.53837591
   0.00000000  1.00000000  0.56427446
Direct configuration=    12
   0.00000000 -0.00000000  0.00303118
   0.33333333  0.33333333  0.07067460
   0.66666667  0.66666667  0.13790919
  -0.00000000  0.00000000  0.20766827
   0.33333333  0.33333333  0.27598587
   0.66666667  0.66666667  0.34394102
   0.00000000  0.00000000  0.41025083
   0.33333333  0.33333333  0.47657714
   0.00000000  1.00000000  0.53854103
   0.00000000  1.00000000  0.56449001
Direct configuration=    13
   0.00000000 -0.00000000  0.00319614
   0.33333333  0.33333333  0.07055370
   0.66666667  0.66666667  0.13830591
  -0.00000000  0.00000000  0.20742510
   0.33333333  0.33333333  0.27566979
   0.66666667  0.66666667  0.34336861
   0.00000000  0.00000000  0.41011416
   0.33333333  0.33333333  0.47626269
   0.00000000  1.00000000  0.53903637
   0.00000000  1.00000000  0.56513665
Direct configuration=    14
   0.00000000 -0.00000000  0.00352606
   0.33333333  0.33333333  0.07031192
   0.66666667  0.66666667  0.13909934
  -0.00000000  0.00000000  0.20693876
   0.33333333  0.33333333  0.27503762
   0.66666667  0.66666667  0.34222380
   0.00000000  0.00000000  0.40984082
   0.33333333  0.33333333  0.47563380
   0.00000000  1.00000000  0.54002707
   0.00000000  1.00000000  0.56642993
Direct configuration=    15
   0.00000000 -0.00000000  0.00341780
   0.33333333  0.33333333  0.07039126
   0.66666667  0.66666667  0.13883897
  -0.00000000  0.00000000  0.20709835
   0.33333333  0.33333333  0.27524507
   0.66666667  0.66666667  0.34259947
   0.00000000  0.00000000  0.40993052
   0.33333333  0.33333333  0.47584017
   0.00000000  1.00000000  0.53970197
   0.00000000  1.00000000  0.56600555
Direct configuration=    16
   0.00000000 -0.00000000  0.00347937
   0.33333333  0.33333333  0.07038711
   0.66666667  0.66666667  0.13899422
  -0.00000000  0.00000000  0.20701487
   0.33333333  0.33333333  0.27491900
   0.66666667  0.66666667  0.34233795
   0.00000000  0.00000000  0.40978234
   0.33333333  0.33333333  0.47574823
   0.00000000  1.00000000  0.54028283
   0.00000000  1.00000000  0.56612321
Direct configuration=    17
   0.00000000 -0.00000000  0.00351689
   0.33333333  0.33333333  0.07038458
   0.66666667  0.66666667  0.13908883
  -0.00000000  0.00000000  0.20696400
   0.33333333  0.33333333  0.27472029
   0.66666667  0.66666667  0.34217858
   0.00000000  0.00000000  0.40969203
   0.33333333  0.33333333  0.47569220
   0.00000000  1.00000000  0.54063682
   0.00000000  1.00000000  0.56619491
Direct configuration=    18
   0.00000000 -0.00000000  0.00349813
   0.33333333  0.33333333  0.07049285
   0.66666667  0.66666667  0.13901839
  -0.00000000  0.00000000  0.20696148
   0.33333333  0.33333333  0.27441450
   0.66666667  0.66666667  0.34207615
   0.00000000  0.00000000  0.40950325
   0.33333333  0.33333333  0.47568669
   0.00000000  1.00000000  0.54093818
   0.00000000  1.00000000  0.56647951
Direct configuration=    19
   0.00000000 -0.00000000  0.00346674
   0.33333333  0.33333333  0.07067402
   0.66666667  0.66666667  0.13890053
  -0.00000000  0.00000000  0.20695727
   0.33333333  0.33333333  0.27390278
   0.66666667  0.66666667  0.34190474
   0.00000000  0.00000000  0.40918735
   0.33333333  0.33333333  0.47567746
   0.00000000  1.00000000  0.54144248
   0.00000000  1.00000000  0.56695577
Direct configuration=    20
   0.00000000 -0.00000000  0.00340397
   0.33333333  0.33333333  0.07103636
   0.66666667  0.66666667  0.13866479
  -0.00000000  0.00000000  0.20694883
   0.33333333  0.33333333  0.27287934
   0.66666667  0.66666667  0.34156192
   0.00000000  0.00000000  0.40855554
   0.33333333  0.33333333  0.47565902
   0.00000000  1.00000000  0.54245108
   0.00000000  1.00000000  0.56790828
Direct configuration=    21
   0.00000000 -0.00000000  0.00344723
   0.33333333  0.33333333  0.07078666
   0.66666667  0.66666667  0.13882724
  -0.00000000  0.00000000  0.20695465
   0.33333333  0.33333333  0.27358461
   0.66666667  0.66666667  0.34179817
   0.00000000  0.00000000  0.40899093
   0.33333333  0.33333333  0.47567173
   0.00000000  1.00000000  0.54175603
   0.00000000  1.00000000  0.56725188
Direct configuration=    22
   0.00000000 -0.00000000  0.00343681
   0.33333333  0.33333333  0.07084931
   0.66666667  0.66666667  0.13868947
  -0.00000000  0.00000000  0.20676942
   0.33333333  0.33333333  0.27352135
   0.66666667  0.66666667  0.34161933
   0.00000000  0.00000000  0.40889162
   0.33333333  0.33333333  0.47563952
   0.00000000  1.00000000  0.54183505
   0.00000000  1.00000000  0.56781725
Direct configuration=    23
   0.00000000 -0.00000000  0.00343813
   0.33333333  0.33333333  0.07084140
   0.66666667  0.66666667  0.13870684
  -0.00000000  0.00000000  0.20679278
   0.33333333  0.33333333  0.27352933
   0.66666667  0.66666667  0.34164189
   0.00000000  0.00000000  0.40890414
   0.33333333  0.33333333  0.47564358
   0.00000000  1.00000000  0.54182508
   0.00000000  1.00000000  0.56774594
Direct configuration=    24
   0.00000000 -0.00000000  0.00346229
   0.33333333  0.33333333  0.07084742
   0.66666667  0.66666667  0.13854318
  -0.00000000  0.00000000  0.20649213
   0.33333333  0.33333333  0.27363295
   0.66666667  0.66666667  0.34141994
   0.00000000  0.00000000  0.40886713
   0.33333333  0.33333333  0.47558707
   0.00000000  1.00000000  0.54215782
   0.00000000  1.00000000  0.56805920
Direct configuration=    25
   0.00000000 -0.00000000  0.00347342
   0.33333333  0.33333333  0.07085019
   0.66666667  0.66666667  0.13846773
  -0.00000000  0.00000000  0.20635354
   0.33333333  0.33333333  0.27368071
   0.66666667  0.66666667  0.34131764
   0.00000000  0.00000000  0.40885007
   0.33333333  0.33333333  0.47556103
   0.00000000  1.00000000  0.54231120
   0.00000000  1.00000000  0.56820360
Direct configuration=    26
   0.00000000 -0.00000000  0.00349570
   0.33333333  0.33333333  0.07085573
   0.66666667  0.66666667  0.13831685
  -0.00000000  0.00000000  0.20607636
   0.33333333  0.33333333  0.27377624
   0.66666667  0.66666667  0.34111303
   0.00000000  0.00000000  0.40881594
   0.33333333  0.33333333  0.47550893
   0.00000000  1.00000000  0.54261795
   0.00000000  1.00000000  0.56849240
Direct configuration=    27
   0.00000000 -0.00000000  0.00353179
   0.33333333  0.33333333  0.07070246
   0.66666667  0.66666667  0.13813306
  -0.00000000  0.00000000  0.20588478
   0.33333333  0.33333333  0.27366838
   0.66666667  0.66666667  0.34104556
  -0.00000000  0.00000000  0.40873966
   0.33333333  0.33333333  0.47543358
   0.00000000  1.00000000  0.54321443
   0.00000000  1.00000000  0.56871543
Direct configuration=    28
   0.00000000 -0.00000000  0.00353747
   0.33333333  0.33333333  0.07067833
   0.66666667  0.66666667  0.13810413
  -0.00000000  0.00000000  0.20585462
   0.33333333  0.33333333  0.27365141
   0.66666667  0.66666667  0.34103494
  -0.00000000  0.00000000  0.40872765
   0.33333333  0.33333333  0.47542172
   0.00000000  1.00000000  0.54330831
   0.00000000  1.00000000  0.56875054
Direct configuration=    29
   0.00000000 -0.00000000  0.00353354
   0.33333333  0.33333333  0.07069503
   0.66666667  0.66666667  0.13812415
  -0.00000000  0.00000000  0.20587549
   0.33333333  0.33333333  0.27366315
   0.66666667  0.66666667  0.34104229
  -0.00000000  0.00000000  0.40873596
   0.33333333  0.33333333  0.47542993
   0.00000000  1.00000000  0.54324335
   0.00000000  1.00000000  0.56872625
Direct configuration=    30
   0.00000000 -0.00000000  0.00354032
   0.33333333  0.33333333  0.07045814
   0.66666667  0.66666667  0.13796202
  -0.00000000  0.00000000  0.20583614
   0.33333333  0.33333333  0.27339403
   0.66666667  0.66666667  0.34111967
  -0.00000000  0.00000000  0.40864296
   0.33333333  0.33333333  0.47535754
   0.00000000  1.00000000  0.54358706
   0.00000000  1.00000000  0.56917123
Direct configuration=    31
   0.00000000 -0.00000000  0.00354590
   0.33333333  0.33333333  0.07026351
   0.66666667  0.66666667  0.13782882
  -0.00000000  0.00000000  0.20580382
   0.33333333  0.33333333  0.27317291
   0.66666667  0.66666667  0.34118325
  -0.00000000  0.00000000  0.40856656
   0.33333333  0.33333333  0.47529807
   0.00000000  1.00000000  0.54386946
   0.00000000  1.00000000  0.56953684
Direct configuration=    32
   0.00000000 -0.00000000  0.00355704
   0.33333333  0.33333333  0.06987425
   0.66666667  0.66666667  0.13756240
  -0.00000000  0.00000000  0.20573916
   0.33333333  0.33333333  0.27273067
   0.66666667  0.66666667  0.34131040
  -0.00000000  0.00000000  0.40841374
   0.33333333  0.33333333  0.47517912
   0.00000000  1.00000000  0.54443427
   0.00000000  1.00000000  0.57026807
Direct configuration=    33
   0.00000000 -0.00000000  0.00355079
   0.33333333  0.33333333  0.07009257
   0.66666667  0.66666667  0.13771182
  -0.00000000  0.00000000  0.20577542
   0.33333333  0.33333333  0.27297871
   0.66666667  0.66666667  0.34123908
  -0.00000000  0.00000000  0.40849945
   0.33333333  0.33333333  0.47524584
   0.00000000  1.00000000  0.54411749
   0.00000000  1.00000000  0.56985795
Direct configuration=    34
   0.00000000 -0.00000000  0.00337970
   0.33333333  0.33333333  0.06993170
   0.66666667  0.66666667  0.13758346
  -0.00000000 -0.00000000  0.20569975
   0.33333333  0.33333333  0.27283427
   0.66666667  0.66666667  0.34120849
  -0.00000000  0.00000000  0.40849128
   0.33333333  0.33333333  0.47521196
   0.00000000  1.00000000  0.54456829
   0.00000000  1.00000000  0.57016023
Direct configuration=    35
   0.00000000 -0.00000000  0.00286644
   0.33333333  0.33333333  0.06944908
   0.66666667  0.66666667  0.13719839
  -0.00000000 -0.00000000  0.20547275
   0.33333333  0.33333333  0.27240095
   0.66666667  0.66666667  0.34111671
  -0.00000000  0.00000000  0.40846677
   0.33333333  0.33333333  0.47511032
   0.00000000  1.00000000  0.54592069
   0.00000000  1.00000000  0.57106705
Direct configuration=    36
   0.00000000 -0.00000000  0.00309435
   0.33333333  0.33333333  0.06966338
   0.66666667  0.66666667  0.13736938
  -0.00000000 -0.00000000  0.20557355
   0.33333333  0.33333333  0.27259336
   0.66666667  0.66666667  0.34115746
  -0.00000000  0.00000000  0.40847766
   0.33333333  0.33333333  0.47515545
   0.00000000  1.00000000  0.54532016
   0.00000000  1.00000000  0.57066438
Direct configuration=    37
   0.00000000 -0.00000000  0.00303883
   0.33333333  0.33333333  0.06962354
   0.66666667  0.66666667  0.13733593
  -0.00000000 -0.00000000  0.20554702
   0.33333333  0.33333333  0.27256612
   0.66666667  0.66666667  0.34114114
  -0.00000000  0.00000000  0.40847932
   0.33333333  0.33333333  0.47514963
   0.00000000  1.00000000  0.54542099
   0.00000000  1.00000000  0.57076659
Direct configuration=    38
   0.00000000 -0.00000000  0.00291205
   0.33333333  0.33333333  0.06953254
   0.66666667  0.66666667  0.13725954
  -0.00000000 -0.00000000  0.20548645
   0.33333333  0.33333333  0.27250392
   0.66666667  0.66666667  0.34110386
  -0.00000000  0.00000000  0.40848313
   0.33333333  0.33333333  0.47513634
   0.00000000  1.00000000  0.54565126
   0.00000000  1.00000000  0.57100002
Direct configuration=    39
   0.00000000 -0.00000000  0.00265847
   0.33333333  0.33333333  0.06935055
   0.66666667  0.66666667  0.13710677
  -0.00000000 -0.00000000  0.20536529
   0.33333333  0.33333333  0.27237953
   0.66666667  0.66666667  0.34102930
  -0.00000000  0.00000000  0.40849075
   0.33333333  0.33333333  0.47510977
   0.00000000  1.00000000  0.54611180
   0.00000000  1.00000000  0.57146688
Direct configuration=    40
   0.00000000 -0.00000000  0.00215132
   0.33333333  0.33333333  0.06898658
   0.66666667  0.66666667  0.13680123
  -0.00000000 -0.00000000  0.20512299
   0.33333333  0.33333333  0.27213073
   0.66666667  0.66666667  0.34088019
  -0.00000000  0.00000000  0.40850599
   0.33333333  0.33333333  0.47505662
   0.00000000  1.00000000  0.54703289
   0.00000000  1.00000000  0.57240060
Direct configuration=    41
   0.00000000 -0.00000000  0.00113702
   0.33333333  0.33333333  0.06825862
   0.66666667  0.66666667  0.13619014
  -0.00000000 -0.00000000  0.20463838
   0.33333333  0.33333333  0.27163313
   0.66666667  0.66666667  0.34058195
  -0.00000000  0.00000000  0.40853647
   0.33333333  0.33333333  0.47495033
   0.00000000  1.00000000  0.54887505
   0.00000000  1.00000000  0.57426804
Direct configuration=    42
   0.00000000 -0.00000000  0.00108074
   0.33333333  0.33333333  0.06822276
   0.66666667  0.66666667  0.13617270
  -0.00000000 -0.00000000  0.20453584
   0.33333333  0.33333333  0.27174256
   0.66666667  0.66666667  0.34052341
  -0.00000000  0.00000000  0.40846188
   0.33333333  0.33333333  0.47502752
   0.00000000  1.00000000  0.54886728
   0.00000000  1.00000000  0.57443445
Direct configuration=    43
   0.00000000 -0.00000000  0.00103360
   0.33333333  0.33333333  0.06819272
   0.66666667  0.66666667  0.13615809
  -0.00000000 -0.00000000  0.20444994
   0.33333333  0.33333333  0.27183422
   0.66666667  0.66666667  0.34047437
  -0.00000000  0.00000000  0.40839940
   0.33333333  0.33333333  0.47509218
   0.00000000  1.00000000  0.54886076
   0.00000000  1.00000000  0.57457384
Direct configuration=    44
   0.00000000 -0.00000000  0.00102039
   0.33333333  0.33333333  0.06818431
   0.66666667  0.66666667  0.13615400
  -0.00000000 -0.00000000  0.20442588
   0.33333333  0.33333333  0.27185990
   0.66666667  0.66666667  0.34046063
  -0.00000000  0.00000000  0.40838189
   0.33333333  0.33333333  0.47511030
   0.00000000  1.00000000  0.54885894
   0.00000000  1.00000000  0.57461289
Direct configuration=    45
   0.00000000 -0.00000000  0.00097067
   0.33333333  0.33333333  0.06815618
   0.66666667  0.66666667  0.13613241
  -0.00000000 -0.00000000  0.20432044
   0.33333333  0.33333333  0.27199310
   0.66666667  0.66666667  0.34038655
  -0.00000000  0.00000000  0.40828730
   0.33333333  0.33333333  0.47521867
   0.00000000  1.00000000  0.54899019
   0.00000000  1.00000000  0.57461362
Direct configuration=    46
   0.00000000 -0.00000000  0.00093905
   0.33333333  0.33333333  0.06813829
   0.66666667  0.66666667  0.13611867
  -0.00000000 -0.00000000  0.20425336
   0.33333333  0.33333333  0.27207784
   0.66666667  0.66666667  0.34033943
  -0.00000000  0.00000000  0.40822712
   0.33333333  0.33333333  0.47528761
   0.00000000  1.00000000  0.54907368
   0.00000000  1.00000000  0.57461409
Direct configuration=    47
   0.00000000 -0.00000000  0.00094823
   0.33333333  0.33333333  0.06814348
   0.66666667  0.66666667  0.13612265
  -0.00000000 -0.00000000  0.20427283
   0.33333333  0.33333333  0.27205325
   0.66666667  0.66666667  0.34035310
  -0.00000000  0.00000000  0.40824459
   0.33333333  0.33333333  0.47526760
   0.00000000  1.00000000  0.54904945
   0.00000000  1.00000000  0.57461395
Direct configuration=    48
   0.00000000 -0.00000000  0.00094374
   0.33333333  0.33333333  0.06814094
   0.66666667  0.66666667  0.13612071
  -0.00000000 -0.00000000  0.20426331
   0.33333333  0.33333333  0.27206527
   0.66666667  0.66666667  0.34034642
  -0.00000000  0.00000000  0.40823605
   0.33333333  0.33333333  0.47527738
   0.00000000  1.00000000  0.54906129
   0.00000000  1.00000000  0.57461402
Direct configuration=    49
   0.00000000 -0.00000000  0.00094491
   0.33333333  0.33333333  0.06814160
   0.66666667  0.66666667  0.13612121
  -0.00000000 -0.00000000  0.20426578
   0.33333333  0.33333333  0.27206214
   0.66666667  0.66666667  0.34034816
  -0.00000000  0.00000000  0.40823827
   0.33333333  0.33333333  0.47527484
   0.00000000  1.00000000  0.54905822
   0.00000000  1.00000000  0.57461400
Direct configuration=    50
   0.00000000 -0.00000000  0.00094383
   0.33333333  0.33333333  0.06814099
   0.66666667  0.66666667  0.13612074
  -0.00000000 -0.00000000  0.20426349
   0.33333333  0.33333333  0.27206504
   0.66666667  0.66666667  0.34034655
  -0.00000000  0.00000000  0.40823621
   0.33333333  0.33333333  0.47527719
   0.00000000  1.00000000  0.54906107
   0.00000000  1.00000000  0.57461402
Direct configuration=    51
   0.00000000 -0.00000000  0.00094437
   0.33333333  0.33333333  0.06814130
   0.66666667  0.66666667  0.13612098
  -0.00000000 -0.00000000  0.20426464
   0.33333333  0.33333333  0.27206359
   0.66666667  0.66666667  0.34034735
  -0.00000000  0.00000000  0.40823724
   0.33333333  0.33333333  0.47527601
   0.00000000  1.00000000  0.54905964
   0.00000000  1.00000000  0.57461401
Direct configuration=    52
   0.00000000 -0.00000000  0.00094408
   0.33333333  0.33333333  0.06814113
   0.66666667  0.66666667  0.13612085
  -0.00000000 -0.00000000  0.20426402
   0.33333333  0.33333333  0.27206437
   0.66666667  0.66666667  0.34034692
  -0.00000000  0.00000000  0.40823669
   0.33333333  0.33333333  0.47527665
   0.00000000  1.00000000  0.54906041
   0.00000000  1.00000000  0.57461402
Direct configuration=    53
   0.00000000 -0.00000000  0.00092725
   0.33333333  0.33333333  0.06812448
   0.66666667  0.66666667  0.13609033
  -0.00000000 -0.00000000  0.20428703
   0.33333333  0.33333333  0.27205613
   0.66666667  0.66666667  0.34034715
  -0.00000000  0.00000000  0.40823261
   0.33333333  0.33333333  0.47530161
   0.00000000  1.00000000  0.54908056
   0.00000000  1.00000000  0.57462198
