  72  72   0   0
  0.2793355E+02  0.1089000E-08  0.7700393E-09  0.2398379E-08  0.5000000E-15
  1.000000000000000E-004
  CAR 
 unknown system                          
     11.33503836    -10.37014646  301      0.62769718      1.00000000
    -10.370  0.0000E+00  0.0000E+00  0.0000E+00  0.0000E+00
    -10.298  0.0000E+00  0.0000E+00  0.0000E+00  0.0000E+00
    -10.225  0.0000E+00  0.0000E+00  0.0000E+00  0.0000E+00
    -10.153  0.0000E+00  0.0000E+00  0.0000E+00  0.0000E+00
    -10.081  0.0000E+00  0.0000E+00  0.0000E+00  0.0000E+00
    -10.008 -0.3217E-31 -0.3217E-31 -0.2327E-32 -0.2327E-32
     -9.936 -0.1008E-28 -0.1008E-28 -0.7315E-30 -0.7315E-30
     -9.864 -0.2431E-26 -0.2431E-26 -0.1766E-27 -0.1766E-27
     -9.791 -0.4501E-24 -0.4500E-24 -0.3274E-25 -0.3274E-25
     -9.719 -0.6395E-22 -0.6395E-22 -0.4660E-23 -0.4659E-23
     -9.647 -0.6971E-20 -0.6971E-20 -0.5090E-21 -0.5090E-21
     -9.574 -0.5826E-18 -0.5826E-18 -0.4266E-19 -0.4266E-19
     -9.502 -0.3614E-16 -0.3614E-16 -0.2658E-17 -0.2658E-17
     -9.430 -0.1766E-14 -0.1766E-14 -0.1304E-15 -0.1304E-15
     -9.357 -0.6591E-13 -0.6591E-13 -0.4899E-14 -0.4899E-14
     -9.285 -0.1877E-11 -0.1877E-11 -0.1407E-12 -0.1407E-12
     -9.213 -0.4073E-10 -0.4073E-10 -0.3088E-11 -0.3088E-11
     -9.140 -0.6717E-09 -0.6717E-09 -0.5168E-10 -0.5168E-10
     -9.068 -0.8388E-08 -0.8388E-08 -0.6586E-09 -0.6586E-09
     -8.995 -0.7898E-07 -0.7898E-07 -0.6373E-08 -0.6373E-08
     -8.923 -0.5568E-06 -0.5568E-06 -0.4666E-07 -0.4666E-07
     -8.851 -0.2908E-05 -0.2908E-05 -0.2571E-06 -0.2571E-06
     -8.778 -0.1105E-04 -0.1105E-04 -0.1056E-05 -0.1056E-05
     -8.706 -0.2937E-04 -0.2937E-04 -0.3181E-05 -0.3181E-05
     -8.634 -0.4891E-04 -0.4891E-04 -0.6720E-05 -0.6720E-05
     -8.561 -0.2493E-04 -0.2493E-04 -0.8524E-05 -0.8524E-05
     -8.489  0.1181E-03  0.1181E-03  0.1951E-07  0.1949E-07
     -8.417  0.4269E-03  0.4269E-03  0.3090E-04  0.3090E-04
     -8.344  0.8583E-03  0.8583E-03  0.9300E-04  0.9300E-04
     -8.272  0.1295E-02  0.1295E-02  0.1867E-03  0.1867E-03
     -8.200  0.1645E-02  0.1645E-02  0.3057E-03  0.3057E-03
     -8.127  0.1947E-02  0.1947E-02  0.4466E-03  0.4466E-03
     -8.055  0.2348E-02  0.2348E-02  0.6165E-03  0.6165E-03
     -7.983  0.2845E-02  0.2845E-02  0.8223E-03  0.8223E-03
     -7.910  0.3128E-02  0.3128E-02  0.1049E-02  0.1049E-02
     -7.838  0.2846E-02  0.2846E-02  0.1255E-02  0.1255E-02
     -7.766  0.2061E-02  0.2061E-02  0.1404E-02  0.1404E-02
     -7.693  0.1316E-02  0.1316E-02  0.1499E-02  0.1499E-02
     -7.621  0.1190E-02  0.1190E-02  0.1585E-02  0.1585E-02
     -7.548  0.1673E-02  0.1673E-02  0.1706E-02  0.1706E-02
     -7.476  0.2123E-02  0.2123E-02  0.1860E-02  0.1860E-02
     -7.404  0.2108E-02  0.2108E-02  0.2012E-02  0.2012E-02
     -7.331  0.2074E-02  0.2074E-02  0.2162E-02  0.2162E-02
     -7.259  0.2778E-02  0.2778E-02  0.2363E-02  0.2363E-02
     -7.187  0.4236E-02  0.4236E-02  0.2670E-02  0.2670E-02
     -7.114  0.5604E-02  0.5604E-02  0.3075E-02  0.3075E-02
     -7.042  0.6100E-02  0.6100E-02  0.3516E-02  0.3516E-02
     -6.970  0.5891E-02  0.5891E-02  0.3943E-02  0.3943E-02
     -6.897  0.5753E-02  0.5753E-02  0.4359E-02  0.4359E-02
     -6.825  0.5913E-02  0.5913E-02  0.4787E-02  0.4787E-02
     -6.753  0.5802E-02  0.5802E-02  0.5206E-02  0.5206E-02
     -6.680  0.5038E-02  0.5038E-02  0.5571E-02  0.5571E-02
     -6.608  0.3959E-02  0.3959E-02  0.5857E-02  0.5857E-02
     -6.536  0.2990E-02  0.2990E-02  0.6074E-02  0.6074E-02
     -6.463  0.2116E-02  0.2116E-02  0.6227E-02  0.6227E-02
     -6.391  0.1405E-02  0.1405E-02  0.6328E-02  0.6328E-02
     -6.319  0.1512E-02  0.1512E-02  0.6438E-02  0.6438E-02
     -6.246  0.2979E-02  0.2979E-02  0.6653E-02  0.6653E-02
     -6.174  0.5278E-02  0.5278E-02  0.7035E-02  0.7035E-02
     -6.101  0.7249E-02  0.7249E-02  0.7560E-02  0.7560E-02
     -6.029  0.8473E-02  0.8473E-02  0.8173E-02  0.8173E-02
     -5.957  0.9456E-02  0.9456E-02  0.8857E-02  0.8857E-02
     -5.884  0.1028E-01  0.1028E-01  0.9601E-02  0.9601E-02
     -5.812  0.1017E-01  0.1017E-01  0.1034E-01  0.1034E-01
     -5.740  0.8854E-02  0.8854E-02  0.1098E-01  0.1098E-01
     -5.667  0.7283E-02  0.7283E-02  0.1150E-01  0.1150E-01
     -5.595  0.6320E-02  0.6320E-02  0.1196E-01  0.1196E-01
     -5.523  0.5711E-02  0.5711E-02  0.1237E-01  0.1237E-01
     -5.450  0.5066E-02  0.5066E-02  0.1274E-01  0.1274E-01
     -5.378  0.5035E-02  0.5035E-02  0.1311E-01  0.1311E-01
     -5.306  0.6526E-02  0.6526E-02  0.1358E-01  0.1358E-01
     -5.233  0.9364E-02  0.9364E-02  0.1425E-01  0.1425E-01
     -5.161  0.1240E-01  0.1240E-01  0.1515E-01  0.1515E-01
     -5.089  0.1434E-01  0.1434E-01  0.1619E-01  0.1619E-01
     -5.016  0.1422E-01  0.1422E-01  0.1722E-01  0.1722E-01
     -4.944  0.1198E-01  0.1198E-01  0.1808E-01  0.1808E-01
     -4.871  0.8786E-02  0.8786E-02  0.1872E-01  0.1872E-01
     -4.799  0.6448E-02  0.6448E-02  0.1919E-01  0.1919E-01
     -4.727  0.6269E-02  0.6269E-02  0.1964E-01  0.1964E-01
     -4.654  0.8407E-02  0.8407E-02  0.2025E-01  0.2025E-01
     -4.582  0.1226E-01  0.1226E-01  0.2114E-01  0.2114E-01
     -4.510  0.1722E-01  0.1722E-01  0.2238E-01  0.2238E-01
     -4.437  0.2275E-01  0.2275E-01  0.2403E-01  0.2403E-01
     -4.365  0.2801E-01  0.2801E-01  0.2605E-01  0.2605E-01
     -4.293  0.3188E-01  0.3188E-01  0.2836E-01  0.2836E-01
     -4.220  0.3352E-01  0.3352E-01  0.3079E-01  0.3079E-01
     -4.148  0.3318E-01  0.3318E-01  0.3319E-01  0.3319E-01
     -4.076  0.3263E-01  0.3263E-01  0.3555E-01  0.3555E-01
     -4.003  0.3394E-01  0.3394E-01  0.3800E-01  0.3800E-01
     -3.931  0.3710E-01  0.3710E-01  0.4069E-01  0.4069E-01
     -3.859  0.4061E-01  0.4061E-01  0.4363E-01  0.4363E-01
     -3.786  0.4523E-01  0.4523E-01  0.4690E-01  0.4690E-01
     -3.714  0.5409E-01  0.5409E-01  0.5081E-01  0.5081E-01
     -3.642  0.6708E-01  0.6708E-01  0.5567E-01  0.5567E-01
     -3.569  0.7862E-01  0.7862E-01  0.6135E-01  0.6135E-01
     -3.497  0.8400E-01  0.8400E-01  0.6743E-01  0.6743E-01
     -3.424  0.8517E-01  0.8517E-01  0.7359E-01  0.7359E-01
     -3.352  0.8690E-01  0.8690E-01  0.7988E-01  0.7988E-01
     -3.280  0.8945E-01  0.8945E-01  0.8635E-01  0.8635E-01
     -3.207  0.8862E-01  0.8862E-01  0.9276E-01  0.9276E-01
     -3.135  0.8279E-01  0.8279E-01  0.9875E-01  0.9875E-01
     -3.063  0.7659E-01  0.7659E-01  0.1043E+00  0.1043E+00
     -2.990  0.7682E-01  0.7682E-01  0.1099E+00  0.1099E+00
     -2.918  0.8616E-01  0.8616E-01  0.1161E+00  0.1161E+00
     -2.846  0.1013E+00  0.1013E+00  0.1234E+00  0.1234E+00
     -2.773  0.1160E+00  0.1160E+00  0.1318E+00  0.1318E+00
     -2.701  0.1253E+00  0.1253E+00  0.1409E+00  0.1409E+00
     -2.629  0.1282E+00  0.1282E+00  0.1502E+00  0.1502E+00
     -2.556  0.1288E+00  0.1288E+00  0.1595E+00  0.1595E+00
     -2.484  0.1336E+00  0.1336E+00  0.1691E+00  0.1691E+00
     -2.412  0.1473E+00  0.1473E+00  0.1798E+00  0.1798E+00
     -2.339  0.1673E+00  0.1673E+00  0.1919E+00  0.1919E+00
     -2.267  0.1835E+00  0.1835E+00  0.2052E+00  0.2052E+00
     -2.195  0.1858E+00  0.1858E+00  0.2186E+00  0.2186E+00
     -2.122  0.1733E+00  0.1733E+00  0.2312E+00  0.2312E+00
     -2.050  0.1540E+00  0.1540E+00  0.2423E+00  0.2423E+00
     -1.977  0.1372E+00  0.1372E+00  0.2522E+00  0.2522E+00
     -1.905  0.1278E+00  0.1278E+00  0.2615E+00  0.2615E+00
     -1.833  0.1261E+00  0.1261E+00  0.2706E+00  0.2706E+00
     -1.760  0.1315E+00  0.1315E+00  0.2801E+00  0.2801E+00
     -1.688  0.1432E+00  0.1432E+00  0.2905E+00  0.2905E+00
     -1.616  0.1572E+00  0.1572E+00  0.3018E+00  0.3018E+00
     -1.543  0.1673E+00  0.1673E+00  0.3139E+00  0.3139E+00
     -1.471  0.1710E+00  0.1710E+00  0.3263E+00  0.3263E+00
     -1.399  0.1722E+00  0.1722E+00  0.3388E+00  0.3388E+00
     -1.326  0.1736E+00  0.1736E+00  0.3513E+00  0.3513E+00
     -1.254  0.1734E+00  0.1734E+00  0.3639E+00  0.3639E+00
     -1.182  0.1726E+00  0.1726E+00  0.3764E+00  0.3764E+00
     -1.109  0.1789E+00  0.1789E+00  0.3893E+00  0.3893E+00
     -1.037  0.1984E+00  0.1984E+00  0.4037E+00  0.4037E+00
     -0.965  0.2232E+00  0.2232E+00  0.4198E+00  0.4198E+00
     -0.892  0.2334E+00  0.2334E+00  0.4367E+00  0.4367E+00
     -0.820  0.2119E+00  0.2119E+00  0.4520E+00  0.4520E+00
     -0.748  0.1598E+00  0.1598E+00  0.4636E+00  0.4636E+00
     -0.675  0.9675E-01  0.9675E-01  0.4706E+00  0.4706E+00
     -0.603  0.4633E-01  0.4633E-01  0.4739E+00  0.4739E+00
     -0.530  0.2004E-01  0.2004E-01  0.4754E+00  0.4754E+00
     -0.458  0.1422E-01  0.1422E-01  0.4764E+00  0.4764E+00
     -0.386  0.1826E-01  0.1826E-01  0.4777E+00  0.4777E+00
     -0.313  0.2282E-01  0.2282E-01  0.4794E+00  0.4794E+00
     -0.241  0.2271E-01  0.2271E-01  0.4810E+00  0.4810E+00
     -0.169  0.1784E-01  0.1784E-01  0.4823E+00  0.4823E+00
     -0.096  0.1257E-01  0.1257E-01  0.4832E+00  0.4832E+00
     -0.024  0.1106E-01  0.1106E-01  0.4840E+00  0.4840E+00
      0.048  0.1311E-01  0.1311E-01  0.4850E+00  0.4850E+00
      0.121  0.1536E-01  0.1536E-01  0.4861E+00  0.4861E+00
      0.193  0.1575E-01  0.1575E-01  0.4872E+00  0.4872E+00
      0.265  0.1521E-01  0.1521E-01  0.4883E+00  0.4883E+00
      0.338  0.1553E-01  0.1553E-01  0.4895E+00  0.4895E+00
      0.410  0.1713E-01  0.1713E-01  0.4907E+00  0.4907E+00
      0.482  0.1924E-01  0.1924E-01  0.4921E+00  0.4921E+00
      0.555  0.2052E-01  0.2052E-01  0.4936E+00  0.4936E+00
      0.627  0.1944E-01  0.1944E-01  0.4950E+00  0.4950E+00
      0.699  0.1550E-01  0.1550E-01  0.4961E+00  0.4961E+00
      0.772  0.1049E-01  0.1049E-01  0.4969E+00  0.4969E+00
      0.844  0.7398E-02  0.7398E-02  0.4974E+00  0.4974E+00
      0.917  0.7524E-02  0.7524E-02  0.4980E+00  0.4980E+00
      0.989  0.9454E-02  0.9454E-02  0.4986E+00  0.4986E+00
      1.061  0.1129E-01  0.1129E-01  0.4995E+00  0.4995E+00
      1.134  0.1292E-01  0.1292E-01  0.5004E+00  0.5004E+00
      1.206  0.1507E-01  0.1507E-01  0.5015E+00  0.5015E+00
      1.278  0.1718E-01  0.1718E-01  0.5027E+00  0.5027E+00
      1.351  0.1789E-01  0.1789E-01  0.5040E+00  0.5040E+00
      1.423  0.1682E-01  0.1682E-01  0.5052E+00  0.5052E+00
      1.495  0.1482E-01  0.1482E-01  0.5063E+00  0.5063E+00
      1.568  0.1282E-01  0.1282E-01  0.5072E+00  0.5072E+00
      1.640  0.1128E-01  0.1128E-01  0.5080E+00  0.5080E+00
      1.712  0.1024E-01  0.1024E-01  0.5088E+00  0.5088E+00
      1.785  0.9699E-02  0.9699E-02  0.5095E+00  0.5095E+00
      1.857  0.9871E-02  0.9871E-02  0.5102E+00  0.5102E+00
      1.929  0.1112E-01  0.1112E-01  0.5110E+00  0.5110E+00
      2.002  0.1309E-01  0.1309E-01  0.5120E+00  0.5120E+00
      2.074  0.1429E-01  0.1429E-01  0.5130E+00  0.5130E+00
      2.147  0.1386E-01  0.1386E-01  0.5140E+00  0.5140E+00
      2.219  0.1319E-01  0.1319E-01  0.5149E+00  0.5149E+00
      2.291  0.1443E-01  0.1443E-01  0.5160E+00  0.5160E+00
      2.364  0.1758E-01  0.1758E-01  0.5173E+00  0.5173E+00
      2.436  0.2026E-01  0.2026E-01  0.5187E+00  0.5187E+00
      2.508  0.2017E-01  0.2017E-01  0.5202E+00  0.5202E+00
      2.581  0.1731E-01  0.1731E-01  0.5214E+00  0.5214E+00
      2.653  0.1388E-01  0.1388E-01  0.5224E+00  0.5224E+00
      2.725  0.1222E-01  0.1222E-01  0.5233E+00  0.5233E+00
      2.798  0.1276E-01  0.1276E-01  0.5243E+00  0.5243E+00
      2.870  0.1433E-01  0.1433E-01  0.5253E+00  0.5253E+00
      2.942  0.1588E-01  0.1588E-01  0.5264E+00  0.5264E+00
      3.015  0.1673E-01  0.1673E-01  0.5276E+00  0.5276E+00
      3.087  0.1605E-01  0.1605E-01  0.5288E+00  0.5288E+00
      3.159  0.1380E-01  0.1380E-01  0.5298E+00  0.5298E+00
      3.232  0.1130E-01  0.1130E-01  0.5306E+00  0.5306E+00
      3.304  0.9822E-02  0.9822E-02  0.5313E+00  0.5313E+00
      3.376  0.9112E-02  0.9112E-02  0.5320E+00  0.5320E+00
      3.449  0.8238E-02  0.8238E-02  0.5326E+00  0.5326E+00
      3.521  0.7580E-02  0.7580E-02  0.5331E+00  0.5331E+00
      3.594  0.8391E-02  0.8391E-02  0.5337E+00  0.5337E+00
      3.666  0.1052E-01  0.1052E-01  0.5345E+00  0.5345E+00
      3.738  0.1250E-01  0.1250E-01  0.5354E+00  0.5354E+00
      3.811  0.1405E-01  0.1405E-01  0.5364E+00  0.5364E+00
      3.883  0.1622E-01  0.1622E-01  0.5376E+00  0.5376E+00
      3.955  0.1886E-01  0.1886E-01  0.5390E+00  0.5390E+00
      4.028  0.1998E-01  0.1998E-01  0.5404E+00  0.5404E+00
      4.100  0.1845E-01  0.1845E-01  0.5417E+00  0.5417E+00
      4.172  0.1524E-01  0.1524E-01  0.5428E+00  0.5428E+00
      4.245  0.1148E-01  0.1148E-01  0.5437E+00  0.5437E+00
      4.317  0.7488E-02  0.7488E-02  0.5442E+00  0.5442E+00
      4.389  0.4087E-02  0.4088E-02  0.5445E+00  0.5445E+00
      4.462  0.3127E-02  0.3127E-02  0.5447E+00  0.5447E+00
      4.534  0.5714E-02  0.5714E-02  0.5452E+00  0.5452E+00
      4.606  0.1081E-01  0.1081E-01  0.5459E+00  0.5459E+00
      4.679  0.1559E-01  0.1559E-01  0.5471E+00  0.5471E+00
      4.751  0.1707E-01  0.1707E-01  0.5483E+00  0.5483E+00
      4.823  0.1435E-01  0.1435E-01  0.5493E+00  0.5493E+00
      4.896  0.9711E-02  0.9710E-02  0.5500E+00  0.5500E+00
      4.968  0.6742E-02  0.6741E-02  0.5505E+00  0.5505E+00
      5.041  0.7091E-02  0.7090E-02  0.5510E+00  0.5510E+00
      5.113  0.9661E-02  0.9659E-02  0.5517E+00  0.5517E+00
      5.185  0.1259E-01  0.1259E-01  0.5527E+00  0.5527E+00
      5.258  0.1488E-01  0.1487E-01  0.5537E+00  0.5537E+00
      5.330  0.1622E-01  0.1621E-01  0.5549E+00  0.5549E+00
      5.402  0.1696E-01  0.1696E-01  0.5561E+00  0.5561E+00
      5.475  0.1820E-01  0.1820E-01  0.5574E+00  0.5574E+00
      5.547  0.2050E-01  0.2049E-01  0.5589E+00  0.5589E+00
      5.619  0.2272E-01  0.2272E-01  0.5606E+00  0.5606E+00
      5.692  0.2346E-01  0.2346E-01  0.5623E+00  0.5623E+00
      5.764  0.2241E-01  0.2242E-01  0.5639E+00  0.5639E+00
      5.836  0.1977E-01  0.1978E-01  0.5653E+00  0.5653E+00
      5.909  0.1622E-01  0.1622E-01  0.5665E+00  0.5665E+00
      5.981  0.1388E-01  0.1388E-01  0.5675E+00  0.5675E+00
      6.053  0.1479E-01  0.1479E-01  0.5686E+00  0.5686E+00
      6.126  0.1820E-01  0.1820E-01  0.5699E+00  0.5699E+00
      6.198  0.2139E-01  0.2138E-01  0.5714E+00  0.5714E+00
      6.270  0.2302E-01  0.2302E-01  0.5731E+00  0.5731E+00
      6.343  0.2403E-01  0.2403E-01  0.5748E+00  0.5748E+00
      6.415  0.2529E-01  0.2529E-01  0.5767E+00  0.5767E+00
      6.488  0.2608E-01  0.2609E-01  0.5786E+00  0.5786E+00
      6.560  0.2534E-01  0.2534E-01  0.5804E+00  0.5804E+00
      6.632  0.2342E-01  0.2342E-01  0.5821E+00  0.5821E+00
      6.705  0.2159E-01  0.2159E-01  0.5836E+00  0.5836E+00
      6.777  0.1997E-01  0.1997E-01  0.5851E+00  0.5851E+00
      6.849  0.1790E-01  0.1790E-01  0.5864E+00  0.5864E+00
      6.922  0.1594E-01  0.1594E-01  0.5875E+00  0.5875E+00
      6.994  0.1487E-01  0.1487E-01  0.5886E+00  0.5886E+00
      7.066  0.1367E-01  0.1367E-01  0.5896E+00  0.5896E+00
      7.139  0.1130E-01  0.1130E-01  0.5904E+00  0.5904E+00
      7.211  0.9447E-02  0.9450E-02  0.5911E+00  0.5911E+00
      7.283  0.1081E-01  0.1081E-01  0.5919E+00  0.5919E+00
      7.356  0.1584E-01  0.1584E-01  0.5930E+00  0.5930E+00
      7.428  0.2328E-01  0.2327E-01  0.5947E+00  0.5947E+00
      7.500  0.3202E-01  0.3202E-01  0.5970E+00  0.5970E+00
      7.573  0.3982E-01  0.3981E-01  0.5999E+00  0.5999E+00
      7.645  0.4222E-01  0.4222E-01  0.6030E+00  0.6030E+00
      7.718  0.3715E-01  0.3715E-01  0.6057E+00  0.6057E+00
      7.790  0.2859E-01  0.2859E-01  0.6077E+00  0.6077E+00
      7.862  0.2219E-01  0.2219E-01  0.6093E+00  0.6093E+00
      7.935  0.1907E-01  0.1908E-01  0.6107E+00  0.6107E+00
      8.007  0.1700E-01  0.1701E-01  0.6119E+00  0.6119E+00
      8.079  0.1536E-01  0.1536E-01  0.6131E+00  0.6131E+00
      8.152  0.1537E-01  0.1537E-01  0.6142E+00  0.6142E+00
      8.224  0.1700E-01  0.1700E-01  0.6154E+00  0.6154E+00
      8.296  0.1889E-01  0.1889E-01  0.6168E+00  0.6168E+00
      8.369  0.2037E-01  0.2037E-01  0.6182E+00  0.6182E+00
      8.441  0.2164E-01  0.2164E-01  0.6198E+00  0.6198E+00
      8.513  0.2267E-01  0.2267E-01  0.6214E+00  0.6214E+00
      8.586  0.2294E-01  0.2294E-01  0.6231E+00  0.6231E+00
      8.658  0.2258E-01  0.2258E-01  0.6247E+00  0.6247E+00
      8.730  0.2296E-01  0.2295E-01  0.6264E+00  0.6264E+00
      8.803  0.2489E-01  0.2489E-01  0.6282E+00  0.6282E+00
      8.875  0.2680E-01  0.2680E-01  0.6301E+00  0.6301E+00
      8.947  0.2636E-01  0.2637E-01  0.6320E+00  0.6320E+00
      9.020  0.2357E-01  0.2357E-01  0.6338E+00  0.6337E+00
      9.092  0.2047E-01  0.2047E-01  0.6352E+00  0.6352E+00
      9.165  0.1853E-01  0.1852E-01  0.6366E+00  0.6366E+00
      9.237  0.1722E-01  0.1721E-01  0.6378E+00  0.6378E+00
      9.309  0.1481E-01  0.1480E-01  0.6389E+00  0.6389E+00
      9.382  0.1041E-01  0.1042E-01  0.6396E+00  0.6396E+00
      9.454  0.5194E-02  0.5213E-02  0.6400E+00  0.6400E+00
      9.526  0.1269E-02  0.1287E-02  0.6401E+00  0.6401E+00
      9.599 -0.4380E-03 -0.4298E-03  0.6401E+00  0.6401E+00
      9.671 -0.6152E-03 -0.6143E-03  0.6400E+00  0.6400E+00
      9.743 -0.3292E-03 -0.3305E-03  0.6400E+00  0.6400E+00
      9.816 -0.1127E-03 -0.1136E-03  0.6400E+00  0.6400E+00
      9.888 -0.2724E-04 -0.2756E-04  0.6400E+00  0.6400E+00
      9.960 -0.4819E-05 -0.4895E-05  0.6400E+00  0.6400E+00
     10.033 -0.6354E-06 -0.6480E-06  0.6400E+00  0.6400E+00
     10.105 -0.6305E-07 -0.6457E-07  0.6400E+00  0.6400E+00
     10.177 -0.4738E-08 -0.4873E-08  0.6400E+00  0.6400E+00
     10.250 -0.2707E-09 -0.2797E-09  0.6400E+00  0.6400E+00
     10.322 -0.1179E-10 -0.1224E-10  0.6400E+00  0.6400E+00
     10.394 -0.3924E-12 -0.4094E-12  0.6400E+00  0.6400E+00
     10.467 -0.9988E-14 -0.1048E-13  0.6400E+00  0.6400E+00
     10.539 -0.1969E-15 -0.2072E-15  0.6400E+00  0.6400E+00
     10.612 -0.2558E-17 -0.2558E-17  0.6400E+00  0.6400E+00
     10.684  0.0000E+00  0.0000E+00  0.6400E+00  0.6400E+00
     10.756  0.0000E+00  0.0000E+00  0.6400E+00  0.6400E+00
     10.829  0.0000E+00  0.0000E+00  0.6400E+00  0.6400E+00
     10.901  0.0000E+00  0.0000E+00  0.6400E+00  0.6400E+00
     10.973  0.0000E+00  0.0000E+00  0.6400E+00  0.6400E+00
     11.046  0.0000E+00  0.0000E+00  0.6400E+00  0.6400E+00
     11.118  0.0000E+00  0.0000E+00  0.6400E+00  0.6400E+00
     11.190  0.0000E+00  0.0000E+00  0.6400E+00  0.6400E+00
     11.263  0.0000E+00  0.0000E+00  0.6400E+00  0.6400E+00
     11.335  0.0000E+00  0.0000E+00  0.6400E+00  0.6400E+00
