       N       E                     dE             d eps       ncg     rms          rms(c)
DAV:   1     0.734802689375E+04    0.73480E+04   -0.28342E+05  8192   0.174E+03
DAV:   2     0.892536642369E+03   -0.64555E+04   -0.61825E+04  8192   0.413E+02
DAV:   3    -0.217149853617E+03   -0.11097E+04   -0.99734E+03  8192   0.213E+02
DAV:   4    -0.296559697006E+03   -0.79410E+02   -0.76442E+02  9152   0.809E+01
DAV:   5    -0.298519610585E+03   -0.19599E+01   -0.19522E+01  9168   0.121E+01    0.777E+01
DAV:   6    -0.243889372001E+03    0.54630E+02   -0.71228E+02  8800   0.122E+02    0.399E+01
DAV:   7    -0.209779954419E+03    0.34109E+02   -0.18106E+02  8936   0.783E+01    0.198E+01
DAV:   8    -0.204420966511E+03    0.53590E+01   -0.45353E+01  9592   0.675E+01    0.186E+01
DAV:   9    -0.199313686616E+03    0.51073E+01   -0.13044E+01 11152   0.332E+01    0.147E+01
DAV:  10    -0.198338852546E+03    0.97483E+00   -0.12597E+01 12272   0.342E+01    0.129E+01
DAV:  11    -0.199971630400E+03   -0.16328E+01   -0.13050E+01  9720   0.364E+01    0.107E+01
DAV:  12    -0.210702890498E+03   -0.10731E+02   -0.83650E+00 10104   0.138E+01    0.501E+00
DAV:  13    -0.223304428962E+03   -0.12602E+02   -0.65056E+00 10408   0.199E+01    0.392E+00
DAV:  14    -0.229308779621E+03   -0.60044E+01   -0.35319E+00 12568   0.188E+01    0.296E+00
DAV:  15    -0.239329959560E+03   -0.10021E+02   -0.80092E+00 11208   0.103E+01    0.209E+00
DAV:  16    -0.245026296410E+03   -0.56963E+01   -0.54254E+00  8944   0.728E+00    0.172E+00
DAV:  17    -0.246884176624E+03   -0.18579E+01   -0.12065E+00  9232   0.424E+00    0.135E+00
DAV:  18    -0.248191477415E+03   -0.13073E+01   -0.12171E+00 11416   0.402E+00    0.982E-01
DAV:  19    -0.248962139773E+03   -0.77066E+00   -0.28425E-01  9576   0.267E+00    0.864E-01
DAV:  20    -0.250041094652E+03   -0.10790E+01   -0.30835E-01 10080   0.228E+00    0.728E-01
DAV:  21    -0.250372079064E+03   -0.33098E+00   -0.47170E-02 10592   0.125E+00    0.587E-01
DAV:  22    -0.250873234194E+03   -0.50116E+00   -0.60898E-02  9808   0.178E+00    0.413E-01
DAV:  23    -0.251274151669E+03   -0.40092E+00   -0.32727E-02 10008   0.811E-01    0.326E-01
DAV:  24    -0.251758597018E+03   -0.48445E+00   -0.27351E-02  9936   0.730E-01    0.316E-01
DAV:  25    -0.252050473822E+03   -0.29188E+00   -0.80859E-03 10208   0.571E-01    0.161E-01
DAV:  26    -0.252135245395E+03   -0.84772E-01   -0.59376E-03  9648   0.531E-01    0.133E-01
DAV:  27    -0.252170164629E+03   -0.34919E-01   -0.29617E-03  9808   0.273E-01    0.790E-02
DAV:  28    -0.252194199386E+03   -0.24035E-01   -0.12487E-03  8384   0.226E-01    0.508E-02
DAV:  29    -0.252199197149E+03   -0.49978E-02   -0.51158E-04  6384   0.121E-01    0.268E-02
DAV:  30    -0.252199960875E+03   -0.76373E-03   -0.17604E-04  5512   0.697E-02    0.161E-02
DAV:  31    -0.252200102024E+03   -0.14115E-03   -0.60244E-05  5232   0.553E-02
   1 F= -.27889050E+03 E0= -.27887593E+03  d E =-.278891E+03  mag=     0.0045
       N       E                     dE             d eps       ncg     rms          rms(c)
DAV:   1    -0.252266203810E+03   -0.66243E-01   -0.48212E+01  9064   0.973E+00    0.688E-01
DAV:   2    -0.252358091647E+03   -0.91888E-01   -0.97987E-01 12352   0.466E+00    0.910E-01
DAV:   3    -0.252349684170E+03    0.84075E-02   -0.68296E-02  8984   0.357E+00    0.404E-01
DAV:   4    -0.252348915036E+03    0.76913E-03   -0.15027E-02  9576   0.133E+00    0.361E-01
DAV:   5    -0.252348926336E+03   -0.11300E-04   -0.98876E-03  8792   0.790E-01    0.313E-01
DAV:   6    -0.252347708664E+03    0.12177E-02   -0.54982E-03  9424   0.499E-01    0.145E-01
DAV:   7    -0.252347646228E+03    0.62437E-04   -0.32588E-03 11744   0.656E-01    0.911E-02
DAV:   8    -0.252347534435E+03    0.11179E-03   -0.46509E-04  5952   0.422E-01
   2 F= -.27904298E+03 E0= -.27902839E+03  d E =-.152479E+00  mag=     0.0025
       N       E                     dE             d eps       ncg     rms          rms(c)
DAV:   1    -0.251694917603E+03    0.65273E+00   -0.42889E+02  9216   0.305E+01    0.213E+00
DAV:   2    -0.252645115286E+03   -0.95020E+00   -0.99856E+00 12680   0.151E+01    0.278E+00
DAV:   3    -0.252549457160E+03    0.95658E-01   -0.56924E-01  8976   0.111E+01    0.115E+00
DAV:   4    -0.252545663658E+03    0.37935E-02   -0.14356E-01  9672   0.391E+00    0.106E+00
DAV:   5    -0.252547557755E+03   -0.18941E-02   -0.10497E-01  8616   0.246E+00    0.927E-01
DAV:   6    -0.252537647399E+03    0.99104E-02   -0.40500E-02  9912   0.127E+00    0.502E-01
DAV:   7    -0.252534826891E+03    0.28205E-02   -0.32556E-02 13080   0.156E+00    0.228E-01
DAV:   8    -0.252533935350E+03    0.89154E-03   -0.42422E-03  9048   0.118E+00    0.159E-01
DAV:   9    -0.252533806632E+03    0.12872E-03   -0.35091E-03  8856   0.450E-01    0.906E-02
DAV:  10    -0.252533802798E+03    0.38338E-05   -0.10317E-03  7888   0.191E-01
   3 F= -.27924705E+03 E0= -.27923216E+03  d E =-.356547E+00  mag=     0.0011
       N       E                     dE             d eps       ncg     rms          rms(c)
DAV:   1    -0.252514563125E+03    0.19244E-01   -0.17767E+01  9032   0.607E+00    0.266E-01
DAV:   2    -0.252545251904E+03   -0.30689E-01   -0.31019E-01 11976   0.200E+00    0.386E-01
DAV:   3    -0.252544808337E+03    0.44357E-03   -0.18986E-02  8632   0.156E+00    0.253E-01
DAV:   4    -0.252544648456E+03    0.15988E-03   -0.41982E-03  9040   0.636E-01    0.225E-01
DAV:   5    -0.252544172270E+03    0.47619E-03   -0.20352E-03  9520   0.577E-01    0.190E-01
DAV:   6    -0.252543637967E+03    0.53430E-03   -0.32624E-03 13024   0.522E-01    0.384E-02
DAV:   7    -0.252543682510E+03   -0.44543E-04   -0.57981E-04  6072   0.244E-01
   4 F= -.27928097E+03 E0= -.27926620E+03  d E =-.339183E-01  mag=     0.0006
       N       E                     dE             d eps       ncg     rms          rms(c)
DAV:   1    -0.252248178372E+03    0.29546E+00   -0.16075E+02  9016   0.185E+01    0.926E-01
DAV:   2    -0.252556550222E+03   -0.30837E+00   -0.31014E+00 12408   0.743E+00    0.135E+00
DAV:   3    -0.252540005543E+03    0.16545E-01   -0.16047E-01  8976   0.575E+00    0.774E-01
DAV:   4    -0.252538174045E+03    0.18315E-02   -0.47668E-02  9032   0.224E+00    0.708E-01
DAV:   5    -0.252535339119E+03    0.28349E-02   -0.31673E-02  9000   0.161E+00    0.613E-01
DAV:   6    -0.252529045517E+03    0.62936E-02   -0.37276E-02 10760   0.153E+00    0.201E-01
DAV:   7    -0.252529472240E+03   -0.42672E-03   -0.95488E-03 10560   0.751E-01    0.154E-01
DAV:   8    -0.252529180073E+03    0.29217E-03   -0.26953E-03  8560   0.670E-01    0.549E-02
DAV:   9    -0.252529156398E+03    0.23675E-04   -0.36000E-04  5312   0.159E-01
   5 F= -.27933937E+03 E0= -.27932487E+03  d E =-.923263E-01  mag=     0.0003
       N       E                     dE             d eps       ncg     rms          rms(c)
DAV:   1    -0.252469261537E+03    0.59919E-01   -0.22161E+01  9016   0.679E+00    0.305E-01
DAV:   2    -0.252507569565E+03   -0.38308E-01   -0.38708E-01 12032   0.227E+00    0.433E-01
DAV:   3    -0.252507053793E+03    0.51577E-03   -0.25493E-02  8576   0.182E+00    0.287E-01
DAV:   4    -0.252506817761E+03    0.23603E-03   -0.56421E-03  8840   0.724E-01    0.249E-01
DAV:   5    -0.252506251156E+03    0.56661E-03   -0.27643E-03  9856   0.617E-01    0.213E-01
DAV:   6    -0.252505603966E+03    0.64719E-03   -0.41015E-03 13416   0.581E-01    0.438E-02
DAV:   7    -0.252505653361E+03   -0.49395E-04   -0.68799E-04  6448   0.293E-01
   6 F= -.27934336E+03 E0= -.27932900E+03  d E =-.963099E-01  mag=     0.0002
       N       E                     dE             d eps       ncg     rms          rms(c)
DAV:   1    -0.252480626894E+03    0.24977E-01   -0.14825E+01  8960   0.554E+00    0.247E-01
DAV:   2    -0.252506053401E+03   -0.25427E-01   -0.25320E-01 12256   0.202E+00    0.358E-01
DAV:   3    -0.252505349057E+03    0.70434E-03   -0.17288E-02  8840   0.164E+00    0.223E-01
DAV:   4    -0.252505338653E+03    0.10403E-04   -0.52543E-03  8520   0.627E-01    0.200E-01
DAV:   5    -0.252505104300E+03    0.23435E-03   -0.21171E-03  8760   0.468E-01    0.175E-01
DAV:   6    -0.252504749920E+03    0.35438E-03   -0.35498E-03 11056   0.444E-01    0.594E-02
DAV:   7    -0.252504710713E+03    0.39207E-04   -0.37702E-04  5320   0.214E-01
   7 F= -.27936805E+03 E0= -.27935324E+03  d E =-.246880E-01  mag=     0.0001
       N       E                     dE             d eps       ncg     rms          rms(c)
DAV:   1    -0.252262380440E+03    0.24237E+00   -0.13402E+02  8968   0.168E+01    0.839E-01
DAV:   2    -0.252514752672E+03   -0.25237E+00   -0.25214E+00 12624   0.716E+00    0.123E+00
DAV:   3    -0.252497992785E+03    0.16760E-01   -0.12610E-01  9672   0.540E+00    0.699E-01
DAV:   4    -0.252496804029E+03    0.11888E-02   -0.41828E-02  8880   0.202E+00    0.661E-01
DAV:   5    -0.252494559417E+03    0.22446E-02   -0.27819E-02  8872   0.149E+00    0.566E-01
DAV:   6    -0.252489624608E+03    0.49348E-02   -0.36533E-02 10680   0.153E+00    0.269E-01
DAV:   7    -0.252489428306E+03    0.19630E-03   -0.89398E-03 10312   0.653E-01    0.177E-01
DAV:   8    -0.252489096477E+03    0.33183E-03   -0.39438E-03  8384   0.793E-01    0.661E-02
DAV:   9    -0.252489036908E+03    0.59569E-04   -0.34933E-04  5264   0.218E-01
   8 F= -.27942962E+03 E0= -.27941348E+03  d E =-.862634E-01  mag=     0.0000
       N       E                     dE             d eps       ncg     rms          rms(c)
DAV:   1    -0.251413701399E+03    0.10754E+01   -0.54523E+02  9072   0.353E+01    0.185E+00
DAV:   2    -0.252526954691E+03   -0.11133E+01   -0.11082E+01 13032   0.169E+01    0.282E+00
DAV:   3    -0.252424324355E+03    0.10263E+00   -0.56526E-01 11424   0.120E+01    0.145E+00
DAV:   4    -0.252416800452E+03    0.75239E-02   -0.15939E-01  9288   0.402E+00    0.139E+00
DAV:   5    -0.252411316770E+03    0.54837E-02   -0.13642E-01  8944   0.284E+00    0.118E+00
DAV:   6    -0.252384866214E+03    0.26451E-01   -0.10435E-01 11136   0.292E+00    0.463E-01
DAV:   7    -0.252385167351E+03   -0.30114E-03   -0.44976E-02 11432   0.173E+00    0.257E-01
DAV:   8    -0.252384412252E+03    0.75510E-03   -0.84772E-03  8752   0.131E+00    0.120E-01
DAV:   9    -0.252384540722E+03   -0.12847E-03   -0.32372E-03  9648   0.345E-01    0.842E-02
DAV:  10    -0.252384534132E+03    0.65894E-05   -0.89751E-04  7400   0.168E-01
   9 F= -.27948129E+03 E0= -.27946260E+03  d E =-.137933E+00  mag=     0.0000
       N       E                     dE             d eps       ncg     rms          rms(c)
DAV:   1    -0.252353595516E+03    0.30945E-01   -0.73834E+00  8944   0.390E+00    0.174E-01
DAV:   2    -0.252366050784E+03   -0.12455E-01   -0.12481E-01 12456   0.140E+00    0.256E-01
DAV:   3    -0.252365733070E+03    0.31771E-03   -0.85699E-03  8896   0.110E+00    0.165E-01
DAV:   4    -0.252365735939E+03   -0.28680E-05   -0.26016E-03  8224   0.391E-01    0.150E-01
DAV:   5    -0.252365581471E+03    0.15447E-03   -0.95279E-04  8064   0.334E-01
  10 F= -.27948088E+03 E0= -.27946189E+03  d E =-.137518E+00  mag=     0.0000
       N       E                     dE             d eps       ncg     rms          rms(c)
DAV:   1    -0.252315277101E+03    0.50459E-01   -0.16626E+01  8960   0.595E+00    0.270E-01
DAV:   2    -0.252345688582E+03   -0.30411E-01   -0.31350E-01 11648   0.172E+00    0.356E-01
DAV:   3    -0.252345277854E+03    0.41073E-03   -0.14383E-02  8368   0.112E+00    0.234E-01
DAV:   4    -0.252345020466E+03    0.25739E-03   -0.22867E-03  8800   0.546E-01    0.206E-01
DAV:   5    -0.252344804633E+03    0.21583E-03   -0.80783E-04  7416   0.729E-01    0.185E-01
DAV:   6    -0.252344226857E+03    0.57778E-03   -0.25291E-03 13184   0.688E-01    0.777E-02
DAV:   7    -0.252344173342E+03    0.53515E-04   -0.65223E-04  6944   0.308E-01
  11 F= -.27949362E+03 E0= -.27947412E+03  d E =-.127416E-01  mag=     0.0000
       N       E                     dE             d eps       ncg     rms          rms(c)
DAV:   1    -0.252337833555E+03    0.63933E-02   -0.50121E-01  9056   0.105E+00    0.536E-02
DAV:   2    -0.252338823365E+03   -0.98981E-03   -0.10296E-02 11456   0.263E-01    0.409E-02
DAV:   3    -0.252338818040E+03    0.53257E-05   -0.15012E-04  4808   0.110E-01
  12 F= -.27949420E+03 E0= -.27947462E+03  d E =-.133215E-01  mag=     0.0000
       N       E                     dE             d eps       ncg     rms          rms(c)
DAV:   1    -0.252327389141E+03    0.11434E-01   -0.25236E+00  8944   0.225E+00    0.109E-01
DAV:   2    -0.252331671234E+03   -0.42821E-02   -0.44472E-02 11664   0.708E-01    0.149E-01
DAV:   3    -0.252331628190E+03    0.43044E-04   -0.28920E-03  8336   0.499E-01    0.965E-02
DAV:   4    -0.252331591060E+03    0.37130E-04   -0.43086E-04  5472   0.224E-01
  13 F= -.27949720E+03 E0= -.27947751E+03  d E =-.300039E-02  mag=     0.0000
