<?xml version="1.0" encoding="ISO-8859-1"?>
<modeling>
 <generator>
  <i name="program" type="string">vasp </i>
  <i name="version" type="string">6.3.2  </i>
  <i name="subversion" type="string">27Jun22 (build Aug 17 2022 15:43:34) complex                          parallel </i>
  <i name="platform" type="string">tv2STDVTST </i>
  <i name="date" type="string">2025 01 23 </i>
  <i name="time" type="string">01:14:45 </i>
 </generator>
 <incar>
  <i type="int" name="ISTART">     0</i>
  <i type="string" name="PREC">Normal</i>
  <i type="int" name="ISPIN">     2</i>
  <i type="int" name="ICHARG">     2</i>
  <i type="int" name="IBRION">     2</i>
  <i name="EDIFF">      0.00020000</i>
  <i name="EDIFFG">     -0.03000000</i>
  <i type="int" name="NSW">   800</i>
  <i type="int" name="ISIF">     2</i>
  <i type="int" name="ISYM">     1</i>
  <i name="ENCUT">    400.00000000</i>
  <i name="POTIM">      0.50000000</i>
  <i type="logical" name="LREAL"> F  </i>
  <i type="int" name="ISMEAR">     1</i>
  <i name="SIGMA">      0.20000000</i>
  <i type="logical" name="LWAVE"> F  </i>
  <i type="logical" name="LCHARG"> F  </i>
  <i type="string" name="GGA">PE</i>
  <i type="int" name="IDIPOL">     3</i>
  <i type="int" name="IVDW">    11</i>
 </incar>
 <primitive_cell>
  <structure name="primitive_cell" >
   <crystal>
    <varray name="basis" >
     <v>       0.00000000      -2.56679773       0.00000000 </v>
     <v>       3.63000011       0.00000000       0.00000000 </v>
     <v>       0.00000000       0.00000000      23.98379135 </v>
    </varray>
    <i name="volume">    223.46840183 </i>
    <varray name="rec_basis" >
     <v>       0.00000000      -0.38959050       0.00000000 </v>
     <v>       0.27548209       0.00000000       0.00000000 </v>
     <v>       0.00000000       0.00000000       0.04169483 </v>
    </varray>
   </crystal>
   <varray name="positions" >
    <v>       0.00000000       0.00000000       0.00000000 </v>
    <v>       0.00000000       0.00000000       0.10702218 </v>
    <v>       0.00000000       0.00000000       0.21404436 </v>
    <v>       0.00000000       0.00000000       0.32106654 </v>
    <v>       0.50000000       0.50000000       0.05351109 </v>
    <v>       0.50000000       0.50000000       0.16053327 </v>
    <v>       0.50000000       0.50000000       0.26755545 </v>
    <v>       0.50000000       0.50000000       0.37457763 </v>
   </varray>
  </structure>
  <varray name="primitive_index" >
   <v type="int" >        1 </v>
   <v type="int" >       10 </v>
   <v type="int" >       19 </v>
   <v type="int" >       28 </v>
   <v type="int" >       39 </v>
   <v type="int" >       48 </v>
   <v type="int" >       57 </v>
   <v type="int" >       66 </v>
  </varray>
 </primitive_cell>
 <kpoints>
  <generation param="Monkhorst-Pack">
   <v type="int" name="divisions">       3        3        1 </v>
   <v name="usershift">      0.00000000       0.00000000       0.00000000 </v>
   <v name="genvec1">      0.33333333       0.00000000       0.00000000 </v>
   <v name="genvec2">      0.00000000       0.33333333       0.00000000 </v>
   <v name="genvec3">      0.00000000       0.00000000       1.00000000 </v>
   <v name="shift">      0.00000000       0.00000000       0.00000000 </v>
  </generation>
  <varray name="kpointlist" >
   <v>       0.00000000       0.00000000       0.00000000 </v>
   <v>       0.33333333       0.00000000       0.00000000 </v>
   <v>       0.00000000       0.33333333       0.00000000 </v>
   <v>       0.33333333       0.33333333       0.00000000 </v>
  </varray>
  <varray name="weights" >
   <v>       0.11111111 </v>
   <v>       0.22222222 </v>
   <v>       0.22222222 </v>
   <v>       0.44444444 </v>
  </varray>
 </kpoints>
 <parameters>
  <separator name="general" >
   <i type="string" name="SYSTEM">unknown system</i>
   <i type="logical" name="LCOMPAT"> F  </i>
  </separator>
  <separator name="electronic" >
   <i type="string" name="PREC">normal</i>
   <i name="ENMAX">    400.00000000</i>
   <i name="ENAUG">    586.98000000</i>
   <i name="EDIFF">      0.00020000</i>
   <i type="int" name="IALGO">    38</i>
   <i type="int" name="IWAVPR">    11</i>
   <i type="int" name="NBANDS">   512</i>
   <i type="int" name="NBANDSLOW">    -1</i>
   <i type="int" name="NBANDSHIGH">    -1</i>
   <i name="NELECT">    792.00000000</i>
   <i type="int" name="TURBO">     0</i>
   <i type="int" name="IRESTART">     0</i>
   <i type="int" name="NREBOOT">     0</i>
   <i type="int" name="NMIN">     0</i>
   <i name="EREF">      0.00000000</i>
   <separator name="electronic smearing" >
    <i type="int" name="ISMEAR">     1</i>
    <i name="SIGMA">      0.20000000</i>
    <i name="KSPACING">      0.50000000</i>
    <i type="logical" name="KGAMMA"> T  </i>
    <i type="logical" name="KBLOWUP"> T  </i>
   </separator>
   <separator name="electronic projectors" >
    <i type="logical" name="LREAL"> F  </i>
    <v name="ROPT">      0.00000000</v>
    <i type="int" name="LMAXPAW">  -100</i>
    <i type="int" name="LMAXMIX">     2</i>
    <i type="logical" name="NLSPLINE"> F  </i>
   </separator>
   <separator name="electronic startup" >
    <i type="int" name="ISTART">     0</i>
    <i type="int" name="ICHARG">     2</i>
    <i type="int" name="INIWAV">     1</i>
   </separator>
   <separator name="electronic spin" >
    <i type="int" name="ISPIN">     2</i>
    <i type="logical" name="LNONCOLLINEAR"> F  </i>
    <v name="MAGMOM">      1.00000000      1.00000000      1.00000000      1.00000000      1.00000000      1.00000000      1.00000000      1.00000000      1.00000000      1.00000000      1.00000000      1.00000000      1.00000000      1.00000000      1.00000000      1.00000000      1.00000000      1.00000000      1.00000000      1.00000000
      1.00000000      1.00000000      1.00000000      1.00000000      1.00000000      1.00000000      1.00000000      1.00000000      1.00000000      1.00000000      1.00000000      1.00000000      1.00000000      1.00000000      1.00000000      1.00000000      1.00000000      1.00000000      1.00000000      1.00000000
      1.00000000      1.00000000      1.00000000      1.00000000      1.00000000      1.00000000      1.00000000      1.00000000      1.00000000      1.00000000      1.00000000      1.00000000      1.00000000      1.00000000      1.00000000      1.00000000      1.00000000      1.00000000      1.00000000      1.00000000
      1.00000000      1.00000000      1.00000000      1.00000000      1.00000000      1.00000000      1.00000000      1.00000000      1.00000000      1.00000000      1.00000000      1.00000000</v>
    <i name="NUPDOWN">     -1.00000000</i>
    <i type="logical" name="LSORBIT"> F  </i>
    <v name="SAXIS">      0.00000000      0.00000000      1.00000000</v>
    <i type="logical" name="LSPIRAL"> F  </i>
    <v name="QSPIRAL">      0.00000000      0.00000000      0.00000000</v>
    <i type="logical" name="LZEROZ"> F  </i>
   </separator>
   <separator name="electronic exchange-correlation" >
    <i type="logical" name="LASPH"> F  </i>
    <i type="logical" name="LMETAGGA"> F  </i>
   </separator>
   <separator name="electronic convergence" >
    <i type="int" name="NELM">    60</i>
    <i type="int" name="NELMDL">    -5</i>
    <i type="int" name="NELMIN">     2</i>
    <i name="ENINI">    400.00000000</i>
    <separator name="electronic convergence detail" >
     <i type="logical" name="LDIAG"> T  </i>
     <i type="logical" name="LSUBROT"> F  </i>
     <i name="WEIMIN">      0.00100000</i>
     <i name="EBREAK">      0.00000010</i>
     <i name="DEPER">      0.30000000</i>
     <i type="int" name="NRMM">     4</i>
     <i name="TIME">      0.40000000</i>
    </separator>
   </separator>
   <separator name="electronic mixer" >
    <i name="AMIX">      0.40000000</i>
    <i name="BMIX">      1.00000000</i>
    <i name="AMIN">      0.10000000</i>
    <i name="AMIX_MAG">      1.60000000</i>
    <i name="BMIX_MAG">      1.00000000</i>
    <separator name="electronic mixer details" >
     <i type="int" name="IMIX">     4</i>
     <i type="logical" name="MIXFIRST"> F  </i>
     <i type="int" name="MAXMIX">   -45</i>
     <i name="WC">    100.00000000</i>
     <i type="int" name="INIMIX">     1</i>
     <i type="int" name="MIXPRE">     1</i>
     <i type="int" name="MREMOVE">     5</i>
    </separator>
   </separator>
   <separator name="electronic dipolcorrection" >
    <i type="logical" name="LDIPOL"> F  </i>
    <i type="logical" name="LMONO"> F  </i>
    <i type="int" name="IDIPOL">     3</i>
    <i name="EPSILON">      1.00000000</i>
    <v name="DIPOL">   -100.00000000   -100.00000000   -100.00000000</v>
    <i name="EFIELD">      0.00000000</i>
   </separator>
  </separator>
  <separator name="grids" >
   <i type="int" name="NGX">    54</i>
   <i type="int" name="NGY">    40</i>
   <i type="int" name="NGZ">   120</i>
   <i type="int" name="NGXF">   108</i>
   <i type="int" name="NGYF">    80</i>
   <i type="int" name="NGZF">   240</i>
   <i type="logical" name="ADDGRID"> F  </i>
  </separator>
  <separator name="ionic" >
   <i type="int" name="NSW">   800</i>
   <i type="int" name="IBRION">     2</i>
   <i type="int" name="MDALGO">     0</i>
   <i type="int" name="ISIF">     2</i>
   <i name="PSTRESS">      0.00000000</i>
   <i name="EDIFFG">     -0.03000000</i>
   <i type="int" name="NFREE">     1</i>
   <i name="POTIM">      0.50000000</i>
   <i name="SMASS">     -3.00000000</i>
   <i name="SCALEE">      1.00000000</i>
  </separator>
  <separator name="ionic md" >
   <i name="TEBEG">      0.00010000</i>
   <i name="TEEND">      0.00010000</i>
   <i type="int" name="NBLOCK">     1</i>
   <i type="int" name="KBLOCK">   800</i>
   <i type="int" name="NPACO">   256</i>
   <i name="APACO">     10.00000000</i>
  </separator>
  <separator name="symmetry" >
   <i type="int" name="ISYM">     1</i>
   <i name="SYMPREC">      0.00001000</i>
  </separator>
  <separator name="dos" >
   <i type="int" name="LORBIT">     0</i>
   <v name="RWIGS">     -1.00000000</v>
   <i type="int" name="NEDOS">   301</i>
   <i name="EMIN">     10.00000000</i>
   <i name="EMAX">    -10.00000000</i>
   <i name="EFERMI">      0.00000000</i>
  </separator>
  <separator name="writing" >
   <i type="int" name="NWRITE">     2</i>
   <i type="logical" name="LWAVE"> F  </i>
   <i type="logical" name="LDOWNSAMPLE"> F  </i>
   <i type="logical" name="LCHARG"> F  </i>
   <i type="logical" name="LPARD"> F  </i>
   <i type="logical" name="LVTOT"> F  </i>
   <i type="logical" name="LVHAR"> F  </i>
   <i type="logical" name="LELF"> F  </i>
   <i type="logical" name="LOPTICS"> F  </i>
   <v name="STM">      0.00000000      0.00000000      0.00000000      0.00000000      0.00000000      0.00000000      0.00000000</v>
  </separator>
  <separator name="performance" >
   <i type="int" name="NPAR">     4</i>
   <i type="int" name="NSIM">     4</i>
   <i type="int" name="NBLK">    -1</i>
   <i type="logical" name="LPLANE"> T  </i>
   <i type="logical" name="LSCALAPACK"> T  </i>
   <i type="logical" name="LSCAAWARE"> F  </i>
   <i type="logical" name="LSCALU"> F  </i>
   <i type="logical" name="LASYNC"> F  </i>
   <i type="logical" name="LORBITALREAL"> F  </i>
  </separator>
  <separator name="miscellaneous" >
   <i type="int" name="IDIOT">     3</i>
   <i type="int" name="PHON_NSTRUCT">    -1</i>
   <i type="logical" name="LMUSIC"> F  </i>
   <v name="POMASS">     63.54600000</v>
   <v name="DARWINR">      0.00000000</v>
   <v name="DARWINV">      1.00000000</v>
   <i type="logical" name="LCORR"> T  </i>
  </separator>
  <i type="logical" name="GGA_COMPAT"> T  </i>
  <i type="logical" name="LBERRY"> F  </i>
  <i type="int" name="ICORELEVEL">     0</i>
  <i type="logical" name="LDAU"> F  </i>
  <i type="int" name="I_CONSTRAINED_M">     0</i>
  <separator name="electronic exchange-correlation" >
   <i type="string" name="GGA">PE</i>
   <i type="int" name="VOSKOWN">     0</i>
   <i type="logical" name="LHFCALC"> F  </i>
   <i type="string" name="PRECFOCK"></i>
   <i type="logical" name="LSYMGRAD"> F  </i>
   <i type="logical" name="LHFONE"> F  </i>
   <i type="logical" name="LRHFCALC"> F  </i>
   <i type="logical" name="LTHOMAS"> F  </i>
   <i type="logical" name="LMODELHF"> F  </i>
   <i type="logical" name="LFOCKACE"> F  </i>
   <i name="ENCUT4O">     -1.00000000</i>
   <i type="int" name="EXXOEP">     0</i>
   <i type="int" name="FOURORBIT">     0</i>
   <i name="AEXX">      0.00000000</i>
   <i name="HFALPHA">      0.00000000</i>
   <i name="MCALPHA">      0.00000000</i>
   <i name="ALDAX">      1.00000000</i>
   <i name="AGGAX">      1.00000000</i>
   <i name="ALDAC">      1.00000000</i>
   <i name="AGGAC">      1.00000000</i>
   <i type="int" name="NKREDX">     1</i>
   <i type="int" name="NKREDY">     1</i>
   <i type="int" name="NKREDZ">     1</i>
   <i type="logical" name="SHIFTRED"> F  </i>
   <i type="logical" name="ODDONLY"> F  </i>
   <i type="logical" name="EVENONLY"> F  </i>
   <i type="int" name="LMAXFOCK">     0</i>
   <i type="int" name="NMAXFOCKAE">     0</i>
   <i type="logical" name="LFOCKAEDFT"> F  </i>
   <i name="HFSCREEN">      0.00000000</i>
   <i name="HFSCREENC">      0.00000000</i>
   <i type="int" name="NBANDSGWLOW">     0</i>
  </separator>
  <separator name="vdW DFT" >
   <i type="logical" name="LUSE_VDW"> F  </i>
   <i name="Zab_VDW">     -0.84910000</i>
   <i name="PARAM1">      0.12340000</i>
   <i name="PARAM2">      1.00000000</i>
   <i name="PARAM3">      0.00000000</i>
  </separator>
  <separator name="model GW" >
   <i type="int" name="MODEL_GW">     0</i>
   <i name="MODEL_EPS0">     16.76013014</i>
   <i name="MODEL_ALPHA">      1.00000000</i>
  </separator>
  <separator name="linear response parameters" >
   <i type="logical" name="LEPSILON"> F  </i>
   <i type="logical" name="LRPA"> F  </i>
   <i type="logical" name="LNABLA"> F  </i>
   <i type="logical" name="LVEL"> F  </i>
   <i name="CSHIFT">      0.10000000</i>
   <i name="OMEGAMAX">     -1.00000000</i>
   <i name="DEG_THRESHOLD">      0.00200000</i>
   <i name="RTIME">     -0.10000000</i>
   <i name="WPLASMAI">      0.00000000</i>
   <v name="DFIELD">      0.00000000      0.00000000      0.00000000</v>
   <v name="WPLASMA">      0.00000000      0.00000000      0.00000000      0.00000000      0.00000000      0.00000000      0.00000000      0.00000000      0.00000000</v>
  </separator>
  <separator name="orbital magnetization" >
   <i type="logical" name="NUCIND"> F  </i>
   <v name="MAGPOS">      0.00000000      0.00000000      0.00000000</v>
   <i type="logical" name="LNICSALL"> T  </i>
   <i type="logical" name="ORBITALMAG"> F  </i>
   <i type="logical" name="LMAGBLOCH"> F  </i>
   <i type="logical" name="LCHIMAG"> F  </i>
   <i type="logical" name="LGAUGE"> T  </i>
   <i type="int" name="MAGATOM">     0</i>
   <v name="MAGDIPOL">      0.00000000      0.00000000      0.00000000</v>
   <v name="AVECCONST">      0.00000000      0.00000000      0.00000000</v>
  </separator>
  <separator name="response functions" >
   <i type="logical" name="LFINITE_TEMPERATURE"> F  </i>
   <i type="logical" name="LADDER"> F  </i>
   <i type="logical" name="LRPAFORCE"> F  </i>
   <i type="logical" name="LFXC"> F  </i>
   <i type="logical" name="LHARTREE"> T  </i>
   <i type="int" name="IBSE">     0</i>
   <v type="int" name="KPOINT">    -1     0     0     0</v>
   <i type="logical" name="LTCTC"> F  </i>
   <i type="logical" name="LTCTE"> F  </i>
   <i type="logical" name="LTETE"> F  </i>
   <i type="logical" name="LTRIPLET"> F  </i>
   <i type="logical" name="LFXCEPS"> F  </i>
   <i type="logical" name="LFXHEG"> F  </i>
   <i type="int" name="NATURALO">     2</i>
   <i type="logical" name="LHOLEGF"> F  </i>
   <i type="logical" name="L2ORDER"> F  </i>
   <i type="logical" name="LDMP1"> F  </i>
   <i type="logical" name="LMP2LT"> F  </i>
   <i type="logical" name="LSMP2LT"> F  </i>
   <i type="logical" name="LGWLF"> F  </i>
   <i name="ENCUTGW">     -2.00000000</i>
   <i name="ENCUTGWSOFT">     -2.00000000</i>
   <i name="ENCUTLF">     -1.00000000</i>
   <i type="logical" name="LESF_SPLINES"> F  </i>
   <i type="int" name="LMAXMP2">    -1</i>
   <i name="SCISSOR">      0.00000000</i>
   <i type="int" name="NOMEGA">     0</i>
   <i type="int" name="NOMEGAR">     0</i>
   <i type="int" name="NBANDSGW">    -1</i>
   <i type="int" name="NBANDSO">    -1</i>
   <i type="int" name="NBANDSV">    -1</i>
   <i type="int" name="NELMGW">     1</i>
   <i type="int" name="NELMHF">     1</i>
   <i type="int" name="DIM">     3</i>
   <i type="int" name="IESPILON">     4</i>
   <i type="int" name="ANTIRES">     0</i>
   <i name="OMEGAMAX">    -30.00000000</i>
   <i name="OMEGAMIN">    -30.00000000</i>
   <i name="OMEGATL">   -200.00000000</i>
   <i type="int" name="OMEGAGRID">     0</i>
   <i name="CSHIFT">     -0.10000000</i>
   <i type="logical" name="LSELFENERGY"> F  </i>
   <i type="logical" name="LSPECTRAL"> F  </i>
   <i type="logical" name="LSPECTRALGW"> F  </i>
   <i type="logical" name="LSINGLES"> F  </i>
   <i type="logical" name="LFERMIGW"> F  </i>
   <i type="logical" name="ODDONLYGW"> F  </i>
   <i type="logical" name="EVENONLYGW"> F  </i>
   <i type="int" name="NKREDLFX">     1</i>
   <i type="int" name="NKREDLFY">     1</i>
   <i type="int" name="NKREDLFZ">     1</i>
   <i type="int" name="MAXMEM">  2800</i>
   <i type="int" name="TELESCOPE">     0</i>
   <i type="int" name="NTAUPAR">    -1</i>
   <i type="int" name="NOMEGAPAR">    -1</i>
   <i name="DAMP_NEWTON">      0.80000001</i>
   <i name="LAMBDA">      1.00000000</i>
  </separator>
  <separator name="External order field" >
   <i name="OFIELD_KAPPA">      0.00000000</i>
   <v name="OFIELD_K">      0.00000000      0.00000000      0.00000000</v>
   <i name="OFIELD_Q6_NEAR">      0.00000000</i>
   <i name="OFIELD_Q6_FAR">      0.00000000</i>
   <i name="OFIELD_A">      0.00000000</i>
  </separator>
  <separator name="optional k-points parameters" >
   <i type="int" name="KPOINTS_OPT_MODE">     1</i>
   <i type="logical" name="LKPOINTS_OPT"> F  </i>
  </separator>
 </parameters>
 <atominfo>
  <atoms>      72 </atoms>
  <types>       1 </types>
  <array name="atoms" >
   <dimension dim="1">ion</dimension>
   <field type="string">element</field>
   <field type="int">atomtype</field>
   <set>
    <rc><c>Cu</c><c>   1</c></rc>
    <rc><c>Cu</c><c>   1</c></rc>
    <rc><c>Cu</c><c>   1</c></rc>
    <rc><c>Cu</c><c>   1</c></rc>
    <rc><c>Cu</c><c>   1</c></rc>
    <rc><c>Cu</c><c>   1</c></rc>
    <rc><c>Cu</c><c>   1</c></rc>
    <rc><c>Cu</c><c>   1</c></rc>
    <rc><c>Cu</c><c>   1</c></rc>
    <rc><c>Cu</c><c>   1</c></rc>
    <rc><c>Cu</c><c>   1</c></rc>
    <rc><c>Cu</c><c>   1</c></rc>
    <rc><c>Cu</c><c>   1</c></rc>
    <rc><c>Cu</c><c>   1</c></rc>
    <rc><c>Cu</c><c>   1</c></rc>
    <rc><c>Cu</c><c>   1</c></rc>
    <rc><c>Cu</c><c>   1</c></rc>
    <rc><c>Cu</c><c>   1</c></rc>
    <rc><c>Cu</c><c>   1</c></rc>
    <rc><c>Cu</c><c>   1</c></rc>
    <rc><c>Cu</c><c>   1</c></rc>
    <rc><c>Cu</c><c>   1</c></rc>
    <rc><c>Cu</c><c>   1</c></rc>
    <rc><c>Cu</c><c>   1</c></rc>
    <rc><c>Cu</c><c>   1</c></rc>
    <rc><c>Cu</c><c>   1</c></rc>
    <rc><c>Cu</c><c>   1</c></rc>
    <rc><c>Cu</c><c>   1</c></rc>
    <rc><c>Cu</c><c>   1</c></rc>
    <rc><c>Cu</c><c>   1</c></rc>
    <rc><c>Cu</c><c>   1</c></rc>
    <rc><c>Cu</c><c>   1</c></rc>
    <rc><c>Cu</c><c>   1</c></rc>
    <rc><c>Cu</c><c>   1</c></rc>
    <rc><c>Cu</c><c>   1</c></rc>
    <rc><c>Cu</c><c>   1</c></rc>
    <rc><c>Cu</c><c>   1</c></rc>
    <rc><c>Cu</c><c>   1</c></rc>
    <rc><c>Cu</c><c>   1</c></rc>
    <rc><c>Cu</c><c>   1</c></rc>
    <rc><c>Cu</c><c>   1</c></rc>
    <rc><c>Cu</c><c>   1</c></rc>
    <rc><c>Cu</c><c>   1</c></rc>
    <rc><c>Cu</c><c>   1</c></rc>
    <rc><c>Cu</c><c>   1</c></rc>
    <rc><c>Cu</c><c>   1</c></rc>
    <rc><c>Cu</c><c>   1</c></rc>
    <rc><c>Cu</c><c>   1</c></rc>
    <rc><c>Cu</c><c>   1</c></rc>
    <rc><c>Cu</c><c>   1</c></rc>
    <rc><c>Cu</c><c>   1</c></rc>
    <rc><c>Cu</c><c>   1</c></rc>
    <rc><c>Cu</c><c>   1</c></rc>
    <rc><c>Cu</c><c>   1</c></rc>
    <rc><c>Cu</c><c>   1</c></rc>
    <rc><c>Cu</c><c>   1</c></rc>
    <rc><c>Cu</c><c>   1</c></rc>
    <rc><c>Cu</c><c>   1</c></rc>
    <rc><c>Cu</c><c>   1</c></rc>
    <rc><c>Cu</c><c>   1</c></rc>
    <rc><c>Cu</c><c>   1</c></rc>
    <rc><c>Cu</c><c>   1</c></rc>
    <rc><c>Cu</c><c>   1</c></rc>
    <rc><c>Cu</c><c>   1</c></rc>
    <rc><c>Cu</c><c>   1</c></rc>
    <rc><c>Cu</c><c>   1</c></rc>
    <rc><c>Cu</c><c>   1</c></rc>
    <rc><c>Cu</c><c>   1</c></rc>
    <rc><c>Cu</c><c>   1</c></rc>
    <rc><c>Cu</c><c>   1</c></rc>
    <rc><c>Cu</c><c>   1</c></rc>
    <rc><c>Cu</c><c>   1</c></rc>
   </set>
  </array>
  <array name="atomtypes" >
   <dimension dim="1">type</dimension>
   <field type="int">atomspertype</field>
   <field type="string">element</field>
   <field>mass</field>
   <field>valence</field>
   <field type="string">pseudopotential</field>
   <set>
    <rc><c>  72</c><c>Cu</c><c>     63.54600000</c><c>     11.00000000</c><c>  PAW_PBE Cu 22Jun2005                  </c></rc>
   </set>
  </array>
 </atominfo>
 <structure name="initialpos" >
  <crystal>
   <varray name="basis" >
    <v>      10.89000034       0.00000000       0.00000000 </v>
    <v>       0.00000000       7.70039320       0.00000000 </v>
    <v>       0.00000000       0.00000000      23.98379135 </v>
   </varray>
   <i name="volume">   2011.21561690 </i>
   <varray name="rec_basis" >
    <v>       0.09182736       0.00000000       0.00000000 </v>
    <v>       0.00000000       0.12986350       0.00000000 </v>
    <v>       0.00000000       0.00000000       0.04169483 </v>
   </varray>
  </crystal>
  <varray name="positions" >
   <v>       0.00000000       0.00000000       0.00000000 </v>
   <v>       0.00000000       0.33333333       0.00000000 </v>
   <v>       0.00000000       0.66666667       0.00000000 </v>
   <v>       0.33333333       0.00000000       0.00000000 </v>
   <v>       0.33333333       0.33333333       0.00000000 </v>
   <v>       0.33333333       0.66666667       0.00000000 </v>
   <v>       0.66666667       0.00000000       0.00000000 </v>
   <v>       0.66666667       0.33333333       0.00000000 </v>
   <v>       0.66666667       0.66666667       0.00000000 </v>
   <v>       0.00000000       0.00000000       0.10702218 </v>
   <v>       0.00000000       0.33333333       0.10702218 </v>
   <v>       0.00000000       0.66666667       0.10702218 </v>
   <v>       0.33333333       0.00000000       0.10702218 </v>
   <v>       0.33333333       0.33333333       0.10702218 </v>
   <v>       0.33333333       0.66666667       0.10702218 </v>
   <v>       0.66666667       0.00000000       0.10702218 </v>
   <v>       0.66666667       0.33333333       0.10702218 </v>
   <v>       0.66666667       0.66666667       0.10702218 </v>
   <v>       0.00000000       0.00000000       0.21404436 </v>
   <v>       0.00000000       0.33333333       0.21404436 </v>
   <v>       0.00000000       0.66666667       0.21404436 </v>
   <v>       0.33333333       0.00000000       0.21404436 </v>
   <v>       0.33333333       0.33333333       0.21404436 </v>
   <v>       0.33333333       0.66666667       0.21404436 </v>
   <v>       0.66666667       0.00000000       0.21404436 </v>
   <v>       0.66666667       0.33333333       0.21404436 </v>
   <v>       0.66666667       0.66666667       0.21404436 </v>
   <v>       0.00000000       0.00000000       0.32106654 </v>
   <v>       0.00000000       0.33333333       0.32106654 </v>
   <v>       0.00000000       0.66666667       0.32106654 </v>
   <v>       0.33333333       0.00000000       0.32106654 </v>
   <v>       0.33333333       0.33333333       0.32106654 </v>
   <v>       0.33333333       0.66666667       0.32106654 </v>
   <v>       0.66666667       0.00000000       0.32106654 </v>
   <v>       0.66666667       0.33333333       0.32106654 </v>
   <v>       0.66666667       0.66666667       0.32106654 </v>
   <v>       0.16666667       0.16666667       0.05351109 </v>
   <v>       0.16666667       0.50000000       0.05351109 </v>
   <v>       0.16666667       0.83333333       0.05351109 </v>
   <v>       0.50000000       0.16666667       0.05351109 </v>
   <v>       0.50000000       0.50000000       0.05351109 </v>
   <v>       0.50000000       0.83333333       0.05351109 </v>
   <v>       0.83333333       0.16666667       0.05351109 </v>
   <v>       0.83333333       0.50000000       0.05351109 </v>
   <v>       0.83333333       0.83333333       0.05351109 </v>
   <v>       0.16666667       0.16666667       0.16053327 </v>
   <v>       0.16666667       0.50000000       0.16053327 </v>
   <v>       0.16666667       0.83333333       0.16053327 </v>
   <v>       0.50000000       0.16666667       0.16053327 </v>
   <v>       0.50000000       0.50000000       0.16053327 </v>
   <v>       0.50000000       0.83333333       0.16053327 </v>
   <v>       0.83333333       0.16666667       0.16053327 </v>
   <v>       0.83333333       0.50000000       0.16053327 </v>
   <v>       0.83333333       0.83333333       0.16053327 </v>
   <v>       0.16666667       0.16666667       0.26755545 </v>
   <v>       0.16666667       0.50000000       0.26755545 </v>
   <v>       0.16666667       0.83333333       0.26755545 </v>
   <v>       0.50000000       0.16666667       0.26755545 </v>
   <v>       0.50000000       0.50000000       0.26755545 </v>
   <v>       0.50000000       0.83333333       0.26755545 </v>
   <v>       0.83333333       0.16666667       0.26755545 </v>
   <v>       0.83333333       0.50000000       0.26755545 </v>
   <v>       0.83333333       0.83333333       0.26755545 </v>
   <v>       0.16666667       0.16666667       0.37457763 </v>
   <v>       0.16666667       0.50000000       0.37457763 </v>
   <v>       0.16666667       0.83333333       0.37457763 </v>
   <v>       0.50000000       0.16666667       0.37457763 </v>
   <v>       0.50000000       0.50000000       0.37457763 </v>
   <v>       0.50000000       0.83333333       0.37457763 </v>
   <v>       0.83333333       0.16666667       0.37457763 </v>
   <v>       0.83333333       0.50000000       0.37457763 </v>
   <v>       0.83333333       0.83333333       0.37457763 </v>
  </varray>
  <varray name="selective"  type="logical" >
   <v type="logical" >  F  F  F </v>
   <v type="logical" >  F  F  F </v>
   <v type="logical" >  F  F  F </v>
   <v type="logical" >  F  F  F </v>
   <v type="logical" >  F  F  F </v>
   <v type="logical" >  F  F  F </v>
   <v type="logical" >  F  F  F </v>
   <v type="logical" >  F  F  F </v>
   <v type="logical" >  F  F  F </v>
   <v type="logical" >  F  F  F </v>
   <v type="logical" >  F  F  F </v>
   <v type="logical" >  F  F  F </v>
   <v type="logical" >  F  F  F </v>
   <v type="logical" >  F  F  F </v>
   <v type="logical" >  F  F  F </v>
   <v type="logical" >  F  F  F </v>
   <v type="logical" >  F  F  F </v>
   <v type="logical" >  F  F  F </v>
   <v type="logical" >  T  T  T </v>
   <v type="logical" >  T  T  T </v>
   <v type="logical" >  T  T  T </v>
   <v type="logical" >  T  T  T </v>
   <v type="logical" >  T  T  T </v>
   <v type="logical" >  T  T  T </v>
   <v type="logical" >  T  T  T </v>
   <v type="logical" >  T  T  T </v>
   <v type="logical" >  T  T  T </v>
   <v type="logical" >  T  T  T </v>
   <v type="logical" >  T  T  T </v>
   <v type="logical" >  T  T  T </v>
   <v type="logical" >  T  T  T </v>
   <v type="logical" >  T  T  T </v>
   <v type="logical" >  T  T  T </v>
   <v type="logical" >  T  T  T </v>
   <v type="logical" >  T  T  T </v>
   <v type="logical" >  T  T  T </v>
   <v type="logical" >  T  T  T </v>
   <v type="logical" >  T  T  T </v>
   <v type="logical" >  T  T  T </v>
   <v type="logical" >  T  T  T </v>
   <v type="logical" >  T  T  T </v>
   <v type="logical" >  T  T  T </v>
   <v type="logical" >  T  T  T </v>
   <v type="logical" >  T  T  T </v>
   <v type="logical" >  T  T  T </v>
   <v type="logical" >  T  T  T </v>
   <v type="logical" >  T  T  T </v>
   <v type="logical" >  T  T  T </v>
   <v type="logical" >  T  T  T </v>
   <v type="logical" >  T  T  T </v>
   <v type="logical" >  T  T  T </v>
   <v type="logical" >  T  T  T </v>
   <v type="logical" >  T  T  T </v>
   <v type="logical" >  T  T  T </v>
   <v type="logical" >  T  T  T </v>
   <v type="logical" >  T  T  T </v>
   <v type="logical" >  T  T  T </v>
   <v type="logical" >  T  T  T </v>
   <v type="logical" >  T  T  T </v>
   <v type="logical" >  T  T  T </v>
   <v type="logical" >  T  T  T </v>
   <v type="logical" >  T  T  T </v>
   <v type="logical" >  T  T  T </v>
   <v type="logical" >  T  T  T </v>
   <v type="logical" >  T  T  T </v>
   <v type="logical" >  T  T  T </v>
   <v type="logical" >  T  T  T </v>
   <v type="logical" >  T  T  T </v>
   <v type="logical" >  T  T  T </v>
   <v type="logical" >  T  T  T </v>
   <v type="logical" >  T  T  T </v>
   <v type="logical" >  T  T  T </v>
  </varray>
  <nose>
   <v>      -3.00000000       0.00000000       0.00010000       0.00010000 </v>
  </nose>
 </structure>
 <calculation>
  <scstep>
   <time name="dav">   97.94  100.15</time>
   <time name="total">   98.12  100.37</time>
   <energy>
    <i name="alphaZ">   1885.03137702 </i>
    <i name="ewald"> 369450.78347590 </i>
    <i name="hartreedc">-466485.64868196 </i>
    <i name="XCdc">   3285.58213086 </i>
    <i name="pawpsdc">  88423.01971552 </i>
    <i name="pawaedc"> -96042.30706980 </i>
    <i name="eentropy">     -0.01738028 </i>
    <i name="bandstr">   6682.63323210 </i>
    <i name="atom"> 100148.95009438 </i>
    <i name="e_fr_energy">   7348.02689375 </i>
    <i name="e_wo_entrp">   7348.04427403 </i>
    <i name="e_0_energy">   7348.03268717 </i>
   </energy>
  </scstep>
  <scstep>
   <time name="dav">   92.39   93.00</time>
   <time name="total">   92.39   93.01</time>
   <energy>
    <i name="e_fr_energy">    892.53664237 </i>
    <i name="e_wo_entrp">    892.53935569 </i>
    <i name="e_0_energy">    892.53754681 </i>
   </energy>
  </scstep>
  <scstep>
   <time name="dav">   92.25   92.85</time>
   <time name="total">   92.26   92.86</time>
   <energy>
    <i name="e_fr_energy">   -217.14985362 </i>
    <i name="e_wo_entrp">   -217.19516535 </i>
    <i name="e_0_energy">   -217.16495753 </i>
   </energy>
  </scstep>
  <scstep>
   <time name="dav">  108.19  109.54</time>
   <time name="total">  108.27  109.63</time>
   <energy>
    <i name="e_fr_energy">   -296.55969701 </i>
    <i name="e_wo_entrp">   -296.66303928 </i>
    <i name="e_0_energy">   -296.59414443 </i>
   </energy>
  </scstep>
  <scstep>
   <time name="dav">  100.93  101.62</time>
   <time name="total">  102.79  103.49</time>
   <energy>
    <i name="e_fr_energy">   -298.51961058 </i>
    <i name="e_wo_entrp">   -298.62578163 </i>
    <i name="e_0_energy">   -298.55500093 </i>
   </energy>
  </scstep>
  <scstep>
   <time name="dav">   97.39   98.03</time>
   <time name="total">   99.39  100.05</time>
   <energy>
    <i name="e_fr_energy">   -243.88937200 </i>
    <i name="e_wo_entrp">   -243.83279738 </i>
    <i name="e_0_energy">   -243.87051379 </i>
   </energy>
  </scstep>
  <scstep>
   <time name="dav">  104.54  105.32</time>
   <time name="total">  106.51  107.31</time>
   <energy>
    <i name="e_fr_energy">   -209.77995442 </i>
    <i name="e_wo_entrp">   -209.77238970 </i>
    <i name="e_0_energy">   -209.77743285 </i>
   </energy>
  </scstep>
  <scstep>
   <time name="dav">  104.40  105.10</time>
   <time name="total">  106.38  107.10</time>
   <energy>
    <i name="e_fr_energy">   -204.42096651 </i>
    <i name="e_wo_entrp">   -204.42629450 </i>
    <i name="e_0_energy">   -204.42274251 </i>
   </energy>
  </scstep>
  <scstep>
   <time name="dav">  119.04  119.85</time>
   <time name="total">  121.02  121.85</time>
   <energy>
    <i name="e_fr_energy">   -199.31368662 </i>
    <i name="e_wo_entrp">   -199.34090470 </i>
    <i name="e_0_energy">   -199.32275931 </i>
   </energy>
  </scstep>
  <scstep>
   <time name="dav">  130.79  132.25</time>
   <time name="total">  132.79  134.27</time>
   <energy>
    <i name="e_fr_energy">   -198.33885255 </i>
    <i name="e_wo_entrp">   -198.32766620 </i>
    <i name="e_0_energy">   -198.33512376 </i>
   </energy>
  </scstep>
  <scstep>
   <time name="dav">  105.38  106.18</time>
   <time name="total">  107.38  108.20</time>
   <energy>
    <i name="e_fr_energy">   -199.97163040 </i>
    <i name="e_wo_entrp">   -199.96403693 </i>
    <i name="e_0_energy">   -199.96909924 </i>
   </energy>
  </scstep>
  <scstep>
   <time name="dav">  109.76  110.68</time>
   <time name="total">  111.75  112.69</time>
   <energy>
    <i name="e_fr_energy">   -210.70289050 </i>
    <i name="e_wo_entrp">   -210.70012309 </i>
    <i name="e_0_energy">   -210.70196803 </i>
   </energy>
  </scstep>
  <scstep>
   <time name="dav">  115.19  116.52</time>
   <time name="total">  117.17  118.52</time>
   <energy>
    <i name="e_fr_energy">   -223.30442896 </i>
    <i name="e_wo_entrp">   -223.28407233 </i>
    <i name="e_0_energy">   -223.29764342 </i>
   </energy>
  </scstep>
  <scstep>
   <time name="dav">  130.21  131.14</time>
   <time name="total">  132.64  133.59</time>
   <energy>
    <i name="e_fr_energy">   -229.30877962 </i>
    <i name="e_wo_entrp">   -229.29192767 </i>
    <i name="e_0_energy">   -229.30316230 </i>
   </energy>
  </scstep>
  <scstep>
   <time name="dav">  124.74  126.24</time>
   <time name="total">  126.82  128.33</time>
   <energy>
    <i name="e_fr_energy">   -239.32995956 </i>
    <i name="e_wo_entrp">   -239.33529788 </i>
    <i name="e_0_energy">   -239.33173900 </i>
   </energy>
  </scstep>
  <scstep>
   <time name="dav">   98.36   99.00</time>
   <time name="total">  100.33  101.00</time>
   <energy>
    <i name="e_fr_energy">   -245.02629641 </i>
    <i name="e_wo_entrp">   -245.02339209 </i>
    <i name="e_0_energy">   -245.02532830 </i>
   </energy>
  </scstep>
  <scstep>
   <time name="dav">  102.18  102.87</time>
   <time name="total">  104.21  104.92</time>
   <energy>
    <i name="e_fr_energy">   -246.88417662 </i>
    <i name="e_wo_entrp">   -246.86582071 </i>
    <i name="e_0_energy">   -246.87805799 </i>
   </energy>
  </scstep>
  <scstep>
   <time name="dav">  124.64  126.06</time>
   <time name="total">  126.60  128.03</time>
   <energy>
    <i name="e_fr_energy">   -248.19147741 </i>
    <i name="e_wo_entrp">   -248.15076503 </i>
    <i name="e_0_energy">   -248.17790662 </i>
   </energy>
  </scstep>
  <scstep>
   <time name="dav">  104.33  105.10</time>
   <time name="total">  106.33  107.12</time>
   <energy>
    <i name="e_fr_energy">   -248.96213977 </i>
    <i name="e_wo_entrp">   -248.92077953 </i>
    <i name="e_0_energy">   -248.94835303 </i>
   </energy>
  </scstep>
  <scstep>
   <time name="dav">  109.77  110.79</time>
   <time name="total">  111.81  112.84</time>
   <energy>
    <i name="e_fr_energy">   -250.04109465 </i>
    <i name="e_wo_entrp">   -249.99934390 </i>
    <i name="e_0_energy">   -250.02717773 </i>
   </energy>
  </scstep>
  <scstep>
   <time name="dav">  115.72  116.66</time>
   <time name="total">  117.71  118.67</time>
   <energy>
    <i name="e_fr_energy">   -250.37207906 </i>
    <i name="e_wo_entrp">   -250.32907205 </i>
    <i name="e_0_energy">   -250.35774339 </i>
   </energy>
  </scstep>
  <scstep>
   <time name="dav">  106.00  106.68</time>
   <time name="total">  108.02  108.71</time>
   <energy>
    <i name="e_fr_energy">   -250.87323419 </i>
    <i name="e_wo_entrp">   -250.82922213 </i>
    <i name="e_0_energy">   -250.85856351 </i>
   </energy>
  </scstep>
  <scstep>
   <time name="dav">  111.72  112.52</time>
   <time name="total">  113.70  114.51</time>
   <energy>
    <i name="e_fr_energy">   -251.27415167 </i>
    <i name="e_wo_entrp">   -251.23025161 </i>
    <i name="e_0_energy">   -251.25951831 </i>
   </energy>
  </scstep>
  <scstep>
   <time name="dav">  107.69  108.46</time>
   <time name="total">  109.71  110.50</time>
   <energy>
    <i name="e_fr_energy">   -251.75859702 </i>
    <i name="e_wo_entrp">   -251.71521656 </i>
    <i name="e_0_energy">   -251.74413687 </i>
   </energy>
  </scstep>
  <scstep>
   <time name="dav">  110.25  111.03</time>
   <time name="total">  112.25  113.03</time>
   <energy>
    <i name="e_fr_energy">   -252.05047382 </i>
    <i name="e_wo_entrp">   -252.00694051 </i>
    <i name="e_0_energy">   -252.03596272 </i>
   </energy>
  </scstep>
  <scstep>
   <time name="dav">  108.63  109.46</time>
   <time name="total">  110.64  111.48</time>
   <energy>
    <i name="e_fr_energy">   -252.13524539 </i>
    <i name="e_wo_entrp">   -252.09161569 </i>
    <i name="e_0_energy">   -252.12070216 </i>
   </energy>
  </scstep>
  <scstep>
   <time name="dav">  106.05  106.80</time>
   <time name="total">  108.04  108.81</time>
   <energy>
    <i name="e_fr_energy">   -252.17016463 </i>
    <i name="e_wo_entrp">   -252.12636995 </i>
    <i name="e_0_energy">   -252.15556640 </i>
   </energy>
  </scstep>
  <scstep>
   <time name="dav">   94.02   94.69</time>
   <time name="total">   96.03   96.72</time>
   <energy>
    <i name="e_fr_energy">   -252.19419939 </i>
    <i name="e_wo_entrp">   -252.15061010 </i>
    <i name="e_0_energy">   -252.17966963 </i>
   </energy>
  </scstep>
  <scstep>
   <time name="dav">   78.92   79.53</time>
   <time name="total">   80.89   81.52</time>
   <energy>
    <i name="e_fr_energy">   -252.19919715 </i>
    <i name="e_wo_entrp">   -252.15548512 </i>
    <i name="e_0_energy">   -252.18462647 </i>
   </energy>
  </scstep>
  <scstep>
   <time name="dav">   69.24   69.71</time>
   <time name="total">   71.20   71.68</time>
   <energy>
    <i name="e_fr_energy">   -252.19996088 </i>
    <i name="e_wo_entrp">   -252.15621797 </i>
    <i name="e_0_energy">   -252.18537991 </i>
   </energy>
  </scstep>
  <scstep>
   <time name="dav">   66.02   66.50</time>
   <time name="total">   66.20   66.68</time>
   <energy>
    <i name="alphaZ">   1885.03137702 </i>
    <i name="ewald"> 369450.78347590 </i>
    <i name="hartreedc">-465535.16815642 </i>
    <i name="XCdc">   3205.23841902 </i>
    <i name="pawpsdc">  93634.85315759 </i>
    <i name="pawaedc">-101379.43422553 </i>
    <i name="eentropy">     -0.04369729 </i>
    <i name="bandstr">  -1662.41054670 </i>
    <i name="atom"> 100148.95009438 </i>
    <i name="e_fr_energy">   -252.20010202 </i>
    <i name="e_wo_entrp">   -252.15640474 </i>
    <i name="e_0_energy">   -252.18553626 </i>
   </energy>
  </scstep>
  <dipole>
   <v name="dipole">      0.00000000       0.00000000       0.04781488 </v>
   <i name="Tr[quadrupol]"> -12385.61741078 </i>
   <i name="Echarged">      0.00000000 </i>
   <i name="Edipol_quadrupol">      0.00000000 </i>
   <i name="Eion">      0.00000000 </i>
  </dipole>
  <structure>
   <crystal>
    <varray name="basis" >
     <v>      10.89000034       0.00000000       0.00000000 </v>
     <v>       0.00000000       7.70039320       0.00000000 </v>
     <v>       0.00000000       0.00000000      23.98379135 </v>
    </varray>
    <i name="volume">   2011.21561690 </i>
    <varray name="rec_basis" >
     <v>       0.09182736       0.00000000       0.00000000 </v>
     <v>       0.00000000       0.12986350       0.00000000 </v>
     <v>       0.00000000       0.00000000       0.04169483 </v>
    </varray>
   </crystal>
   <varray name="positions" >
    <v>       0.00000000       0.00000000       0.00000000 </v>
    <v>       0.00000000       0.33333333       0.00000000 </v>
    <v>       0.00000000       0.66666667       0.00000000 </v>
    <v>       0.33333333       0.00000000       0.00000000 </v>
    <v>       0.33333333       0.33333333       0.00000000 </v>
    <v>       0.33333333       0.66666667       0.00000000 </v>
    <v>       0.66666667       0.00000000       0.00000000 </v>
    <v>       0.66666667       0.33333333       0.00000000 </v>
    <v>       0.66666667       0.66666667       0.00000000 </v>
    <v>       0.00000000       0.00000000       0.10702218 </v>
    <v>       0.00000000       0.33333333       0.10702218 </v>
    <v>       0.00000000       0.66666667       0.10702218 </v>
    <v>       0.33333333       0.00000000       0.10702218 </v>
    <v>       0.33333333       0.33333333       0.10702218 </v>
    <v>       0.33333333       0.66666667       0.10702218 </v>
    <v>       0.66666667       0.00000000       0.10702218 </v>
    <v>       0.66666667       0.33333333       0.10702218 </v>
    <v>       0.66666667       0.66666667       0.10702218 </v>
    <v>       0.00000000       0.00000000       0.21404436 </v>
    <v>       0.00000000       0.33333333       0.21404436 </v>
    <v>       0.00000000       0.66666667       0.21404436 </v>
    <v>       0.33333333       0.00000000       0.21404436 </v>
    <v>       0.33333333       0.33333333       0.21404436 </v>
    <v>       0.33333333       0.66666667       0.21404436 </v>
    <v>       0.66666667       0.00000000       0.21404436 </v>
    <v>       0.66666667       0.33333333       0.21404436 </v>
    <v>       0.66666667       0.66666667       0.21404436 </v>
    <v>       0.00000000       0.00000000       0.32106654 </v>
    <v>       0.00000000       0.33333333       0.32106654 </v>
    <v>       0.00000000       0.66666667       0.32106654 </v>
    <v>       0.33333333       0.00000000       0.32106654 </v>
    <v>       0.33333333       0.33333333       0.32106654 </v>
    <v>       0.33333333       0.66666667       0.32106654 </v>
    <v>       0.66666667       0.00000000       0.32106654 </v>
    <v>       0.66666667       0.33333333       0.32106654 </v>
    <v>       0.66666667       0.66666667       0.32106654 </v>
    <v>       0.16666667       0.16666667       0.05351109 </v>
    <v>       0.16666667       0.50000000       0.05351109 </v>
    <v>       0.16666667       0.83333333       0.05351109 </v>
    <v>       0.50000000       0.16666667       0.05351109 </v>
    <v>       0.50000000       0.50000000       0.05351109 </v>
    <v>       0.50000000       0.83333333       0.05351109 </v>
    <v>       0.83333333       0.16666667       0.05351109 </v>
    <v>       0.83333333       0.50000000       0.05351109 </v>
    <v>       0.83333333       0.83333333       0.05351109 </v>
    <v>       0.16666667       0.16666667       0.16053327 </v>
    <v>       0.16666667       0.50000000       0.16053327 </v>
    <v>       0.16666667       0.83333333       0.16053327 </v>
    <v>       0.50000000       0.16666667       0.16053327 </v>
    <v>       0.50000000       0.50000000       0.16053327 </v>
    <v>       0.50000000       0.83333333       0.16053327 </v>
    <v>       0.83333333       0.16666667       0.16053327 </v>
    <v>       0.83333333       0.50000000       0.16053327 </v>
    <v>       0.83333333       0.83333333       0.16053327 </v>
    <v>       0.16666667       0.16666667       0.26755545 </v>
    <v>       0.16666667       0.50000000       0.26755545 </v>
    <v>       0.16666667       0.83333333       0.26755545 </v>
    <v>       0.50000000       0.16666667       0.26755545 </v>
    <v>       0.50000000       0.50000000       0.26755545 </v>
    <v>       0.50000000       0.83333333       0.26755545 </v>
    <v>       0.83333333       0.16666667       0.26755545 </v>
    <v>       0.83333333       0.50000000       0.26755545 </v>
    <v>       0.83333333       0.83333333       0.26755545 </v>
    <v>       0.16666667       0.16666667       0.37457763 </v>
    <v>       0.16666667       0.50000000       0.37457763 </v>
    <v>       0.16666667       0.83333333       0.37457763 </v>
    <v>       0.50000000       0.16666667       0.37457763 </v>
    <v>       0.50000000       0.50000000       0.37457763 </v>
    <v>       0.50000000       0.83333333       0.37457763 </v>
    <v>       0.83333333       0.16666667       0.37457763 </v>
    <v>       0.83333333       0.50000000       0.37457763 </v>
    <v>       0.83333333       0.83333333       0.37457763 </v>
   </varray>
  </structure>
  <varray name="forces" >
   <v>       0.00000000       0.00000000       0.51743436 </v>
   <v>      -0.00000000      -0.00000000       0.51743436 </v>
   <v>      -0.00000000       0.00000000       0.51743436 </v>
   <v>      -0.00000000       0.00000000       0.51743436 </v>
   <v>       0.00000000       0.00000000       0.51743436 </v>
   <v>      -0.00000000       0.00000000       0.51743436 </v>
   <v>       0.00000000       0.00000000       0.51743436 </v>
   <v>      -0.00000000      -0.00000000       0.51743436 </v>
   <v>       0.00000000       0.00000000       0.51743436 </v>
   <v>       0.00000000       0.00000000       0.07371517 </v>
   <v>      -0.00000000       0.00000000       0.07371517 </v>
   <v>       0.00000000       0.00000000       0.07371517 </v>
   <v>       0.00000000       0.00000000       0.07371517 </v>
   <v>       0.00000000      -0.00000000       0.07371517 </v>
   <v>      -0.00000000       0.00000000       0.07371517 </v>
   <v>      -0.00000000       0.00000000       0.07371517 </v>
   <v>       0.00000000      -0.00000000       0.07371517 </v>
   <v>      -0.00000000       0.00000000       0.07371517 </v>
   <v>       0.00000000       0.00000000       0.00981967 </v>
   <v>       0.00000000       0.00000000       0.00981967 </v>
   <v>       0.00000000       0.00000000       0.00981967 </v>
   <v>       0.00000000       0.00000000       0.00981967 </v>
   <v>       0.00000000      -0.00000000       0.00981967 </v>
   <v>       0.00000000       0.00000000       0.00981967 </v>
   <v>      -0.00000000       0.00000000       0.00981967 </v>
   <v>      -0.00000000      -0.00000000       0.00981967 </v>
   <v>      -0.00000000       0.00000000       0.00981967 </v>
   <v>      -0.00000000       0.00000000       0.25997463 </v>
   <v>      -0.00000000      -0.00000000       0.25997463 </v>
   <v>      -0.00000000       0.00000000       0.25997463 </v>
   <v>       0.00000000       0.00000000       0.25997463 </v>
   <v>       0.00000000      -0.00000000       0.25997463 </v>
   <v>       0.00000000       0.00000000       0.25997463 </v>
   <v>      -0.00000000       0.00000000       0.25997463 </v>
   <v>      -0.00000000      -0.00000000       0.25997463 </v>
   <v>      -0.00000000       0.00000000       0.25997463 </v>
   <v>      -0.00000000      -0.00000000      -0.25599675 </v>
   <v>      -0.00000000       0.00000000      -0.25599675 </v>
   <v>       0.00000000       0.00000000      -0.25599675 </v>
   <v>       0.00000000       0.00000000      -0.25599675 </v>
   <v>       0.00000000       0.00000000      -0.25599675 </v>
   <v>      -0.00000000      -0.00000000      -0.25599675 </v>
   <v>       0.00000000       0.00000000      -0.25599675 </v>
   <v>       0.00000000       0.00000000      -0.25599675 </v>
   <v>      -0.00000000      -0.00000000      -0.25599675 </v>
   <v>      -0.00000000       0.00000000      -0.01669914 </v>
   <v>      -0.00000000       0.00000000      -0.01669914 </v>
   <v>      -0.00000000      -0.00000000      -0.01669914 </v>
   <v>       0.00000000       0.00000000      -0.01669914 </v>
   <v>       0.00000000       0.00000000      -0.01669914 </v>
   <v>      -0.00000000      -0.00000000      -0.01669914 </v>
   <v>       0.00000000       0.00000000      -0.01669914 </v>
   <v>       0.00000000       0.00000000      -0.01669914 </v>
   <v>       0.00000000       0.00000000      -0.01669914 </v>
   <v>      -0.00000000       0.00000000      -0.07534766 </v>
   <v>      -0.00000000       0.00000000      -0.07534766 </v>
   <v>      -0.00000000       0.00000000      -0.07534766 </v>
   <v>       0.00000000       0.00000000      -0.07534766 </v>
   <v>       0.00000000       0.00000000      -0.07534766 </v>
   <v>       0.00000000       0.00000000      -0.07534766 </v>
   <v>      -0.00000000       0.00000000      -0.07534766 </v>
   <v>       0.00000000       0.00000000      -0.07534766 </v>
   <v>      -0.00000000       0.00000000      -0.07534766 </v>
   <v>      -0.00000000       0.00000000      -0.51290028 </v>
   <v>       0.00000000       0.00000000      -0.51290028 </v>
   <v>      -0.00000000       0.00000000      -0.51290028 </v>
   <v>       0.00000000       0.00000000      -0.51290028 </v>
   <v>      -0.00000000       0.00000000      -0.51290028 </v>
   <v>       0.00000000       0.00000000      -0.51290028 </v>
   <v>       0.00000000       0.00000000      -0.51290028 </v>
   <v>      -0.00000000       0.00000000      -0.51290028 </v>
   <v>       0.00000000      -0.00000000      -0.51290028 </v>
  </varray>
  <varray name="stress" >
   <v>     -45.57701588       0.00000000       0.00000000 </v>
   <v>       0.00000000     -44.69614378       0.00000000 </v>
   <v>       0.00000000       0.00000000     -27.10359724 </v>
  </varray>
  <energy>
   <i name="e_fr_energy">   -278.89050052 </i>
   <i name="e_wo_entrp">   -278.84680323 </i>
   <i name="e_0_energy">   -278.87593476 </i>
  </energy>
  <time name="totalsc"> 3513.51 3542.91</time>
 </calculation>
 <calculation>
  <scstep>
   <time name="dav">   99.04   99.71</time>
   <time name="total">  101.00  101.69</time>
   <energy>
    <i name="alphaZ">   1885.03137702 </i>
    <i name="ewald"> 369747.98777869 </i>
    <i name="hartreedc">-465831.38598095 </i>
    <i name="XCdc">   3205.54156905 </i>
    <i name="pawpsdc">  93634.80443092 </i>
    <i name="pawaedc">-101379.39017981 </i>
    <i name="eentropy">     -0.04353229 </i>
    <i name="bandstr">  -1663.76176082 </i>
    <i name="atom"> 100148.95009438 </i>
    <i name="e_fr_energy">   -252.26620381 </i>
    <i name="e_wo_entrp">   -252.22267152 </i>
    <i name="e_0_energy">   -252.25169305 </i>
   </energy>
  </scstep>
  <scstep>
   <time name="dav">  130.22  131.29</time>
   <time name="total">  132.82  133.95</time>
   <energy>
    <i name="e_fr_energy">   -252.35809165 </i>
    <i name="e_wo_entrp">   -252.31411544 </i>
    <i name="e_0_energy">   -252.34343291 </i>
   </energy>
  </scstep>
  <scstep>
   <time name="dav">  100.64  101.67</time>
   <time name="total">  102.65  103.69</time>
   <energy>
    <i name="e_fr_energy">   -252.34968417 </i>
    <i name="e_wo_entrp">   -252.30572942 </i>
    <i name="e_0_energy">   -252.33503259 </i>
   </energy>
  </scstep>
  <scstep>
   <time name="dav">  104.10  104.80</time>
   <time name="total">  106.10  106.82</time>
   <energy>
    <i name="e_fr_energy">   -252.34891504 </i>
    <i name="e_wo_entrp">   -252.30501665 </i>
    <i name="e_0_energy">   -252.33428224 </i>
   </energy>
  </scstep>
  <scstep>
   <time name="dav">   98.96   99.80</time>
   <time name="total">  100.95  101.81</time>
   <energy>
    <i name="e_fr_energy">   -252.34892634 </i>
    <i name="e_wo_entrp">   -252.30506977 </i>
    <i name="e_0_energy">   -252.33430748 </i>
   </energy>
  </scstep>
  <scstep>
   <time name="dav">  104.83  105.67</time>
   <time name="total">  106.80  107.66</time>
   <energy>
    <i name="e_fr_energy">   -252.34770866 </i>
    <i name="e_wo_entrp">   -252.30389498 </i>
    <i name="e_0_energy">   -252.33310410 </i>
   </energy>
  </scstep>
  <scstep>
   <time name="dav">  122.87  123.71</time>
   <time name="total">  124.87  125.72</time>
   <energy>
    <i name="e_fr_energy">   -252.34764623 </i>
    <i name="e_wo_entrp">   -252.30420220 </i>
    <i name="e_0_energy">   -252.33316488 </i>
   </energy>
  </scstep>
  <scstep>
   <time name="dav">   74.65   75.33</time>
   <time name="total">   74.82   75.51</time>
   <energy>
    <i name="alphaZ">   1885.03137702 </i>
    <i name="ewald"> 369747.98777869 </i>
    <i name="hartreedc">-465824.16655532 </i>
    <i name="XCdc">   3205.38875940 </i>
    <i name="pawpsdc">  93663.60931395 </i>
    <i name="pawaedc">-101408.89348417 </i>
    <i name="eentropy">     -0.04378437 </i>
    <i name="bandstr">  -1670.21103400 </i>
    <i name="atom"> 100148.95009438 </i>
    <i name="e_fr_energy">   -252.34753444 </i>
    <i name="e_wo_entrp">   -252.30375006 </i>
    <i name="e_0_energy">   -252.33293964 </i>
   </energy>
  </scstep>
  <dipole>
   <v name="dipole">      0.00000000       0.00000000       0.01178293 </v>
   <i name="Tr[quadrupol]"> -12385.43726180 </i>
   <i name="Echarged">      0.00000000 </i>
   <i name="Edipol_quadrupol">      0.00000000 </i>
   <i name="Eion">      0.00000000 </i>
  </dipole>
  <structure>
   <crystal>
    <varray name="basis" >
     <v>      10.89000034       0.00000000       0.00000000 </v>
     <v>       0.00000000       7.70039320       0.00000000 </v>
     <v>       0.00000000       0.00000000      23.98379135 </v>
    </varray>
    <i name="volume">   2011.21561690 </i>
    <varray name="rec_basis" >
     <v>       0.09182736       0.00000000       0.00000000 </v>
     <v>       0.00000000       0.12986350       0.00000000 </v>
     <v>       0.00000000       0.00000000       0.04169483 </v>
    </varray>
   </crystal>
   <varray name="positions" >
    <v>       0.00000000       0.00000000       0.00000000 </v>
    <v>       0.00000000       0.33333333       0.00000000 </v>
    <v>       0.00000000       0.66666667       0.00000000 </v>
    <v>       0.33333333       0.00000000       0.00000000 </v>
    <v>       0.33333333       0.33333333       0.00000000 </v>
    <v>       0.33333333       0.66666667       0.00000000 </v>
    <v>       0.66666667       0.00000000       0.00000000 </v>
    <v>       0.66666667       0.33333333       0.00000000 </v>
    <v>       0.66666667       0.66666667       0.00000000 </v>
    <v>       0.00000000       0.00000000       0.10702218 </v>
    <v>       0.00000000       0.33333333       0.10702218 </v>
    <v>       0.00000000       0.66666667       0.10702218 </v>
    <v>       0.33333333       0.00000000       0.10702218 </v>
    <v>       0.33333333       0.33333333       0.10702218 </v>
    <v>       0.33333333       0.66666667       0.10702218 </v>
    <v>       0.66666667       0.00000000       0.10702218 </v>
    <v>       0.66666667       0.33333333       0.10702218 </v>
    <v>       0.66666667       0.66666667       0.10702218 </v>
    <v>       0.00000000       0.00000000       0.21406411 </v>
    <v>       0.00000000       0.33333333       0.21406411 </v>
    <v>       0.00000000       0.66666667       0.21406411 </v>
    <v>       0.33333333       0.00000000       0.21406411 </v>
    <v>       0.33333333       0.33333333       0.21406411 </v>
    <v>       0.33333333       0.66666667       0.21406411 </v>
    <v>       0.66666667       0.00000000       0.21406411 </v>
    <v>       0.66666667       0.33333333       0.21406411 </v>
    <v>       0.66666667       0.66666667       0.21406411 </v>
    <v>      -0.00000000       0.00000000       0.32158947 </v>
    <v>      -0.00000000       0.33333333       0.32158947 </v>
    <v>      -0.00000000       0.66666667       0.32158947 </v>
    <v>       0.33333333       0.00000000       0.32158947 </v>
    <v>       0.33333333       0.33333333       0.32158947 </v>
    <v>       0.33333333       0.66666667       0.32158947 </v>
    <v>       0.66666667       0.00000000       0.32158947 </v>
    <v>       0.66666667       0.33333333       0.32158947 </v>
    <v>       0.66666667       0.66666667       0.32158947 </v>
    <v>       0.16666667       0.16666667       0.05299616 </v>
    <v>       0.16666667       0.50000000       0.05299616 </v>
    <v>       0.16666667       0.83333333       0.05299616 </v>
    <v>       0.50000000       0.16666667       0.05299616 </v>
    <v>       0.50000000       0.50000000       0.05299616 </v>
    <v>       0.50000000       0.83333333       0.05299616 </v>
    <v>       0.83333333       0.16666667       0.05299616 </v>
    <v>       0.83333333       0.50000000       0.05299616 </v>
    <v>       0.83333333       0.83333333       0.05299616 </v>
    <v>       0.16666667       0.16666667       0.16049968 </v>
    <v>       0.16666667       0.50000000       0.16049968 </v>
    <v>       0.16666667       0.83333333       0.16049968 </v>
    <v>       0.50000000       0.16666667       0.16049968 </v>
    <v>       0.50000000       0.50000000       0.16049968 </v>
    <v>       0.50000000       0.83333333       0.16049968 </v>
    <v>       0.83333333       0.16666667       0.16049968 </v>
    <v>       0.83333333       0.50000000       0.16049968 </v>
    <v>       0.83333333       0.83333333       0.16049968 </v>
    <v>       0.16666667       0.16666667       0.26740389 </v>
    <v>       0.16666667       0.50000000       0.26740389 </v>
    <v>       0.16666667       0.83333333       0.26740389 </v>
    <v>       0.50000000       0.16666667       0.26740389 </v>
    <v>       0.50000000       0.50000000       0.26740389 </v>
    <v>       0.50000000       0.83333333       0.26740389 </v>
    <v>       0.83333333       0.16666667       0.26740389 </v>
    <v>       0.83333333       0.50000000       0.26740389 </v>
    <v>       0.83333333       0.83333333       0.26740389 </v>
    <v>       0.16666667       0.16666667       0.37354595 </v>
    <v>       0.16666667       0.50000000       0.37354595 </v>
    <v>       0.16666667       0.83333333       0.37354595 </v>
    <v>       0.50000000       0.16666667       0.37354595 </v>
    <v>       0.50000000       0.50000000       0.37354595 </v>
    <v>       0.50000000       0.83333333       0.37354595 </v>
    <v>       0.83333333       0.16666667       0.37354595 </v>
    <v>       0.83333333       0.50000000       0.37354595 </v>
    <v>       0.83333333       0.83333333       0.37354595 </v>
   </varray>
  </structure>
  <varray name="forces" >
   <v>      -0.00000000       0.00000000       0.49645267 </v>
   <v>      -0.00000000       0.00000000       0.49645267 </v>
   <v>      -0.00000000       0.00000000       0.49645267 </v>
   <v>      -0.00000000       0.00000000       0.49645267 </v>
   <v>      -0.00000000      -0.00000000       0.49645267 </v>
   <v>      -0.00000000       0.00000000       0.49645267 </v>
   <v>       0.00000000       0.00000000       0.49645267 </v>
   <v>       0.00000000       0.00000000       0.49645267 </v>
   <v>       0.00000000       0.00000000       0.49645267 </v>
   <v>       0.00000000       0.00000000       0.05201841 </v>
   <v>       0.00000000      -0.00000000       0.05201841 </v>
   <v>      -0.00000000       0.00000000       0.05201841 </v>
   <v>      -0.00000000       0.00000000       0.05201841 </v>
   <v>      -0.00000000       0.00000000       0.05201841 </v>
   <v>      -0.00000000       0.00000000       0.05201841 </v>
   <v>      -0.00000000       0.00000000       0.05201841 </v>
   <v>       0.00000000      -0.00000000       0.05201841 </v>
   <v>       0.00000000       0.00000000       0.05201841 </v>
   <v>      -0.00000000       0.00000000       0.01580981 </v>
   <v>      -0.00000000      -0.00000000       0.01580981 </v>
   <v>      -0.00000000       0.00000000       0.01580981 </v>
   <v>       0.00000000       0.00000000       0.01580981 </v>
   <v>       0.00000000       0.00000000       0.01580981 </v>
   <v>       0.00000000       0.00000000       0.01580981 </v>
   <v>      -0.00000000       0.00000000       0.01580981 </v>
   <v>      -0.00000000       0.00000000       0.01580981 </v>
   <v>      -0.00000000       0.00000000       0.01580981 </v>
   <v>      -0.00000000       0.00000000       0.14640140 </v>
   <v>      -0.00000000       0.00000000       0.14640140 </v>
   <v>      -0.00000000       0.00000000       0.14640140 </v>
   <v>      -0.00000000       0.00000000       0.14640140 </v>
   <v>      -0.00000000       0.00000000       0.14640140 </v>
   <v>       0.00000000       0.00000000       0.14640140 </v>
   <v>      -0.00000000       0.00000000       0.14640140 </v>
   <v>       0.00000000       0.00000000       0.14640140 </v>
   <v>      -0.00000000       0.00000000       0.14640140 </v>
   <v>      -0.00000000       0.00000000      -0.19513349 </v>
   <v>      -0.00000000       0.00000000      -0.19513349 </v>
   <v>      -0.00000000      -0.00000000      -0.19513349 </v>
   <v>      -0.00000000       0.00000000      -0.19513349 </v>
   <v>      -0.00000000       0.00000000      -0.19513349 </v>
   <v>      -0.00000000       0.00000000      -0.19513349 </v>
   <v>       0.00000000       0.00000000      -0.19513349 </v>
   <v>      -0.00000000       0.00000000      -0.19513349 </v>
   <v>       0.00000000      -0.00000000      -0.19513349 </v>
   <v>      -0.00000000       0.00000000      -0.03868916 </v>
   <v>      -0.00000000       0.00000000      -0.03868916 </v>
   <v>       0.00000000      -0.00000000      -0.03868916 </v>
   <v>       0.00000000       0.00000000      -0.03868916 </v>
   <v>       0.00000000       0.00000000      -0.03868916 </v>
   <v>       0.00000000       0.00000000      -0.03868916 </v>
   <v>      -0.00000000       0.00000000      -0.03868916 </v>
   <v>       0.00000000       0.00000000      -0.03868916 </v>
   <v>       0.00000000       0.00000000      -0.03868916 </v>
   <v>      -0.00000000       0.00000000      -0.07628388 </v>
   <v>      -0.00000000       0.00000000      -0.07628388 </v>
   <v>       0.00000000      -0.00000000      -0.07628388 </v>
   <v>      -0.00000000       0.00000000      -0.07628388 </v>
   <v>      -0.00000000       0.00000000      -0.07628388 </v>
   <v>       0.00000000       0.00000000      -0.07628388 </v>
   <v>       0.00000000       0.00000000      -0.07628388 </v>
   <v>       0.00000000       0.00000000      -0.07628388 </v>
   <v>       0.00000000       0.00000000      -0.07628388 </v>
   <v>      -0.00000000       0.00000000      -0.40057574 </v>
   <v>      -0.00000000      -0.00000000      -0.40057574 </v>
   <v>      -0.00000000       0.00000000      -0.40057574 </v>
   <v>       0.00000000       0.00000000      -0.40057574 </v>
   <v>       0.00000000      -0.00000000      -0.40057574 </v>
   <v>       0.00000000      -0.00000000      -0.40057574 </v>
   <v>      -0.00000000       0.00000000      -0.40057574 </v>
   <v>       0.00000000      -0.00000000      -0.40057574 </v>
   <v>      -0.00000000      -0.00000000      -0.40057574 </v>
  </varray>
  <varray name="stress" >
   <v>     -44.59067890       0.00000000       0.00000000 </v>
   <v>       0.00000000     -43.89795350       0.00000000 </v>
   <v>       0.00000000       0.00000000     -26.21488665 </v>
  </varray>
  <energy>
   <i name="e_fr_energy">   -279.04297988 </i>
   <i name="e_wo_entrp">   -278.99919550 </i>
   <i name="e_0_energy">   -279.02838508 </i>
  </energy>
  <time name="totalsc"> 1062.77 1071.05</time>
 </calculation>
 <calculation>
  <scstep>
   <time name="dav">  102.61  103.72</time>
   <time name="total">  104.61  105.73</time>
   <energy>
    <i name="alphaZ">   1885.03137702 </i>
    <i name="ewald"> 370615.65738670 </i>
    <i name="hartreedc">-466690.23516364 </i>
    <i name="XCdc">   3206.43085829 </i>
    <i name="pawpsdc">  93663.84660727 </i>
    <i name="pawaedc">-101409.12823605 </i>
    <i name="eentropy">     -0.04431075 </i>
    <i name="bandstr">  -1672.20353082 </i>
    <i name="atom"> 100148.95009438 </i>
    <i name="e_fr_energy">   -251.69491760 </i>
    <i name="e_wo_entrp">   -251.65060685 </i>
    <i name="e_0_energy">   -251.68014735 </i>
   </energy>
  </scstep>
  <scstep>
   <time name="dav">  134.00  135.03</time>
   <time name="total">  135.98  137.04</time>
   <energy>
    <i name="e_fr_energy">   -252.64511529 </i>
    <i name="e_wo_entrp">   -252.59799379 </i>
    <i name="e_0_energy">   -252.62940812 </i>
   </energy>
  </scstep>
  <scstep>
   <time name="dav">   99.52  100.25</time>
   <time name="total">  101.63  102.38</time>
   <energy>
    <i name="e_fr_energy">   -252.54945716 </i>
    <i name="e_wo_entrp">   -252.50357553 </i>
    <i name="e_0_energy">   -252.53416328 </i>
   </energy>
  </scstep>
  <scstep>
   <time name="dav">  108.18  109.42</time>
   <time name="total">  110.17  111.42</time>
   <energy>
    <i name="e_fr_energy">   -252.54566366 </i>
    <i name="e_wo_entrp">   -252.49981702 </i>
    <i name="e_0_energy">   -252.53038145 </i>
   </energy>
  </scstep>
  <scstep>
   <time name="dav">   95.35   96.09</time>
   <time name="total">   97.34   98.10</time>
   <energy>
    <i name="e_fr_energy">   -252.54755775 </i>
    <i name="e_wo_entrp">   -252.50222751 </i>
    <i name="e_0_energy">   -252.53244767 </i>
   </energy>
  </scstep>
  <scstep>
   <time name="dav">  107.75  108.53</time>
   <time name="total">  109.71  110.51</time>
   <energy>
    <i name="e_fr_energy">   -252.53764740 </i>
    <i name="e_wo_entrp">   -252.49292428 </i>
    <i name="e_0_energy">   -252.52273969 </i>
   </energy>
  </scstep>
  <scstep>
   <time name="dav">  138.48  139.85</time>
   <time name="total">  140.48  141.86</time>
   <energy>
    <i name="e_fr_energy">   -252.53482689 </i>
    <i name="e_wo_entrp">   -252.49133703 </i>
    <i name="e_0_energy">   -252.52033027 </i>
   </energy>
  </scstep>
  <scstep>
   <time name="dav">   99.60  100.25</time>
   <time name="total">  101.61  102.27</time>
   <energy>
    <i name="e_fr_energy">   -252.53393535 </i>
    <i name="e_wo_entrp">   -252.48909270 </i>
    <i name="e_0_energy">   -252.51898780 </i>
   </energy>
  </scstep>
  <scstep>
   <time name="dav">   99.44  100.22</time>
   <time name="total">  101.46  102.25</time>
   <energy>
    <i name="e_fr_energy">   -252.53380663 </i>
    <i name="e_wo_entrp">   -252.48918271 </i>
    <i name="e_0_energy">   -252.51893199 </i>
   </energy>
  </scstep>
  <scstep>
   <time name="dav">   92.17   93.25</time>
   <time name="total">   92.34   93.43</time>
   <energy>
    <i name="alphaZ">   1885.03137702 </i>
    <i name="ewald"> 370615.65738670 </i>
    <i name="hartreedc">-466671.98456183 </i>
    <i name="XCdc">   3205.91493724 </i>
    <i name="pawpsdc">  93775.29310721 </i>
    <i name="pawaedc">-101522.70497358 </i>
    <i name="eentropy">     -0.04465296 </i>
    <i name="bandstr">  -1688.64651697 </i>
    <i name="atom"> 100148.95009438 </i>
    <i name="e_fr_energy">   -252.53380280 </i>
    <i name="e_wo_entrp">   -252.48914984 </i>
    <i name="e_0_energy">   -252.51891848 </i>
   </energy>
  </scstep>
  <dipole>
   <v name="dipole">      0.00000000       0.00000000       0.00552476 </v>
   <i name="Tr[quadrupol]"> -12385.25056824 </i>
   <i name="Echarged">      0.00000000 </i>
   <i name="Edipol_quadrupol">      0.00000000 </i>
   <i name="Eion">      0.00000000 </i>
  </dipole>
  <structure>
   <crystal>
    <varray name="basis" >
     <v>      10.89000034       0.00000000       0.00000000 </v>
     <v>       0.00000000       7.70039320       0.00000000 </v>
     <v>       0.00000000       0.00000000      23.98379135 </v>
    </varray>
    <i name="volume">   2011.21561690 </i>
    <varray name="rec_basis" >
     <v>       0.09182736       0.00000000       0.00000000 </v>
     <v>       0.00000000       0.12986350       0.00000000 </v>
     <v>       0.00000000       0.00000000       0.04169483 </v>
    </varray>
   </crystal>
   <varray name="positions" >
    <v>       0.00000000       0.00000000       0.00000000 </v>
    <v>       0.00000000       0.33333333       0.00000000 </v>
    <v>       0.00000000       0.66666667       0.00000000 </v>
    <v>       0.33333333       0.00000000       0.00000000 </v>
    <v>       0.33333333       0.33333333       0.00000000 </v>
    <v>       0.33333333       0.66666667       0.00000000 </v>
    <v>       0.66666667       0.00000000       0.00000000 </v>
    <v>       0.66666667       0.33333333       0.00000000 </v>
    <v>       0.66666667       0.66666667       0.00000000 </v>
    <v>       0.00000000       0.00000000       0.10702218 </v>
    <v>       0.00000000       0.33333333       0.10702218 </v>
    <v>       0.00000000       0.66666667       0.10702218 </v>
    <v>       0.33333333       0.00000000       0.10702218 </v>
    <v>       0.33333333       0.33333333       0.10702218 </v>
    <v>       0.33333333       0.66666667       0.10702218 </v>
    <v>       0.66666667       0.00000000       0.10702218 </v>
    <v>       0.66666667       0.33333333       0.10702218 </v>
    <v>       0.66666667       0.66666667       0.10702218 </v>
    <v>       0.00000000       0.00000000       0.21412209 </v>
    <v>       0.00000000       0.33333333       0.21412209 </v>
    <v>       0.00000000       0.66666667       0.21412209 </v>
    <v>       0.33333333       0.00000000       0.21412209 </v>
    <v>       0.33333333       0.33333333       0.21412209 </v>
    <v>       0.33333333       0.66666667       0.21412209 </v>
    <v>       0.66666667       0.00000000       0.21412209 </v>
    <v>       0.66666667       0.33333333       0.21412209 </v>
    <v>       0.66666667       0.66666667       0.21412209 </v>
    <v>      -0.00000000       0.00000000       0.32312427 </v>
    <v>      -0.00000000       0.33333333       0.32312427 </v>
    <v>      -0.00000000       0.66666667       0.32312427 </v>
    <v>       0.33333333       0.00000000       0.32312427 </v>
    <v>       0.33333333       0.33333333       0.32312427 </v>
    <v>       0.33333333       0.66666667       0.32312427 </v>
    <v>       0.66666667       0.00000000       0.32312427 </v>
    <v>       0.66666667       0.33333333       0.32312427 </v>
    <v>       0.66666667       0.66666667       0.32312427 </v>
    <v>       0.16666667       0.16666667       0.05148485 </v>
    <v>       0.16666667       0.50000000       0.05148485 </v>
    <v>       0.16666667       0.83333333       0.05148485 </v>
    <v>       0.50000000       0.16666667       0.05148485 </v>
    <v>       0.50000000       0.50000000       0.05148485 </v>
    <v>       0.50000000       0.83333333       0.05148485 </v>
    <v>       0.83333333       0.16666667       0.05148485 </v>
    <v>       0.83333333       0.50000000       0.05148485 </v>
    <v>       0.83333333       0.83333333       0.05148485 </v>
    <v>       0.16666667       0.16666667       0.16040110 </v>
    <v>       0.16666667       0.50000000       0.16040110 </v>
    <v>       0.16666667       0.83333333       0.16040110 </v>
    <v>       0.50000000       0.16666667       0.16040110 </v>
    <v>       0.50000000       0.50000000       0.16040110 </v>
    <v>       0.50000000       0.83333333       0.16040110 </v>
    <v>       0.83333333       0.16666667       0.16040110 </v>
    <v>       0.83333333       0.50000000       0.16040110 </v>
    <v>       0.83333333       0.83333333       0.16040110 </v>
    <v>       0.16666667       0.16666667       0.26695907 </v>
    <v>       0.16666667       0.50000000       0.26695907 </v>
    <v>       0.16666667       0.83333333       0.26695907 </v>
    <v>       0.50000000       0.16666667       0.26695907 </v>
    <v>       0.50000000       0.50000000       0.26695907 </v>
    <v>       0.50000000       0.83333333       0.26695907 </v>
    <v>       0.83333333       0.16666667       0.26695907 </v>
    <v>       0.83333333       0.50000000       0.26695907 </v>
    <v>       0.83333333       0.83333333       0.26695907 </v>
    <v>       0.16666667       0.16666667       0.37051798 </v>
    <v>       0.16666667       0.50000000       0.37051798 </v>
    <v>       0.16666667       0.83333333       0.37051798 </v>
    <v>       0.50000000       0.16666667       0.37051798 </v>
    <v>       0.50000000       0.50000000       0.37051798 </v>
    <v>       0.50000000       0.83333333       0.37051798 </v>
    <v>       0.83333333       0.16666667       0.37051798 </v>
    <v>       0.83333333       0.50000000       0.37051798 </v>
    <v>       0.83333333       0.83333333       0.37051798 </v>
   </varray>
  </structure>
  <varray name="forces" >
   <v>       0.00000000      -0.00000000       0.43392869 </v>
   <v>      -0.00000000      -0.00000000       0.43392869 </v>
   <v>       0.00000000      -0.00000000       0.43392869 </v>
   <v>      -0.00000000      -0.00000000       0.43392869 </v>
   <v>      -0.00000000       0.00000000       0.43392869 </v>
   <v>      -0.00000000      -0.00000000       0.43392869 </v>
   <v>      -0.00000000      -0.00000000       0.43392869 </v>
   <v>      -0.00000000      -0.00000000       0.43392869 </v>
   <v>      -0.00000000      -0.00000000       0.43392869 </v>
   <v>      -0.00000000      -0.00000000       0.00131960 </v>
   <v>      -0.00000000       0.00000000       0.00131960 </v>
   <v>       0.00000000      -0.00000000       0.00131960 </v>
   <v>       0.00000000      -0.00000000       0.00131960 </v>
   <v>      -0.00000000       0.00000000       0.00131960 </v>
   <v>       0.00000000      -0.00000000       0.00131960 </v>
   <v>       0.00000000      -0.00000000       0.00131960 </v>
   <v>       0.00000000       0.00000000       0.00131960 </v>
   <v>       0.00000000      -0.00000000       0.00131960 </v>
   <v>      -0.00000000      -0.00000000       0.02555610 </v>
   <v>      -0.00000000      -0.00000000       0.02555610 </v>
   <v>      -0.00000000      -0.00000000       0.02555610 </v>
   <v>       0.00000000      -0.00000000       0.02555610 </v>
   <v>       0.00000000      -0.00000000       0.02555610 </v>
   <v>      -0.00000000      -0.00000000       0.02555610 </v>
   <v>      -0.00000000      -0.00000000       0.02555610 </v>
   <v>      -0.00000000      -0.00000000       0.02555610 </v>
   <v>      -0.00000000      -0.00000000       0.02555610 </v>
   <v>       0.00000000      -0.00000000      -0.16384285 </v>
   <v>       0.00000000      -0.00000000      -0.16384285 </v>
   <v>       0.00000000      -0.00000000      -0.16384285 </v>
   <v>      -0.00000000      -0.00000000      -0.16384285 </v>
   <v>       0.00000000      -0.00000000      -0.16384285 </v>
   <v>      -0.00000000      -0.00000000      -0.16384285 </v>
   <v>      -0.00000000      -0.00000000      -0.16384285 </v>
   <v>       0.00000000      -0.00000000      -0.16384285 </v>
   <v>      -0.00000000      -0.00000000      -0.16384285 </v>
   <v>      -0.00000000       0.00000000      -0.04022146 </v>
   <v>      -0.00000000       0.00000000      -0.04022146 </v>
   <v>       0.00000000       0.00000000      -0.04022146 </v>
   <v>       0.00000000       0.00000000      -0.04022146 </v>
   <v>       0.00000000       0.00000000      -0.04022146 </v>
   <v>       0.00000000      -0.00000000      -0.04022146 </v>
   <v>       0.00000000      -0.00000000      -0.04022146 </v>
   <v>       0.00000000      -0.00000000      -0.04022146 </v>
   <v>       0.00000000       0.00000000      -0.04022146 </v>
   <v>       0.00000000      -0.00000000      -0.09180412 </v>
   <v>       0.00000000      -0.00000000      -0.09180412 </v>
   <v>      -0.00000000       0.00000000      -0.09180412 </v>
   <v>      -0.00000000      -0.00000000      -0.09180412 </v>
   <v>      -0.00000000      -0.00000000      -0.09180412 </v>
   <v>       0.00000000      -0.00000000      -0.09180412 </v>
   <v>      -0.00000000      -0.00000000      -0.09180412 </v>
   <v>       0.00000000      -0.00000000      -0.09180412 </v>
   <v>       0.00000000       0.00000000      -0.09180412 </v>
   <v>       0.00000000       0.00000000      -0.11248428 </v>
   <v>       0.00000000      -0.00000000      -0.11248428 </v>
   <v>      -0.00000000       0.00000000      -0.11248428 </v>
   <v>      -0.00000000      -0.00000000      -0.11248428 </v>
   <v>      -0.00000000      -0.00000000      -0.11248428 </v>
   <v>      -0.00000000       0.00000000      -0.11248428 </v>
   <v>      -0.00000000      -0.00000000      -0.11248428 </v>
   <v>      -0.00000000      -0.00000000      -0.11248428 </v>
   <v>      -0.00000000       0.00000000      -0.11248428 </v>
   <v>      -0.00000000      -0.00000000      -0.05245169 </v>
   <v>      -0.00000000      -0.00000000      -0.05245169 </v>
   <v>       0.00000000      -0.00000000      -0.05245169 </v>
   <v>       0.00000000      -0.00000000      -0.05245169 </v>
   <v>       0.00000000      -0.00000000      -0.05245169 </v>
   <v>      -0.00000000       0.00000000      -0.05245169 </v>
   <v>      -0.00000000      -0.00000000      -0.05245169 </v>
   <v>       0.00000000      -0.00000000      -0.05245169 </v>
   <v>       0.00000000      -0.00000000      -0.05245169 </v>
  </varray>
  <varray name="stress" >
   <v>     -42.82309437       0.00000000       0.00000000 </v>
   <v>       0.00000000     -43.23557487       0.00000000 </v>
   <v>       0.00000000       0.00000000     -25.09391326 </v>
  </varray>
  <energy>
   <i name="e_fr_energy">   -279.24704757 </i>
   <i name="e_wo_entrp">   -279.20239461 </i>
   <i name="e_0_energy">   -279.23216325 </i>
  </energy>
  <time name="totalsc"> 1307.18 1318.20</time>
 </calculation>
 <calculation>
  <scstep>
   <time name="dav">  101.89  102.81</time>
   <time name="total">  103.87  104.80</time>
   <energy>
    <i name="alphaZ">   1885.03137702 </i>
    <i name="ewald"> 371224.30006225 </i>
    <i name="hartreedc">-467279.25335664 </i>
    <i name="XCdc">   3206.05392737 </i>
    <i name="pawpsdc">  93774.34226067 </i>
    <i name="pawaedc">-101521.59202301 </i>
    <i name="eentropy">     -0.04459628 </i>
    <i name="bandstr">  -1690.30230888 </i>
    <i name="atom"> 100148.95009438 </i>
    <i name="e_fr_energy">   -252.51456312 </i>
    <i name="e_wo_entrp">   -252.46996685 </i>
    <i name="e_0_energy">   -252.49969770 </i>
   </energy>
  </scstep>
  <scstep>
   <time name="dav">  125.38  126.20</time>
   <time name="total">  127.37  128.21</time>
   <energy>
    <i name="e_fr_energy">   -252.54525190 </i>
    <i name="e_wo_entrp">   -252.50078906 </i>
    <i name="e_0_energy">   -252.53043096 </i>
   </energy>
  </scstep>
  <scstep>
   <time name="dav">   97.94   98.75</time>
   <time name="total">   99.94  100.77</time>
   <energy>
    <i name="e_fr_energy">   -252.54480834 </i>
    <i name="e_wo_entrp">   -252.50040926 </i>
    <i name="e_0_energy">   -252.53000864 </i>
   </energy>
  </scstep>
  <scstep>
   <time name="dav">  101.52  102.52</time>
   <time name="total">  103.51  104.53</time>
   <energy>
    <i name="e_fr_energy">   -252.54464846 </i>
    <i name="e_wo_entrp">   -252.50014176 </i>
    <i name="e_0_energy">   -252.52981289 </i>
   </energy>
  </scstep>
  <scstep>
   <time name="dav">  103.35  104.12</time>
   <time name="total">  105.36  106.15</time>
   <energy>
    <i name="e_fr_energy">   -252.54417227 </i>
    <i name="e_wo_entrp">   -252.49986094 </i>
    <i name="e_0_energy">   -252.52940183 </i>
   </energy>
  </scstep>
  <scstep>
   <time name="dav">  138.60  139.98</time>
   <time name="total">  140.63  142.03</time>
   <energy>
    <i name="e_fr_energy">   -252.54363797 </i>
    <i name="e_wo_entrp">   -252.49912081 </i>
    <i name="e_0_energy">   -252.52879891 </i>
   </energy>
  </scstep>
  <scstep>
   <time name="dav">   73.22   73.78</time>
   <time name="total">   73.39   73.96</time>
   <energy>
    <i name="alphaZ">   1885.03137702 </i>
    <i name="ewald"> 371224.30006225 </i>
    <i name="hartreedc">-467278.15529974 </i>
    <i name="XCdc">   3206.00909281 </i>
    <i name="pawpsdc">  93792.57142137 </i>
    <i name="pawaedc">-101540.29087111 </i>
    <i name="eentropy">     -0.04428575 </i>
    <i name="bandstr">  -1690.91527373 </i>
    <i name="atom"> 100148.95009438 </i>
    <i name="e_fr_energy">   -252.54368251 </i>
    <i name="e_wo_entrp">   -252.49939676 </i>
    <i name="e_0_energy">   -252.52892059 </i>
   </energy>
  </scstep>
  <dipole>
   <v name="dipole">      0.00000000       0.00000000       0.00755353 </v>
   <i name="Tr[quadrupol]"> -12385.24355248 </i>
   <i name="Echarged">      0.00000000 </i>
   <i name="Edipol_quadrupol">      0.00000000 </i>
   <i name="Eion">      0.00000000 </i>
  </dipole>
  <structure>
   <crystal>
    <varray name="basis" >
[...]
       <r>    -6.1738     4.2226     5.6282 </r>
       <r>    -6.1015     5.7995     6.0478 </r>
       <r>    -6.0291     6.7785     6.5382 </r>
       <r>    -5.9568     7.5648     7.0855 </r>
       <r>    -5.8844     8.2236     7.6805 </r>
       <r>    -5.8121     8.1334     8.2690 </r>
       <r>    -5.7397     7.0832     8.7814 </r>
       <r>    -5.6674     5.8267     9.2030 </r>
       <r>    -5.5950     5.0563     9.5688 </r>
       <r>    -5.5227     4.5689     9.8994 </r>
       <r>    -5.4503     4.0525    10.1926 </r>
       <r>    -5.3780     4.0281    10.4840 </r>
       <r>    -5.3056     5.2211    10.8618 </r>
       <r>    -5.2333     7.4910    11.4038 </r>
       <r>    -5.1609     9.9232    12.1217 </r>
       <r>    -5.0886    11.4723    12.9517 </r>
       <r>    -5.0162    11.3737    13.7746 </r>
       <r>    -4.9439     9.5821    14.4679 </r>
       <r>    -4.8715     7.0286    14.9764 </r>
       <r>    -4.7991     5.1580    15.3496 </r>
       <r>    -4.7268     5.0151    15.7125 </r>
       <r>    -4.6544     6.7253    16.1990 </r>
       <r>    -4.5821     9.8080    16.9086 </r>
       <r>    -4.5097    13.7763    17.9054 </r>
       <r>    -4.4374    18.2021    19.2223 </r>
       <r>    -4.3650    22.4090    20.8436 </r>
       <r>    -4.2927    25.5014    22.6887 </r>
       <r>    -4.2203    26.8136    24.6286 </r>
       <r>    -4.1480    26.5432    26.5491 </r>
       <r>    -4.0756    26.1070    28.4379 </r>
       <r>    -4.0033    27.1512    30.4023 </r>
       <r>    -3.9309    29.6808    32.5497 </r>
       <r>    -3.8586    32.4910    34.9005 </r>
       <r>    -3.7862    36.1838    37.5184 </r>
       <r>    -3.7139    43.2725    40.6492 </r>
       <r>    -3.6415    53.6680    44.5321 </r>
       <r>    -3.5692    62.8979    49.0828 </r>
       <r>    -3.4968    67.2021    53.9449 </r>
       <r>    -3.4245    68.1330    58.8744 </r>
       <r>    -3.3521    69.5225    63.9044 </r>
       <r>    -3.2798    71.5617    69.0819 </r>
       <r>    -3.2074    70.8982    74.2115 </r>
       <r>    -3.1351    66.2309    79.0033 </r>
       <r>    -3.0627    61.2689    83.4361 </r>
       <r>    -2.9904    61.4562    87.8825 </r>
       <r>    -2.9180    68.9254    92.8693 </r>
       <r>    -2.8457    81.0501    98.7333 </r>
       <r>    -2.7733    92.8398   105.4504 </r>
       <r>    -2.7010   100.2467   112.7033 </r>
       <r>    -2.6286   102.5717   120.1244 </r>
       <r>    -2.5563   103.0121   127.5774 </r>
       <r>    -2.4839   106.8548   135.3084 </r>
       <r>    -2.4116   117.8161   143.8325 </r>
       <r>    -2.3392   133.8728   153.5182 </r>
       <r>    -2.2669   146.8323   164.1417 </r>
       <r>    -2.1945   148.6695   174.8980 </r>
       <r>    -2.1222   138.6410   184.9287 </r>
       <r>    -2.0498   123.1626   193.8396 </r>
       <r>    -1.9775   109.7658   201.7813 </r>
       <r>    -1.9051   102.2603   209.1799 </r>
       <r>    -1.8328   100.8808   216.4786 </r>
       <r>    -1.7604   105.1665   224.0875 </r>
       <r>    -1.6881   114.5302   232.3738 </r>
       <r>    -1.6157   125.7961   241.4753 </r>
       <r>    -1.5434   133.8061   251.1562 </r>
       <r>    -1.4710   136.7899   261.0530 </r>
       <r>    -1.3987   137.7657   271.0205 </r>
       <r>    -1.3263   138.8551   281.0667 </r>
       <r>    -1.2540   138.7191   291.1031 </r>
       <r>    -1.1816   138.0814   301.0934 </r>
       <r>    -1.1093   143.1516   311.4505 </r>
       <r>    -1.0369   158.6978   322.9324 </r>
       <r>    -0.9646   178.5886   335.8534 </r>
       <r>    -0.8922   186.7527   349.3651 </r>
       <r>    -0.8199   169.5265   361.6304 </r>
       <r>    -0.7475   127.8167   370.8780 </r>
       <r>    -0.6752    77.3973   376.4778 </r>
       <r>    -0.6028    37.0679   379.1597 </r>
       <r>    -0.5305    16.0353   380.3198 </r>
       <r>    -0.4581    11.3744   381.1428 </r>
       <r>    -0.3858    14.6055   382.1995 </r>
       <r>    -0.3134    18.2538   383.5202 </r>
       <r>    -0.2411    18.1655   384.8345 </r>
       <r>    -0.1687    14.2754   385.8673 </r>
       <r>    -0.0964    10.0548   386.5948 </r>
       <r>    -0.0240     8.8516   387.2352 </r>
       <r>     0.0483    10.4873   387.9939 </r>
       <r>     0.1207    12.2885   388.8830 </r>
       <r>     0.1930    12.6030   389.7949 </r>
       <r>     0.2654    12.1698   390.6754 </r>
       <r>     0.3377    12.4202   391.5740 </r>
       <r>     0.4101    13.7076   392.5657 </r>
       <r>     0.4824    15.3900   393.6792 </r>
       <r>     0.5548    16.4130   394.8667 </r>
       <r>     0.6271    15.5556   395.9921 </r>
       <r>     0.6995    12.4007   396.8893 </r>
       <r>     0.7718     8.3907   397.4964 </r>
       <r>     0.8442     5.9183   397.9246 </r>
       <r>     0.9165     6.0191   398.3601 </r>
       <r>     0.9889     7.5632   398.9073 </r>
       <r>     1.0613     9.0348   399.5610 </r>
       <r>     1.1336    10.3396   400.3090 </r>
       <r>     1.2060    12.0528   401.1811 </r>
       <r>     1.2783    13.7430   402.1754 </r>
       <r>     1.3507    14.3107   403.2108 </r>
       <r>     1.4230    13.4588   404.1845 </r>
       <r>     1.4954    11.8567   405.0424 </r>
       <r>     1.5677    10.2588   405.7846 </r>
       <r>     1.6401     9.0200   406.4372 </r>
       <r>     1.7124     8.1900   407.0297 </r>
       <r>     1.7848     7.7593   407.5911 </r>
       <r>     1.8571     7.8970   408.1625 </r>
       <r>     1.9295     8.8963   408.8061 </r>
       <r>     2.0018    10.4693   409.5636 </r>
       <r>     2.0742    11.4340   410.3909 </r>
       <r>     2.1465    11.0916   411.1933 </r>
       <r>     2.2189    10.5535   411.9569 </r>
       <r>     2.2912    11.5408   412.7919 </r>
       <r>     2.3636    14.0642   413.8094 </r>
       <r>     2.4359    16.2060   414.9819 </r>
       <r>     2.5083    16.1344   416.1493 </r>
       <r>     2.5806    13.8490   417.1513 </r>
       <r>     2.6530    11.1076   417.9549 </r>
       <r>     2.7253     9.7796   418.6625 </r>
       <r>     2.7977    10.2076   419.4010 </r>
       <r>     2.8700    11.4608   420.2302 </r>
       <r>     2.9424    12.7060   421.1495 </r>
       <r>     3.0147    13.3833   422.1178 </r>
       <r>     3.0871    12.8395   423.0467 </r>
       <r>     3.1594    11.0382   423.8453 </r>
       <r>     3.2318     9.0367   424.4991 </r>
       <r>     3.3041     7.8578   425.0677 </r>
       <r>     3.3765     7.2899   425.5951 </r>
       <r>     3.4488     6.5904   426.0719 </r>
       <r>     3.5212     6.0641   426.5106 </r>
       <r>     3.5935     6.7128   426.9963 </r>
       <r>     3.6659     8.4131   427.6050 </r>
       <r>     3.7382    10.0017   428.3286 </r>
       <r>     3.8106    11.2389   429.1418 </r>
       <r>     3.8829    12.9770   430.0807 </r>
       <r>     3.9553    15.0891   431.1724 </r>
       <r>     4.0276    15.9874   432.3291 </r>
       <r>     4.1000    14.7612   433.3971 </r>
       <r>     4.1723    12.1883   434.2789 </r>
       <r>     4.2447     9.1877   434.9436 </r>
       <r>     4.3170     5.9905   435.3770 </r>
       <r>     4.3894     3.2701   435.6136 </r>
       <r>     4.4617     2.5015   435.7946 </r>
       <r>     4.5341     4.5711   436.1254 </r>
       <r>     4.6064     8.6500   436.7512 </r>
       <r>     4.6788    12.4745   437.6537 </r>
       <r>     4.7511    13.6573   438.6418 </r>
       <r>     4.8235    11.4789   439.4724 </r>
       <r>     4.8958     7.7683   440.0344 </r>
       <r>     4.9682     5.3930   440.4246 </r>
       <r>     5.0405     5.6718   440.8349 </r>
       <r>     5.1129     7.7274   441.3940 </r>
       <r>     5.1852    10.0738   442.1229 </r>
       <r>     5.2576    11.8982   442.9837 </r>
       <r>     5.3299    12.9713   443.9222 </r>
       <r>     5.4023    13.5672   444.9038 </r>
       <r>     5.4746    14.5593   445.9572 </r>
       <r>     5.5470    16.3949   447.1433 </r>
       <r>     5.6193    18.1778   448.4585 </r>
       <r>     5.6917    18.7695   449.8165 </r>
       <r>     5.7640    17.9337   451.1140 </r>
       <r>     5.8364    15.8215   452.2587 </r>
       <r>     5.9087    12.9771   453.1976 </r>
       <r>     5.9811    11.1041   454.0010 </r>
       <r>     6.0534    11.8329   454.8571 </r>
       <r>     6.1258    14.5584   455.9104 </r>
       <r>     6.1981    17.1057   457.1480 </r>
       <r>     6.2705    18.4160   458.4804 </r>
       <r>     6.3428    19.2242   459.8713 </r>
       <r>     6.4152    20.2312   461.3351 </r>
       <r>     6.4875    20.8694   462.8450 </r>
       <r>     6.5599    20.2730   464.3117 </r>
       <r>     6.6322    18.7385   465.6675 </r>
       <r>     6.7046    17.2749   466.9173 </r>
       <r>     6.7769    15.9756   468.0732 </r>
       <r>     6.8493    14.3206   469.1093 </r>
       <r>     6.9217    12.7526   470.0319 </r>
       <r>     6.9940    11.8996   470.8929 </r>
       <r>     7.0664    10.9362   471.6841 </r>
       <r>     7.1387     9.0415   472.3383 </r>
       <r>     7.2111     7.5598   472.8852 </r>
       <r>     7.2834     8.6444   473.5107 </r>
       <r>     7.3558    12.6715   474.4275 </r>
       <r>     7.4281    18.6198   475.7746 </r>
       <r>     7.5005    25.6130   477.6277 </r>
       <r>     7.5728    31.8446   479.9317 </r>
       <r>     7.6452    33.7738   482.3753 </r>
       <r>     7.7175    29.7213   484.5256 </r>
       <r>     7.7899    22.8734   486.1805 </r>
       <r>     7.8622    17.7560   487.4652 </r>
       <r>     7.9346    15.2628   488.5695 </r>
       <r>     8.0069    13.6069   489.5539 </r>
       <r>     8.0793    12.2914   490.4432 </r>
       <r>     8.1516    12.2939   491.3327 </r>
       <r>     8.2240    13.5973   492.3165 </r>
       <r>     8.2963    15.1103   493.4097 </r>
       <r>     8.3687    16.2935   494.5885 </r>
       <r>     8.4410    17.3122   495.8411 </r>
       <r>     8.5134    18.1343   497.1531 </r>
       <r>     8.5857    18.3530   498.4810 </r>
       <r>     8.6581    18.0641   499.7879 </r>
       <r>     8.7304    18.3632   501.1165 </r>
       <r>     8.8028    19.9136   502.5573 </r>
       <r>     8.8751    21.4418   504.1086 </r>
       <r>     8.9475    21.0960   505.6349 </r>
       <r>     9.0198    18.8594   506.9994 </r>
       <r>     9.0922    16.3723   508.1839 </r>
       <r>     9.1645    14.8185   509.2561 </r>
       <r>     9.2369    13.7670   510.2521 </r>
       <r>     9.3092    11.8417   511.1089 </r>
       <r>     9.3816     8.3338   511.7118 </r>
       <r>     9.4539     4.1705   512.0136 </r>
       <r>     9.5263     1.0297   512.0881 </r>
       <r>     9.5986    -0.3438   512.0632 </r>
       <r>     9.6710    -0.4915   512.0276 </r>
       <r>     9.7433    -0.2644   512.0085 </r>
       <r>     9.8157    -0.0909   512.0019 </r>
       <r>     9.8880    -0.0220   512.0003 </r>
       <r>     9.9604    -0.0039   512.0000 </r>
       <r>    10.0327    -0.0005   512.0000 </r>
       <r>    10.1051    -0.0001   512.0000 </r>
       <r>    10.1774    -0.0000   512.0000 </r>
       <r>    10.2498    -0.0000   512.0000 </r>
       <r>    10.3221    -0.0000   512.0000 </r>
       <r>    10.3945    -0.0000   512.0000 </r>
       <r>    10.4668    -0.0000   512.0000 </r>
       <r>    10.5392    -0.0000   512.0000 </r>
       <r>    10.6115    -0.0000   512.0000 </r>
       <r>    10.6839     0.0000   512.0000 </r>
       <r>    10.7562     0.0000   512.0000 </r>
       <r>    10.8286     0.0000   512.0000 </r>
       <r>    10.9009     0.0000   512.0000 </r>
       <r>    10.9733     0.0000   512.0000 </r>
       <r>    11.0456     0.0000   512.0000 </r>
       <r>    11.1180     0.0000   512.0000 </r>
       <r>    11.1903     0.0000   512.0000 </r>
       <r>    11.2627     0.0000   512.0000 </r>
       <r>    11.3350     0.0000   512.0000 </r>
      </set>
     </set>
    </array>
   </total>
  </dos>
 </calculation>
 <structure name="finalpos" >
  <crystal>
   <varray name="basis" >
    <v>      10.89000034       0.00000000       0.00000000 </v>
    <v>       0.00000000       7.70039320       0.00000000 </v>
    <v>       0.00000000       0.00000000      23.98379135 </v>
   </varray>
   <i name="volume">   2011.21561690 </i>
   <varray name="rec_basis" >
    <v>       0.09182736       0.00000000       0.00000000 </v>
    <v>       0.00000000       0.12986350       0.00000000 </v>
    <v>       0.00000000       0.00000000       0.04169483 </v>
   </varray>
  </crystal>
  <varray name="positions" >
   <v>       0.00000000       0.00000000       0.00000000 </v>
   <v>       0.00000000       0.33333333       0.00000000 </v>
   <v>       0.00000000       0.66666667       0.00000000 </v>
   <v>       0.33333333       0.00000000       0.00000000 </v>
   <v>       0.33333333       0.33333333       0.00000000 </v>
   <v>       0.33333333       0.66666667       0.00000000 </v>
   <v>       0.66666667       0.00000000       0.00000000 </v>
   <v>       0.66666667       0.33333333       0.00000000 </v>
   <v>       0.66666667       0.66666667       0.00000000 </v>
   <v>       0.00000000       0.00000000       0.10702218 </v>
   <v>       0.00000000       0.33333333       0.10702218 </v>
   <v>       0.00000000       0.66666667       0.10702218 </v>
   <v>       0.33333333       0.00000000       0.10702218 </v>
   <v>       0.33333333       0.33333333       0.10702218 </v>
   <v>       0.33333333       0.66666667       0.10702218 </v>
   <v>       0.66666667       0.00000000       0.10702218 </v>
   <v>       0.66666667       0.33333333       0.10702218 </v>
   <v>       0.66666667       0.66666667       0.10702218 </v>
   <v>      -0.00000000      -0.00000000       0.21067210 </v>
   <v>      -0.00000000       0.33333333       0.21067210 </v>
   <v>       0.00000000       0.66666667       0.21067210 </v>
   <v>       0.33333333      -0.00000000       0.21067210 </v>
   <v>       0.33333333       0.33333333       0.21067210 </v>
   <v>       0.33333333       0.66666667       0.21067210 </v>
   <v>       0.66666667      -0.00000000       0.21067210 </v>
   <v>       0.66666667       0.33333333       0.21067210 </v>
   <v>       0.66666667       0.66666667       0.21067210 </v>
   <v>       0.00000000      -0.00000000       0.31670735 </v>
   <v>       0.00000000       0.33333333       0.31670735 </v>
   <v>       0.00000000       0.66666667       0.31670735 </v>
   <v>       0.33333333      -0.00000000       0.31670735 </v>
   <v>       0.33333333       0.33333333       0.31670735 </v>
   <v>       0.33333333       0.66666667       0.31670735 </v>
   <v>       0.66666667      -0.00000000       0.31670735 </v>
   <v>       0.66666667       0.33333333       0.31670735 </v>
   <v>       0.66666667       0.66666667       0.31670735 </v>
   <v>       0.16666667       0.16666667       0.04985486 </v>
   <v>       0.16666667       0.50000000       0.04985486 </v>
   <v>       0.16666667       0.83333333       0.04985486 </v>
   <v>       0.50000000       0.16666667       0.04985486 </v>
   <v>       0.50000000       0.50000000       0.04985486 </v>
   <v>       0.50000000       0.83333333       0.04985486 </v>
   <v>       0.83333333       0.16666667       0.04985486 </v>
   <v>       0.83333333       0.50000000       0.04985486 </v>
   <v>       0.83333333       0.83333333       0.04985486 </v>
   <v>       0.16666667       0.16666667       0.15708004 </v>
   <v>       0.16666667       0.50000000       0.15708004 </v>
   <v>       0.16666667       0.83333333       0.15708004 </v>
   <v>       0.50000000       0.16666667       0.15708004 </v>
   <v>       0.50000000       0.50000000       0.15708004 </v>
   <v>       0.50000000       0.83333333       0.15708004 </v>
   <v>       0.83333333       0.16666667       0.15708004 </v>
   <v>       0.83333333       0.50000000       0.15708004 </v>
   <v>       0.83333333       0.83333333       0.15708004 </v>
   <v>       0.16666667       0.16666667       0.26165395 </v>
   <v>       0.16666667       0.50000000       0.26165395 </v>
   <v>       0.16666667       0.83333333       0.26165395 </v>
   <v>       0.50000000       0.16666667       0.26165395 </v>
   <v>       0.50000000       0.50000000       0.26165395 </v>
   <v>       0.50000000       0.83333333       0.26165395 </v>
   <v>       0.83333333       0.16666667       0.26165395 </v>
   <v>       0.83333333       0.50000000       0.26165395 </v>
   <v>       0.83333333       0.83333333       0.26165395 </v>
   <v>       0.16666667       0.16666667       0.36436568 </v>
   <v>       0.16666667       0.50000000       0.36436568 </v>
   <v>       0.16666667       0.83333333       0.36436568 </v>
   <v>       0.50000000       0.16666667       0.36436568 </v>
   <v>       0.50000000       0.50000000       0.36436568 </v>
   <v>       0.50000000       0.83333333       0.36436568 </v>
   <v>       0.83333333       0.16666667       0.36436568 </v>
   <v>       0.83333333       0.50000000       0.36436568 </v>
   <v>       0.83333333       0.83333333       0.36436568 </v>
  </varray>
  <varray name="selective"  type="logical" >
   <v type="logical" >  F  F  F </v>
   <v type="logical" >  F  F  F </v>
   <v type="logical" >  F  F  F </v>
   <v type="logical" >  F  F  F </v>
   <v type="logical" >  F  F  F </v>
   <v type="logical" >  F  F  F </v>
   <v type="logical" >  F  F  F </v>
   <v type="logical" >  F  F  F </v>
   <v type="logical" >  F  F  F </v>
   <v type="logical" >  F  F  F </v>
   <v type="logical" >  F  F  F </v>
   <v type="logical" >  F  F  F </v>
   <v type="logical" >  F  F  F </v>
   <v type="logical" >  F  F  F </v>
   <v type="logical" >  F  F  F </v>
   <v type="logical" >  F  F  F </v>
   <v type="logical" >  F  F  F </v>
   <v type="logical" >  F  F  F </v>
   <v type="logical" >  T  T  T </v>
   <v type="logical" >  T  T  T </v>
   <v type="logical" >  T  T  T </v>
   <v type="logical" >  T  T  T </v>
   <v type="logical" >  T  T  T </v>
   <v type="logical" >  T  T  T </v>
   <v type="logical" >  T  T  T </v>
   <v type="logical" >  T  T  T </v>
   <v type="logical" >  T  T  T </v>
   <v type="logical" >  T  T  T </v>
   <v type="logical" >  T  T  T </v>
   <v type="logical" >  T  T  T </v>
   <v type="logical" >  T  T  T </v>
   <v type="logical" >  T  T  T </v>
   <v type="logical" >  T  T  T </v>
   <v type="logical" >  T  T  T </v>
   <v type="logical" >  T  T  T </v>
   <v type="logical" >  T  T  T </v>
   <v type="logical" >  T  T  T </v>
   <v type="logical" >  T  T  T </v>
   <v type="logical" >  T  T  T </v>
   <v type="logical" >  T  T  T </v>
   <v type="logical" >  T  T  T </v>
   <v type="logical" >  T  T  T </v>
   <v type="logical" >  T  T  T </v>
   <v type="logical" >  T  T  T </v>
   <v type="logical" >  T  T  T </v>
   <v type="logical" >  T  T  T </v>
   <v type="logical" >  T  T  T </v>
   <v type="logical" >  T  T  T </v>
   <v type="logical" >  T  T  T </v>
   <v type="logical" >  T  T  T </v>
   <v type="logical" >  T  T  T </v>
   <v type="logical" >  T  T  T </v>
   <v type="logical" >  T  T  T </v>
   <v type="logical" >  T  T  T </v>
   <v type="logical" >  T  T  T </v>
   <v type="logical" >  T  T  T </v>
   <v type="logical" >  T  T  T </v>
   <v type="logical" >  T  T  T </v>
   <v type="logical" >  T  T  T </v>
   <v type="logical" >  T  T  T </v>
   <v type="logical" >  T  T  T </v>
   <v type="logical" >  T  T  T </v>
   <v type="logical" >  T  T  T </v>
   <v type="logical" >  T  T  T </v>
   <v type="logical" >  T  T  T </v>
   <v type="logical" >  T  T  T </v>
   <v type="logical" >  T  T  T </v>
   <v type="logical" >  T  T  T </v>
   <v type="logical" >  T  T  T </v>
   <v type="logical" >  T  T  T </v>
   <v type="logical" >  T  T  T </v>
   <v type="logical" >  T  T  T </v>
  </varray>
  <nose>
   <v>      -3.00000000       0.00000000       0.00010000       0.00010000 </v>
  </nose>
 </structure>
</modeling>
