unknown system                          
           1
    10.890000    0.000000    0.000000
     0.000000    7.700393    0.000000
     0.000000    0.000000   23.983791
   Cu
    72
Direct configuration=     1
   0.00000000  0.00000000  0.00000000
   0.00000000  0.33333333  0.00000000
   0.00000000  0.66666667  0.00000000
   0.33333333  0.00000000  0.00000000
   0.33333333  0.33333333  0.00000000
   0.33333333  0.66666667  0.00000000
   0.66666667  0.00000000  0.00000000
   0.66666667  0.33333333  0.00000000
   0.66666667  0.66666667  0.00000000
   0.00000000  0.00000000  0.10702218
   0.00000000  0.33333333  0.10702218
   0.00000000  0.66666667  0.10702218
   0.33333333  0.00000000  0.10702218
   0.33333333  0.33333333  0.10702218
   0.33333333  0.66666667  0.10702218
   0.66666667  0.00000000  0.10702218
   0.66666667  0.33333333  0.10702218
   0.66666667  0.66666667  0.10702218
   0.00000000  0.00000000  0.21404436
   0.00000000  0.33333333  0.21404436
   0.00000000  0.66666667  0.21404436
   0.33333333  0.00000000  0.21404436
   0.33333333  0.33333333  0.21404436
   0.33333333  0.66666667  0.21404436
   0.66666667  0.00000000  0.21404436
   0.66666667  0.33333333  0.21404436
   0.66666667  0.66666667  0.21404436
   0.00000000  0.00000000  0.32106654
   0.00000000  0.33333333  0.32106654
   0.00000000  0.66666667  0.32106654
   0.33333333  0.00000000  0.32106654
   0.33333333  0.33333333  0.32106654
   0.33333333  0.66666667  0.32106654
   0.66666667  0.00000000  0.32106654
   0.66666667  0.33333333  0.32106654
   0.66666667  0.66666667  0.32106654
   0.16666667  0.16666667  0.05351109
   0.16666667  0.50000000  0.05351109
   0.16666667  0.83333333  0.05351109
   0.50000000  0.16666667  0.05351109
   0.50000000  0.50000000  0.05351109
   0.50000000  0.83333333  0.05351109
   0.83333333  0.16666667  0.05351109
   0.83333333  0.50000000  0.05351109
   0.83333333  0.83333333  0.05351109
   0.16666667  0.16666667  0.16053327
   0.16666667  0.50000000  0.16053327
   0.16666667  0.83333333  0.16053327
   0.50000000  0.16666667  0.16053327
   0.50000000  0.50000000  0.16053327
   0.50000000  0.83333333  0.16053327
   0.83333333  0.16666667  0.16053327
   0.83333333  0.50000000  0.16053327
   0.83333333  0.83333333  0.16053327
   0.16666667  0.16666667  0.26755545
   0.16666667  0.50000000  0.26755545
   0.16666667  0.83333333  0.26755545
   0.50000000  0.16666667  0.26755545
   0.50000000  0.50000000  0.26755545
   0.50000000  0.83333333  0.26755545
   0.83333333  0.16666667  0.26755545
   0.83333333  0.50000000  0.26755545
   0.83333333  0.83333333  0.26755545
   0.16666667  0.16666667  0.37457763
   0.16666667  0.50000000  0.37457763
   0.16666667  0.83333333  0.37457763
   0.50000000  0.16666667  0.37457763
   0.50000000  0.50000000  0.37457763
   0.50000000  0.83333333  0.37457763
   0.83333333  0.16666667  0.37457763
   0.83333333  0.50000000  0.37457763
   0.83333333  0.83333333  0.37457763
Direct configuration=     2
   0.00000000  0.00000000  0.00000000
   0.00000000  0.33333333  0.00000000
   0.00000000  0.66666667  0.00000000
   0.33333333  0.00000000  0.00000000
   0.33333333  0.33333333  0.00000000
   0.33333333  0.66666667  0.00000000
   0.66666667  0.00000000  0.00000000
   0.66666667  0.33333333  0.00000000
   0.66666667  0.66666667  0.00000000
   0.00000000  0.00000000  0.10702218
   0.00000000  0.33333333  0.10702218
   0.00000000  0.66666667  0.10702218
   0.33333333  0.00000000  0.10702218
   0.33333333  0.33333333  0.10702218
   0.33333333  0.66666667  0.10702218
   0.66666667  0.00000000  0.10702218
   0.66666667  0.33333333  0.10702218
   0.66666667  0.66666667  0.10702218
   0.00000000  0.00000000  0.21406411
   0.00000000  0.33333333  0.21406411
   0.00000000  0.66666667  0.21406411
   0.33333333  0.00000000  0.21406411
   0.33333333  0.33333333  0.21406411
   0.33333333  0.66666667  0.21406411
   0.66666667  0.00000000  0.21406411
   0.66666667  0.33333333  0.21406411
   0.66666667  0.66666667  0.21406411
  -0.00000000  0.00000000  0.32158947
  -0.00000000  0.33333333  0.32158947
  -0.00000000  0.66666667  0.32158947
   0.33333333  0.00000000  0.32158947
   0.33333333  0.33333333  0.32158947
   0.33333333  0.66666667  0.32158947
   0.66666667  0.00000000  0.32158947
   0.66666667  0.33333333  0.32158947
   0.66666667  0.66666667  0.32158947
   0.16666667  0.16666667  0.05299616
   0.16666667  0.50000000  0.05299616
   0.16666667  0.83333333  0.05299616
   0.50000000  0.16666667  0.05299616
   0.50000000  0.50000000  0.05299616
   0.50000000  0.83333333  0.05299616
   0.83333333  0.16666667  0.05299616
   0.83333333  0.50000000  0.05299616
   0.83333333  0.83333333  0.05299616
   0.16666667  0.16666667  0.16049968
   0.16666667  0.50000000  0.16049968
   0.16666667  0.83333333  0.16049968
   0.50000000  0.16666667  0.16049968
   0.50000000  0.50000000  0.16049968
   0.50000000  0.83333333  0.16049968
   0.83333333  0.16666667  0.16049968
   0.83333333  0.50000000  0.16049968
   0.83333333  0.83333333  0.16049968
   0.16666667  0.16666667  0.26740389
   0.16666667  0.50000000  0.26740389
   0.16666667  0.83333333  0.26740389
   0.50000000  0.16666667  0.26740389
   0.50000000  0.50000000  0.26740389
   0.50000000  0.83333333  0.26740389
   0.83333333  0.16666667  0.26740389
   0.83333333  0.50000000  0.26740389
   0.83333333  0.83333333  0.26740389
   0.16666667  0.16666667  0.37354595
   0.16666667  0.50000000  0.37354595
   0.16666667  0.83333333  0.37354595
   0.50000000  0.16666667  0.37354595
   0.50000000  0.50000000  0.37354595
   0.50000000  0.83333333  0.37354595
   0.83333333  0.16666667  0.37354595
   0.83333333  0.50000000  0.37354595
   0.83333333  0.83333333  0.37354595
Direct configuration=     3
   0.00000000  0.00000000  0.00000000
   0.00000000  0.33333333  0.00000000
   0.00000000  0.66666667  0.00000000
   0.33333333  0.00000000  0.00000000
   0.33333333  0.33333333  0.00000000
   0.33333333  0.66666667  0.00000000
   0.66666667  0.00000000  0.00000000
   0.66666667  0.33333333  0.00000000
   0.66666667  0.66666667  0.00000000
   0.00000000  0.00000000  0.10702218
   0.00000000  0.33333333  0.10702218
   0.00000000  0.66666667  0.10702218
   0.33333333  0.00000000  0.10702218
   0.33333333  0.33333333  0.10702218
   0.33333333  0.66666667  0.10702218
   0.66666667  0.00000000  0.10702218
   0.66666667  0.33333333  0.10702218
   0.66666667  0.66666667  0.10702218
   0.00000000  0.00000000  0.21412209
   0.00000000  0.33333333  0.21412209
   0.00000000  0.66666667  0.21412209
   0.33333333  0.00000000  0.21412209
   0.33333333  0.33333333  0.21412209
   0.33333333  0.66666667  0.21412209
   0.66666667  0.00000000  0.21412209
   0.66666667  0.33333333  0.21412209
   0.66666667  0.66666667  0.21412209
  -0.00000000  0.00000000  0.32312427
  -0.00000000  0.33333333  0.32312427
  -0.00000000  0.66666667  0.32312427
   0.33333333  0.00000000  0.32312427
   0.33333333  0.33333333  0.32312427
   0.33333333  0.66666667  0.32312427
   0.66666667  0.00000000  0.32312427
   0.66666667  0.33333333  0.32312427
   0.66666667  0.66666667  0.32312427
   0.16666667  0.16666667  0.05148485
   0.16666667  0.50000000  0.05148485
   0.16666667  0.83333333  0.05148485
   0.50000000  0.16666667  0.05148485
   0.50000000  0.50000000  0.05148485
   0.50000000  0.83333333  0.05148485
   0.83333333  0.16666667  0.05148485
   0.83333333  0.50000000  0.05148485
   0.83333333  0.83333333  0.05148485
   0.16666667  0.16666667  0.16040110
   0.16666667  0.50000000  0.16040110
   0.16666667  0.83333333  0.16040110
   0.50000000  0.16666667  0.16040110
   0.50000000  0.50000000  0.16040110
   0.50000000  0.83333333  0.16040110
   0.83333333  0.16666667  0.16040110
   0.83333333  0.50000000  0.16040110
   0.83333333  0.83333333  0.16040110
   0.16666667  0.16666667  0.26695907
   0.16666667  0.50000000  0.26695907
   0.16666667  0.83333333  0.26695907
   0.50000000  0.16666667  0.26695907
   0.50000000  0.50000000  0.26695907
   0.50000000  0.83333333  0.26695907
   0.83333333  0.16666667  0.26695907
   0.83333333  0.50000000  0.26695907
   0.83333333  0.83333333  0.26695907
   0.16666667  0.16666667  0.37051798
   0.16666667  0.50000000  0.37051798
   0.16666667  0.83333333  0.37051798
   0.50000000  0.16666667  0.37051798
   0.50000000  0.50000000  0.37051798
   0.50000000  0.83333333  0.37051798
   0.83333333  0.16666667  0.37051798
   0.83333333  0.50000000  0.37051798
   0.83333333  0.83333333  0.37051798
Direct configuration=     4
   0.00000000  0.00000000  0.00000000
   0.00000000  0.33333333  0.00000000
   0.00000000  0.66666667  0.00000000
   0.33333333  0.00000000  0.00000000
   0.33333333  0.33333333  0.00000000
   0.33333333  0.66666667  0.00000000
   0.66666667  0.00000000  0.00000000
   0.66666667  0.33333333  0.00000000
   0.66666667  0.66666667  0.00000000
   0.00000000  0.00000000  0.10702218
   0.00000000  0.33333333  0.10702218
   0.00000000  0.66666667  0.10702218
   0.33333333  0.00000000  0.10702218
   0.33333333  0.33333333  0.10702218
   0.33333333  0.66666667  0.10702218
   0.66666667  0.00000000  0.10702218
   0.66666667  0.33333333  0.10702218
   0.66666667  0.66666667  0.10702218
   0.00000000  0.00000000  0.21420741
   0.00000000  0.33333333  0.21420741
   0.00000000  0.66666667  0.21420741
   0.33333333  0.00000000  0.21420741
   0.33333333  0.33333333  0.21420741
   0.33333333  0.66666667  0.21420741
   0.66666667  0.00000000  0.21420741
   0.66666667  0.33333333  0.21420741
   0.66666667  0.66666667  0.21420741
  -0.00000000  0.00000000  0.32270045
   0.00000000  0.33333333  0.32270045
  -0.00000000  0.66666667  0.32270045
   0.33333333  0.00000000  0.32270045
   0.33333333  0.33333333  0.32270045
   0.33333333  0.66666667  0.32270045
   0.66666667  0.00000000  0.32270045
   0.66666667  0.33333333  0.32270045
   0.66666667  0.66666667  0.32270045
   0.16666667  0.16666667  0.05125877
   0.16666667  0.50000000  0.05125877
   0.16666667  0.83333333  0.05125877
   0.50000000  0.16666667  0.05125877
   0.50000000  0.50000000  0.05125877
   0.50000000  0.83333333  0.05125877
   0.83333333  0.16666667  0.05125877
   0.83333333  0.50000000  0.05125877
   0.83333333  0.83333333  0.05125877
   0.16666667  0.16666667  0.16010167
   0.16666667  0.50000000  0.16010167
   0.16666667  0.83333333  0.16010167
   0.50000000  0.16666667  0.16010167
   0.50000000  0.50000000  0.16010167
   0.50000000  0.83333333  0.16010167
   0.83333333  0.16666667  0.16010167
   0.83333333  0.50000000  0.16010167
   0.83333333  0.83333333  0.16010167
   0.16666667  0.16666667  0.26657124
   0.16666667  0.50000000  0.26657124
   0.16666667  0.83333333  0.26657124
   0.50000000  0.16666667  0.26657124
   0.50000000  0.50000000  0.26657124
   0.50000000  0.83333333  0.26657124
   0.83333333  0.16666667  0.26657124
   0.83333333  0.50000000  0.26657124
   0.83333333  0.83333333  0.26657124
   0.16666667  0.16666667  0.37015482
   0.16666667  0.50000000  0.37015482
   0.16666667  0.83333333  0.37015482
   0.50000000  0.16666667  0.37015482
   0.50000000  0.50000000  0.37015482
   0.50000000  0.83333333  0.37015482
   0.83333333  0.16666667  0.37015482
   0.83333333  0.50000000  0.37015482
   0.83333333  0.83333333  0.37015482
Direct configuration=     5
   0.00000000  0.00000000  0.00000000
   0.00000000  0.33333333  0.00000000
   0.00000000  0.66666667  0.00000000
   0.33333333  0.00000000  0.00000000
   0.33333333  0.33333333  0.00000000
   0.33333333  0.66666667  0.00000000
   0.66666667  0.00000000  0.00000000
   0.66666667  0.33333333  0.00000000
   0.66666667  0.66666667  0.00000000
   0.00000000  0.00000000  0.10702218
   0.00000000  0.33333333  0.10702218
   0.00000000  0.66666667  0.10702218
   0.33333333  0.00000000  0.10702218
   0.33333333  0.33333333  0.10702218
   0.33333333  0.66666667  0.10702218
   0.66666667  0.00000000  0.10702218
   0.66666667  0.33333333  0.10702218
   0.66666667  0.66666667  0.10702218
  -0.00000000 -0.00000000  0.21446339
   0.00000000  0.33333333  0.21446339
   0.00000000  0.66666667  0.21446339
   0.33333333 -0.00000000  0.21446339
   0.33333333  0.33333333  0.21446339
   0.33333333  0.66666667  0.21446339
   0.66666667 -0.00000000  0.21446339
   0.66666667  0.33333333  0.21446339
   0.66666667  0.66666667  0.21446339
   0.00000000 -0.00000000  0.32142901
   0.00000000  0.33333333  0.32142901
   0.00000000  0.66666667  0.32142901
   0.33333333 -0.00000000  0.32142901
   0.33333333  0.33333333  0.32142901
   0.33333333  0.66666667  0.32142901
   0.66666667 -0.00000000  0.32142901
   0.66666667  0.33333333  0.32142901
   0.66666667  0.66666667  0.32142901
   0.16666667  0.16666667  0.05058053
   0.16666667  0.50000000  0.05058053
   0.16666667  0.83333333  0.05058053
   0.50000000  0.16666667  0.05058053
   0.50000000  0.50000000  0.05058053
   0.50000000  0.83333333  0.05058053
   0.83333333  0.16666667  0.05058053
   0.83333333  0.50000000  0.05058053
   0.83333333  0.83333333  0.05058053
   0.16666667  0.16666667  0.15920338
   0.16666667  0.50000000  0.15920338
   0.16666667  0.83333333  0.15920338
   0.50000000  0.16666667  0.15920338
   0.50000000  0.50000000  0.15920338
   0.50000000  0.83333333  0.15920338
   0.83333333  0.16666667  0.15920338
   0.83333333  0.50000000  0.15920338
   0.83333333  0.83333333  0.15920338
   0.16666667  0.16666667  0.26540777
   0.16666667  0.50000000  0.26540777
   0.16666667  0.83333333  0.26540777
   0.50000000  0.16666667  0.26540777
   0.50000000  0.50000000  0.26540777
   0.50000000  0.83333333  0.26540777
   0.83333333  0.16666667  0.26540777
   0.83333333  0.50000000  0.26540777
   0.83333333  0.83333333  0.26540777
   0.16666667  0.16666667  0.36906536
   0.16666667  0.50000000  0.36906536
   0.16666667  0.83333333  0.36906536
   0.50000000  0.16666667  0.36906536
   0.50000000  0.50000000  0.36906536
   0.50000000  0.83333333  0.36906536
   0.83333333  0.16666667  0.36906536
   0.83333333  0.50000000  0.36906536
   0.83333333  0.83333333  0.36906536
Direct configuration=     6
   0.00000000  0.00000000  0.00000000
   0.00000000  0.33333333  0.00000000
   0.00000000  0.66666667  0.00000000
   0.33333333  0.00000000  0.00000000
   0.33333333  0.33333333  0.00000000
   0.33333333  0.66666667  0.00000000
   0.66666667  0.00000000  0.00000000
   0.66666667  0.33333333  0.00000000
   0.66666667  0.66666667  0.00000000
   0.00000000  0.00000000  0.10702218
   0.00000000  0.33333333  0.10702218
   0.00000000  0.66666667  0.10702218
   0.33333333  0.00000000  0.10702218
   0.33333333  0.33333333  0.10702218
   0.33333333  0.66666667  0.10702218
   0.66666667  0.00000000  0.10702218
   0.66666667  0.33333333  0.10702218
   0.66666667  0.66666667  0.10702218
  -0.00000000 -0.00000000  0.21455876
   0.00000000  0.33333333  0.21455876
   0.00000000  0.66666667  0.21455876
   0.33333333 -0.00000000  0.21455876
   0.33333333  0.33333333  0.21455876
   0.33333333  0.66666667  0.21455876
   0.66666667 -0.00000000  0.21455876
   0.66666667  0.33333333  0.21455876
   0.66666667  0.66666667  0.21455876
   0.00000000 -0.00000000  0.32095534
   0.00000000  0.33333333  0.32095534
   0.00000000  0.66666667  0.32095534
   0.33333333 -0.00000000  0.32095534
   0.33333333  0.33333333  0.32095534
   0.33333333  0.66666667  0.32095534
   0.66666667 -0.00000000  0.32095534
   0.66666667  0.33333333  0.32095534
   0.66666667  0.66666667  0.32095534
   0.16666667  0.16666667  0.05032785
   0.16666667  0.50000000  0.05032785
   0.16666667  0.83333333  0.05032785
   0.50000000  0.16666667  0.05032785
   0.50000000  0.50000000  0.05032785
   0.50000000  0.83333333  0.05032785
   0.83333333  0.16666667  0.05032785
   0.83333333  0.50000000  0.05032785
   0.83333333  0.83333333  0.05032785
   0.16666667  0.16666667  0.15886873
   0.16666667  0.50000000  0.15886873
   0.16666667  0.83333333  0.15886873
   0.50000000  0.16666667  0.15886873
   0.50000000  0.50000000  0.15886873
   0.50000000  0.83333333  0.15886873
   0.83333333  0.16666667  0.15886873
   0.83333333  0.50000000  0.15886873
   0.83333333  0.83333333  0.15886873
   0.16666667  0.16666667  0.26497433
   0.16666667  0.50000000  0.26497433
   0.16666667  0.83333333  0.26497433
   0.50000000  0.16666667  0.26497433
   0.50000000  0.50000000  0.26497433
   0.50000000  0.83333333  0.26497433
   0.83333333  0.16666667  0.26497433
   0.83333333  0.50000000  0.26497433
   0.83333333  0.83333333  0.26497433
   0.16666667  0.16666667  0.36865948
   0.16666667  0.50000000  0.36865948
   0.16666667  0.83333333  0.36865948
   0.50000000  0.16666667  0.36865948
   0.50000000  0.50000000  0.36865948
   0.50000000  0.83333333  0.36865948
   0.83333333  0.16666667  0.36865948
   0.83333333  0.50000000  0.36865948
   0.83333333  0.83333333  0.36865948
Direct configuration=     7
   0.00000000  0.00000000  0.00000000
   0.00000000  0.33333333  0.00000000
   0.00000000  0.66666667  0.00000000
   0.33333333  0.00000000  0.00000000
   0.33333333  0.33333333  0.00000000
   0.33333333  0.66666667  0.00000000
   0.66666667  0.00000000  0.00000000
   0.66666667  0.33333333  0.00000000
   0.66666667  0.66666667  0.00000000
   0.00000000  0.00000000  0.10702218
   0.00000000  0.33333333  0.10702218
   0.00000000  0.66666667  0.10702218
   0.33333333  0.00000000  0.10702218
   0.33333333  0.33333333  0.10702218
   0.33333333  0.66666667  0.10702218
   0.66666667  0.00000000  0.10702218
   0.66666667  0.33333333  0.10702218
   0.66666667  0.66666667  0.10702218
  -0.00000000 -0.00000000  0.21422282
  -0.00000000  0.33333333  0.21422282
   0.00000000  0.66666667  0.21422282
   0.33333333 -0.00000000  0.21422282
   0.33333333  0.33333333  0.21422282
   0.33333333  0.66666667  0.21422282
   0.66666667 -0.00000000  0.21422282
   0.66666667  0.33333333  0.21422282
   0.66666667  0.66666667  0.21422282
   0.00000000 -0.00000000  0.32057387
   0.00000000  0.33333333  0.32057387
   0.00000000  0.66666667  0.32057387
   0.33333333 -0.00000000  0.32057387
   0.33333333  0.33333333  0.32057387
   0.33333333  0.66666667  0.32057387
   0.66666667 -0.00000000  0.32057387
   0.66666667  0.33333333  0.32057387
   0.66666667  0.66666667  0.32057387
   0.16666667  0.16666667  0.05021947
   0.16666667  0.50000000  0.05021947
   0.16666667  0.83333333  0.05021947
   0.50000000  0.16666667  0.05021947
   0.50000000  0.50000000  0.05021947
   0.50000000  0.83333333  0.05021947
   0.83333333  0.16666667  0.05021947
   0.83333333  0.50000000  0.05021947
   0.83333333  0.83333333  0.05021947
   0.16666667  0.16666667  0.15867968
   0.16666667  0.50000000  0.15867968
   0.16666667  0.83333333  0.15867968
   0.50000000  0.16666667  0.15867968
   0.50000000  0.50000000  0.15867968
   0.50000000  0.83333333  0.15867968
   0.83333333  0.16666667  0.15867968
   0.83333333  0.50000000  0.15867968
   0.83333333  0.83333333  0.15867968
   0.16666667  0.16666667  0.26471554
   0.16666667  0.50000000  0.26471554
   0.16666667  0.83333333  0.26471554
   0.50000000  0.16666667  0.26471554
   0.50000000  0.50000000  0.26471554
   0.50000000  0.83333333  0.26471554
   0.83333333  0.16666667  0.26471554
   0.83333333  0.50000000  0.26471554
   0.83333333  0.83333333  0.26471554
   0.16666667  0.16666667  0.36828913
   0.16666667  0.50000000  0.36828913
   0.16666667  0.83333333  0.36828913
   0.50000000  0.16666667  0.36828913
   0.50000000  0.50000000  0.36828913
   0.50000000  0.83333333  0.36828913
   0.83333333  0.16666667  0.36828913
   0.83333333  0.50000000  0.36828913
   0.83333333  0.83333333  0.36828913
Direct configuration=     8
   0.00000000  0.00000000  0.00000000
   0.00000000  0.33333333  0.00000000
   0.00000000  0.66666667  0.00000000
   0.33333333  0.00000000  0.00000000
   0.33333333  0.33333333  0.00000000
   0.33333333  0.66666667  0.00000000
   0.66666667  0.00000000  0.00000000
   0.66666667  0.33333333  0.00000000
   0.66666667  0.66666667  0.00000000
   0.00000000  0.00000000  0.10702218
   0.00000000  0.33333333  0.10702218
   0.00000000  0.66666667  0.10702218
   0.33333333  0.00000000  0.10702218
   0.33333333  0.33333333  0.10702218
   0.33333333  0.66666667  0.10702218
   0.66666667  0.00000000  0.10702218
   0.66666667  0.33333333  0.10702218
   0.66666667  0.66666667  0.10702218
  -0.00000000 -0.00000000  0.21321500
  -0.00000000  0.33333333  0.21321500
   0.00000000  0.66666667  0.21321500
   0.33333333 -0.00000000  0.21321500
   0.33333333  0.33333333  0.21321500
   0.33333333  0.66666667  0.21321500
   0.66666667 -0.00000000  0.21321500
   0.66666667  0.33333333  0.21321500
   0.66666667  0.66666667  0.21321500
   0.00000000 -0.00000000  0.31942946
   0.00000000  0.33333333  0.31942946
   0.00000000  0.66666667  0.31942946
   0.33333333 -0.00000000  0.31942946
   0.33333333  0.33333333  0.31942946
   0.33333333  0.66666667  0.31942946
   0.66666667 -0.00000000  0.31942946
   0.66666667  0.33333333  0.31942946
   0.66666667  0.66666667  0.31942946
   0.16666667  0.16666667  0.04989434
   0.16666667  0.50000000  0.04989434
   0.16666667  0.83333333  0.04989434
   0.50000000  0.16666667  0.04989434
   0.50000000  0.50000000  0.04989434
   0.50000000  0.83333333  0.04989434
   0.83333333  0.16666667  0.04989434
   0.83333333  0.50000000  0.04989434
   0.83333333  0.83333333  0.04989434
   0.16666667  0.16666667  0.15811253
   0.16666667  0.50000000  0.15811253
   0.16666667  0.83333333  0.15811253
   0.50000000  0.16666667  0.15811253
   0.50000000  0.50000000  0.15811253
   0.50000000  0.83333333  0.15811253
   0.83333333  0.16666667  0.15811253
   0.83333333  0.50000000  0.15811253
   0.83333333  0.83333333  0.15811253
   0.16666667  0.16666667  0.26393919
   0.16666667  0.50000000  0.26393919
   0.16666667  0.83333333  0.26393919
   0.50000000  0.16666667  0.26393919
   0.50000000  0.50000000  0.26393919
   0.50000000  0.83333333  0.26393919
   0.83333333  0.16666667  0.26393919
   0.83333333  0.50000000  0.26393919
   0.83333333  0.83333333  0.26393919
   0.16666667  0.16666667  0.36717806
   0.16666667  0.50000000  0.36717806
   0.16666667  0.83333333  0.36717806
   0.50000000  0.16666667  0.36717806
   0.50000000  0.50000000  0.36717806
   0.50000000  0.83333333  0.36717806
   0.83333333  0.16666667  0.36717806
   0.83333333  0.50000000  0.36717806
   0.83333333  0.83333333  0.36717806
Direct configuration=     9
   0.00000000  0.00000000  0.00000000
   0.00000000  0.33333333  0.00000000
   0.00000000  0.66666667  0.00000000
   0.33333333  0.00000000  0.00000000
   0.33333333  0.33333333  0.00000000
   0.33333333  0.66666667  0.00000000
   0.66666667  0.00000000  0.00000000
   0.66666667  0.33333333  0.00000000
   0.66666667  0.66666667  0.00000000
   0.00000000  0.00000000  0.10702218
   0.00000000  0.33333333  0.10702218
   0.00000000  0.66666667  0.10702218
   0.33333333  0.00000000  0.10702218
   0.33333333  0.33333333  0.10702218
   0.33333333  0.66666667  0.10702218
   0.66666667  0.00000000  0.10702218
   0.66666667  0.33333333  0.10702218
   0.66666667  0.66666667  0.10702218
  -0.00000000 -0.00000000  0.21119937
  -0.00000000  0.33333333  0.21119937
   0.00000000  0.66666667  0.21119937
   0.33333333 -0.00000000  0.21119937
   0.33333333  0.33333333  0.21119937
   0.33333333  0.66666667  0.21119937
   0.66666667 -0.00000000  0.21119937
   0.66666667  0.33333333  0.21119937
   0.66666667  0.66666667  0.21119937
   0.00000000 -0.00000000  0.31714063
   0.00000000  0.33333333  0.31714063
   0.00000000  0.66666667  0.31714063
   0.33333333 -0.00000000  0.31714063
   0.33333333  0.33333333  0.31714063
   0.33333333  0.66666667  0.31714063
   0.66666667 -0.00000000  0.31714063
   0.66666667  0.33333333  0.31714063
   0.66666667  0.66666667  0.31714063
   0.16666667  0.16666667  0.04924407
   0.16666667  0.50000000  0.04924407
   0.16666667  0.83333333  0.04924407
   0.50000000  0.16666667  0.04924407
   0.50000000  0.50000000  0.04924407
   0.50000000  0.83333333  0.04924407
   0.83333333  0.16666667  0.04924407
   0.83333333  0.50000000  0.04924407
   0.83333333  0.83333333  0.04924407
   0.16666667  0.16666667  0.15697823
   0.16666667  0.50000000  0.15697823
   0.16666667  0.83333333  0.15697823
   0.50000000  0.16666667  0.15697823
   0.50000000  0.50000000  0.15697823
   0.50000000  0.83333333  0.15697823
   0.83333333  0.16666667  0.15697823
   0.83333333  0.50000000  0.15697823
   0.83333333  0.83333333  0.15697823
   0.16666667  0.16666667  0.26238649
   0.16666667  0.50000000  0.26238649
   0.16666667  0.83333333  0.26238649
   0.50000000  0.16666667  0.26238649
   0.50000000  0.50000000  0.26238649
   0.50000000  0.83333333  0.26238649
   0.83333333  0.16666667  0.26238649
   0.83333333  0.50000000  0.26238649
   0.83333333  0.83333333  0.26238649
   0.16666667  0.16666667  0.36495593
   0.16666667  0.50000000  0.36495593
   0.16666667  0.83333333  0.36495593
   0.50000000  0.16666667  0.36495593
   0.50000000  0.50000000  0.36495593
   0.50000000  0.83333333  0.36495593
   0.83333333  0.16666667  0.36495593
   0.83333333  0.50000000  0.36495593
   0.83333333  0.83333333  0.36495593
Direct configuration=    10
   0.00000000  0.00000000  0.00000000
   0.00000000  0.33333333  0.00000000
   0.00000000  0.66666667  0.00000000
   0.33333333  0.00000000  0.00000000
   0.33333333  0.33333333  0.00000000
   0.33333333  0.66666667  0.00000000
   0.66666667  0.00000000  0.00000000
   0.66666667  0.33333333  0.00000000
   0.66666667  0.66666667  0.00000000
   0.00000000  0.00000000  0.10702218
   0.00000000  0.33333333  0.10702218
   0.00000000  0.66666667  0.10702218
   0.33333333  0.00000000  0.10702218
   0.33333333  0.33333333  0.10702218
   0.33333333  0.66666667  0.10702218
   0.66666667  0.00000000  0.10702218
   0.66666667  0.33333333  0.10702218
   0.66666667  0.66666667  0.10702218
  -0.00000000 -0.00000000  0.21096208
  -0.00000000  0.33333333  0.21096208
   0.00000000  0.66666667  0.21096208
   0.33333333 -0.00000000  0.21096208
   0.33333333  0.33333333  0.21096208
   0.33333333  0.66666667  0.21096208
   0.66666667 -0.00000000  0.21096208
   0.66666667  0.33333333  0.21096208
   0.66666667  0.66666667  0.21096208
   0.00000000 -0.00000000  0.31687117
   0.00000000  0.33333333  0.31687117
   0.00000000  0.66666667  0.31687117
   0.33333333 -0.00000000  0.31687117
   0.33333333  0.33333333  0.31687117
   0.33333333  0.66666667  0.31687117
   0.66666667 -0.00000000  0.31687117
   0.66666667  0.33333333  0.31687117
   0.66666667  0.66666667  0.31687117
   0.16666667  0.16666667  0.04916752
   0.16666667  0.50000000  0.04916752
   0.16666667  0.83333333  0.04916752
   0.50000000  0.16666667  0.04916752
   0.50000000  0.50000000  0.04916752
   0.50000000  0.83333333  0.04916752
   0.83333333  0.16666667  0.04916752
   0.83333333  0.50000000  0.04916752
   0.83333333  0.83333333  0.04916752
   0.16666667  0.16666667  0.15684469
   0.16666667  0.50000000  0.15684469
   0.16666667  0.83333333  0.15684469
   0.50000000  0.16666667  0.15684469
   0.50000000  0.50000000  0.15684469
   0.50000000  0.83333333  0.15684469
   0.83333333  0.16666667  0.15684469
   0.83333333  0.50000000  0.15684469
   0.83333333  0.83333333  0.15684469
   0.16666667  0.16666667  0.26220370
   0.16666667  0.50000000  0.26220370
   0.16666667  0.83333333  0.26220370
   0.50000000  0.16666667  0.26220370
   0.50000000  0.50000000  0.26220370
   0.50000000  0.83333333  0.26220370
   0.83333333  0.16666667  0.26220370
   0.83333333  0.50000000  0.26220370
   0.83333333  0.83333333  0.26220370
   0.16666667  0.16666667  0.36469433
   0.16666667  0.50000000  0.36469433
   0.16666667  0.83333333  0.36469433
   0.50000000  0.16666667  0.36469433
   0.50000000  0.50000000  0.36469433
   0.50000000  0.83333333  0.36469433
   0.83333333  0.16666667  0.36469433
   0.83333333  0.50000000  0.36469433
   0.83333333  0.83333333  0.36469433
Direct configuration=    11
   0.00000000  0.00000000  0.00000000
   0.00000000  0.33333333  0.00000000
   0.00000000  0.66666667  0.00000000
   0.33333333  0.00000000  0.00000000
   0.33333333  0.33333333  0.00000000
   0.33333333  0.66666667  0.00000000
   0.66666667  0.00000000  0.00000000
   0.66666667  0.33333333  0.00000000
   0.66666667  0.66666667  0.00000000
   0.00000000  0.00000000  0.10702218
   0.00000000  0.33333333  0.10702218
   0.00000000  0.66666667  0.10702218
   0.33333333  0.00000000  0.10702218
   0.33333333  0.33333333  0.10702218
   0.33333333  0.66666667  0.10702218
   0.66666667  0.00000000  0.10702218
   0.66666667  0.33333333  0.10702218
   0.66666667  0.66666667  0.10702218
  -0.00000000 -0.00000000  0.21068398
  -0.00000000  0.33333333  0.21068398
   0.00000000  0.66666667  0.21068398
   0.33333333 -0.00000000  0.21068398
   0.33333333  0.33333333  0.21068398
   0.33333333  0.66666667  0.21068398
   0.66666667 -0.00000000  0.21068398
   0.66666667  0.33333333  0.21068398
   0.66666667  0.66666667  0.21068398
   0.00000000 -0.00000000  0.31676012
   0.00000000  0.33333333  0.31676012
   0.00000000  0.66666667  0.31676012
   0.33333333 -0.00000000  0.31676012
   0.33333333  0.33333333  0.31676012
   0.33333333  0.66666667  0.31676012
   0.66666667 -0.00000000  0.31676012
   0.66666667  0.33333333  0.31676012
   0.66666667  0.66666667  0.31676012
   0.16666667  0.16666667  0.04954578
   0.16666667  0.50000000  0.04954578
   0.16666667  0.83333333  0.04954578
   0.50000000  0.16666667  0.04954578
   0.50000000  0.50000000  0.04954578
   0.50000000  0.83333333  0.04954578
   0.83333333  0.16666667  0.04954578
   0.83333333  0.50000000  0.04954578
   0.83333333  0.83333333  0.04954578
   0.16666667  0.16666667  0.15703431
   0.16666667  0.50000000  0.15703431
   0.16666667  0.83333333  0.15703431
   0.50000000  0.16666667  0.15703431
   0.50000000  0.50000000  0.15703431
   0.50000000  0.83333333  0.15703431
   0.83333333  0.16666667  0.15703431
   0.83333333  0.50000000  0.15703431
   0.83333333  0.83333333  0.15703431
   0.16666667  0.16666667  0.26167914
   0.16666667  0.50000000  0.26167914