<?xml version="1.0" encoding="ISO-8859-1"?>
<modeling>
 <generator>
  <i name="program" type="string">vasp </i>
  <i name="version" type="string">6.3.2  </i>
  <i name="subversion" type="string">27Jun22 (build Aug 17 2022 15:43:34) complex                          parallel </i>
  <i name="platform" type="string">tv2STDVTST </i>
  <i name="date" type="string">2025 02 07 </i>
  <i name="time" type="string">04:15:40 </i>
 </generator>
 <incar>
  <i type="int" name="ISTART">     0</i>
  <i type="string" name="PREC">Normal</i>
  <i type="int" name="ISPIN">     2</i>
  <i type="int" name="ICHARG">     2</i>
  <i type="int" name="IBRION">     2</i>
  <i name="EDIFF">      0.00020000</i>
  <i name="EDIFFG">     -0.03000000</i>
  <i type="int" name="NSW">   800</i>
  <i type="int" name="ISIF">     2</i>
  <i type="int" name="ISYM">     1</i>
  <i name="ENCUT">    400.00000000</i>
  <i name="POTIM">      0.50000000</i>
  <i type="logical" name="LREAL"> F  </i>
  <i type="int" name="ISMEAR">     1</i>
  <i name="SIGMA">      0.20000000</i>
  <i type="logical" name="LWAVE"> F  </i>
  <i type="logical" name="LCHARG"> F  </i>
  <i type="string" name="GGA">PE</i>
  <i type="int" name="IVDW">    11</i>
 </incar>
 <primitive_cell>
  <structure name="primitive_cell" >
   <crystal>
    <varray name="basis" >
     <v>      10.89000034       0.00000000       0.00000000 </v>
     <v>       0.00000000      10.89000034       0.00000000 </v>
     <v>       0.00000000       0.00000000      27.70499992 </v>
    </varray>
    <i name="volume">   3285.59432860 </i>
    <varray name="rec_basis" >
     <v>       0.09182736       0.00000000       0.00000000 </v>
     <v>       0.00000000       0.09182736       0.00000000 </v>
     <v>       0.00000000       0.00000000       0.03609457 </v>
    </varray>
   </crystal>
   <varray name="positions" >
    <v>       0.00000000       0.00000000       0.00000000 </v>
    <v>       0.00000000       0.33333333       0.00000000 </v>
    <v>       0.00000000       0.66666667       0.00000000 </v>
    <v>       0.33333333       0.00000000       0.00000000 </v>
    <v>       0.33333333       0.33333333       0.00000000 </v>
    <v>       0.33333333       0.66666667       0.00000000 </v>
    <v>       0.66666667       0.00000000       0.00000000 </v>
    <v>       0.66666667       0.33333333       0.00000000 </v>
    <v>       0.66666667       0.66666667       0.00000000 </v>
    <v>       0.16666667       0.16666667       0.00000000 </v>
    <v>       0.16666667       0.50000000       0.00000000 </v>
    <v>       0.16666667       0.83333333       0.00000000 </v>
    <v>       0.50000000       0.16666667       0.00000000 </v>
    <v>       0.50000000       0.50000000       0.00000000 </v>
    <v>       0.50000000       0.83333333       0.00000000 </v>
    <v>       0.83333333       0.16666667       0.00000000 </v>
    <v>       0.83333333       0.50000000       0.00000000 </v>
    <v>       0.83333333       0.83333333       0.00000000 </v>
    <v>       0.00000000       0.16666667       0.06551164 </v>
    <v>       0.00000000       0.50000000       0.06551164 </v>
    <v>       0.00000000       0.83333333       0.06551164 </v>
    <v>       0.33333333       0.16666667       0.06551164 </v>
    <v>       0.33333333       0.50000000       0.06551164 </v>
    <v>       0.33333333       0.83333333       0.06551164 </v>
    <v>       0.66666667       0.16666667       0.06551164 </v>
    <v>       0.66666667       0.50000000       0.06551164 </v>
    <v>       0.66666667       0.83333333       0.06551164 </v>
    <v>       0.16666667       0.00000000       0.06551164 </v>
    <v>       0.16666667       0.33333333       0.06551164 </v>
    <v>       0.16666667       0.66666667       0.06551164 </v>
    <v>       0.50000000       0.00000000       0.06551164 </v>
    <v>       0.50000000       0.33333333       0.06551164 </v>
    <v>       0.50000000       0.66666667       0.06551164 </v>
    <v>       0.83333333       0.00000000       0.06551164 </v>
    <v>       0.83333333       0.33333333       0.06551164 </v>
    <v>       0.83333333       0.66666667       0.06551164 </v>
    <v>       0.00000000       0.00000000       0.13119553 </v>
    <v>       0.00000000       0.33333333       0.13119553 </v>
    <v>       0.00000000       0.66666667       0.13119553 </v>
    <v>       0.33333333       0.00000000       0.13119553 </v>
    <v>       0.33333333       0.33333333       0.13119553 </v>
    <v>       0.33333333       0.66666667       0.13119553 </v>
    <v>       0.66666667       0.00000000       0.13119553 </v>
    <v>       0.66666667       0.33333333       0.13119553 </v>
    <v>       0.66666667       0.66666667       0.13119553 </v>
    <v>       0.16666667       0.16666667       0.13119553 </v>
    <v>       0.16666667       0.50000000       0.13119553 </v>
    <v>       0.16666667       0.83333333       0.13119553 </v>
    <v>       0.50000000       0.16666667       0.13119553 </v>
    <v>       0.50000000       0.50000000       0.13119553 </v>
    <v>       0.50000000       0.83333333       0.13119553 </v>
    <v>       0.83333333       0.16666667       0.13119553 </v>
    <v>       0.83333333       0.50000000       0.13119553 </v>
    <v>       0.83333333       0.83333333       0.13119553 </v>
    <v>       0.00000000       0.16666667       0.19620680 </v>
    <v>       0.00000000       0.50000000       0.19620680 </v>
    <v>       0.00000000       0.83333333       0.19620680 </v>
    <v>       0.33333333       0.16666667       0.19620680 </v>
    <v>       0.33333333       0.50000000       0.19620680 </v>
    <v>       0.33333333       0.83333333       0.19620680 </v>
    <v>       0.66666667       0.16666667       0.19620680 </v>
    <v>       0.66666667       0.50000000       0.19620680 </v>
    <v>       0.66666667       0.83333333       0.19620680 </v>
    <v>       0.16666667       0.00000000       0.19620680 </v>
    <v>       0.16666667       0.33333333       0.19620680 </v>
    <v>       0.16666667       0.66666667       0.19620680 </v>
    <v>       0.50000000       0.00000000       0.19620680 </v>
    <v>       0.50000000       0.33333333       0.19620680 </v>
    <v>       0.50000000       0.66666667       0.19620680 </v>
    <v>       0.83333333       0.00000000       0.19620680 </v>
    <v>       0.83333333       0.33333333       0.19620680 </v>
    <v>       0.83333333       0.66666667       0.19620680 </v>
    <v>       0.00000000       0.00000000       0.25873860 </v>
    <v>       0.00000000       0.33333333       0.25873860 </v>
    <v>       0.00000000       0.66666667       0.25873860 </v>
    <v>       0.33333333       0.00000000       0.25873860 </v>
    <v>       0.33333333       0.33333333       0.25873860 </v>
    <v>       0.33333333       0.66666667       0.25873860 </v>
    <v>       0.66666667       0.00000000       0.25873860 </v>
    <v>       0.66666667       0.33333333       0.25873860 </v>
    <v>       0.66666667       0.66666667       0.25873860 </v>
    <v>       0.16666667       0.16666667       0.25873860 </v>
    <v>       0.16666667       0.50000000       0.25873860 </v>
    <v>       0.16666667       0.83333333       0.25873860 </v>
    <v>       0.50000000       0.16666667       0.25873860 </v>
    <v>       0.50000000       0.50000000       0.25873860 </v>
    <v>       0.50000000       0.83333333       0.25873860 </v>
    <v>       0.83333333       0.16666667       0.25873860 </v>
    <v>       0.83333333       0.50000000       0.25873860 </v>
    <v>       0.83333333       0.83333333       0.25873860 </v>
    <v>       0.00000000       0.16666667       0.32119954 </v>
    <v>       0.00000000       0.50000000       0.32119954 </v>
    <v>       0.00000000       0.83333333       0.32119954 </v>
    <v>       0.33333333       0.16666667       0.32119954 </v>
    <v>       0.33333333       0.50000000       0.32119954 </v>
    <v>       0.33333333       0.83333333       0.32119954 </v>
    <v>       0.66666667       0.16666667       0.32119954 </v>
    <v>       0.66666667       0.50000000       0.32119954 </v>
    <v>       0.66666667       0.83333333       0.32119954 </v>
    <v>       0.16666667       0.00000000       0.32119954 </v>
    <v>       0.16666667       0.33333333       0.32119954 </v>
    <v>       0.16666667       0.66666667       0.32119954 </v>
    <v>       0.50000000       0.00000000       0.32119954 </v>
    <v>       0.50000000       0.33333333       0.32119954 </v>
    <v>       0.50000000       0.66666667       0.32119954 </v>
    <v>       0.83333333       0.00000000       0.32119954 </v>
    <v>       0.83333333       0.33333333       0.32119954 </v>
    <v>       0.83333333       0.66666667       0.32119954 </v>
    <v>       0.00000000       0.00000000       0.38476372 </v>
    <v>       0.00000000       0.33333333       0.38476372 </v>
    <v>       0.00000000       0.66666667       0.38476372 </v>
    <v>       0.33333333       0.00000000       0.38476372 </v>
    <v>       0.33333333       0.33333333       0.38476372 </v>
    <v>       0.33333333       0.66666667       0.38476372 </v>
    <v>       0.66666667       0.00000000       0.38476372 </v>
    <v>       0.66666667       0.33333333       0.38476372 </v>
    <v>       0.66666667       0.66666667       0.38476372 </v>
    <v>       0.16666667       0.16666667       0.38476372 </v>
    <v>       0.16666667       0.50000000       0.38476372 </v>
    <v>       0.16666667       0.83333333       0.38476372 </v>
    <v>       0.50000000       0.16666667       0.38476372 </v>
    <v>       0.50000000       0.50000000       0.38476372 </v>
    <v>       0.50000000       0.83333333       0.38476372 </v>
    <v>       0.83333333       0.16666667       0.38476372 </v>
    <v>       0.83333333       0.50000000       0.38476372 </v>
    <v>       0.83333333       0.83333333       0.38476372 </v>
    <v>       0.00000000       0.16666667       0.44736473 </v>
    <v>       0.00000000       0.50000000       0.44736473 </v>
    <v>       0.00000000       0.83333333       0.44736473 </v>
    <v>       0.33333333       0.16666667       0.44736473 </v>
    <v>       0.33333333       0.50000000       0.44736473 </v>
    <v>       0.33333333       0.83333333       0.44736473 </v>
    <v>       0.66666667       0.16666667       0.44736473 </v>
    <v>       0.66666667       0.50000000       0.44736473 </v>
    <v>       0.66666667       0.83333333       0.44736473 </v>
    <v>       0.16666667       0.00000000       0.44736473 </v>
    <v>       0.16666667       0.33333333       0.44736473 </v>
    <v>       0.16666667       0.66666667       0.44736473 </v>
    <v>       0.50000000       0.00000000       0.44736473 </v>
    <v>       0.50000000       0.33333333       0.44736473 </v>
    <v>       0.50000000       0.66666667       0.44736473 </v>
    <v>       0.83333333       0.00000000       0.44736473 </v>
    <v>       0.83333333       0.33333333       0.44736473 </v>
    <v>       0.83333333       0.66666667       0.44736473 </v>
    <v>       0.33333333       0.33333333       0.50150658 </v>
    <v>       0.33333333       0.40183655       0.50150658 </v>
   </varray>
  </structure>
  <varray name="primitive_index" >
   <v type="int" >        1 </v>
   <v type="int" >        2 </v>
   <v type="int" >        3 </v>
   <v type="int" >        4 </v>
   <v type="int" >        5 </v>
   <v type="int" >        6 </v>
   <v type="int" >        7 </v>
   <v type="int" >        8 </v>
   <v type="int" >        9 </v>
   <v type="int" >       10 </v>
   <v type="int" >       11 </v>
   <v type="int" >       12 </v>
   <v type="int" >       13 </v>
   <v type="int" >       14 </v>
   <v type="int" >       15 </v>
   <v type="int" >       16 </v>
   <v type="int" >       17 </v>
   <v type="int" >       18 </v>
   <v type="int" >       19 </v>
   <v type="int" >       20 </v>
   <v type="int" >       21 </v>
   <v type="int" >       22 </v>
   <v type="int" >       23 </v>
   <v type="int" >       24 </v>
   <v type="int" >       25 </v>
   <v type="int" >       26 </v>
   <v type="int" >       27 </v>
   <v type="int" >       28 </v>
   <v type="int" >       29 </v>
   <v type="int" >       30 </v>
   <v type="int" >       31 </v>
   <v type="int" >       32 </v>
   <v type="int" >       33 </v>
   <v type="int" >       34 </v>
   <v type="int" >       35 </v>
   <v type="int" >       36 </v>
   <v type="int" >       37 </v>
   <v type="int" >       38 </v>
   <v type="int" >       39 </v>
   <v type="int" >       40 </v>
   <v type="int" >       41 </v>
   <v type="int" >       42 </v>
   <v type="int" >       43 </v>
   <v type="int" >       44 </v>
   <v type="int" >       45 </v>
   <v type="int" >       46 </v>
   <v type="int" >       47 </v>
   <v type="int" >       48 </v>
   <v type="int" >       49 </v>
   <v type="int" >       50 </v>
   <v type="int" >       51 </v>
   <v type="int" >       52 </v>
   <v type="int" >       53 </v>
   <v type="int" >       54 </v>
   <v type="int" >       55 </v>
   <v type="int" >       56 </v>
   <v type="int" >       57 </v>
   <v type="int" >       58 </v>
   <v type="int" >       59 </v>
   <v type="int" >       60 </v>
   <v type="int" >       61 </v>
   <v type="int" >       62 </v>
   <v type="int" >       63 </v>
   <v type="int" >       64 </v>
   <v type="int" >       65 </v>
   <v type="int" >       66 </v>
   <v type="int" >       67 </v>
   <v type="int" >       68 </v>
   <v type="int" >       69 </v>
   <v type="int" >       70 </v>
   <v type="int" >       71 </v>
   <v type="int" >       72 </v>
   <v type="int" >       73 </v>
   <v type="int" >       74 </v>
   <v type="int" >       75 </v>
   <v type="int" >       76 </v>
   <v type="int" >       77 </v>
   <v type="int" >       78 </v>
   <v type="int" >       79 </v>
   <v type="int" >       80 </v>
   <v type="int" >       81 </v>
   <v type="int" >       82 </v>
   <v type="int" >       83 </v>
   <v type="int" >       84 </v>
   <v type="int" >       85 </v>
   <v type="int" >       86 </v>
   <v type="int" >       87 </v>
   <v type="int" >       88 </v>
   <v type="int" >       89 </v>
   <v type="int" >       90 </v>
   <v type="int" >       91 </v>
   <v type="int" >       92 </v>
   <v type="int" >       93 </v>
   <v type="int" >       94 </v>
   <v type="int" >       95 </v>
   <v type="int" >       96 </v>
   <v type="int" >       97 </v>
   <v type="int" >       98 </v>
   <v type="int" >       99 </v>
   <v type="int" >      100 </v>
   <v type="int" >      101 </v>
   <v type="int" >      102 </v>
   <v type="int" >      103 </v>
   <v type="int" >      104 </v>
   <v type="int" >      105 </v>
   <v type="int" >      106 </v>
   <v type="int" >      107 </v>
   <v type="int" >      108 </v>
   <v type="int" >      109 </v>
   <v type="int" >      110 </v>
   <v type="int" >      111 </v>
   <v type="int" >      112 </v>
   <v type="int" >      113 </v>
   <v type="int" >      114 </v>
   <v type="int" >      115 </v>
   <v type="int" >      116 </v>
   <v type="int" >      117 </v>
   <v type="int" >      118 </v>
   <v type="int" >      119 </v>
   <v type="int" >      120 </v>
   <v type="int" >      121 </v>
   <v type="int" >      122 </v>
   <v type="int" >      123 </v>
   <v type="int" >      124 </v>
   <v type="int" >      125 </v>
   <v type="int" >      126 </v>
   <v type="int" >      127 </v>
   <v type="int" >      128 </v>
   <v type="int" >      129 </v>
   <v type="int" >      130 </v>
   <v type="int" >      131 </v>
   <v type="int" >      132 </v>
   <v type="int" >      133 </v>
   <v type="int" >      134 </v>
   <v type="int" >      135 </v>
   <v type="int" >      136 </v>
   <v type="int" >      137 </v>
   <v type="int" >      138 </v>
   <v type="int" >      139 </v>
   <v type="int" >      140 </v>
   <v type="int" >      141 </v>
   <v type="int" >      142 </v>
   <v type="int" >      143 </v>
   <v type="int" >      144 </v>
   <v type="int" >      145 </v>
   <v type="int" >      146 </v>
  </varray>
 </primitive_cell>
 <kpoints>
  <generation param="Monkhorst-Pack">
   <v type="int" name="divisions">       3        3        1 </v>
   <v name="usershift">      0.00000000       0.00000000       0.00000000 </v>
   <v name="genvec1">      0.33333333       0.00000000       0.00000000 </v>
   <v name="genvec2">      0.00000000       0.33333333       0.00000000 </v>
   <v name="genvec3">      0.00000000       0.00000000       1.00000000 </v>
   <v name="shift">      0.00000000       0.00000000       0.00000000 </v>
  </generation>
  <varray name="kpointlist" >
   <v>       0.00000000       0.00000000       0.00000000 </v>
   <v>       0.33333333       0.00000000       0.00000000 </v>
   <v>       0.00000000       0.33333333       0.00000000 </v>
   <v>       0.33333333       0.33333333       0.00000000 </v>
  </varray>
  <varray name="weights" >
   <v>       0.11111111 </v>
   <v>       0.22222222 </v>
   <v>       0.22222222 </v>
   <v>       0.44444444 </v>
  </varray>
 </kpoints>
 <parameters>
  <separator name="general" >
   <i type="string" name="SYSTEM">unknown system</i>
   <i type="logical" name="LCOMPAT"> F  </i>
  </separator>
  <separator name="electronic" >
   <i type="string" name="PREC">normal</i>
   <i name="ENMAX">    400.00000000</i>
   <i name="ENAUG">    586.98000000</i>
   <i name="EDIFF">      0.00020000</i>
   <i type="int" name="IALGO">    38</i>
   <i type="int" name="IWAVPR">    11</i>
   <i type="int" name="NBANDS">  1024</i>
   <i type="int" name="NBANDSLOW">    -1</i>
   <i type="int" name="NBANDSHIGH">    -1</i>
   <i name="NELECT">   1586.00000000</i>
   <i type="int" name="TURBO">     0</i>
   <i type="int" name="IRESTART">     0</i>
   <i type="int" name="NREBOOT">     0</i>
   <i type="int" name="NMIN">     0</i>
   <i name="EREF">      0.00000000</i>
   <separator name="electronic smearing" >
    <i type="int" name="ISMEAR">     1</i>
    <i name="SIGMA">      0.20000000</i>
    <i name="KSPACING">      0.50000000</i>
    <i type="logical" name="KGAMMA"> T  </i>
    <i type="logical" name="KBLOWUP"> T  </i>
   </separator>
   <separator name="electronic projectors" >
    <i type="logical" name="LREAL"> F  </i>
    <v name="ROPT">      0.00000000      0.00000000</v>
    <i type="int" name="LMAXPAW">  -100</i>
    <i type="int" name="LMAXMIX">     2</i>
    <i type="logical" name="NLSPLINE"> F  </i>
   </separator>
   <separator name="electronic startup" >
    <i type="int" name="ISTART">     0</i>
    <i type="int" name="ICHARG">     2</i>
    <i type="int" name="INIWAV">     1</i>
   </separator>
   <separator name="electronic spin" >
    <i type="int" name="ISPIN">     2</i>
    <i type="logical" name="LNONCOLLINEAR"> F  </i>
    <v name="MAGMOM">      1.00000000      1.00000000      1.00000000      1.00000000      1.00000000      1.00000000      1.00000000      1.00000000      1.00000000      1.00000000      1.00000000      1.00000000      1.00000000      1.00000000      1.00000000      1.00000000      1.00000000      1.00000000      1.00000000      1.00000000
      1.00000000      1.00000000      1.00000000      1.00000000      1.00000000      1.00000000      1.00000000      1.00000000      1.00000000      1.00000000      1.00000000      1.00000000      1.00000000      1.00000000      1.00000000      1.00000000      1.00000000      1.00000000      1.00000000      1.00000000
      1.00000000      1.00000000      1.00000000      1.00000000      1.00000000      1.00000000      1.00000000      1.00000000      1.00000000      1.00000000      1.00000000      1.00000000      1.00000000      1.00000000      1.00000000      1.00000000      1.00000000      1.00000000      1.00000000      1.00000000
      1.00000000      1.00000000      1.00000000      1.00000000      1.00000000      1.00000000      1.00000000      1.00000000      1.00000000      1.00000000      1.00000000      1.00000000      1.00000000      1.00000000      1.00000000      1.00000000      1.00000000      1.00000000      1.00000000      1.00000000
      1.00000000      1.00000000      1.00000000      1.00000000      1.00000000      1.00000000      1.00000000      1.00000000      1.00000000      1.00000000      1.00000000      1.00000000      1.00000000      1.00000000      1.00000000      1.00000000      1.00000000      1.00000000      1.00000000      1.00000000
      1.00000000      1.00000000      1.00000000      1.00000000      1.00000000      1.00000000      1.00000000      1.00000000      1.00000000      1.00000000      1.00000000      1.00000000      1.00000000      1.00000000      1.00000000      1.00000000      1.00000000      1.00000000      1.00000000      1.00000000
      1.00000000      1.00000000      1.00000000      1.00000000      1.00000000      1.00000000      1.00000000      1.00000000      1.00000000      1.00000000      1.00000000      1.00000000      1.00000000      1.00000000      1.00000000      1.00000000      1.00000000      1.00000000      1.00000000      1.00000000
      1.00000000      1.00000000      1.00000000      1.00000000      1.00000000      1.00000000</v>
    <i name="NUPDOWN">     -1.00000000</i>
    <i type="logical" name="LSORBIT"> F  </i>
    <v name="SAXIS">      0.00000000      0.00000000      1.00000000</v>
    <i type="logical" name="LSPIRAL"> F  </i>
    <v name="QSPIRAL">      0.00000000      0.00000000      0.00000000</v>
    <i type="logical" name="LZEROZ"> F  </i>
   </separator>
   <separator name="electronic exchange-correlation" >
    <i type="logical" name="LASPH"> F  </i>
    <i type="logical" name="LMETAGGA"> F  </i>
   </separator>
   <separator name="electronic convergence" >
    <i type="int" name="NELM">    60</i>
    <i type="int" name="NELMDL">    -5</i>
    <i type="int" name="NELMIN">     2</i>
    <i name="ENINI">    400.00000000</i>
    <separator name="electronic convergence detail" >
     <i type="logical" name="LDIAG"> T  </i>
     <i type="logical" name="LSUBROT"> F  </i>
     <i name="WEIMIN">      0.00100000</i>
     <i name="EBREAK">      0.00000005</i>
     <i name="DEPER">      0.30000000</i>
     <i type="int" name="NRMM">     4</i>
     <i name="TIME">      0.40000000</i>
    </separator>
   </separator>
   <separator name="electronic mixer" >
    <i name="AMIX">      0.40000000</i>
    <i name="BMIX">      1.00000000</i>
    <i name="AMIN">      0.10000000</i>
    <i name="AMIX_MAG">      1.60000000</i>
    <i name="BMIX_MAG">      1.00000000</i>
    <separator name="electronic mixer details" >
     <i type="int" name="IMIX">     4</i>
     <i type="logical" name="MIXFIRST"> F  </i>
     <i type="int" name="MAXMIX">   -45</i>
     <i name="WC">    100.00000000</i>
     <i type="int" name="INIMIX">     1</i>
     <i type="int" name="MIXPRE">     1</i>
     <i type="int" name="MREMOVE">     5</i>
    </separator>
   </separator>
   <separator name="electronic dipolcorrection" >
    <i type="logical" name="LDIPOL"> F  </i>
    <i type="logical" name="LMONO"> F  </i>
    <i type="int" name="IDIPOL">     0</i>
    <i name="EPSILON">      1.00000000</i>
    <v name="DIPOL">   -100.00000000   -100.00000000   -100.00000000</v>
    <i name="EFIELD">      0.00000000</i>
   </separator>
  </separator>
  <separator name="grids" >
   <i type="int" name="NGX">    54</i>
   <i type="int" name="NGY">    54</i>
   <i type="int" name="NGZ">   140</i>
   <i type="int" name="NGXF">   108</i>
   <i type="int" name="NGYF">   108</i>
   <i type="int" name="NGZF">   280</i>
   <i type="logical" name="ADDGRID"> F  </i>
  </separator>
  <separator name="ionic" >
   <i type="int" name="NSW">   800</i>
   <i type="int" name="IBRION">     2</i>
   <i type="int" name="MDALGO">     0</i>
   <i type="int" name="ISIF">     2</i>
   <i name="PSTRESS">      0.00000000</i>
   <i name="EDIFFG">     -0.03000000</i>
   <i type="int" name="NFREE">     1</i>
   <i name="POTIM">      0.50000000</i>
   <i name="SMASS">     -3.00000000</i>
   <i name="SCALEE">      1.00000000</i>
  </separator>
  <separator name="ionic md" >
   <i name="TEBEG">      0.00010000</i>
   <i name="TEEND">      0.00010000</i>
   <i type="int" name="NBLOCK">     1</i>
   <i type="int" name="KBLOCK">   800</i>
   <i type="int" name="NPACO">   256</i>
   <i name="APACO">     10.00000000</i>
  </separator>
  <separator name="symmetry" >
   <i type="int" name="ISYM">     1</i>
   <i name="SYMPREC">      0.00001000</i>
  </separator>
  <separator name="dos" >
   <i type="int" name="LORBIT">     0</i>
   <v name="RWIGS">     -1.00000000     -1.00000000</v>
   <i type="int" name="NEDOS">   301</i>
   <i name="EMIN">     10.00000000</i>
   <i name="EMAX">    -10.00000000</i>
   <i name="EFERMI">      0.00000000</i>
  </separator>
  <separator name="writing" >
   <i type="int" name="NWRITE">     2</i>
   <i type="logical" name="LWAVE"> F  </i>
   <i type="logical" name="LDOWNSAMPLE"> F  </i>
   <i type="logical" name="LCHARG"> F  </i>
   <i type="logical" name="LPARD"> F  </i>
   <i type="logical" name="LVTOT"> F  </i>
   <i type="logical" name="LVHAR"> F  </i>
   <i type="logical" name="LELF"> F  </i>
   <i type="logical" name="LOPTICS"> F  </i>
   <v name="STM">      0.00000000      0.00000000      0.00000000      0.00000000      0.00000000      0.00000000      0.00000000</v>
  </separator>
  <separator name="performance" >
   <i type="int" name="NPAR">     4</i>
   <i type="int" name="NSIM">     4</i>
   <i type="int" name="NBLK">    -1</i>
   <i type="logical" name="LPLANE"> T  </i>
   <i type="logical" name="LSCALAPACK"> T  </i>
   <i type="logical" name="LSCAAWARE"> F  </i>
   <i type="logical" name="LSCALU"> F  </i>
   <i type="logical" name="LASYNC"> F  </i>
   <i type="logical" name="LORBITALREAL"> F  </i>
  </separator>
  <separator name="miscellaneous" >
   <i type="int" name="IDIOT">     3</i>
   <i type="int" name="PHON_NSTRUCT">    -1</i>
   <i type="logical" name="LMUSIC"> F  </i>
   <v name="POMASS">     63.54600000      1.00000000</v>
   <v name="DARWINR">      0.00000000      0.00000000</v>
   <v name="DARWINV">      1.00000000      1.00000000</v>
   <i type="logical" name="LCORR"> T  </i>
  </separator>
  <i type="logical" name="GGA_COMPAT"> T  </i>
  <i type="logical" name="LBERRY"> F  </i>
  <i type="int" name="ICORELEVEL">     0</i>
  <i type="logical" name="LDAU"> F  </i>
  <i type="int" name="I_CONSTRAINED_M">     0</i>
  <separator name="electronic exchange-correlation" >
   <i type="string" name="GGA">PE</i>
   <i type="int" name="VOSKOWN">     0</i>
   <i type="logical" name="LHFCALC"> F  </i>
   <i type="string" name="PRECFOCK"></i>
   <i type="logical" name="LSYMGRAD"> F  </i>
   <i type="logical" name="LHFONE"> F  </i>
   <i type="logical" name="LRHFCALC"> F  </i>
   <i type="logical" name="LTHOMAS"> F  </i>
   <i type="logical" name="LMODELHF"> F  </i>
   <i type="logical" name="LFOCKACE"> F  </i>
   <i name="ENCUT4O">     -1.00000000</i>
   <i type="int" name="EXXOEP">     0</i>
   <i type="int" name="FOURORBIT">     0</i>
   <i name="AEXX">      0.00000000</i>
   <i name="HFALPHA">      0.00000000</i>
   <i name="MCALPHA">      0.00000000</i>
   <i name="ALDAX">      1.00000000</i>
   <i name="AGGAX">      1.00000000</i>
   <i name="ALDAC">      1.00000000</i>
   <i name="AGGAC">      1.00000000</i>
   <i type="int" name="NKREDX">     1</i>
   <i type="int" name="NKREDY">     1</i>
   <i type="int" name="NKREDZ">     1</i>
   <i type="logical" name="SHIFTRED"> F  </i>
   <i type="logical" name="ODDONLY"> F  </i>
   <i type="logical" name="EVENONLY"> F  </i>
   <i type="int" name="LMAXFOCK">     0</i>
   <i type="int" name="NMAXFOCKAE">     0</i>
   <i type="logical" name="LFOCKAEDFT"> F  </i>
   <i name="HFSCREEN">      0.00000000</i>
   <i name="HFSCREENC">      0.00000000</i>
   <i type="int" name="NBANDSGWLOW">     0</i>
  </separator>
  <separator name="vdW DFT" >
   <i type="logical" name="LUSE_VDW"> F  </i>
   <i name="Zab_VDW">     -0.84910000</i>
   <i name="PARAM1">      0.12340000</i>
   <i name="PARAM2">      1.00000000</i>
   <i name="PARAM3">      0.00000000</i>
  </separator>
  <separator name="model GW" >
   <i type="int" name="MODEL_GW">     0</i>
   <i name="MODEL_EPS0">     13.50244245</i>
   <i name="MODEL_ALPHA">      1.00000000</i>
  </separator>
  <separator name="linear response parameters" >
   <i type="logical" name="LEPSILON"> F  </i>
   <i type="logical" name="LRPA"> F  </i>
   <i type="logical" name="LNABLA"> F  </i>
   <i type="logical" name="LVEL"> F  </i>
   <i name="CSHIFT">      0.10000000</i>
   <i name="OMEGAMAX">     -1.00000000</i>
   <i name="DEG_THRESHOLD">      0.00200000</i>
   <i name="RTIME">     -0.10000000</i>
   <i name="WPLASMAI">      0.00000000</i>
   <v name="DFIELD">      0.00000000      0.00000000      0.00000000</v>
   <v name="WPLASMA">      0.00000000      0.00000000      0.00000000      0.00000000      0.00000000      0.00000000      0.00000000      0.00000000      0.00000000</v>
  </separator>
  <separator name="orbital magnetization" >
   <i type="logical" name="NUCIND"> F  </i>
   <v name="MAGPOS">      0.00000000      0.00000000      0.00000000</v>
   <i type="logical" name="LNICSALL"> T  </i>
   <i type="logical" name="ORBITALMAG"> F  </i>
   <i type="logical" name="LMAGBLOCH"> F  </i>
   <i type="logical" name="LCHIMAG"> F  </i>
   <i type="logical" name="LGAUGE"> T  </i>
   <i type="int" name="MAGATOM">     0</i>
   <v name="MAGDIPOL">      0.00000000      0.00000000      0.00000000</v>
   <v name="AVECCONST">      0.00000000      0.00000000      0.00000000</v>
  </separator>
  <separator name="response functions" >
   <i type="logical" name="LFINITE_TEMPERATURE"> F  </i>
   <i type="logical" name="LADDER"> F  </i>
   <i type="logical" name="LRPAFORCE"> F  </i>
   <i type="logical" name="LFXC"> F  </i>
   <i type="logical" name="LHARTREE"> T  </i>
   <i type="int" name="IBSE">     0</i>
   <v type="int" name="KPOINT">    -1     0     0     0</v>
   <i type="logical" name="LTCTC"> F  </i>
   <i type="logical" name="LTCTE"> F  </i>
   <i type="logical" name="LTETE"> F  </i>
   <i type="logical" name="LTRIPLET"> F  </i>
   <i type="logical" name="LFXCEPS"> F  </i>
   <i type="logical" name="LFXHEG"> F  </i>
   <i type="int" name="NATURALO">     2</i>
   <i type="logical" name="LHOLEGF"> F  </i>
   <i type="logical" name="L2ORDER"> F  </i>
   <i type="logical" name="LDMP1"> F  </i>
   <i type="logical" name="LMP2LT"> F  </i>
   <i type="logical" name="LSMP2LT"> F  </i>
   <i type="logical" name="LGWLF"> F  </i>
   <i name="ENCUTGW">     -2.00000000</i>
   <i name="ENCUTGWSOFT">     -2.00000000</i>
   <i name="ENCUTLF">     -1.00000000</i>
   <i type="logical" name="LESF_SPLINES"> F  </i>
   <i type="int" name="LMAXMP2">    -1</i>
   <i name="SCISSOR">      0.00000000</i>
   <i type="int" name="NOMEGA">     0</i>
   <i type="int" name="NOMEGAR">     0</i>
   <i type="int" name="NBANDSGW">    -1</i>
   <i type="int" name="NBANDSO">    -1</i>
   <i type="int" name="NBANDSV">    -1</i>
   <i type="int" name="NELMGW">     1</i>
   <i type="int" name="NELMHF">     1</i>
   <i type="int" name="DIM">     3</i>
   <i type="int" name="IESPILON">     4</i>
   <i type="int" name="ANTIRES">     0</i>
   <i name="OMEGAMAX">    -30.00000000</i>
   <i name="OMEGAMIN">    -30.00000000</i>
   <i name="OMEGATL">   -200.00000000</i>
   <i type="int" name="OMEGAGRID">     0</i>
   <i name="CSHIFT">     -0.10000000</i>
   <i type="logical" name="LSELFENERGY"> F  </i>
   <i type="logical" name="LSPECTRAL"> F  </i>
   <i type="logical" name="LSPECTRALGW"> F  </i>
   <i type="logical" name="LSINGLES"> F  </i>
   <i type="logical" name="LFERMIGW"> F  </i>
   <i type="logical" name="ODDONLYGW"> F  </i>
   <i type="logical" name="EVENONLYGW"> F  </i>
   <i type="int" name="NKREDLFX">     1</i>
   <i type="int" name="NKREDLFY">     1</i>
   <i type="int" name="NKREDLFZ">     1</i>
   <i type="int" name="MAXMEM">  2800</i>
   <i type="int" name="TELESCOPE">     0</i>
   <i type="int" name="NTAUPAR">    -1</i>
   <i type="int" name="NOMEGAPAR">    -1</i>
   <i name="DAMP_NEWTON">      0.80000001</i>
   <i name="LAMBDA">      1.00000000</i>
  </separator>
  <separator name="External order field" >
   <i name="OFIELD_KAPPA">      0.00000000</i>
   <v name="OFIELD_K">      0.00000000      0.00000000      0.00000000</v>
   <i name="OFIELD_Q6_NEAR">      0.00000000</i>
   <i name="OFIELD_Q6_FAR">      0.00000000</i>
   <i name="OFIELD_A">      0.00000000</i>
  </separator>
  <separator name="optional k-points parameters" >
   <i type="int" name="KPOINTS_OPT_MODE">     1</i>
   <i type="logical" name="LKPOINTS_OPT"> F  </i>
  </separator>
 </parameters>
 <atominfo>
  <atoms>     146 </atoms>
  <types>       2 </types>
  <array name="atoms" >
   <dimension dim="1">ion</dimension>
   <field type="string">element</field>
   <field type="int">atomtype</field>
   <set>
    <rc><c>Cu</c><c>   1</c></rc>
    <rc><c>Cu</c><c>   1</c></rc>
    <rc><c>Cu</c><c>   1</c></rc>
    <rc><c>Cu</c><c>   1</c></rc>
    <rc><c>Cu</c><c>   1</c></rc>
    <rc><c>Cu</c><c>   1</c></rc>
    <rc><c>Cu</c><c>   1</c></rc>
    <rc><c>Cu</c><c>   1</c></rc>
    <rc><c>Cu</c><c>   1</c></rc>
    <rc><c>Cu</c><c>   1</c></rc>
    <rc><c>Cu</c><c>   1</c></rc>
    <rc><c>Cu</c><c>   1</c></rc>
    <rc><c>Cu</c><c>   1</c></rc>
    <rc><c>Cu</c><c>   1</c></rc>
    <rc><c>Cu</c><c>   1</c></rc>
    <rc><c>Cu</c><c>   1</c></rc>
    <rc><c>Cu</c><c>   1</c></rc>
    <rc><c>Cu</c><c>   1</c></rc>
    <rc><c>Cu</c><c>   1</c></rc>
    <rc><c>Cu</c><c>   1</c></rc>
    <rc><c>Cu</c><c>   1</c></rc>
    <rc><c>Cu</c><c>   1</c></rc>
    <rc><c>Cu</c><c>   1</c></rc>
    <rc><c>Cu</c><c>   1</c></rc>
    <rc><c>Cu</c><c>   1</c></rc>
    <rc><c>Cu</c><c>   1</c></rc>
    <rc><c>Cu</c><c>   1</c></rc>
    <rc><c>Cu</c><c>   1</c></rc>
    <rc><c>Cu</c><c>   1</c></rc>
    <rc><c>Cu</c><c>   1</c></rc>
    <rc><c>Cu</c><c>   1</c></rc>
    <rc><c>Cu</c><c>   1</c></rc>
    <rc><c>Cu</c><c>   1</c></rc>
    <rc><c>Cu</c><c>   1</c></rc>
    <rc><c>Cu</c><c>   1</c></rc>
    <rc><c>Cu</c><c>   1</c></rc>
    <rc><c>Cu</c><c>   1</c></rc>
    <rc><c>Cu</c><c>   1</c></rc>
    <rc><c>Cu</c><c>   1</c></rc>
    <rc><c>Cu</c><c>   1</c></rc>
    <rc><c>Cu</c><c>   1</c></rc>
    <rc><c>Cu</c><c>   1</c></rc>
    <rc><c>Cu</c><c>   1</c></rc>
    <rc><c>Cu</c><c>   1</c></rc>
    <rc><c>Cu</c><c>   1</c></rc>
    <rc><c>Cu</c><c>   1</c></rc>
    <rc><c>Cu</c><c>   1</c></rc>
    <rc><c>Cu</c><c>   1</c></rc>
    <rc><c>Cu</c><c>   1</c></rc>
    <rc><c>Cu</c><c>   1</c></rc>
    <rc><c>Cu</c><c>   1</c></rc>
    <rc><c>Cu</c><c>   1</c></rc>
    <rc><c>Cu</c><c>   1</c></rc>
    <rc><c>Cu</c><c>   1</c></rc>
    <rc><c>Cu</c><c>   1</c></rc>
    <rc><c>Cu</c><c>   1</c></rc>
    <rc><c>Cu</c><c>   1</c></rc>
    <rc><c>Cu</c><c>   1</c></rc>
    <rc><c>Cu</c><c>   1</c></rc>
    <rc><c>Cu</c><c>   1</c></rc>
    <rc><c>Cu</c><c>   1</c></rc>
    <rc><c>Cu</c><c>   1</c></rc>
    <rc><c>Cu</c><c>   1</c></rc>
    <rc><c>Cu</c><c>   1</c></rc>
    <rc><c>Cu</c><c>   1</c></rc>
    <rc><c>Cu</c><c>   1</c></rc>
    <rc><c>Cu</c><c>   1</c></rc>
    <rc><c>Cu</c><c>   1</c></rc>
    <rc><c>Cu</c><c>   1</c></rc>
    <rc><c>Cu</c><c>   1</c></rc>
    <rc><c>Cu</c><c>   1</c></rc>
    <rc><c>Cu</c><c>   1</c></rc>
    <rc><c>Cu</c><c>   1</c></rc>
    <rc><c>Cu</c><c>   1</c></rc>
    <rc><c>Cu</c><c>   1</c></rc>
    <rc><c>Cu</c><c>   1</c></rc>
    <rc><c>Cu</c><c>   1</c></rc>
    <rc><c>Cu</c><c>   1</c></rc>
    <rc><c>Cu</c><c>   1</c></rc>
    <rc><c>Cu</c><c>   1</c></rc>
    <rc><c>Cu</c><c>   1</c></rc>
    <rc><c>Cu</c><c>   1</c></rc>
    <rc><c>Cu</c><c>   1</c></rc>
    <rc><c>Cu</c><c>   1</c></rc>
    <rc><c>Cu</c><c>   1</c></rc>
    <rc><c>Cu</c><c>   1</c></rc>
    <rc><c>Cu</c><c>   1</c></rc>
    <rc><c>Cu</c><c>   1</c></rc>
    <rc><c>Cu</c><c>   1</c></rc>
    <rc><c>Cu</c><c>   1</c></rc>
    <rc><c>Cu</c><c>   1</c></rc>
    <rc><c>Cu</c><c>   1</c></rc>
    <rc><c>Cu</c><c>   1</c></rc>
    <rc><c>Cu</c><c>   1</c></rc>
    <rc><c>Cu</c><c>   1</c></rc>
    <rc><c>Cu</c><c>   1</c></rc>
    <rc><c>Cu</c><c>   1</c></rc>
    <rc><c>Cu</c><c>   1</c></rc>
    <rc><c>Cu</c><c>   1</c></rc>
    <rc><c>Cu</c><c>   1</c></rc>
    <rc><c>Cu</c><c>   1</c></rc>
    <rc><c>Cu</c><c>   1</c></rc>
    <rc><c>Cu</c><c>   1</c></rc>
    <rc><c>Cu</c><c>   1</c></rc>
    <rc><c>Cu</c><c>   1</c></rc>
    <rc><c>Cu</c><c>   1</c></rc>
    <rc><c>Cu</c><c>   1</c></rc>
    <rc><c>Cu</c><c>   1</c></rc>
    <rc><c>Cu</c><c>   1</c></rc>
    <rc><c>Cu</c><c>   1</c></rc>
    <rc><c>Cu</c><c>   1</c></rc>
    <rc><c>Cu</c><c>   1</c></rc>
    <rc><c>Cu</c><c>   1</c></rc>
    <rc><c>Cu</c><c>   1</c></rc>
    <rc><c>Cu</c><c>   1</c></rc>
    <rc><c>Cu</c><c>   1</c></rc>
    <rc><c>Cu</c><c>   1</c></rc>
    <rc><c>Cu</c><c>   1</c></rc>
    <rc><c>Cu</c><c>   1</c></rc>
    <rc><c>Cu</c><c>   1</c></rc>
    <rc><c>Cu</c><c>   1</c></rc>
    <rc><c>Cu</c><c>   1</c></rc>
    <rc><c>Cu</c><c>   1</c></rc>
    <rc><c>Cu</c><c>   1</c></rc>
    <rc><c>Cu</c><c>   1</c></rc>
    <rc><c>Cu</c><c>   1</c></rc>
    <rc><c>Cu</c><c>   1</c></rc>
    <rc><c>Cu</c><c>   1</c></rc>
    <rc><c>Cu</c><c>   1</c></rc>
    <rc><c>Cu</c><c>   1</c></rc>
    <rc><c>Cu</c><c>   1</c></rc>
    <rc><c>Cu</c><c>   1</c></rc>
    <rc><c>Cu</c><c>   1</c></rc>
    <rc><c>Cu</c><c>   1</c></rc>
    <rc><c>Cu</c><c>   1</c></rc>
    <rc><c>Cu</c><c>   1</c></rc>
    <rc><c>Cu</c><c>   1</c></rc>
    <rc><c>Cu</c><c>   1</c></rc>
    <rc><c>Cu</c><c>   1</c></rc>
    <rc><c>Cu</c><c>   1</c></rc>
    <rc><c>Cu</c><c>   1</c></rc>
    <rc><c>Cu</c><c>   1</c></rc>
    <rc><c>Cu</c><c>   1</c></rc>
    <rc><c>Cu</c><c>   1</c></rc>
    <rc><c>H </c><c>   2</c></rc>
    <rc><c>H </c><c>   2</c></rc>
   </set>
  </array>
  <array name="atomtypes" >
   <dimension dim="1">type</dimension>
   <field type="int">atomspertype</field>
   <field type="string">element</field>
   <field>mass</field>
   <field>valence</field>
   <field type="string">pseudopotential</field>
   <set>
    <rc><c> 144</c><c>Cu</c><c>     63.54600000</c><c>     11.00000000</c><c>  PAW_PBE Cu 22Jun2005                  </c></rc>
    <rc><c>   2</c><c>H </c><c>      1.00000000</c><c>      1.00000000</c><c>  PAW_PBE H 15Jun2001                   </c></rc>
   </set>
  </array>
 </atominfo>
 <structure name="initialpos" >
  <crystal>
   <varray name="basis" >
    <v>      10.89000034       0.00000000       0.00000000 </v>
    <v>       0.00000000      10.89000034       0.00000000 </v>
    <v>       0.00000000       0.00000000      27.70499992 </v>
   </varray>
   <i name="volume">   3285.59432860 </i>
   <varray name="rec_basis" >
    <v>       0.09182736       0.00000000       0.00000000 </v>
    <v>       0.00000000       0.09182736       0.00000000 </v>
    <v>       0.00000000       0.00000000       0.03609457 </v>
   </varray>
  </crystal>
  <varray name="positions" >
   <v>       0.00000000       0.00000000       0.00000000 </v>
   <v>       0.00000000       0.33333333       0.00000000 </v>
   <v>       0.00000000       0.66666667       0.00000000 </v>
   <v>       0.33333333       0.00000000       0.00000000 </v>
   <v>       0.33333333       0.33333333       0.00000000 </v>
   <v>       0.33333333       0.66666667       0.00000000 </v>
   <v>       0.66666667       0.00000000       0.00000000 </v>
   <v>       0.66666667       0.33333333       0.00000000 </v>
   <v>       0.66666667       0.66666667       0.00000000 </v>
   <v>       0.16666667       0.16666667       0.00000000 </v>
   <v>       0.16666667       0.50000000       0.00000000 </v>
   <v>       0.16666667       0.83333333       0.00000000 </v>
   <v>       0.50000000       0.16666667       0.00000000 </v>
   <v>       0.50000000       0.50000000       0.00000000 </v>
   <v>       0.50000000       0.83333333       0.00000000 </v>
   <v>       0.83333333       0.16666667       0.00000000 </v>
   <v>       0.83333333       0.50000000       0.00000000 </v>
   <v>       0.83333333       0.83333333       0.00000000 </v>
   <v>       0.00000000       0.16666667       0.06551164 </v>
   <v>       0.00000000       0.50000000       0.06551164 </v>
   <v>       0.00000000       0.83333333       0.06551164 </v>
   <v>       0.33333333       0.16666667       0.06551164 </v>
   <v>       0.33333333       0.50000000       0.06551164 </v>
   <v>       0.33333333       0.83333333       0.06551164 </v>
   <v>       0.66666667       0.16666667       0.06551164 </v>
   <v>       0.66666667       0.50000000       0.06551164 </v>
   <v>       0.66666667       0.83333333       0.06551164 </v>
   <v>       0.16666667       0.00000000       0.06551164 </v>
   <v>       0.16666667       0.33333333       0.06551164 </v>
   <v>       0.16666667       0.66666667       0.06551164 </v>
   <v>       0.50000000       0.00000000       0.06551164 </v>
   <v>       0.50000000       0.33333333       0.06551164 </v>
   <v>       0.50000000       0.66666667       0.06551164 </v>
   <v>       0.83333333       0.00000000       0.06551164 </v>
   <v>       0.83333333       0.33333333       0.06551164 </v>
   <v>       0.83333333       0.66666667       0.06551164 </v>
   <v>       0.00000000       0.00000000       0.13119553 </v>
   <v>       0.00000000       0.33333333       0.13119553 </v>
   <v>       0.00000000       0.66666667       0.13119553 </v>
   <v>       0.33333333       0.00000000       0.13119553 </v>
   <v>       0.33333333       0.33333333       0.13119553 </v>
   <v>       0.33333333       0.66666667       0.13119553 </v>
   <v>       0.66666667       0.00000000       0.13119553 </v>
   <v>       0.66666667       0.33333333       0.13119553 </v>
   <v>       0.66666667       0.66666667       0.13119553 </v>
   <v>       0.16666667       0.16666667       0.13119553 </v>
   <v>       0.16666667       0.50000000       0.13119553 </v>
   <v>       0.16666667       0.83333333       0.13119553 </v>
   <v>       0.50000000       0.16666667       0.13119553 </v>
   <v>       0.50000000       0.50000000       0.13119553 </v>
   <v>       0.50000000       0.83333333       0.13119553 </v>
   <v>       0.83333333       0.16666667       0.13119553 </v>
   <v>       0.83333333       0.50000000       0.13119553 </v>
   <v>       0.83333333       0.83333333       0.13119553 </v>
   <v>       0.00000000       0.16666667       0.19620680 </v>
   <v>       0.00000000       0.50000000       0.19620680 </v>
   <v>       0.00000000       0.83333333       0.19620680 </v>
   <v>       0.33333333       0.16666667       0.19620680 </v>
   <v>       0.33333333       0.50000000       0.19620680 </v>
   <v>       0.33333333       0.83333333       0.19620680 </v>
   <v>       0.66666667       0.16666667       0.19620680 </v>
   <v>       0.66666667       0.50000000       0.19620680 </v>
   <v>       0.66666667       0.83333333       0.19620680 </v>
   <v>       0.16666667       0.00000000       0.19620680 </v>
   <v>       0.16666667       0.33333333       0.19620680 </v>
   <v>       0.16666667       0.66666667       0.19620680 </v>
   <v>       0.50000000       0.00000000       0.19620680 </v>
   <v>       0.50000000       0.33333333       0.19620680 </v>
   <v>       0.50000000       0.66666667       0.19620680 </v>
   <v>       0.83333333       0.00000000       0.19620680 </v>
   <v>       0.83333333       0.33333333       0.19620680 </v>
   <v>       0.83333333       0.66666667       0.19620680 </v>
   <v>       0.00000000       0.00000000       0.25873860 </v>
   <v>       0.00000000       0.33333333       0.25873860 </v>
   <v>       0.00000000       0.66666667       0.25873860 </v>
   <v>       0.33333333       0.00000000       0.25873860 </v>
   <v>       0.33333333       0.33333333       0.25873860 </v>
   <v>       0.33333333       0.66666667       0.25873860 </v>
   <v>       0.66666667       0.00000000       0.25873860 </v>
   <v>       0.66666667       0.33333333       0.25873860 </v>
   <v>       0.66666667       0.66666667       0.25873860 </v>
   <v>       0.16666667       0.16666667       0.25873860 </v>
   <v>       0.16666667       0.50000000       0.25873860 </v>
   <v>       0.16666667       0.83333333       0.25873860 </v>
   <v>       0.50000000       0.16666667       0.25873860 </v>
   <v>       0.50000000       0.50000000       0.25873860 </v>
   <v>       0.50000000       0.83333333       0.25873860 </v>
   <v>       0.83333333       0.16666667       0.25873860 </v>
   <v>       0.83333333       0.50000000       0.25873860 </v>
   <v>       0.83333333       0.83333333       0.25873860 </v>
   <v>       0.00000000       0.16666667       0.32119954 </v>
   <v>       0.00000000       0.50000000       0.32119954 </v>
   <v>       0.00000000       0.83333333       0.32119954 </v>
   <v>       0.33333333       0.16666667       0.32119954 </v>
   <v>       0.33333333       0.50000000       0.32119954 </v>
   <v>       0.33333333       0.83333333       0.32119954 </v>
   <v>       0.66666667       0.16666667       0.32119954 </v>
   <v>       0.66666667       0.50000000       0.32119954 </v>
   <v>       0.66666667       0.83333333       0.32119954 </v>
   <v>       0.16666667       0.00000000       0.32119954 </v>
   <v>       0.16666667       0.33333333       0.32119954 </v>
   <v>       0.16666667       0.66666667       0.32119954 </v>
   <v>       0.50000000       0.00000000       0.32119954 </v>
   <v>       0.50000000       0.33333333       0.32119954 </v>
   <v>       0.50000000       0.66666667       0.32119954 </v>
   <v>       0.83333333       0.00000000       0.32119954 </v>
   <v>       0.83333333       0.33333333       0.32119954 </v>
   <v>       0.83333333       0.66666667       0.32119954 </v>
   <v>       0.00000000       0.00000000       0.38476372 </v>
   <v>       0.00000000       0.33333333       0.38476372 </v>
   <v>       0.00000000       0.66666667       0.38476372 </v>
   <v>       0.33333333       0.00000000       0.38476372 </v>
   <v>       0.33333333       0.33333333       0.38476372 </v>
   <v>       0.33333333       0.66666667       0.38476372 </v>
   <v>       0.66666667       0.00000000       0.38476372 </v>
   <v>       0.66666667       0.33333333       0.38476372 </v>
   <v>       0.66666667       0.66666667       0.38476372 </v>
   <v>       0.16666667       0.16666667       0.38476372 </v>
   <v>       0.16666667       0.50000000       0.38476372 </v>
   <v>       0.16666667       0.83333333       0.38476372 </v>
   <v>       0.50000000       0.16666667       0.38476372 </v>
   <v>       0.50000000       0.50000000       0.38476372 </v>
   <v>       0.50000000       0.83333333       0.38476372 </v>
   <v>       0.83333333       0.16666667       0.38476372 </v>
   <v>       0.83333333       0.50000000       0.38476372 </v>
   <v>       0.83333333       0.83333333       0.38476372 </v>
   <v>       0.00000000       0.16666667       0.44736473 </v>
   <v>       0.00000000       0.50000000       0.44736473 </v>
   <v>       0.00000000       0.83333333       0.44736473 </v>
   <v>       0.33333333       0.16666667       0.44736473 </v>
   <v>       0.33333333       0.50000000       0.44736473 </v>
   <v>       0.33333333       0.83333333       0.44736473 </v>
   <v>       0.66666667       0.16666667       0.44736473 </v>
   <v>       0.66666667       0.50000000       0.44736473 </v>
   <v>       0.66666667       0.83333333       0.44736473 </v>
   <v>       0.16666667       0.00000000       0.44736473 </v>
   <v>       0.16666667       0.33333333       0.44736473 </v>
   <v>       0.16666667       0.66666667       0.44736473 </v>
   <v>       0.50000000       0.00000000       0.44736473 </v>
   <v>       0.50000000       0.33333333       0.44736473 </v>
   <v>       0.50000000       0.66666667       0.44736473 </v>
   <v>       0.83333333       0.00000000       0.44736473 </v>
   <v>       0.83333333       0.33333333       0.44736473 </v>
   <v>       0.83333333       0.66666667       0.44736473 </v>
   <v>       0.33333333       0.33333333       0.50150658 </v>
   <v>       0.33333333       0.40183655       0.50150658 </v>
  </varray>
  <varray name="selective"  type="logical" >
   <v type="logical" >  F  F  F </v>
   <v type="logical" >  F  F  F </v>
   <v type="logical" >  F  F  F </v>
   <v type="logical" >  F  F  F </v>
   <v type="logical" >  F  F  F </v>
   <v type="logical" >  F  F  F </v>
   <v type="logical" >  F  F  F </v>
   <v type="logical" >  F  F  F </v>
   <v type="logical" >  F  F  F </v>
   <v type="logical" >  F  F  F </v>
   <v type="logical" >  F  F  F </v>
   <v type="logical" >  F  F  F </v>
   <v type="logical" >  F  F  F </v>
   <v type="logical" >  F  F  F </v>
   <v type="logical" >  F  F  F </v>
   <v type="logical" >  F  F  F </v>
   <v type="logical" >  F  F  F </v>
   <v type="logical" >  F  F  F </v>
   <v type="logical" >  F  F  F </v>
   <v type="logical" >  F  F  F </v>
   <v type="logical" >  F  F  F </v>
   <v type="logical" >  F  F  F </v>
   <v type="logical" >  F  F  F </v>
   <v type="logical" >  F  F  F </v>
   <v type="logical" >  F  F  F </v>
   <v type="logical" >  F  F  F </v>
   <v type="logical" >  F  F  F </v>
   <v type="logical" >  F  F  F </v>
   <v type="logical" >  F  F  F </v>
   <v type="logical" >  F  F  F </v>
   <v type="logical" >  F  F  F </v>
   <v type="logical" >  F  F  F </v>
   <v type="logical" >  F  F  F </v>
   <v type="logical" >  F  F  F </v>
   <v type="logical" >  F  F  F </v>
   <v type="logical" >  F  F  F </v>
   <v type="logical" >  F  F  F </v>
   <v type="logical" >  F  F  F </v>
   <v type="logical" >  F  F  F </v>
   <v type="logical" >  F  F  F </v>
   <v type="logical" >  F  F  F </v>
   <v type="logical" >  F  F  F </v>
   <v type="logical" >  F  F  F </v>
   <v type="logical" >  F  F  F </v>
   <v type="logical" >  F  F  F </v>
   <v type="logical" >  F  F  F </v>
   <v type="logical" >  F  F  F </v>
   <v type="logical" >  F  F  F </v>
   <v type="logical" >  F  F  F </v>
   <v type="logical" >  F  F  F </v>
   <v type="logical" >  F  F  F </v>
   <v type="logical" >  F  F  F </v>
   <v type="logical" >  F  F  F </v>
   <v type="logical" >  F  F  F </v>
   <v type="logical" >  T  T  T </v>
   <v type="logical" >  T  T  T </v>
   <v type="logical" >  T  T  T </v>
   <v type="logical" >  T  T  T </v>
   <v type="logical" >  T  T  T </v>
   <v type="logical" >  T  T  T </v>
   <v type="logical" >  T  T  T </v>
   <v type="logical" >  T  T  T </v>
   <v type="logical" >  T  T  T </v>
   <v type="logical" >  T  T  T </v>
   <v type="logical" >  T  T  T </v>
   <v type="logical" >  T  T  T </v>
   <v type="logical" >  T  T  T </v>
   <v type="logical" >  T  T  T </v>
   <v type="logical" >  T  T  T </v>
   <v type="logical" >  T  T  T </v>
   <v type="logical" >  T  T  T </v>
   <v type="logical" >  T  T  T </v>
   <v type="logical" >  T  T  T </v>
   <v type="logical" >  T  T  T </v>
   <v type="logical" >  T  T  T </v>
   <v type="logical" >  T  T  T </v>
   <v type="logical" >  T  T  T </v>
   <v type="logical" >  T  T  T </v>
   <v type="logical" >  T  T  T </v>
   <v type="logical" >  T  T  T </v>
   <v type="logical" >  T  T  T </v>
   <v type="logical" >  T  T  T </v>
   <v type="logical" >  T  T  T </v>
   <v type="logical" >  T  T  T </v>
   <v type="logical" >  T  T  T </v>
   <v type="logical" >  T  T  T </v>
   <v type="logical" >  T  T  T </v>
   <v type="logical" >  T  T  T </v>
   <v type="logical" >  T  T  T </v>
   <v type="logical" >  T  T  T </v>
   <v type="logical" >  T  T  T </v>
   <v type="logical" >  T  T  T </v>
   <v type="logical" >  T  T  T </v>
   <v type="logical" >  T  T  T </v>
   <v type="logical" >  T  T  T </v>
   <v type="logical" >  T  T  T </v>
   <v type="logical" >  T  T  T </v>
   <v type="logical" >  T  T  T </v>
   <v type="logical" >  T  T  T </v>
   <v type="logical" >  T  T  T </v>
   <v type="logical" >  T  T  T </v>
   <v type="logical" >  T  T  T </v>
   <v type="logical" >  T  T  T </v>
   <v type="logical" >  T  T  T </v>
   <v type="logical" >  T  T  T </v>
   <v type="logical" >  T  T  T </v>
   <v type="logical" >  T  T  T </v>
   <v type="logical" >  T  T  T </v>
   <v type="logical" >  T  T  T </v>
   <v type="logical" >  T  T  T </v>
   <v type="logical" >  T  T  T </v>
   <v type="logical" >  T  T  T </v>
   <v type="logical" >  T  T  T </v>
   <v type="logical" >  T  T  T </v>
   <v type="logical" >  T  T  T </v>
   <v type="logical" >  T  T  T </v>
   <v type="logical" >  T  T  T </v>
   <v type="logical" >  T  T  T </v>
   <v type="logical" >  T  T  T </v>
   <v type="logical" >  T  T  T </v>
   <v type="logical" >  T  T  T </v>
   <v type="logical" >  T  T  T </v>
   <v type="logical" >  T  T  T </v>
   <v type="logical" >  T  T  T </v>
   <v type="logical" >  T  T  T </v>
   <v type="logical" >  T  T  T </v>
   <v type="logical" >  T  T  T </v>
   <v type="logical" >  T  T  T </v>
   <v type="logical" >  T  T  T </v>
   <v type="logical" >  T  T  T </v>
   <v type="logical" >  T  T  T </v>
   <v type="logical" >  T  T  T </v>
   <v type="logical" >  T  T  T </v>
   <v type="logical" >  T  T  T </v>
   <v type="logical" >  T  T  T </v>
   <v type="logical" >  T  T  T </v>
   <v type="logical" >  T  T  T </v>
   <v type="logical" >  T  T  T </v>
   <v type="logical" >  T  T  T </v>
   <v type="logical" >  T  T  T </v>
   <v type="logical" >  T  T  T </v>
   <v type="logical" >  T  T  T </v>
   <v type="logical" >  T  T  T </v>
   <v type="logical" >  T  T  T </v>
   <v type="logical" >  T  T  T </v>
   <v type="logical" >  T  T  T </v>
  </varray>
  <nose>
   <v>      -3.00000000       0.00000000       0.00010000       0.00010000 </v>
  </nose>
 </structure>
 <calculation>
  <scstep>
   <time name="dav">  747.70  756.87</time>
   <time name="total">  748.00  757.20</time>
   <energy>
    <i name="alphaZ">   4623.72760507 </i>
    <i name="ewald"> 916214.40999083 </i>
    <i name="hartreedc">**************** </i>
    <i name="XCdc">   6597.24907743 </i>
    <i name="pawpsdc"> 176849.62809079 </i>
    <i name="pawaedc">-192088.21954245 </i>
    <i name="eentropy">      0.01302872 </i>
    <i name="bandstr">  16004.78966146 </i>
    <i name="atom"> 200322.85745410 </i>
    <i name="e_fr_energy">  15542.13223188 </i>
    <i name="e_wo_entrp">  15542.11920317 </i>
    <i name="e_0_energy">  15542.12788898 </i>
   </energy>
  </scstep>
  <scstep>
   <time name="dav">  744.67  753.74</time>
   <time name="total">  744.69  753.76</time>
   <energy>
    <i name="e_fr_energy">   2263.66340751 </i>
    <i name="e_wo_entrp">   2263.68530536 </i>
    <i name="e_0_energy">   2263.67070679 </i>
   </energy>
  </scstep>
  <scstep>
   <time name="dav">  745.81  754.59</time>
   <time name="total">  745.82  754.60</time>
   <energy>
    <i name="e_fr_energy">   -387.18688107 </i>
    <i name="e_wo_entrp">   -387.28353126 </i>
    <i name="e_0_energy">   -387.21909780 </i>
   </energy>
  </scstep>
  <scstep>
   <time name="dav">  795.79  805.42</time>
   <time name="total">  795.81  805.44</time>
   <energy>
    <i name="e_fr_energy">   -608.48745963 </i>
    <i name="e_wo_entrp">   -608.73709992 </i>
    <i name="e_0_energy">   -608.57067306 </i>
   </energy>
  </scstep>
  <scstep>
   <time name="dav">  806.73  815.53</time>
   <time name="total">  811.08  819.93</time>
   <energy>
    <i name="e_fr_energy">   -614.44998782 </i>
    <i name="e_wo_entrp">   -614.70160949 </i>
    <i name="e_0_energy">   -614.53386171 </i>
   </energy>
  </scstep>
  <scstep>
   <time name="dav">  793.36  804.11</time>
   <time name="total">  797.67  808.46</time>
   <energy>
    <i name="e_fr_energy">   -500.45435616 </i>
    <i name="e_wo_entrp">   -500.39620389 </i>
    <i name="e_0_energy">   -500.43497207 </i>
   </energy>
  </scstep>
  <scstep>
   <time name="dav">  801.00  811.09</time>
   <time name="total">  805.38  815.50</time>
   <energy>
    <i name="e_fr_energy">   -440.95840476 </i>
    <i name="e_wo_entrp">   -440.89443147 </i>
    <i name="e_0_energy">   -440.93708033 </i>
   </energy>
  </scstep>
  <scstep>
   <time name="dav">  832.78  842.59</time>
   <time name="total">  837.65  847.60</time>
   <energy>
    <i name="e_fr_energy">   -442.65856545 </i>
    <i name="e_wo_entrp">   -442.65129816 </i>
    <i name="e_0_energy">   -442.65614302 </i>
   </energy>
  </scstep>
  <scstep>
   <time name="dav">  920.21  931.66</time>
   <time name="total">  925.01  936.59</time>
   <energy>
    <i name="e_fr_energy">   -434.75068155 </i>
    <i name="e_wo_entrp">   -434.76869032 </i>
    <i name="e_0_energy">   -434.75668447 </i>
   </energy>
  </scstep>
  <scstep>
   <time name="dav"> 1025.88 1038.17</time>
   <time name="total"> 1030.24 1042.58</time>
   <energy>
    <i name="e_fr_energy">   -429.11460627 </i>
    <i name="e_wo_entrp">   -429.01942326 </i>
    <i name="e_0_energy">   -429.08287860 </i>
   </energy>
  </scstep>
  <scstep>
   <time name="dav"> 1124.19 1137.38</time>
   <time name="total"> 1128.60 1141.84</time>
   <energy>
    <i name="e_fr_energy">   -432.45484349 </i>
    <i name="e_wo_entrp">   -432.35086876 </i>
    <i name="e_0_energy">   -432.42018525 </i>
   </energy>
  </scstep>
  <scstep>
   <time name="dav">  813.52  824.18</time>
   <time name="total">  817.90  828.59</time>
   <energy>
    <i name="e_fr_energy">   -442.84437374 </i>
    <i name="e_wo_entrp">   -442.74814522 </i>
    <i name="e_0_energy">   -442.81229757 </i>
   </energy>
  </scstep>
  <scstep>
   <time name="dav">  853.79  864.20</time>
   <time name="total">  858.17  868.61</time>
   <energy>
    <i name="e_fr_energy">   -445.79171228 </i>
    <i name="e_wo_entrp">   -445.72744020 </i>
    <i name="e_0_energy">   -445.77028825 </i>
   </energy>
  </scstep>
  <scstep>
   <time name="dav">  814.85  824.02</time>
   <time name="total">  819.76  829.05</time>
   <energy>
    <i name="e_fr_energy">   -455.75185801 </i>
    <i name="e_wo_entrp">   -455.70693785 </i>
    <i name="e_0_energy">   -455.73688463 </i>
   </energy>
  </scstep>
  <scstep>
   <time name="dav">  876.92  887.71</time>
   <time name="total">  881.64  893.17</time>
   <energy>
    <i name="e_fr_energy">   -466.97450986 </i>
    <i name="e_wo_entrp">   -466.98840847 </i>
    <i name="e_0_energy">   -466.97914273 </i>
   </energy>
  </scstep>
  <scstep>
   <time name="dav">  908.30  918.82</time>
   <time name="total">  912.73  923.29</time>
   <energy>
    <i name="e_fr_energy">   -488.34938510 </i>
    <i name="e_wo_entrp">   -488.45892255 </i>
    <i name="e_0_energy">   -488.38589759 </i>
   </energy>
  </scstep>
  <scstep>
   <time name="dav">  805.41  815.52</time>
   <time name="total">  809.89  820.05</time>
   <energy>
    <i name="e_fr_energy">   -495.33052212 </i>
    <i name="e_wo_entrp">   -495.46701371 </i>
    <i name="e_0_energy">   -495.37601932 </i>
   </energy>
  </scstep>
  <scstep>
   <time name="dav">  837.00  846.56</time>
   <time name="total">  841.45  851.05</time>
   <energy>
    <i name="e_fr_energy">   -498.52770839 </i>
    <i name="e_wo_entrp">   -498.67351776 </i>
    <i name="e_0_energy">   -498.57631151 </i>
   </energy>
  </scstep>
  <scstep>
   <time name="dav">  905.94  916.62</time>
   <time name="total">  910.41  921.12</time>
   <energy>
    <i name="e_fr_energy">   -505.32644585 </i>
    <i name="e_wo_entrp">   -505.47296042 </i>
    <i name="e_0_energy">   -505.37528404 </i>
   </energy>
  </scstep>
  <scstep>
   <time name="dav">  780.83  789.58</time>
   <time name="total">  785.90  794.82</time>
   <energy>
    <i name="e_fr_energy">   -510.25108010 </i>
    <i name="e_wo_entrp">   -510.37639636 </i>
    <i name="e_0_energy">   -510.29285219 </i>
   </energy>
  </scstep>
  <scstep>
   <time name="dav">  988.78  998.35</time>
   <time name="total">  993.15 1002.76</time>
   <energy>
    <i name="e_fr_energy">   -512.98899613 </i>
    <i name="e_wo_entrp">   -513.10662068 </i>
    <i name="e_0_energy">   -513.02820432 </i>
   </energy>
  </scstep>
  <scstep>
   <time name="dav">  869.55  877.47</time>
   <time name="total">  874.63  882.62</time>
   <energy>
    <i name="e_fr_energy">   -515.25068907 </i>
    <i name="e_wo_entrp">   -515.37125649 </i>
    <i name="e_0_energy">   -515.29087821 </i>
   </energy>
  </scstep>
  <scstep>
   <time name="dav">  851.49  859.14</time>
   <time name="total">  856.43  864.14</time>
   <energy>
    <i name="e_fr_energy">   -516.63963709 </i>
    <i name="e_wo_entrp">   -516.75837206 </i>
    <i name="e_0_energy">   -516.67921541 </i>
   </energy>
  </scstep>
  <scstep>
   <time name="dav">  928.21  938.13</time>
   <time name="total">  932.57  942.54</time>
   <energy>
    <i name="e_fr_energy">   -517.95559573 </i>
    <i name="e_wo_entrp">   -518.08404024 </i>
    <i name="e_0_energy">   -517.99841057 </i>
   </energy>
  </scstep>
  <scstep>
   <time name="dav">  821.93  832.26</time>
   <time name="total">  826.35  836.72</time>
   <energy>
    <i name="e_fr_energy">   -519.04873490 </i>
    <i name="e_wo_entrp">   -519.17172145 </i>
    <i name="e_0_energy">   -519.08973042 </i>
   </energy>
  </scstep>
  <scstep>
   <time name="dav">  863.53  874.55</time>
   <time name="total">  867.89  878.96</time>
   <energy>
    <i name="e_fr_energy">   -519.60922704 </i>
    <i name="e_wo_entrp">   -519.73091442 </i>
    <i name="e_0_energy">   -519.64978950 </i>
   </energy>
  </scstep>
  <scstep>
   <time name="dav">  792.10  802.11</time>
   <time name="total">  796.94  807.07</time>
   <energy>
    <i name="e_fr_energy">   -520.32611071 </i>
    <i name="e_wo_entrp">   -520.44722138 </i>
    <i name="e_0_energy">   -520.36648093 </i>
   </energy>
  </scstep>
  <scstep>
   <time name="dav">  887.42  897.62</time>
   <time name="total">  892.63  902.99</time>
   <energy>
    <i name="e_fr_energy">   -521.17431482 </i>
    <i name="e_wo_entrp">   -521.29402203 </i>
    <i name="e_0_energy">   -521.21421723 </i>
   </energy>
  </scstep>
  <scstep>
   <time name="dav">  839.15  849.95</time>
   <time name="total">  843.62  854.46</time>
   <energy>
    <i name="e_fr_energy">   -521.28839796 </i>
    <i name="e_wo_entrp">   -521.40981515 </i>
    <i name="e_0_energy">   -521.32887036 </i>
   </energy>
  </scstep>
  <scstep>
   <time name="dav">  867.18  878.23</time>
   <time name="total">  871.60  882.69</time>
   <energy>
    <i name="e_fr_energy">   -521.31951891 </i>
    <i name="e_wo_entrp">   -521.44169276 </i>
    <i name="e_0_energy">   -521.36024353 </i>
   </energy>
  </scstep>
  <scstep>
   <time name="dav">  841.44  852.75</time>
   <time name="total">  845.76  857.12</time>
   <energy>
    <i name="e_fr_energy">   -521.33691035 </i>
    <i name="e_wo_entrp">   -521.45818559 </i>
    <i name="e_0_energy">   -521.37733543 </i>
   </energy>
  </scstep>
  <scstep>
   <time name="dav">  574.14  582.28</time>
   <time name="total">  578.54  586.72</time>
   <energy>
    <i name="e_fr_energy">   -521.33846332 </i>
    <i name="e_wo_entrp">   -521.45948212 </i>
    <i name="e_0_energy">   -521.37880292 </i>
   </energy>
  </scstep>
  <scstep>
   <time name="dav">  564.53  572.36</time>
   <time name="total">  569.83  577.71</time>
   <energy>
    <i name="e_fr_energy">   -521.33902126 </i>
    <i name="e_wo_entrp">   -521.46021867 </i>
    <i name="e_0_energy">   -521.37942040 </i>
   </energy>
  </scstep>
  <scstep>
   <time name="dav">  546.00  552.48</time>
   <time name="total">  546.33  552.82</time>
   <energy>
    <i name="alphaZ">   4623.72760507 </i>
    <i name="ewald"> 916214.40999083 </i>
    <i name="hartreedc">**************** </i>
    <i name="XCdc">   6429.53559301 </i>
    <i name="pawpsdc"> 189004.06283612 </i>
    <i name="pawaedc">-204523.84804063 </i>
    <i name="eentropy">      0.12122398 </i>
    <i name="bandstr">  -1765.48124506 </i>
    <i name="atom"> 200322.85745410 </i>
    <i name="e_fr_energy">   -521.33902576 </i>
    <i name="e_wo_entrp">   -521.46024973 </i>
    <i name="e_0_energy">   -521.37943375 </i>
   </energy>
  </scstep>
  <structure>
   <crystal>
    <varray name="basis" >
     <v>      10.89000034       0.00000000       0.00000000 </v>
     <v>       0.00000000      10.89000034       0.00000000 </v>
     <v>       0.00000000       0.00000000      27.70499992 </v>
    </varray>
    <i name="volume">   3285.59432860 </i>
    <varray name="rec_basis" >
     <v>       0.09182736       0.00000000       0.00000000 </v>
     <v>       0.00000000       0.09182736       0.00000000 </v>
     <v>       0.00000000       0.00000000       0.03609457 </v>
    </varray>
   </crystal>
   <varray name="positions" >
    <v>       0.00000000       0.00000000       0.00000000 </v>
    <v>       0.00000000       0.33333333       0.00000000 </v>
    <v>       0.00000000       0.66666667       0.00000000 </v>
    <v>       0.33333333       0.00000000       0.00000000 </v>
    <v>       0.33333333       0.33333333       0.00000000 </v>
    <v>       0.33333333       0.66666667       0.00000000 </v>
    <v>       0.66666667       0.00000000       0.00000000 </v>
    <v>       0.66666667       0.33333333       0.00000000 </v>
    <v>       0.66666667       0.66666667       0.00000000 </v>
    <v>       0.16666667       0.16666667       0.00000000 </v>
    <v>       0.16666667       0.50000000       0.00000000 </v>
    <v>       0.16666667       0.83333333       0.00000000 </v>
    <v>       0.50000000       0.16666667       0.00000000 </v>
    <v>       0.50000000       0.50000000       0.00000000 </v>
    <v>       0.50000000       0.83333333       0.00000000 </v>
    <v>       0.83333333       0.16666667       0.00000000 </v>
    <v>       0.83333333       0.50000000       0.00000000 </v>
    <v>       0.83333333       0.83333333       0.00000000 </v>
    <v>       0.00000000       0.16666667       0.06551164 </v>
    <v>       0.00000000       0.50000000       0.06551164 </v>
    <v>       0.00000000       0.83333333       0.06551164 </v>
    <v>       0.33333333       0.16666667       0.06551164 </v>
    <v>       0.33333333       0.50000000       0.06551164 </v>
    <v>       0.33333333       0.83333333       0.06551164 </v>
    <v>       0.66666667       0.16666667       0.06551164 </v>
    <v>       0.66666667       0.50000000       0.06551164 </v>
    <v>       0.66666667       0.83333333       0.06551164 </v>
    <v>       0.16666667       0.00000000       0.06551164 </v>
    <v>       0.16666667       0.33333333       0.06551164 </v>
    <v>       0.16666667       0.66666667       0.06551164 </v>
    <v>       0.50000000       0.00000000       0.06551164 </v>
    <v>       0.50000000       0.33333333       0.06551164 </v>
    <v>       0.50000000       0.66666667       0.06551164 </v>
    <v>       0.83333333       0.00000000       0.06551164 </v>
    <v>       0.83333333       0.33333333       0.06551164 </v>
    <v>       0.83333333       0.66666667       0.06551164 </v>
    <v>       0.00000000       0.00000000       0.13119553 </v>
    <v>       0.00000000       0.33333333       0.13119553 </v>
    <v>       0.00000000       0.66666667       0.13119553 </v>
    <v>       0.33333333       0.00000000       0.13119553 </v>
    <v>       0.33333333       0.33333333       0.13119553 </v>
    <v>       0.33333333       0.66666667       0.13119553 </v>
    <v>       0.66666667       0.00000000       0.13119553 </v>
    <v>       0.66666667       0.33333333       0.13119553 </v>
    <v>       0.66666667       0.66666667       0.13119553 </v>
    <v>       0.16666667       0.16666667       0.13119553 </v>
    <v>       0.16666667       0.50000000       0.13119553 </v>
    <v>       0.16666667       0.83333333       0.13119553 </v>
    <v>       0.50000000       0.16666667       0.13119553 </v>
    <v>       0.50000000       0.50000000       0.13119553 </v>
    <v>       0.50000000       0.83333333       0.13119553 </v>
    <v>       0.83333333       0.16666667       0.13119553 </v>
    <v>       0.83333333       0.50000000       0.13119553 </v>
    <v>       0.83333333       0.83333333       0.13119553 </v>
    <v>       0.00000000       0.16666667       0.19620680 </v>
    <v>       0.00000000       0.50000000       0.19620680 </v>
    <v>       0.00000000       0.83333333       0.19620680 </v>
    <v>       0.33333333       0.16666667       0.19620680 </v>
    <v>       0.33333333       0.50000000       0.19620680 </v>
    <v>       0.33333333       0.83333333       0.19620680 </v>
    <v>       0.66666667       0.16666667       0.19620680 </v>
    <v>       0.66666667       0.50000000       0.19620680 </v>
    <v>       0.66666667       0.83333333       0.19620680 </v>
    <v>       0.16666667       0.00000000       0.19620680 </v>
    <v>       0.16666667       0.33333333       0.19620680 </v>
    <v>       0.16666667       0.66666667       0.19620680 </v>
    <v>       0.50000000       0.00000000       0.19620680 </v>
    <v>       0.50000000       0.33333333       0.19620680 </v>
    <v>       0.50000000       0.66666667       0.19620680 </v>
    <v>       0.83333333       0.00000000       0.19620680 </v>
    <v>       0.83333333       0.33333333       0.19620680 </v>
    <v>       0.83333333       0.66666667       0.19620680 </v>
    <v>       0.00000000       0.00000000       0.25873860 </v>
    <v>       0.00000000       0.33333333       0.25873860 </v>
    <v>       0.00000000       0.66666667       0.25873860 </v>
    <v>       0.33333333       0.00000000       0.25873860 </v>
    <v>       0.33333333       0.33333333       0.25873860 </v>
    <v>       0.33333333       0.66666667       0.25873860 </v>
    <v>       0.66666667       0.00000000       0.25873860 </v>
    <v>       0.66666667       0.33333333       0.25873860 </v>
    <v>       0.66666667       0.66666667       0.25873860 </v>
    <v>       0.16666667       0.16666667       0.25873860 </v>
    <v>       0.16666667       0.50000000       0.25873860 </v>
    <v>       0.16666667       0.83333333       0.25873860 </v>
    <v>       0.50000000       0.16666667       0.25873860 </v>
    <v>       0.50000000       0.50000000       0.25873860 </v>
    <v>       0.50000000       0.83333333       0.25873860 </v>
    <v>       0.83333333       0.16666667       0.25873860 </v>
    <v>       0.83333333       0.50000000       0.25873860 </v>
    <v>       0.83333333       0.83333333       0.25873860 </v>
    <v>       0.00000000       0.16666667       0.32119954 </v>
    <v>       0.00000000       0.50000000       0.32119954 </v>
    <v>       0.00000000       0.83333333       0.32119954 </v>
    <v>       0.33333333       0.16666667       0.32119954 </v>
    <v>       0.33333333       0.50000000       0.32119954 </v>
    <v>       0.33333333       0.83333333       0.32119954 </v>
    <v>       0.66666667       0.16666667       0.32119954 </v>
    <v>       0.66666667       0.50000000       0.32119954 </v>
    <v>       0.66666667       0.83333333       0.32119954 </v>
    <v>       0.16666667       0.00000000       0.32119954 </v>
    <v>       0.16666667       0.33333333       0.32119954 </v>
    <v>       0.16666667       0.66666667       0.32119954 </v>
    <v>       0.50000000       0.00000000       0.32119954 </v>
    <v>       0.50000000       0.33333333       0.32119954 </v>
    <v>       0.50000000       0.66666667       0.32119954 </v>
    <v>       0.83333333       0.00000000       0.32119954 </v>
    <v>       0.83333333       0.33333333       0.32119954 </v>
    <v>       0.83333333       0.66666667       0.32119954 </v>
    <v>       0.00000000       0.00000000       0.38476372 </v>
    <v>       0.00000000       0.33333333       0.38476372 </v>
    <v>       0.00000000       0.66666667       0.38476372 </v>
    <v>       0.33333333       0.00000000       0.38476372 </v>
    <v>       0.33333333       0.33333333       0.38476372 </v>
    <v>       0.33333333       0.66666667       0.38476372 </v>
    <v>       0.66666667       0.00000000       0.38476372 </v>
    <v>       0.66666667       0.33333333       0.38476372 </v>
    <v>       0.66666667       0.66666667       0.38476372 </v>
    <v>       0.16666667       0.16666667       0.38476372 </v>
    <v>       0.16666667       0.50000000       0.38476372 </v>
    <v>       0.16666667       0.83333333       0.38476372 </v>
    <v>       0.50000000       0.16666667       0.38476372 </v>
    <v>       0.50000000       0.50000000       0.38476372 </v>
    <v>       0.50000000       0.83333333       0.38476372 </v>
    <v>       0.83333333       0.16666667       0.38476372 </v>
    <v>       0.83333333       0.50000000       0.38476372 </v>
    <v>       0.83333333       0.83333333       0.38476372 </v>
    <v>       0.00000000       0.16666667       0.44736473 </v>
    <v>       0.00000000       0.50000000       0.44736473 </v>
    <v>       0.00000000       0.83333333       0.44736473 </v>
    <v>       0.33333333       0.16666667       0.44736473 </v>
    <v>       0.33333333       0.50000000       0.44736473 </v>
    <v>       0.33333333       0.83333333       0.44736473 </v>
    <v>       0.66666667       0.16666667       0.44736473 </v>
    <v>       0.66666667       0.50000000       0.44736473 </v>
    <v>       0.66666667       0.83333333       0.44736473 </v>
    <v>       0.16666667       0.00000000       0.44736473 </v>
    <v>       0.16666667       0.33333333       0.44736473 </v>
    <v>       0.16666667       0.66666667       0.44736473 </v>
    <v>       0.50000000       0.00000000       0.44736473 </v>
    <v>       0.50000000       0.33333333       0.44736473 </v>
    <v>       0.50000000       0.66666667       0.44736473 </v>
    <v>       0.83333333       0.00000000       0.44736473 </v>
    <v>       0.83333333       0.33333333       0.44736473 </v>
    <v>       0.83333333       0.66666667       0.44736473 </v>
    <v>       0.33333333       0.33333333       0.50150658 </v>
    <v>       0.33333333       0.40183655       0.50150658 </v>
   </varray>
  </structure>
  <varray name="forces" >
   <v>       0.00117893       0.00139256       0.31085306 </v>
   <v>       0.00047555      -0.00108965       0.31016607 </v>
   <v>       0.00365190      -0.00104924       0.31024409 </v>
   <v>       0.00000000       0.00178803       0.30879973 </v>
   <v>       0.00000000      -0.00095784       0.31223765 </v>
   <v>       0.00000000      -0.00196768       0.30968712 </v>
   <v>      -0.00117893       0.00139256       0.31085306 </v>
   <v>      -0.00047555      -0.00108965       0.31016607 </v>
   <v>      -0.00365190      -0.00104924       0.31024409 </v>
   <v>      -0.00193253      -0.00166945       0.31163951 </v>
   <v>      -0.00146001       0.00357260       0.31067303 </v>
   <v>       0.00018387      -0.00127743       0.30799411 </v>
   <v>       0.00193253      -0.00166945       0.31163951 </v>
   <v>       0.00146001       0.00357260       0.31067303 </v>
   <v>      -0.00018387      -0.00127743       0.30799411 </v>
   <v>       0.00000000       0.00115668       0.30881989 </v>
   <v>       0.00000000      -0.00146242       0.30923686 </v>
   <v>       0.00000000       0.00168122       0.31439220 </v>
   <v>       0.00525947       0.00023962      -0.08090620 </v>
   <v>       0.00318676      -0.00055172      -0.07989611 </v>
   <v>      -0.00117680      -0.00097799      -0.07524295 </v>
   <v>       0.00000000       0.00484271      -0.07656167 </v>
   <v>       0.00000000      -0.00074596      -0.07541385 </v>
   <v>       0.00000000       0.00353733      -0.08683603 </v>
   <v>      -0.00525947       0.00023962      -0.08090620 </v>
   <v>      -0.00318676      -0.00055172      -0.07989611 </v>
   <v>       0.00117680      -0.00097799      -0.07524295 </v>
   <v>       0.00099044       0.00264753      -0.08032200 </v>
   <v>       0.00372074      -0.00072635      -0.07349261 </v>
   <v>       0.00017506      -0.00514359      -0.08166342 </v>
   <v>      -0.00099044       0.00264753      -0.08032200 </v>
   <v>      -0.00372074      -0.00072635      -0.07349261 </v>
   <v>      -0.00017506      -0.00514359      -0.08166342 </v>
   <v>       0.00000000      -0.00208018      -0.07439828 </v>
   <v>       0.00000000       0.00223405      -0.08630572 </v>
   <v>       0.00000000       0.00127215      -0.07502108 </v>
   <v>      -0.00128727       0.00243407      -0.00486840 </v>
   <v>       0.00163914      -0.00373177      -0.00744496 </v>
   <v>       0.00298368      -0.00115382      -0.00549101 </v>
   <v>       0.00000000       0.00361641      -0.00244427 </v>
   <v>       0.00000000      -0.00526117      -0.00927274 </v>
   <v>       0.00000000      -0.00489378      -0.01172884 </v>
   <v>       0.00128727       0.00243407      -0.00486840 </v>
   <v>      -0.00163914      -0.00373177      -0.00744496 </v>
   <v>      -0.00298368      -0.00115382      -0.00549101 </v>
   <v>      -0.00319630       0.00211630      -0.00917914 </v>
   <v>      -0.00090844       0.00677689      -0.00930088 </v>
   <v>       0.00104789      -0.00316013       0.00576164 </v>
   <v>       0.00319630       0.00211630      -0.00917914 </v>
   <v>       0.00090844       0.00677689      -0.00930088 </v>
   <v>      -0.00104789      -0.00316013       0.00576164 </v>
   <v>       0.00000000       0.00018029       0.00318203 </v>
   <v>       0.00000000      -0.00179649       0.00800001 </v>
   <v>       0.00000000       0.00136002      -0.00587299 </v>
   <v>       0.00734987       0.00020416      -0.26126941 </v>
   <v>       0.00638995       0.00039780      -0.25949764 </v>
   <v>      -0.00300313      -0.00059617      -0.27086441 </v>
   <v>       0.00000000       0.00338601      -0.25845082 </v>
   <v>       0.00000000      -0.00341801      -0.27102247 </v>
   <v>       0.00000000      -0.00037446      -0.27510346 </v>
   <v>      -0.00734987       0.00020416      -0.26126941 </v>
   <v>      -0.00638995       0.00039780      -0.25949764 </v>
   <v>       0.00300313      -0.00059617      -0.27086441 </v>
   <v>      -0.00006274       0.00548693      -0.26381414 </v>
   <v>       0.00227385      -0.00021025      -0.26448263 </v>
   <v>      -0.00070112      -0.00486783      -0.25226369 </v>
   <v>       0.00006274       0.00548693      -0.26381414 </v>
   <v>      -0.00227385      -0.00021025      -0.26448263 </v>
   <v>       0.00070112      -0.00486783      -0.25226369 </v>
   <v>       0.00000000      -0.00414872      -0.26842522 </v>
   <v>       0.00000000       0.00051144      -0.27237681 </v>
   <v>       0.00000000       0.00338877      -0.27198203 </v>
   <v>       0.00239324       0.00244355      -0.03106054 </v>
   <v>      -0.01305034      -0.00102824      -0.04351491 </v>
   <v>       0.00098440      -0.00142267      -0.03374238 </v>
   <v>       0.00000000      -0.01748384      -0.04993585 </v>
   <v>       0.00000000       0.00184031      -0.00218917 </v>
   <v>       0.00000000       0.00547329      -0.04485209 </v>
   <v>      -0.00239324       0.00244355      -0.03106054 </v>
   <v>       0.01305034      -0.00102824      -0.04351491 </v>
   <v>      -0.00098440      -0.00142267      -0.03374238 </v>
   <v>      -0.00088053      -0.00121425      -0.02275630 </v>
   <v>       0.00169153       0.00144407      -0.00823250 </v>
   <v>       0.00328408       0.00569538      -0.03019633 </v>
   <v>       0.00088053      -0.00121425      -0.02275630 </v>
   <v>      -0.00169153       0.00144407      -0.00823250 </v>
   <v>      -0.00328408       0.00569538      -0.03019633 </v>
   <v>       0.00000000       0.00204213      -0.03017467 </v>
   <v>       0.00000000      -0.00244611      -0.03751128 </v>
   <v>       0.00000000      -0.00097304      -0.02860756 </v>
   <v>       0.00014296      -0.00442576       0.05341122 </v>
   <v>       0.00094616       0.00556434       0.05011569 </v>
   <v>      -0.00219877      -0.00365250       0.04676769 </v>
[...]
    <i name="eentropy">      0.11927174 </i>
    <i name="bandstr">  -1808.71812749 </i>
    <i name="atom"> 200322.85745410 </i>
    <i name="e_fr_energy">   -521.66976491 </i>
    <i name="e_wo_entrp">   -521.78903665 </i>
    <i name="e_0_energy">   -521.70952215 </i>
   </energy>
  </scstep>
  <structure>
   <crystal>
    <varray name="basis" >
     <v>      10.89000034       0.00000000       0.00000000 </v>
     <v>       0.00000000      10.89000034       0.00000000 </v>
     <v>       0.00000000       0.00000000      27.70499992 </v>
    </varray>
    <i name="volume">   3285.59432860 </i>
    <varray name="rec_basis" >
     <v>       0.09182736       0.00000000       0.00000000 </v>
     <v>       0.00000000       0.09182736       0.00000000 </v>
     <v>       0.00000000       0.00000000       0.03609457 </v>
    </varray>
   </crystal>
   <varray name="positions" >
    <v>       0.00000000       0.00000000       0.00000000 </v>
    <v>       0.00000000       0.33333333       0.00000000 </v>
    <v>       0.00000000       0.66666667       0.00000000 </v>
    <v>       0.33333333       0.00000000       0.00000000 </v>
    <v>       0.33333333       0.33333333       0.00000000 </v>
    <v>       0.33333333       0.66666667       0.00000000 </v>
    <v>       0.66666667       0.00000000       0.00000000 </v>
    <v>       0.66666667       0.33333333       0.00000000 </v>
    <v>       0.66666667       0.66666667       0.00000000 </v>
    <v>       0.16666667       0.16666667       0.00000000 </v>
    <v>       0.16666667       0.50000000       0.00000000 </v>
    <v>       0.16666667       0.83333333       0.00000000 </v>
    <v>       0.50000000       0.16666667       0.00000000 </v>
    <v>       0.50000000       0.50000000       0.00000000 </v>
    <v>       0.50000000       0.83333333       0.00000000 </v>
    <v>       0.83333333       0.16666667       0.00000000 </v>
    <v>       0.83333333       0.50000000       0.00000000 </v>
    <v>       0.83333333       0.83333333       0.00000000 </v>
    <v>       0.00000000       0.16666667       0.06551164 </v>
    <v>       0.00000000       0.50000000       0.06551164 </v>
    <v>       0.00000000       0.83333333       0.06551164 </v>
    <v>       0.33333333       0.16666667       0.06551164 </v>
    <v>       0.33333333       0.50000000       0.06551164 </v>
    <v>       0.33333333       0.83333333       0.06551164 </v>
    <v>       0.66666667       0.16666667       0.06551164 </v>
    <v>       0.66666667       0.50000000       0.06551164 </v>
    <v>       0.66666667       0.83333333       0.06551164 </v>
    <v>       0.16666667       0.00000000       0.06551164 </v>
    <v>       0.16666667       0.33333333       0.06551164 </v>
    <v>       0.16666667       0.66666667       0.06551164 </v>
    <v>       0.50000000       0.00000000       0.06551164 </v>
    <v>       0.50000000       0.33333333       0.06551164 </v>
    <v>       0.50000000       0.66666667       0.06551164 </v>
    <v>       0.83333333       0.00000000       0.06551164 </v>
    <v>       0.83333333       0.33333333       0.06551164 </v>
    <v>       0.83333333       0.66666667       0.06551164 </v>
    <v>       0.00000000       0.00000000       0.13119553 </v>
    <v>       0.00000000       0.33333333       0.13119553 </v>
    <v>       0.00000000       0.66666667       0.13119553 </v>
    <v>       0.33333333       0.00000000       0.13119553 </v>
    <v>       0.33333333       0.33333333       0.13119553 </v>
    <v>       0.33333333       0.66666667       0.13119553 </v>
    <v>       0.66666667       0.00000000       0.13119553 </v>
    <v>       0.66666667       0.33333333       0.13119553 </v>
    <v>       0.66666667       0.66666667       0.13119553 </v>
    <v>       0.16666667       0.16666667       0.13119553 </v>
    <v>       0.16666667       0.50000000       0.13119553 </v>
    <v>       0.16666667       0.83333333       0.13119553 </v>
    <v>       0.50000000       0.16666667       0.13119553 </v>
    <v>       0.50000000       0.50000000       0.13119553 </v>
    <v>       0.50000000       0.83333333       0.13119553 </v>
    <v>       0.83333333       0.16666667       0.13119553 </v>
    <v>       0.83333333       0.50000000       0.13119553 </v>
    <v>       0.83333333       0.83333333       0.13119553 </v>
    <v>      -0.00002525       0.16651937       0.19400691 </v>
    <v>      -0.00002752       0.49995447       0.19401922 </v>
    <v>      -0.00006880       0.83322212       0.19399252 </v>
    <v>       0.33333333       0.16651510       0.19413169 </v>
    <v>       0.33333333       0.49992672       0.19408081 </v>
    <v>       0.33333333       0.83319185       0.19394323 </v>
    <v>       0.66669192       0.16651937       0.19400691 </v>
    <v>       0.66669419       0.49995447       0.19401922 </v>
    <v>       0.66673547       0.83322212       0.19399252 </v>
    <v>       0.16665617      -0.00020719       0.19399463 </v>
    <v>       0.16666018       0.33321034       0.19411094 </v>
    <v>       0.16665553       0.66657662       0.19401232 </v>
    <v>       0.50001050      -0.00020719       0.19399463 </v>
    <v>       0.50000649       0.33321034       0.19411094 </v>
    <v>       0.50001114       0.66657662       0.19401232 </v>
    <v>       0.83333333      -0.00024667       0.19400181 </v>
    <v>       0.83333333       0.33325128       0.19394357 </v>
    <v>       0.83333333       0.66664021       0.19398337 </v>
    <v>      -0.00010456      -0.00044276       0.25673910 </v>
    <v>      -0.00016356       0.33315649       0.25669937 </v>
    <v>      -0.00012726       0.66664181       0.25675016 </v>
    <v>       0.33333333      -0.00046989       0.25673188 </v>
    <v>       0.33333333       0.33316153       0.25675421 </v>
    <v>       0.33333333       0.66660930       0.25674371 </v>
    <v>       0.66677123      -0.00044276       0.25673910 </v>
    <v>       0.66683023       0.33315649       0.25669937 </v>
    <v>       0.66679393       0.66664181       0.25675016 </v>
    <v>       0.16644805       0.16615985       0.25673075 </v>
    <v>       0.16650263       0.50003739       0.25675912 </v>
    <v>       0.16654981       0.83305713       0.25674128 </v>
    <v>       0.50021862       0.16615985       0.25673075 </v>
    <v>       0.50016403       0.50003739       0.25675912 </v>
    <v>       0.50011686       0.83305713       0.25674128 </v>
    <v>       0.83333333       0.16628496       0.25671365 </v>
    <v>       0.83333333       0.50007489       0.25673778 </v>
    <v>       0.83333333       0.83310339       0.25673769 </v>
    <v>      -0.00021430       0.16614844       0.31946808 </v>
    <v>      -0.00016392       0.49989750       0.31953354 </v>
    <v>      -0.00019021       0.83295871       0.31970582 </v>
    <v>       0.33333333       0.16599324       0.31929928 </v>
    <v>       0.33333333       0.50005716       0.31935938 </v>
    <v>       0.33333333       0.83287824       0.31962986 </v>
    <v>       0.66688096       0.16614844       0.31946808 </v>
    <v>       0.66683059       0.49989750       0.31953354 </v>
    <v>       0.66685687       0.83295871       0.31970582 </v>
    <v>       0.16651714      -0.00059302       0.31954336 </v>
    <v>       0.16631652       0.33305254       0.31928680 </v>
    <v>       0.16658867       0.66661385       0.31957550 </v>
    <v>       0.50014953      -0.00059302       0.31954336 </v>
    <v>       0.50035014       0.33305254       0.31928680 </v>
    <v>       0.50007800       0.66661385       0.31957550 </v>
    <v>       0.83333333      -0.00068518       0.31963395 </v>
    <v>       0.83333333       0.33309356       0.31949814 </v>
    <v>       0.83333333       0.66671547       0.31970424 </v>
    <v>      -0.00010415      -0.00050355       0.38316168 </v>
    <v>      -0.00033436       0.33296361       0.38277932 </v>
    <v>      -0.00003504       0.66642139       0.38325391 </v>
    <v>       0.33333333      -0.00064828       0.38285916 </v>
    <v>       0.33333333       0.33293083       0.38238899 </v>
    <v>       0.33333333       0.66641371       0.38307468 </v>
    <v>       0.66677081      -0.00050355       0.38316168 </v>
    <v>       0.66700102       0.33296361       0.38277932 </v>
    <v>       0.66670171       0.66642139       0.38325391 </v>
    <v>       0.16645588       0.16608352       0.38267924 </v>
    <v>       0.16651777       0.49983877       0.38278918 </v>
    <v>       0.16661149       0.83297031       0.38316788 </v>
    <v>       0.50021079       0.16608352       0.38267924 </v>
    <v>       0.50014890       0.49983877       0.38278918 </v>
    <v>       0.50005518       0.83297031       0.38316788 </v>
    <v>       0.83333333       0.16613260       0.38297291 </v>
    <v>       0.83333333       0.49981406       0.38302553 </v>
    <v>       0.83333333       0.83292222       0.38339978 </v>
    <v>       0.00011792       0.16644386       0.44557851 </v>
    <v>       0.00021904       0.49922301       0.44561069 </v>
    <v>       0.00016896       0.83301641       0.44602323 </v>
    <v>       0.33333333       0.16623813       0.44497565 </v>
    <v>       0.33333333       0.49964244       0.44504145 </v>
    <v>       0.33333333       0.83300154       0.44583494 </v>
    <v>       0.66654875       0.16644386       0.44557851 </v>
    <v>       0.66644762       0.49922301       0.44561069 </v>
    <v>       0.66649771       0.83301641       0.44602323 </v>
    <v>       0.16692371       0.00009640       0.44565743 </v>
    <v>       0.16614304       0.33251013       0.44484020 </v>
    <v>       0.16691624       0.66595730       0.44574046 </v>
    <v>       0.49974296       0.00009640       0.44565743 </v>
    <v>       0.50052363       0.33251013       0.44484020 </v>
    <v>       0.49975042       0.66595730       0.44574046 </v>
    <v>       0.83333333      -0.00031790       0.44592969 </v>
    <v>       0.83333333       0.33296394       0.44562032 </v>
    <v>       0.83333333       0.66614885       0.44597147 </v>
    <v>       0.33333333       0.36909374       0.52240633 </v>
    <v>       0.33333333       0.40489338       0.54556957 </v>
   </varray>
  </structure>
  <varray name="forces" >
   <v>      -0.00112580      -0.00083785       0.31164183 </v>
   <v>       0.00149829      -0.00135414       0.31232355 </v>
   <v>       0.00099367      -0.00066648       0.31214340 </v>
   <v>       0.00000000       0.00028355       0.31250387 </v>
   <v>       0.00000000      -0.00163881       0.31068604 </v>
   <v>       0.00000000      -0.00173757       0.31236326 </v>
   <v>       0.00112580      -0.00083785       0.31164183 </v>
   <v>      -0.00149829      -0.00135414       0.31232355 </v>
   <v>      -0.00099367      -0.00066648       0.31214340 </v>
   <v>      -0.00032911      -0.00019616       0.31217277 </v>
   <v>      -0.00035256      -0.00039747       0.31158391 </v>
   <v>      -0.00089318      -0.00192193       0.31232668 </v>
   <v>       0.00032911      -0.00019616       0.31217277 </v>
   <v>       0.00035256      -0.00039747       0.31158391 </v>
   <v>       0.00089318      -0.00192193       0.31232668 </v>
   <v>       0.00000000      -0.00227224       0.31202563 </v>
   <v>       0.00000000      -0.00052699       0.31251457 </v>
   <v>       0.00000000       0.00039862       0.31136342 </v>
   <v>       0.00109533      -0.00142468      -0.08775109 </v>
   <v>       0.00055956      -0.00040651      -0.08757777 </v>
   <v>      -0.00070347      -0.00126831      -0.08603867 </v>
   <v>       0.00000000       0.00005685      -0.08704726 </v>
   <v>       0.00000000      -0.00072358      -0.08572353 </v>
   <v>       0.00000000      -0.00001252      -0.08804124 </v>
   <v>      -0.00109533      -0.00142468      -0.08775109 </v>
   <v>      -0.00055956      -0.00040651      -0.08757777 </v>
   <v>       0.00070347      -0.00126831      -0.08603867 </v>
   <v>      -0.00039235      -0.00042601      -0.08716772 </v>
   <v>       0.00047414      -0.00136981      -0.08684654 </v>
   <v>      -0.00053791      -0.00198578      -0.08857690 </v>
   <v>       0.00039235      -0.00042601      -0.08716772 </v>
   <v>      -0.00047414      -0.00136981      -0.08684654 </v>
   <v>       0.00053791      -0.00198578      -0.08857690 </v>
   <v>       0.00000000      -0.00159089      -0.08581328 </v>
   <v>       0.00000000      -0.00071876      -0.08791485 </v>
   <v>       0.00000000      -0.00016374      -0.08608011 </v>
   <v>      -0.00057522      -0.00265024      -0.24870963 </v>
   <v>       0.00718924      -0.00399302      -0.24335871 </v>
   <v>       0.00247102      -0.00388637      -0.24880864 </v>
   <v>       0.00000000       0.00335701      -0.24298845 </v>
   <v>       0.00000000      -0.00718904      -0.23487996 </v>
   <v>       0.00000000      -0.00925388      -0.24777553 </v>
   <v>       0.00057522      -0.00265024      -0.24870963 </v>
   <v>      -0.00718924      -0.00399302      -0.24335871 </v>
   <v>      -0.00247102      -0.00388637      -0.24880864 </v>
   <v>       0.00280412       0.00013538      -0.23950876 </v>
   <v>       0.00100090      -0.00508986      -0.24112980 </v>
   <v>      -0.00247939      -0.00645299      -0.24804343 </v>
   <v>      -0.00280412       0.00013538      -0.23950876 </v>
   <v>      -0.00100090      -0.00508986      -0.24112980 </v>
   <v>       0.00247939      -0.00645299      -0.24804343 </v>
   <v>       0.00000000      -0.00683697      -0.24601883 </v>
   <v>       0.00000000      -0.00167322      -0.24506372 </v>
   <v>       0.00000000      -0.00297398      -0.25449979 </v>
   <v>       0.00151927      -0.00104945      -0.00615312 </v>
   <v>       0.00153202      -0.00048118      -0.00682839 </v>
   <v>       0.00656675      -0.00266083      -0.00982850 </v>
   <v>       0.00000000       0.00103396      -0.01782792 </v>
   <v>       0.00000000      -0.00379923      -0.01299174 </v>
   <v>       0.00000000       0.00079091      -0.00010670 </v>
   <v>      -0.00151927      -0.00104945      -0.00615312 </v>
   <v>      -0.00153202      -0.00048118      -0.00682839 </v>
   <v>      -0.00656675      -0.00266083      -0.00982850 </v>
   <v>      -0.00021584       0.00427828      -0.00667840 </v>
   <v>       0.00181839       0.00190112      -0.01583489 </v>
   <v>      -0.00187408      -0.00049089      -0.00464832 </v>
   <v>       0.00021584       0.00427828      -0.00667840 </v>
   <v>      -0.00181839       0.00190112      -0.01583489 </v>
   <v>       0.00187408      -0.00049089      -0.00464832 </v>
   <v>       0.00000000       0.00953854      -0.01076212 </v>
   <v>       0.00000000       0.00068857       0.00006180 </v>
   <v>       0.00000000      -0.00532956      -0.00885208 </v>
   <v>       0.00136235       0.00482855       0.01242032 </v>
   <v>      -0.00636389       0.00134474       0.00737603 </v>
   <v>       0.00349605      -0.00215861       0.01345661 </v>
   <v>       0.00000000      -0.00850160       0.00871163 </v>
   <v>       0.00000000      -0.00044983       0.02295407 </v>
   <v>       0.00000000       0.00686485       0.00310811 </v>
   <v>      -0.00136235       0.00482855       0.01242032 </v>
   <v>       0.00636389       0.00134474       0.00737603 </v>
   <v>      -0.00349605      -0.00215861       0.01345661 </v>
   <v>       0.00566669       0.00857628       0.00767816 </v>
   <v>       0.00250065      -0.00233183       0.00908645 </v>
   <v>       0.00484445       0.00355917       0.01208706 </v>
   <v>      -0.00566669       0.00857628       0.00767816 </v>
   <v>      -0.00250065      -0.00233183       0.00908645 </v>
   <v>      -0.00484445       0.00355917       0.01208706 </v>
   <v>       0.00000000       0.00420535       0.01080641 </v>
   <v>       0.00000000      -0.00796993       0.01225481 </v>
   <v>       0.00000000      -0.00204348       0.01937979 </v>
   <v>      -0.00275036      -0.00339401      -0.00718881 </v>
   <v>      -0.00021440       0.01277623      -0.00918765 </v>
   <v>       0.00668805       0.00168959      -0.01294395 </v>
   <v>       0.00000000       0.00796521      -0.00301377 </v>
   <v>       0.00000000      -0.00348045      -0.00931488 </v>
   <v>       0.00000000      -0.00104013      -0.01701587 </v>
   <v>       0.00275036      -0.00339401      -0.00718881 </v>
   <v>       0.00021440       0.01277623      -0.00918765 </v>
   <v>      -0.00668805       0.00168959      -0.01294395 </v>
   <v>      -0.00419452      -0.00242974      -0.01149936 </v>
   <v>       0.00769451      -0.00020769      -0.00345919 </v>
   <v>      -0.00755213       0.00060783      -0.00625044 </v>
   <v>       0.00419452      -0.00242974      -0.01149936 </v>
   <v>      -0.00769451      -0.00020769      -0.00345919 </v>
   <v>       0.00755213       0.00060783      -0.00625044 </v>
   <v>       0.00000000       0.01076200      -0.00966448 </v>
   <v>       0.00000000      -0.00005520      -0.02090029 </v>
   <v>       0.00000000      -0.00943042      -0.01321585 </v>
   <v>      -0.00054092      -0.00187538       0.01812416 </v>
   <v>      -0.00923670       0.00049959       0.01928730 </v>
   <v>      -0.00093444       0.00305426       0.01425221 </v>
   <v>       0.00000000      -0.00673175       0.02309568 </v>
   <v>       0.00000000       0.00460341       0.02550655 </v>
   <v>       0.00000000       0.01054218       0.01282441 </v>
   <v>       0.00054092      -0.00187538       0.01812416 </v>
   <v>       0.00923670       0.00049959       0.01928730 </v>
   <v>       0.00093444       0.00305426       0.01425221 </v>
   <v>       0.00173292      -0.00116102       0.01701538 </v>
   <v>       0.00267074      -0.00678748       0.01918771 </v>
   <v>      -0.00248665       0.00248829       0.02587306 </v>
   <v>      -0.00173292      -0.00116102       0.01701538 </v>
   <v>      -0.00267074      -0.00678748       0.01918771 </v>
   <v>       0.00248665       0.00248829       0.02587306 </v>
   <v>       0.00000000       0.00037655       0.03030961 </v>
   <v>       0.00000000       0.00509009       0.02829241 </v>
   <v>       0.00000000       0.00310599       0.01586031 </v>
   <v>      -0.00875102      -0.00295407       0.00554763 </v>
   <v>      -0.00617236       0.01136746       0.00159259 </v>
   <v>       0.00704439      -0.00088142      -0.00852991 </v>
   <v>       0.00000000       0.01161736       0.00713340 </v>
   <v>       0.00000000      -0.00698218       0.00463309 </v>
   <v>       0.00000000       0.00383036      -0.00527841 </v>
   <v>       0.00875102      -0.00295407       0.00554763 </v>
   <v>       0.00617236       0.01136746       0.00159259 </v>
   <v>      -0.00704439      -0.00088142      -0.00852991 </v>
   <v>      -0.00519585      -0.01087052       0.00297721 </v>
   <v>       0.00929442       0.00176575       0.00623406 </v>
   <v>      -0.00961814       0.01182260       0.00179967 </v>
   <v>       0.00519585      -0.01087052       0.00297721 </v>
   <v>      -0.00929442       0.00176575       0.00623406 </v>
   <v>       0.00961814       0.01182260       0.00179967 </v>
   <v>       0.00000000       0.00995493      -0.00346978 </v>
   <v>       0.00000000      -0.00033238       0.00149012 </v>
   <v>       0.00000000      -0.00563287      -0.00395741 </v>
   <v>       0.00000000      -0.14149342      -0.21544548 </v>
   <v>       0.00000000       0.15225157       0.31850601 </v>
  </varray>
  <varray name="stress" >
   <v>     -34.25686800       0.00000000       0.00000000 </v>
   <v>       0.00000000     -34.24831626       0.21623579 </v>
   <v>       0.00000000       0.21623588     -11.65571394 </v>
  </varray>
  <energy>
   <i name="e_fr_energy">   -582.22136463 </i>
   <i name="e_wo_entrp">   -582.34063637 </i>
   <i name="e_0_energy">   -582.26112188 </i>
  </energy>
  <time name="totalsc"> 3980.85 4030.70</time>
 </calculation>
 <calculation>
  <scstep>
