unknown system                          
           1
    10.890000    0.000000    0.000000
     0.000000   10.890000    0.000000
     0.000000    0.000000   27.705000
   Cu   H 
   144     2
Direct configuration=     1
   0.00000000  0.00000000  0.00000000
   0.00000000  0.33333333  0.00000000
   0.00000000  0.66666667  0.00000000
   0.33333333  0.00000000  0.00000000
   0.33333333  0.33333333  0.00000000
   0.33333333  0.66666667  0.00000000
   0.66666667  0.00000000  0.00000000
   0.66666667  0.33333333  0.00000000
   0.66666667  0.66666667  0.00000000
   0.16666667  0.16666667  0.00000000
   0.16666667  0.50000000  0.00000000
   0.16666667  0.83333333  0.00000000
   0.50000000  0.16666667  0.00000000
   0.50000000  0.50000000  0.00000000
   0.50000000  0.83333333  0.00000000
   0.83333333  0.16666667  0.00000000
   0.83333333  0.50000000  0.00000000
   0.83333333  0.83333333  0.00000000
   0.00000000  0.16666667  0.06551164
   0.00000000  0.50000000  0.06551164
   0.00000000  0.83333333  0.06551164
   0.33333333  0.16666667  0.06551164
   0.33333333  0.50000000  0.06551164
   0.33333333  0.83333333  0.06551164
   0.66666667  0.16666667  0.06551164
   0.66666667  0.50000000  0.06551164
   0.66666667  0.83333333  0.06551164
   0.16666667  0.00000000  0.06551164
   0.16666667  0.33333333  0.06551164
   0.16666667  0.66666667  0.06551164
   0.50000000  0.00000000  0.06551164
   0.50000000  0.33333333  0.06551164
   0.50000000  0.66666667  0.06551164
   0.83333333  0.00000000  0.06551164
   0.83333333  0.33333333  0.06551164
   0.83333333  0.66666667  0.06551164
   0.00000000  0.00000000  0.13119553
   0.00000000  0.33333333  0.13119553
   0.00000000  0.66666667  0.13119553
   0.33333333  0.00000000  0.13119553
   0.33333333  0.33333333  0.13119553
   0.33333333  0.66666667  0.13119553
   0.66666667  0.00000000  0.13119553
   0.66666667  0.33333333  0.13119553
   0.66666667  0.66666667  0.13119553
   0.16666667  0.16666667  0.13119553
   0.16666667  0.50000000  0.13119553
   0.16666667  0.83333333  0.13119553
   0.50000000  0.16666667  0.13119553
   0.50000000  0.50000000  0.13119553
   0.50000000  0.83333333  0.13119553
   0.83333333  0.16666667  0.13119553
   0.83333333  0.50000000  0.13119553
   0.83333333  0.83333333  0.13119553
   0.00000000  0.16666667  0.19620680
   0.00000000  0.50000000  0.19620680
   0.00000000  0.83333333  0.19620680
   0.33333333  0.16666667  0.19620680
   0.33333333  0.50000000  0.19620680
   0.33333333  0.83333333  0.19620680
   0.66666667  0.16666667  0.19620680
   0.66666667  0.50000000  0.19620680
   0.66666667  0.83333333  0.19620680
   0.16666667  0.00000000  0.19620680
   0.16666667  0.33333333  0.19620680
   0.16666667  0.66666667  0.19620680
   0.50000000  0.00000000  0.19620680
   0.50000000  0.33333333  0.19620680
   0.50000000  0.66666667  0.19620680
   0.83333333  0.00000000  0.19620680
   0.83333333  0.33333333  0.19620680
   0.83333333  0.66666667  0.19620680
   0.00000000  0.00000000  0.25873860
   0.00000000  0.33333333  0.25873860
   0.00000000  0.66666667  0.25873860
   0.33333333  0.00000000  0.25873860
   0.33333333  0.33333333  0.25873860
   0.33333333  0.66666667  0.25873860
   0.66666667  0.00000000  0.25873860
   0.66666667  0.33333333  0.25873860
   0.66666667  0.66666667  0.25873860
   0.16666667  0.16666667  0.25873860
   0.16666667  0.50000000  0.25873860
   0.16666667  0.83333333  0.25873860
   0.50000000  0.16666667  0.25873860
   0.50000000  0.50000000  0.25873860
   0.50000000  0.83333333  0.25873860
   0.83333333  0.16666667  0.25873860
   0.83333333  0.50000000  0.25873860
   0.83333333  0.83333333  0.25873860
   0.00000000  0.16666667  0.32119954
   0.00000000  0.50000000  0.32119954
   0.00000000  0.83333333  0.32119954
   0.33333333  0.16666667  0.32119954
   0.33333333  0.50000000  0.32119954
   0.33333333  0.83333333  0.32119954
   0.66666667  0.16666667  0.32119954
   0.66666667  0.50000000  0.32119954
   0.66666667  0.83333333  0.32119954
   0.16666667  0.00000000  0.32119954
   0.16666667  0.33333333  0.32119954
   0.16666667  0.66666667  0.32119954
   0.50000000  0.00000000  0.32119954
   0.50000000  0.33333333  0.32119954
   0.50000000  0.66666667  0.32119954
   0.83333333  0.00000000  0.32119954
   0.83333333  0.33333333  0.32119954
   0.83333333  0.66666667  0.32119954
   0.00000000  0.00000000  0.38476372
   0.00000000  0.33333333  0.38476372
   0.00000000  0.66666667  0.38476372
   0.33333333  0.00000000  0.38476372
   0.33333333  0.33333333  0.38476372
   0.33333333  0.66666667  0.38476372
   0.66666667  0.00000000  0.38476372
   0.66666667  0.33333333  0.38476372
   0.66666667  0.66666667  0.38476372
   0.16666667  0.16666667  0.38476372
   0.16666667  0.50000000  0.38476372
   0.16666667  0.83333333  0.38476372
   0.50000000  0.16666667  0.38476372
   0.50000000  0.50000000  0.38476372
   0.50000000  0.83333333  0.38476372
   0.83333333  0.16666667  0.38476372
   0.83333333  0.50000000  0.38476372
   0.83333333  0.83333333  0.38476372
   0.00000000  0.16666667  0.44736473
   0.00000000  0.50000000  0.44736473
   0.00000000  0.83333333  0.44736473
   0.33333333  0.16666667  0.44736473
   0.33333333  0.50000000  0.44736473
   0.33333333  0.83333333  0.44736473
   0.66666667  0.16666667  0.44736473
   0.66666667  0.50000000  0.44736473
   0.66666667  0.83333333  0.44736473
   0.16666667  0.00000000  0.44736473
   0.16666667  0.33333333  0.44736473
   0.16666667  0.66666667  0.44736473
   0.50000000  0.00000000  0.44736473
   0.50000000  0.33333333  0.44736473
   0.50000000  0.66666667  0.44736473
   0.83333333  0.00000000  0.44736473
   0.83333333  0.33333333  0.44736473
   0.83333333  0.66666667  0.44736473
   0.33333333  0.33333333  0.50150658
   0.33333333  0.40183655  0.50150658
Direct configuration=     2
   0.00000000  0.00000000  0.00000000
   0.00000000  0.33333333  0.00000000
   0.00000000  0.66666667  0.00000000
   0.33333333  0.00000000  0.00000000
   0.33333333  0.33333333  0.00000000
   0.33333333  0.66666667  0.00000000
   0.66666667  0.00000000  0.00000000
   0.66666667  0.33333333  0.00000000
   0.66666667  0.66666667  0.00000000
   0.16666667  0.16666667  0.00000000
   0.16666667  0.50000000  0.00000000
   0.16666667  0.83333333  0.00000000
   0.50000000  0.16666667  0.00000000
   0.50000000  0.50000000  0.00000000
   0.50000000  0.83333333  0.00000000
   0.83333333  0.16666667  0.00000000
   0.83333333  0.50000000  0.00000000
   0.83333333  0.83333333  0.00000000
   0.00000000  0.16666667  0.06551164
   0.00000000  0.50000000  0.06551164
   0.00000000  0.83333333  0.06551164
   0.33333333  0.16666667  0.06551164
   0.33333333  0.50000000  0.06551164
   0.33333333  0.83333333  0.06551164
   0.66666667  0.16666667  0.06551164
   0.66666667  0.50000000  0.06551164
   0.66666667  0.83333333  0.06551164
   0.16666667  0.00000000  0.06551164
   0.16666667  0.33333333  0.06551164
   0.16666667  0.66666667  0.06551164
   0.50000000  0.00000000  0.06551164
   0.50000000  0.33333333  0.06551164
   0.50000000  0.66666667  0.06551164
   0.83333333  0.00000000  0.06551164
   0.83333333  0.33333333  0.06551164
   0.83333333  0.66666667  0.06551164
   0.00000000  0.00000000  0.13119553
   0.00000000  0.33333333  0.13119553
   0.00000000  0.66666667  0.13119553
   0.33333333  0.00000000  0.13119553
   0.33333333  0.33333333  0.13119553
   0.33333333  0.66666667  0.13119553
   0.66666667  0.00000000  0.13119553
   0.66666667  0.33333333  0.13119553
   0.66666667  0.66666667  0.13119553
   0.16666667  0.16666667  0.13119553
   0.16666667  0.50000000  0.13119553
   0.16666667  0.83333333  0.13119553
   0.50000000  0.16666667  0.13119553
   0.50000000  0.50000000  0.13119553
   0.50000000  0.83333333  0.13119553
   0.83333333  0.16666667  0.13119553
   0.83333333  0.50000000  0.13119553
   0.83333333  0.83333333  0.13119553
   0.00003256  0.16666757  0.19575185
   0.00002831  0.50000176  0.19575493
  -0.00001330  0.83333069  0.19573514
   0.33333333  0.16668167  0.19575676
   0.33333333  0.49998486  0.19573487
   0.33333333  0.83333167  0.19572776
   0.66663411  0.16666757  0.19575185
   0.66663836  0.50000176  0.19575493
   0.66667997  0.83333069  0.19573514
   0.16666639  0.00002431  0.19574742
   0.16667674  0.33333240  0.19574625
   0.16666356  0.66664510  0.19576753
   0.50000028  0.00002431  0.19574742
   0.49998993  0.33333240  0.19574625
   0.50000311  0.66664510  0.19576753
   0.83333333 -0.00001838  0.19573939
   0.83333333  0.33333560  0.19573251
   0.83333333  0.66668168  0.19573320
   0.00001060  0.00001082  0.25868451
  -0.00005781  0.33332878  0.25866283
   0.00000436  0.66666036  0.25867984
   0.33333333 -0.00007745  0.25865164
   0.33333333  0.33334149  0.25873479
   0.33333333  0.66669091  0.25866050
   0.66665606  0.00001082  0.25868451
   0.66672448  0.33332878  0.25866283
   0.66666231  0.66666036  0.25867984
   0.16666277  0.16666129  0.25869897
   0.16667416  0.50000640  0.25872426
   0.16668122  0.83335856  0.25868602
   0.50000390  0.16666129  0.25869897
   0.49999251  0.50000640  0.25872426
   0.49998545  0.83335856  0.25868602
   0.83333333  0.16667571  0.25868605
   0.83333333  0.49998916  0.25867328
   0.83333333  0.83332902  0.25868878
   0.00000063  0.16664706  0.32129255
   0.00000419  0.50002465  0.32128681
  -0.00000974  0.83331715  0.32128098
   0.33333333  0.16662113  0.32124028
   0.33333333  0.49999379  0.32126717
   0.33333333  0.83326456  0.32129961
   0.66666603  0.16664706  0.32129255
   0.66666248  0.50002465  0.32128681
   0.66667641  0.83331715  0.32128098
   0.16665517  0.00004457  0.32130635
   0.16665471  0.33332879  0.32124680
   0.16663293  0.66669424  0.32128786
   0.50001150  0.00004457  0.32130635
   0.50001196  0.33332879  0.32124680
   0.50003374  0.66669424  0.32128786
   0.83333333 -0.00001145  0.32128457
   0.83333333  0.33333460  0.32131673
   0.83333333  0.66666931  0.32128056
  -0.00001229 -0.00001091  0.38479511
  -0.00000250  0.33335238  0.38483614
  -0.00001150  0.66668892  0.38479824
   0.33333333 -0.00014516  0.38478590
   0.33333333  0.33316178  0.38433290
   0.33333333  0.66657816  0.38486314
   0.66667896 -0.00001091  0.38479511
   0.66666917  0.33335238  0.38483614
   0.66667816  0.66668892  0.38479824
   0.16675366  0.16677779  0.38486862
   0.16672686  0.49993659  0.38481305
   0.16667174  0.83337302  0.38480974
   0.49991301  0.16677779  0.38486862
   0.49993980  0.49993659  0.38481305
   0.49999493  0.83337302  0.38480974
   0.83333333  0.16667383  0.38480565
   0.83333333  0.50000543  0.38480522
   0.83333333  0.83332831  0.38480245
   0.00007829  0.16668431  0.44737954
   0.00005301  0.49998519  0.44735382
  -0.00000468  0.83332540  0.44734794
   0.33333333  0.16552086  0.44716964
   0.33333333  0.50175875  0.44695059
   0.33333333  0.83333554  0.44736198
   0.66658837  0.16668431  0.44737954
   0.66661366  0.49998519  0.44735382
   0.66667134  0.83332540  0.44734794
   0.16668124  0.00006896  0.44737780
   0.16532801  0.33299527  0.44710425
   0.16670350  0.66659888  0.44737144
   0.49998543  0.00006896  0.44737780
   0.50133866  0.33299527  0.44710425
   0.49996317  0.66659888  0.44737144
   0.83333333  0.00000975  0.44734726
   0.83333333  0.33334474  0.44736459
   0.83333333  0.66666723  0.44735052
   0.33333333  0.32654517  0.50180951
   0.33333333  0.40884784  0.50246195
Direct configuration=     3
   0.00000000  0.00000000  0.00000000
   0.00000000  0.33333333  0.00000000
   0.00000000  0.66666667  0.00000000
   0.33333333  0.00000000  0.00000000
   0.33333333  0.33333333  0.00000000
   0.33333333  0.66666667  0.00000000
   0.66666667  0.00000000  0.00000000
   0.66666667  0.33333333  0.00000000
   0.66666667  0.66666667  0.00000000
   0.16666667  0.16666667  0.00000000
   0.16666667  0.50000000  0.00000000
   0.16666667  0.83333333  0.00000000
   0.50000000  0.16666667  0.00000000
   0.50000000  0.50000000  0.00000000
   0.50000000  0.83333333  0.00000000
   0.83333333  0.16666667  0.00000000
   0.83333333  0.50000000  0.00000000
   0.83333333  0.83333333  0.00000000
   0.00000000  0.16666667  0.06551164
   0.00000000  0.50000000  0.06551164
   0.00000000  0.83333333  0.06551164
   0.33333333  0.16666667  0.06551164
   0.33333333  0.50000000  0.06551164
   0.33333333  0.83333333  0.06551164
   0.66666667  0.16666667  0.06551164
   0.66666667  0.50000000  0.06551164
   0.66666667  0.83333333  0.06551164
   0.16666667  0.00000000  0.06551164
   0.16666667  0.33333333  0.06551164
   0.16666667  0.66666667  0.06551164
   0.50000000  0.00000000  0.06551164
   0.50000000  0.33333333  0.06551164
   0.50000000  0.66666667  0.06551164
   0.83333333  0.00000000  0.06551164
   0.83333333  0.33333333  0.06551164
   0.83333333  0.66666667  0.06551164
   0.00000000  0.00000000  0.13119553
   0.00000000  0.33333333  0.13119553
   0.00000000  0.66666667  0.13119553
   0.33333333  0.00000000  0.13119553
   0.33333333  0.33333333  0.13119553
   0.33333333  0.66666667  0.13119553
   0.66666667  0.00000000  0.13119553
   0.66666667  0.33333333  0.13119553
   0.66666667  0.66666667  0.13119553
   0.16666667  0.16666667  0.13119553
   0.16666667  0.50000000  0.13119553
   0.16666667  0.83333333  0.13119553
   0.50000000  0.16666667  0.13119553
   0.50000000  0.50000000  0.13119553
   0.50000000  0.83333333  0.13119553
   0.83333333  0.16666667  0.13119553
   0.83333333  0.50000000  0.13119553
   0.83333333  0.83333333  0.13119553
   0.00002491  0.16666736  0.19585871
   0.00002166  0.50000135  0.19586107
  -0.00001018  0.83333131  0.19584593
   0.33333333  0.16667814  0.19586247
   0.33333333  0.49998841  0.19584572
   0.33333333  0.83333206  0.19584028
   0.66664175  0.16666736  0.19585871
   0.66664501  0.50000135  0.19586107
   0.66667685  0.83333131  0.19584593
   0.16666645  0.00001860  0.19585532
   0.16667437  0.33333262  0.19585443
   0.16666429  0.66665017  0.19587071
   0.50000021  0.00001860  0.19585532
   0.49999229  0.33333262  0.19585443
   0.50000238  0.66665017  0.19587071
   0.83333333 -0.00001406  0.19584918
   0.83333333  0.33333507  0.19584392
   0.83333333  0.66667815  0.19584444
   0.00000811  0.00000828  0.25869722
  -0.00004423  0.33332985  0.25868062
   0.00000334  0.66666184  0.25869364
   0.33333333 -0.00005926  0.25867207
   0.33333333  0.33333957  0.25873568
   0.33333333  0.66668522  0.25867884
   0.66665855  0.00000828  0.25869722
   0.66671090  0.33332985  0.25868062
   0.66666333  0.66666184  0.25869364
   0.16666368  0.16666255  0.25870828
   0.16667240  0.50000489  0.25872763
   0.16667780  0.83335264  0.25869837
   0.50000298  0.16666255  0.25870828
   0.49999427  0.50000489  0.25872763
   0.49998887  0.83335264  0.25869837
   0.83333333  0.16667359  0.25869840
   0.83333333  0.49999171  0.25868862
   0.83333333  0.83333004  0.25870048
   0.00000048  0.16665167  0.32127070
   0.00000321  0.50001886  0.32126631
  -0.00000745  0.83332095  0.32126185
   0.33333333  0.16663183  0.32123071
   0.33333333  0.49999525  0.32125129
   0.33333333  0.83328072  0.32127611
   0.66666618  0.16665167  0.32127070
   0.66666346  0.50001886  0.32126631
   0.66667412  0.83332095  0.32126185
   0.16665787  0.00003410  0.32128126
   0.16665752  0.33332985  0.32123570
   0.16664085  0.66668776  0.32126711
   0.50000880  0.00003410  0.32128126
   0.50000915  0.33332985  0.32123570
   0.50002581  0.66668776  0.32126711
   0.83333333 -0.00000876  0.32126460
   0.83333333  0.33333430  0.32128920
   0.83333333  0.66666869  0.32126153
  -0.00000940 -0.00000835  0.38478773
  -0.00000192  0.33334790  0.38481913
  -0.00000880  0.66668369  0.38479013
   0.33333333 -0.00011106  0.38478069
   0.33333333  0.33320208  0.38443410
   0.33333333  0.66659895  0.38483979
   0.66667607 -0.00000835  0.38478773
   0.66666858  0.33334790  0.38481913
   0.66667546  0.66668369  0.38479013
   0.16673322  0.16675169  0.38484398
   0.16671272  0.49995148  0.38480146
   0.16667055  0.83336370  0.38479893
   0.49993344  0.16675169  0.38484398
   0.49995394  0.49995148  0.38480146
   0.49999612  0.83336370  0.38479893
   0.83333333  0.16667215  0.38479580
   0.83333333  0.50000415  0.38479547
   0.83333333  0.83332949  0.38479335
   0.00005990  0.16668017  0.44737606
   0.00004056  0.49998867  0.44735638
  -0.00000358  0.83332727  0.44735188
   0.33333333  0.16579000  0.44721547
   0.33333333  0.50134563  0.44704787
   0.33333333  0.83333502  0.44736263
   0.66660676  0.16668017  0.44737606
   0.66662611  0.49998867  0.44735638
   0.66667025  0.83332727  0.44735188
   0.16667782  0.00005276  0.44737473
   0.16564245  0.33307468  0.44716543
   0.16669485  0.66661480  0.44736986
   0.49998885  0.00005276  0.44737473
   0.50102422  0.33307468  0.44716543
   0.49997182  0.66661480  0.44736986
   0.83333333  0.00000746  0.44735136
   0.83333333  0.33334206  0.44736462
   0.83333333  0.66666710  0.44735386
   0.33333333  0.32813967  0.50173835
   0.33333333  0.40720093  0.50223754
Direct configuration=     4
   0.00000000  0.00000000  0.00000000
   0.00000000  0.33333333  0.00000000
   0.00000000  0.66666667  0.00000000
   0.33333333  0.00000000  0.00000000
   0.33333333  0.33333333  0.00000000
   0.33333333  0.66666667  0.00000000
   0.66666667  0.00000000  0.00000000
   0.66666667  0.33333333  0.00000000
   0.66666667  0.66666667  0.00000000
   0.16666667  0.16666667  0.00000000
   0.16666667  0.50000000  0.00000000
   0.16666667  0.83333333  0.00000000
   0.50000000  0.16666667  0.00000000
   0.50000000  0.50000000  0.00000000
   0.50000000  0.83333333  0.00000000
   0.83333333  0.16666667  0.00000000
   0.83333333  0.50000000  0.00000000
   0.83333333  0.83333333  0.00000000
   0.00000000  0.16666667  0.06551164
   0.00000000  0.50000000  0.06551164
   0.00000000  0.83333333  0.06551164
   0.33333333  0.16666667  0.06551164
   0.33333333  0.50000000  0.06551164
   0.33333333  0.83333333  0.06551164
   0.66666667  0.16666667  0.06551164
   0.66666667  0.50000000  0.06551164
   0.66666667  0.83333333  0.06551164
   0.16666667  0.00000000  0.06551164
   0.16666667  0.33333333  0.06551164
   0.16666667  0.66666667  0.06551164
   0.50000000  0.00000000  0.06551164
   0.50000000  0.33333333  0.06551164
   0.50000000  0.66666667  0.06551164
   0.83333333  0.00000000  0.06551164
   0.83333333  0.33333333  0.06551164
   0.83333333  0.66666667  0.06551164
   0.00000000  0.00000000  0.13119553
   0.00000000  0.33333333  0.13119553
   0.00000000  0.66666667  0.13119553
   0.33333333  0.00000000  0.13119553
   0.33333333  0.33333333  0.13119553
   0.33333333  0.66666667  0.13119553
   0.66666667  0.00000000  0.13119553
   0.66666667  0.33333333  0.13119553
   0.66666667  0.66666667  0.13119553
   0.16666667  0.16666667  0.13119553
   0.16666667  0.50000000  0.13119553
   0.16666667  0.83333333  0.13119553
   0.50000000  0.16666667  0.13119553
   0.50000000  0.50000000  0.13119553
   0.50000000  0.83333333  0.13119553
   0.83333333  0.16666667  0.13119553
   0.83333333  0.50000000  0.13119553
   0.83333333  0.83333333  0.13119553
   0.00006179  0.16666773  0.19542138
   0.00006050  0.50000423  0.19542714
  -0.00002088  0.83332917  0.19539321
   0.33333333  0.16670606  0.19543434
   0.33333333  0.49996457  0.19539557
   0.33333333  0.83332744  0.19537577
   0.66660487  0.16666773  0.19542138
   0.66660617  0.50000423  0.19542714
   0.66668754  0.83332917  0.19539321
   0.16666366  0.00004562  0.19541475
   0.16669303  0.33333452  0.19541669
   0.16666038  0.66662297  0.19545207
   0.50000300  0.00004562  0.19541475
   0.49997364  0.33333452  0.19541669
   0.50000629  0.66662297  0.19545207
   0.83333333 -0.00003083  0.19540128
   0.83333333  0.33333541  0.19538757
   0.83333333  0.66669330  0.19539013
   0.00001938  0.00001906  0.25859373
  -0.00010844  0.33332657  0.25855937
   0.00000536  0.66665562  0.25858543
   0.33333333 -0.00014258  0.25853562
   0.33333333  0.33335244  0.25867646
   0.33333333  0.66670820  0.25855044
   0.66664729  0.00001906  0.25859373
   0.66677511  0.33332657  0.25855937
   0.66666131  0.66665562  0.25858543
   0.16666001  0.16665340  0.25862011
   0.16668305  0.50001196  0.25866598
   0.16669246  0.83338222  0.25859766
   0.50000665  0.16665340  0.25862011
   0.49998361  0.50001196  0.25866598
   0.49997421  0.83338222  0.25859766
   0.83333333  0.16668100  0.25859434
   0.83333333  0.49998213  0.25857058
   0.83333333  0.83332554  0.25859939
   0.00000226  0.16663643  0.32135454
  -0.00000178  0.50004203  0.32134025
  -0.00001643  0.83330730  0.32133213
   0.33333333  0.16651840  0.32125128
   0.33333333  0.50004723  0.32130587
   0.33333333  0.83320232  0.32136177
   0.66666441  0.16663643  0.32135454
   0.66666845  0.50004203  0.32134025
   0.66668310  0.83330730  0.32133213
   0.16664645  0.00008278  0.32137951
   0.16658538  0.33331725  0.32126478
   0.16661158  0.66672028  0.32134922
   0.50002021  0.00008278  0.32137951
   0.50008129  0.33331725  0.32126478
   0.50005509  0.66672028  0.32134922
   0.83333333 -0.00001933  0.32133922
   0.83333333  0.33333854  0.32140142
   0.83333333  0.66666633  0.32133238
  -0.00001772 -0.00001347  0.38483464
  -0.00005804  0.33336935  0.38488176
  -0.00001300  0.66670421  0.38484023
   0.33333333 -0.00030180  0.38479455
   0.33333333  0.33303854  0.38401481
   0.33333333  0.66662346  0.38490349
   0.66668439 -0.00001347  0.38483464
   0.66672471  0.33336935  0.38488176
   0.66667967  0.66670421  0.38484023
   0.16680383  0.16682379  0.38493384
   0.16672946  0.49988847  0.38482803
   0.16667331  0.83339720  0.38486251
   0.49986284  0.16682379  0.38493384
   0.49993721  0.49988847  0.38482803
   0.49999336  0.83339720  0.38486251
   0.83333333  0.16667690  0.38485390
   0.83333333  0.50001631  0.38484964
   0.83333333  0.83332493  0.38484439
   0.00008811  0.16664528  0.44740146
   0.00005417  0.50001166  0.44734889
  -0.00000530  0.83331938  0.44734173
   0.33333333  0.16489805  0.44711161
   0.33333333  0.50270536  0.44681401
   0.33333333  0.83334439  0.44737258
   0.66657856  0.16664528  0.44740146
   0.66661250  0.50001166  0.44734889
   0.66667197  0.83331938  0.44734173
   0.16665875  0.00008868  0.44739810
   0.16462513  0.33278416  0.44699107
   0.16667665  0.66659682  0.44738867
   0.50000791  0.00008868  0.44739810
   0.50204153  0.33278416  0.44699107
   0.49999001  0.66659682  0.44738867
   0.83333333  0.00002533  0.44733980
   0.83333333  0.33335354  0.44737817
   0.83333333  0.66666157  0.44734703
   0.33333333  0.32885921  0.50188483
   0.33333333  0.40673106  0.50307772
Direct configuration=     5
   0.00000000  0.00000000  0.00000000
   0.00000000  0.33333333  0.00000000
   0.00000000  0.66666667  0.00000000
   0.33333333  0.00000000  0.00000000
   0.33333333  0.33333333  0.00000000
   0.33333333  0.66666667  0.00000000
   0.66666667  0.00000000  0.00000000
   0.66666667  0.33333333  0.00000000
   0.66666667  0.66666667  0.00000000
   0.16666667  0.16666667  0.00000000
   0.16666667  0.50000000  0.00000000
   0.16666667  0.83333333  0.00000000
   0.50000000  0.16666667  0.00000000
   0.50000000  0.50000000  0.00000000
   0.50000000  0.83333333  0.00000000
   0.83333333  0.16666667  0.00000000
   0.83333333  0.50000000  0.00000000
   0.83333333  0.83333333  0.00000000
   0.00000000  0.16666667  0.06551164
   0.00000000  0.50000000  0.06551164
   0.00000000  0.83333333  0.06551164
   0.33333333  0.16666667  0.06551164
   0.33333333  0.50000000  0.06551164
   0.33333333  0.83333333  0.06551164
   0.66666667  0.16666667  0.06551164
   0.66666667  0.50000000  0.06551164
   0.66666667  0.83333333  0.06551164
   0.16666667  0.00000000  0.06551164
   0.16666667  0.33333333  0.06551164
   0.16666667  0.66666667  0.06551164
   0.50000000  0.00000000  0.06551164
   0.50000000  0.33333333  0.06551164
   0.50000000  0.66666667  0.06551164
   0.83333333  0.00000000  0.06551164
   0.83333333  0.33333333  0.06551164
   0.83333333  0.66666667  0.06551164
   0.00000000  0.00000000  0.13119553
   0.00000000  0.33333333  0.13119553
   0.00000000  0.66666667  0.13119553
   0.33333333  0.00000000  0.13119553
   0.33333333  0.33333333  0.13119553
   0.33333333  0.66666667  0.13119553
   0.66666667  0.00000000  0.13119553
   0.66666667  0.33333333  0.13119553
   0.66666667  0.66666667  0.13119553
   0.16666667  0.16666667  0.13119553
   0.16666667  0.50000000  0.13119553
   0.16666667  0.83333333  0.13119553
   0.50000000  0.16666667  0.13119553
   0.50000000  0.50000000  0.13119553
   0.50000000  0.83333333  0.13119553
   0.83333333  0.16666667  0.13119553
   0.83333333  0.50000000  0.13119553
   0.83333333  0.83333333  0.13119553
   0.00010927  0.16666821  0.19485849
   0.00011049  0.50000794  0.19486862
  -0.00003464  0.83332641  0.19481051
   0.33333333  0.16674200  0.19488330
   0.33333333  0.49993387  0.19481617
   0.33333333  0.83332148  0.19477788
   0.66655740  0.16666821  0.19485849
   0.66655618  0.50000794  0.19486862
   0.66670131  0.83332641  0.19481051
   0.16666007  0.00008041  0.19484767
   0.16671703  0.33333697  0.19485325
   0.16665535  0.66658797  0.19491323
   0.50000660  0.00008041  0.19484767
   0.49994963  0.33333697  0.19485325
   0.50001132  0.66658797  0.19491323
   0.83333333 -0.00005241  0.19482479
   0.83333333  0.33333585  0.19480021
   0.83333333  0.66671279  0.19480539
   0.00003389  0.00003294  0.25846052
  -0.00019109  0.33332236  0.25840330
   0.00000795  0.66664761  0.25844614
   0.33333333 -0.00024982  0.25835999
   0.33333333  0.33336900  0.25860024
   0.33333333  0.66673779  0.25838517
   0.66663278  0.00003294  0.25846052
   0.66685776  0.33332236  0.25840330
   0.66665871  0.66664761  0.25844614
   0.16665529  0.16664163  0.25850662
   0.16669676  0.50002106  0.25858662
   0.16671132  0.83342028  0.25846805
   0.50001137  0.16664163  0.25850662
   0.49996990  0.50002106  0.25858662
   0.49995534  0.83342028  0.25846805
   0.83333333  0.16669054  0.25846040
   0.83333333  0.49996980  0.25841865
   0.83333333  0.83331974  0.25846926
   0.00000454  0.16661683  0.32146245
  -0.00000821  0.50007184  0.32143543
  -0.00002799  0.83328973  0.32142259
   0.33333333  0.16637241  0.32127777
   0.33333333  0.50011414  0.32137614
   0.33333333  0.83310141  0.32147202
   0.66666213  0.16661683  0.32146245
   0.66667487  0.50007184  0.32143543
   0.66669466  0.83328973  0.32142259
   0.16663176  0.00014544  0.32150597
   0.16649252  0.33330103  0.32130220
   0.16657389  0.66676214  0.32145491
   0.50003490  0.00014544  0.32150597
   0.50017414  0.33330103  0.32130220
   0.50009278  0.66676214  0.32145491
   0.83333333 -0.00003293  0.32143526
   0.83333333  0.33334400  0.32154585
   0.83333333  0.66666330  0.32142356
  -0.00002843 -0.00002006  0.38489502
  -0.00013028  0.33339695  0.38496238
  -0.00001841  0.66673061  0.38490471
   0.33333333 -0.00054731  0.38481239
   0.33333333  0.33282805  0.38347514
   0.33333333  0.66665501  0.38498548
   0.66669510 -0.00002006  0.38489502
   0.66679695  0.33339695  0.38496238
   0.66668508  0.66673061  0.38490471
   0.16689471  0.16691658  0.38504952
   0.16675100  0.49980737  0.38486224
   0.16667686  0.83344031  0.38494433
   0.49977196  0.16691658  0.38504952
   0.49991567  0.49980737  0.38486224
   0.49998981  0.83344031  0.38494433
   0.83333333  0.16668300  0.38492869
   0.83333333  0.50003195  0.38491937
   0.83333333  0.83331906  0.38491008
   0.00012441  0.16660039  0.44743415
   0.00007169  0.50004124  0.44733923
  -0.00000751  0.83330924  0.44732865
   0.33333333  0.16374999  0.44697792
   0.33333333  0.50445549  0.44651301
   0.33333333  0.83335643  0.44738539
   0.66654226  0.16660039  0.44743415
   0.66659498  0.50004124  0.44733923
   0.66667418  0.83330924  0.44732865
   0.16663422  0.00013491  0.44742818
   0.16331573  0.33241022  0.44676663
   0.16665324  0.66657368  0.44741287
   0.50003245  0.00013491  0.44742818
   0.50335093  0.33241022  0.44676663
   0.50001343  0.66657368  0.44741287
   0.83333333  0.00004833  0.44732491
   0.83333333  0.33336833  0.44739561
   0.83333333  0.66665445  0.44733823
   0.33333333  0.32978534  0.50207336
   0.33333333  0.40612628  0.50415914
Direct configuration=     6
   0.00000000  0.00000000  0.00000000
   0.00000000  0.33333333  0.00000000
   0.00000000  0.66666667  0.00000000
   0.33333333  0.00000000  0.00000000
   0.33333333  0.33333333  0.00000000
   0.33333333  0.66666667  0.00000000
   0.66666667  0.00000000  0.00000000
   0.66666667  0.33333333  0.00000000
   0.66666667  0.66666667  0.00000000
   0.16666667  0.16666667  0.00000000
   0.16666667  0.50000000  0.00000000
   0.16666667  0.83333333  0.00000000
   0.50000000  0.16666667  0.00000000
   0.50000000  0.50000000  0.00000000
   0.50000000  0.83333333  0.00000000
   0.83333333  0.16666667  0.00000000
   0.83333333  0.50000000  0.00000000
   0.83333333  0.83333333  0.00000000
   0.00000000  0.16666667  0.06551164
   0.00000000  0.50000000  0.06551164
   0.00000000  0.83333333  0.06551164
   0.33333333  0.16666667  0.06551164
   0.33333333  0.50000000  0.06551164
   0.33333333  0.83333333  0.06551164
   0.66666667  0.16666667  0.06551164
   0.66666667  0.50000000  0.06551164
   0.66666667  0.83333333  0.06551164
   0.16666667  0.00000000  0.06551164
   0.16666667  0.33333333  0.06551164
   0.16666667  0.66666667  0.06551164
   0.50000000  0.00000000  0.06551164
   0.50000000  0.33333333  0.06551164
   0.50000000  0.66666667  0.06551164
   0.83333333  0.00000000  0.06551164
   0.83333333  0.33333333  0.06551164
   0.83333333  0.66666667  0.06551164
   0.00000000  0.00000000  0.13119553
   0.00000000  0.33333333  0.13119553
   0.00000000  0.66666667  0.13119553
   0.33333333  0.00000000  0.13119553
   0.33333333  0.33333333  0.13119553
   0.33333333  0.66666667  0.13119553
   0.66666667  0.00000000  0.13119553
   0.66666667  0.33333333  0.13119553
   0.66666667  0.66666667  0.13119553
   0.16666667  0.16666667  0.13119553
   0.16666667  0.50000000  0.13119553
   0.16666667  0.83333333  0.13119553
   0.50000000  0.16666667  0.13119553
   0.50000000  0.50000000  0.13119553