  54  54   0   0
  0.2422945E+02  0.7700393E-09  0.7700393E-09  0.2547891E-08  0.5000000E-15
  1.000000000000000E-004
  CAR 
 unknown system                          
     12.39262945     -9.96457014  301      1.27122057      1.00000000
     -9.965  0.0000E+00  0.0000E+00  0.0000E+00  0.0000E+00
     -9.890  0.0000E+00  0.0000E+00  0.0000E+00  0.0000E+00
     -9.816  0.0000E+00  0.0000E+00  0.0000E+00  0.0000E+00
     -9.741  0.0000E+00  0.0000E+00  0.0000E+00  0.0000E+00
     -9.666  0.0000E+00  0.0000E+00  0.0000E+00  0.0000E+00
     -9.592 -0.7533E-31 -0.7533E-31 -0.5614E-32 -0.5614E-32
     -9.517 -0.2683E-28 -0.2683E-28 -0.2005E-29 -0.2005E-29
     -9.443 -0.7236E-26 -0.7236E-26 -0.5413E-27 -0.5413E-27
     -9.368 -0.1474E-23 -0.1474E-23 -0.1104E-24 -0.1104E-24
     -9.294 -0.2268E-21 -0.2268E-21 -0.1701E-22 -0.1701E-22
     -9.219 -0.2633E-19 -0.2633E-19 -0.1979E-20 -0.1979E-20
     -9.145 -0.2203E-17 -0.2203E-17 -0.1661E-18 -0.1661E-18
     -9.070 -0.1474E-15 -0.1474E-15 -0.1115E-16 -0.1115E-16
     -8.996 -0.7290E-14 -0.7290E-14 -0.5544E-15 -0.5544E-15
     -8.921 -0.2710E-12 -0.2710E-12 -0.2075E-13 -0.2075E-13
     -8.847 -0.7556E-11 -0.7556E-11 -0.5839E-12 -0.5839E-12
     -8.772 -0.1576E-09 -0.1576E-09 -0.1233E-10 -0.1233E-10
     -8.698 -0.2450E-08 -0.2450E-08 -0.1949E-09 -0.1949E-09
     -8.623 -0.2823E-07 -0.2823E-07 -0.2298E-08 -0.2298E-08
     -8.549 -0.2392E-06 -0.2392E-06 -0.2012E-07 -0.2012E-07
     -8.474 -0.1470E-05 -0.1470E-05 -0.1297E-06 -0.1297E-06
     -8.400 -0.6392E-05 -0.6392E-05 -0.6060E-06 -0.6060E-06
     -8.325 -0.1860E-04 -0.1860E-04 -0.1992E-05 -0.1992E-05
     -8.251 -0.3046E-04 -0.3046E-04 -0.4263E-05 -0.4263E-05
     -8.176  0.1489E-06  0.1488E-06 -0.4252E-05 -0.4252E-05
     -8.101  0.1353E-03  0.1353E-03  0.5832E-05  0.5832E-05
     -8.027  0.3526E-03  0.3526E-03  0.3211E-04  0.3211E-04
     -7.952  0.4722E-03  0.4722E-03  0.6730E-04  0.6730E-04
     -7.878  0.3473E-03  0.3473E-03  0.9318E-04  0.9318E-04
     -7.803  0.2121E-03  0.2121E-03  0.1090E-03  0.1090E-03
     -7.729  0.6500E-03  0.6500E-03  0.1574E-03  0.1574E-03
     -7.654  0.1891E-02  0.1891E-02  0.2984E-03  0.2984E-03
     -7.580  0.3157E-02  0.3157E-02  0.5337E-03  0.5337E-03
     -7.505  0.3280E-02  0.3280E-02  0.7781E-03  0.7781E-03
     -7.431  0.2162E-02  0.2162E-02  0.9393E-03  0.9393E-03
     -7.356  0.8959E-03  0.8959E-03  0.1006E-02  0.1006E-02
     -7.282  0.3141E-03  0.3141E-03  0.1029E-02  0.1029E-02
     -7.207  0.1999E-03  0.1999E-03  0.1044E-02  0.1044E-02
     -7.133  0.5367E-04  0.5367E-04  0.1048E-02  0.1048E-02
     -7.058  0.1154E-03  0.1154E-03  0.1057E-02  0.1057E-02
     -6.984  0.1313E-02  0.1313E-02  0.1155E-02  0.1155E-02
     -6.909  0.3912E-02  0.3912E-02  0.1446E-02  0.1446E-02
     -6.835  0.6317E-02  0.6317E-02  0.1917E-02  0.1917E-02
     -6.760  0.6353E-02  0.6353E-02  0.2391E-02  0.2391E-02
     -6.686  0.4097E-02  0.4097E-02  0.2696E-02  0.2696E-02
     -6.611  0.2004E-02  0.2004E-02  0.2845E-02  0.2845E-02
     -6.536  0.1823E-02  0.1823E-02  0.2981E-02  0.2981E-02
     -6.462  0.2718E-02  0.2718E-02  0.3184E-02  0.3184E-02
     -6.387  0.2939E-02  0.2939E-02  0.3403E-02  0.3403E-02
     -6.313  0.2324E-02  0.2324E-02  0.3576E-02  0.3576E-02
     -6.238  0.2157E-02  0.2157E-02  0.3737E-02  0.3737E-02
     -6.164  0.2888E-02  0.2888E-02  0.3952E-02  0.3952E-02
     -6.089  0.3416E-02  0.3416E-02  0.4206E-02  0.4206E-02
     -6.015  0.3124E-02  0.3124E-02  0.4439E-02  0.4439E-02
     -5.940  0.3197E-02  0.3197E-02  0.4678E-02  0.4678E-02
     -5.866  0.4648E-02  0.4648E-02  0.5024E-02  0.5024E-02
     -5.791  0.6136E-02  0.6136E-02  0.5481E-02  0.5481E-02
     -5.717  0.5646E-02  0.5646E-02  0.5902E-02  0.5902E-02
     -5.642  0.3775E-02  0.3775E-02  0.6183E-02  0.6183E-02
     -5.568  0.3201E-02  0.3201E-02  0.6422E-02  0.6422E-02
     -5.493  0.4816E-02  0.4816E-02  0.6781E-02  0.6781E-02
     -5.419  0.6354E-02  0.6354E-02  0.7254E-02  0.7254E-02
     -5.344  0.5716E-02  0.5716E-02  0.7680E-02  0.7680E-02
     -5.270  0.3804E-02  0.3804E-02  0.7964E-02  0.7964E-02
     -5.195  0.2666E-02  0.2666E-02  0.8163E-02  0.8163E-02
     -5.121  0.2760E-02  0.2760E-02  0.8368E-02  0.8368E-02
     -5.046  0.3972E-02  0.3972E-02  0.8664E-02  0.8664E-02
     -4.971  0.7069E-02  0.7069E-02  0.9191E-02  0.9191E-02
     -4.897  0.1157E-01  0.1157E-01  0.1005E-01  0.1005E-01
     -4.822  0.1426E-01  0.1426E-01  0.1112E-01  0.1112E-01
     -4.748  0.1267E-01  0.1267E-01  0.1206E-01  0.1206E-01
     -4.673  0.8223E-02  0.8223E-02  0.1267E-01  0.1267E-01
     -4.599  0.4209E-02  0.4209E-02  0.1299E-01  0.1299E-01
     -4.524  0.2358E-02  0.2358E-02  0.1316E-01  0.1316E-01
     -4.450  0.2162E-02  0.2162E-02  0.1332E-01  0.1332E-01
     -4.375  0.2107E-02  0.2107E-02  0.1348E-01  0.1348E-01
     -4.301  0.1993E-02  0.1993E-02  0.1363E-01  0.1363E-01
     -4.226  0.4180E-02  0.4180E-02  0.1394E-01  0.1394E-01
     -4.152  0.1050E-01  0.1050E-01  0.1472E-01  0.1472E-01
     -4.077  0.1808E-01  0.1808E-01  0.1607E-01  0.1607E-01
     -4.003  0.2184E-01  0.2184E-01  0.1770E-01  0.1770E-01
     -3.928  0.2121E-01  0.2121E-01  0.1928E-01  0.1928E-01
     -3.854  0.2024E-01  0.2024E-01  0.2079E-01  0.2079E-01
     -3.779  0.2137E-01  0.2137E-01  0.2238E-01  0.2238E-01
     -3.705  0.2322E-01  0.2322E-01  0.2411E-01  0.2411E-01
     -3.630  0.2393E-01  0.2393E-01  0.2589E-01  0.2589E-01
     -3.556  0.2371E-01  0.2371E-01  0.2766E-01  0.2766E-01
     -3.481  0.2460E-01  0.2460E-01  0.2949E-01  0.2949E-01
     -3.406  0.2877E-01  0.2877E-01  0.3164E-01  0.3164E-01
     -3.332  0.3623E-01  0.3623E-01  0.3434E-01  0.3434E-01
     -3.257  0.4356E-01  0.4356E-01  0.3758E-01  0.3758E-01
     -3.183  0.4700E-01  0.4700E-01  0.4109E-01  0.4109E-01
     -3.108  0.4800E-01  0.4800E-01  0.4466E-01  0.4466E-01
     -3.034  0.5226E-01  0.5226E-01  0.4856E-01  0.4856E-01
     -2.959  0.6151E-01  0.6151E-01  0.5314E-01  0.5314E-01
     -2.885  0.7016E-01  0.7016E-01  0.5837E-01  0.5837E-01
     -2.810  0.7242E-01  0.7242E-01  0.6377E-01  0.6377E-01
     -2.736  0.6853E-01  0.6853E-01  0.6888E-01  0.6888E-01
     -2.661  0.6259E-01  0.6259E-01  0.7354E-01  0.7354E-01
     -2.587  0.5830E-01  0.5830E-01  0.7789E-01  0.7789E-01
     -2.512  0.5813E-01  0.5813E-01  0.8222E-01  0.8222E-01
     -2.438  0.6315E-01  0.6315E-01  0.8692E-01  0.8692E-01
     -2.363  0.7097E-01  0.7097E-01  0.9221E-01  0.9221E-01
     -2.289  0.7663E-01  0.7663E-01  0.9792E-01  0.9792E-01
     -2.214  0.7854E-01  0.7854E-01  0.1038E+00  0.1038E+00
     -2.140  0.8076E-01  0.8076E-01  0.1098E+00  0.1098E+00
     -2.065  0.8698E-01  0.8698E-01  0.1163E+00  0.1163E+00
     -1.991  0.9510E-01  0.9510E-01  0.1234E+00  0.1234E+00
     -1.916  0.1011E+00  0.1011E+00  0.1309E+00  0.1309E+00
     -1.841  0.1057E+00  0.1057E+00  0.1388E+00  0.1388E+00
     -1.767  0.1124E+00  0.1124E+00  0.1472E+00  0.1472E+00
     -1.692  0.1213E+00  0.1213E+00  0.1562E+00  0.1562E+00
     -1.618  0.1275E+00  0.1275E+00  0.1657E+00  0.1657E+00
     -1.543  0.1281E+00  0.1281E+00  0.1752E+00  0.1752E+00
     -1.469  0.1254E+00  0.1254E+00  0.1846E+00  0.1846E+00
     -1.394  0.1223E+00  0.1223E+00  0.1937E+00  0.1937E+00
     -1.320  0.1189E+00  0.1189E+00  0.2026E+00  0.2026E+00
     -1.245  0.1171E+00  0.1171E+00  0.2113E+00  0.2113E+00
     -1.171  0.1203E+00  0.1203E+00  0.2203E+00  0.2203E+00
     -1.096  0.1245E+00  0.1245E+00  0.2295E+00  0.2295E+00
     -1.022  0.1214E+00  0.1214E+00  0.2386E+00  0.2386E+00
     -0.947  0.1124E+00  0.1124E+00  0.2470E+00  0.2470E+00
     -0.873  0.1090E+00  0.1090E+00  0.2551E+00  0.2551E+00
     -0.798  0.1172E+00  0.1172E+00  0.2638E+00  0.2638E+00
     -0.724  0.1301E+00  0.1301E+00  0.2735E+00  0.2735E+00
     -0.649  0.1374E+00  0.1374E+00  0.2838E+00  0.2838E+00
     -0.575  0.1389E+00  0.1389E+00  0.2941E+00  0.2941E+00
     -0.500  0.1444E+00  0.1444E+00  0.3049E+00  0.3049E+00
     -0.425  0.1589E+00  0.1589E+00  0.3167E+00  0.3167E+00
     -0.351  0.1693E+00  0.1693E+00  0.3293E+00  0.3293E+00
     -0.276  0.1545E+00  0.1545E+00  0.3409E+00  0.3409E+00
     -0.202  0.1111E+00  0.1111E+00  0.3491E+00  0.3491E+00
     -0.127  0.6022E-01  0.6022E-01  0.3536E+00  0.3536E+00
     -0.053  0.2484E-01  0.2484E-01  0.3555E+00  0.3555E+00
      0.022  0.1012E-01  0.1012E-01  0.3562E+00  0.3562E+00
      0.096  0.8023E-02  0.8023E-02  0.3568E+00  0.3568E+00
      0.171  0.1037E-01  0.1037E-01  0.3576E+00  0.3576E+00
      0.245  0.1278E-01  0.1278E-01  0.3586E+00  0.3586E+00
      0.320  0.1429E-01  0.1429E-01  0.3596E+00  0.3596E+00
      0.394  0.1617E-01  0.1617E-01  0.3608E+00  0.3608E+00
      0.469  0.1802E-01  0.1802E-01  0.3622E+00  0.3622E+00
      0.543  0.1721E-01  0.1721E-01  0.3635E+00  0.3635E+00
      0.618  0.1373E-01  0.1373E-01  0.3645E+00  0.3645E+00
      0.692  0.1123E-01  0.1123E-01  0.3653E+00  0.3653E+00
      0.767  0.1221E-01  0.1221E-01  0.3662E+00  0.3662E+00
      0.841  0.1517E-01  0.1517E-01  0.3674E+00  0.3674E+00
      0.916  0.1615E-01  0.1615E-01  0.3686E+00  0.3686E+00
      0.990  0.1290E-01  0.1290E-01  0.3695E+00  0.3695E+00
      1.065  0.7824E-02  0.7824E-02  0.3701E+00  0.3701E+00
      1.140  0.5123E-02  0.5123E-02  0.3705E+00  0.3705E+00
      1.214  0.5525E-02  0.5525E-02  0.3709E+00  0.3709E+00
      1.289  0.6195E-02  0.6195E-02  0.3714E+00  0.3714E+00
      1.363  0.5301E-02  0.5301E-02  0.3718E+00  0.3718E+00
      1.438  0.3720E-02  0.3720E-02  0.3720E+00  0.3720E+00
      1.512  0.2603E-02  0.2603E-02  0.3722E+00  0.3722E+00
      1.587  0.2579E-02  0.2579E-02  0.3724E+00  0.3724E+00
      1.661  0.5219E-02  0.5219E-02  0.3728E+00  0.3728E+00
      1.736  0.1179E-01  0.1179E-01  0.3737E+00  0.3737E+00
      1.810  0.1989E-01  0.1989E-01  0.3752E+00  0.3752E+00
      1.885  0.2428E-01  0.2428E-01  0.3770E+00  0.3770E+00
      1.959  0.2253E-01  0.2253E-01  0.3787E+00  0.3787E+00
      2.034  0.1784E-01  0.1784E-01  0.3800E+00  0.3800E+00
      2.108  0.1444E-01  0.1444E-01  0.3811E+00  0.3811E+00
      2.183  0.1299E-01  0.1299E-01  0.3820E+00  0.3820E+00
      2.257  0.1206E-01  0.1206E-01  0.3829E+00  0.3829E+00
      2.332  0.1109E-01  0.1109E-01  0.3838E+00  0.3838E+00
      2.406  0.1020E-01  0.1020E-01  0.3845E+00  0.3845E+00
      2.481  0.8910E-02  0.8910E-02  0.3852E+00  0.3852E+00
      2.555  0.6508E-02  0.6508E-02  0.3857E+00  0.3857E+00
      2.630  0.3457E-02  0.3457E-02  0.3859E+00  0.3859E+00
      2.705  0.1505E-02  0.1505E-02  0.3860E+00  0.3860E+00
      2.779  0.1845E-02  0.1845E-02  0.3862E+00  0.3862E+00
      2.854  0.3946E-02  0.3946E-02  0.3865E+00  0.3865E+00
      2.928  0.6415E-02  0.6415E-02  0.3869E+00  0.3869E+00
      3.003  0.8295E-02  0.8294E-02  0.3876E+00  0.3876E+00
      3.077  0.9755E-02  0.9755E-02  0.3883E+00  0.3883E+00
      3.152  0.1185E-01  0.1185E-01  0.3892E+00  0.3892E+00
      3.226  0.1490E-01  0.1490E-01  0.3903E+00  0.3903E+00
      3.301  0.1741E-01  0.1741E-01  0.3916E+00  0.3916E+00
      3.375  0.1766E-01  0.1766E-01  0.3929E+00  0.3929E+00
      3.450  0.1575E-01  0.1575E-01  0.3941E+00  0.3941E+00
      3.524  0.1305E-01  0.1305E-01  0.3950E+00  0.3950E+00
      3.599  0.1042E-01  0.1042E-01  0.3958E+00  0.3958E+00
      3.673  0.8085E-02  0.8085E-02  0.3964E+00  0.3964E+00
      3.748  0.6523E-02  0.6523E-02  0.3969E+00  0.3969E+00
      3.822  0.6375E-02  0.6375E-02  0.3974E+00  0.3974E+00
      3.897  0.7743E-02  0.7743E-02  0.3980E+00  0.3980E+00
      3.971  0.9461E-02  0.9461E-02  0.3987E+00  0.3987E+00
      4.046  0.9481E-02  0.9481E-02  0.3994E+00  0.3994E+00
      4.120  0.6921E-02  0.6921E-02  0.3999E+00  0.3999E+00
      4.195  0.3267E-02  0.3267E-02  0.4001E+00  0.4001E+00
      4.270  0.8428E-03  0.8428E-03  0.4002E+00  0.4002E+00
      4.344  0.6719E-03  0.6719E-03  0.4002E+00  0.4002E+00
      4.419  0.1948E-02  0.1948E-02  0.4004E+00  0.4004E+00
      4.493  0.2910E-02  0.2910E-02  0.4006E+00  0.4006E+00
      4.568  0.2414E-02  0.2414E-02  0.4008E+00  0.4008E+00
      4.642  0.1170E-02  0.1170E-02  0.4009E+00  0.4009E+00
      4.717  0.1242E-02  0.1242E-02  0.4010E+00  0.4010E+00
      4.791  0.4069E-02  0.4069E-02  0.4013E+00  0.4013E+00
      4.866  0.9150E-02  0.9150E-02  0.4019E+00  0.4019E+00
      4.940  0.1449E-01  0.1449E-01  0.4030E+00  0.4030E+00
      5.015  0.1771E-01  0.1771E-01  0.4043E+00  0.4043E+00
      5.089  0.1732E-01  0.1732E-01  0.4056E+00  0.4056E+00
      5.164  0.1455E-01  0.1455E-01  0.4067E+00  0.4067E+00
      5.238  0.1277E-01  0.1277E-01  0.4077E+00  0.4077E+00
      5.313  0.1317E-01  0.1317E-01  0.4087E+00  0.4087E+00
      5.387  0.1312E-01  0.1312E-01  0.4096E+00  0.4096E+00
      5.462  0.1031E-01  0.1031E-01  0.4104E+00  0.4104E+00
      5.536  0.6035E-02  0.6034E-02  0.4108E+00  0.4108E+00
      5.611  0.3162E-02  0.3161E-02  0.4111E+00  0.4111E+00
      5.685  0.3087E-02  0.3087E-02  0.4113E+00  0.4113E+00
      5.760  0.5116E-02  0.5115E-02  0.4117E+00  0.4117E+00
      5.835  0.7773E-02  0.7773E-02  0.4123E+00  0.4123E+00
      5.909  0.1040E-01  0.1040E-01  0.4131E+00  0.4130E+00
      5.984  0.1305E-01  0.1305E-01  0.4140E+00  0.4140E+00
      6.058  0.1476E-01  0.1476E-01  0.4151E+00  0.4151E+00
      6.133  0.1401E-01  0.1401E-01  0.4162E+00  0.4162E+00
      6.207  0.1153E-01  0.1153E-01  0.4170E+00  0.4170E+00
      6.282  0.1027E-01  0.1027E-01  0.4178E+00  0.4178E+00
      6.356  0.1107E-01  0.1107E-01  0.4186E+00  0.4186E+00
      6.431  0.1111E-01  0.1111E-01  0.4194E+00  0.4194E+00
      6.505  0.8235E-02  0.8235E-02  0.4201E+00  0.4201E+00
      6.580  0.4570E-02  0.4570E-02  0.4204E+00  0.4204E+00
      6.654  0.4053E-02  0.4051E-02  0.4207E+00  0.4207E+00
      6.729  0.8547E-02  0.8544E-02  0.4213E+00  0.4213E+00
      6.803  0.1680E-01  0.1680E-01  0.4226E+00  0.4226E+00
      6.878  0.2445E-01  0.2445E-01  0.4244E+00  0.4244E+00
      6.952  0.2604E-01  0.2604E-01  0.4264E+00  0.4264E+00
      7.027  0.2067E-01  0.2066E-01  0.4279E+00  0.4279E+00
      7.101  0.1365E-01  0.1365E-01  0.4289E+00  0.4289E+00
      7.176  0.9647E-02  0.9642E-02  0.4296E+00  0.4296E+00
      7.250  0.7668E-02  0.7668E-02  0.4302E+00  0.4302E+00
      7.325  0.5877E-02  0.5882E-02  0.4306E+00  0.4306E+00
      7.400  0.6545E-02  0.6550E-02  0.4311E+00  0.4311E+00
      7.474  0.1243E-01  0.1243E-01  0.4321E+00  0.4321E+00
      7.549  0.2093E-01  0.2093E-01  0.4336E+00  0.4336E+00
      7.623  0.2577E-01  0.2577E-01  0.4355E+00  0.4355E+00
      7.698  0.2381E-01  0.2381E-01  0.4373E+00  0.4373E+00
      7.772  0.1772E-01  0.1771E-01  0.4386E+00  0.4386E+00
      7.847  0.1235E-01  0.1234E-01  0.4395E+00  0.4395E+00
      7.921  0.1014E-01  0.1014E-01  0.4403E+00  0.4403E+00
      7.996  0.1007E-01  0.1007E-01  0.4411E+00  0.4411E+00
      8.070  0.1105E-01  0.1105E-01  0.4419E+00  0.4419E+00
      8.145  0.1465E-01  0.1465E-01  0.4430E+00  0.4430E+00
      8.219  0.2139E-01  0.2139E-01  0.4446E+00  0.4446E+00
      8.294  0.2645E-01  0.2645E-01  0.4465E+00  0.4465E+00
      8.368  0.2410E-01  0.2411E-01  0.4483E+00  0.4483E+00
      8.443  0.1520E-01  0.1521E-01  0.4495E+00  0.4495E+00
      8.517  0.6273E-02  0.6277E-02  0.4499E+00  0.4499E+00
      8.592  0.2407E-02  0.2408E-02  0.4501E+00  0.4501E+00
      8.666  0.3863E-02  0.3862E-02  0.4504E+00  0.4504E+00
      8.741  0.8377E-02  0.8376E-02  0.4510E+00  0.4510E+00
      8.815  0.1370E-01  0.1370E-01  0.4520E+00  0.4520E+00
      8.890  0.1738E-01  0.1738E-01  0.4533E+00  0.4533E+00
      8.965  0.1758E-01  0.1758E-01  0.4546E+00  0.4546E+00
      9.039  0.1615E-01  0.1615E-01  0.4558E+00  0.4558E+00
      9.114  0.1733E-01  0.1733E-01  0.4571E+00  0.4571E+00
      9.188  0.2165E-01  0.2165E-01  0.4588E+00  0.4588E+00
      9.263  0.2532E-01  0.2531E-01  0.4606E+00  0.4606E+00
      9.337  0.2573E-01  0.2573E-01  0.4626E+00  0.4626E+00
      9.412  0.2296E-01  0.2296E-01  0.4643E+00  0.4643E+00
      9.486  0.1744E-01  0.1745E-01  0.4656E+00  0.4656E+00
      9.561  0.1086E-01  0.1087E-01  0.4664E+00  0.4664E+00
      9.635  0.7354E-02  0.7359E-02  0.4669E+00  0.4669E+00
      9.710  0.1031E-01  0.1032E-01  0.4677E+00  0.4677E+00
      9.784  0.1823E-01  0.1824E-01  0.4691E+00  0.4691E+00
      9.859  0.2496E-01  0.2495E-01  0.4709E+00  0.4709E+00
      9.933  0.2511E-01  0.2504E-01  0.4728E+00  0.4728E+00
     10.008  0.1962E-01  0.1946E-01  0.4742E+00  0.4742E+00
     10.082  0.1436E-01  0.1419E-01  0.4753E+00  0.4753E+00
     10.157  0.1336E-01  0.1332E-01  0.4763E+00  0.4763E+00
     10.231  0.1507E-01  0.1520E-01  0.4774E+00  0.4774E+00
     10.306  0.1513E-01  0.1530E-01  0.4786E+00  0.4786E+00
     10.380  0.1159E-01  0.1170E-01  0.4794E+00  0.4794E+00
     10.455  0.6369E-02  0.6396E-02  0.4799E+00  0.4799E+00
     10.530  0.2201E-02  0.2195E-02  0.4801E+00  0.4801E+00
     10.604  0.1053E-03  0.9760E-04  0.4801E+00  0.4801E+00
     10.679 -0.4447E-03 -0.4481E-03  0.4800E+00  0.4800E+00
     10.753 -0.3401E-03 -0.3412E-03  0.4800E+00  0.4800E+00
     10.828 -0.1490E-03 -0.1493E-03  0.4800E+00  0.4800E+00
     10.902 -0.4465E-04 -0.4472E-04  0.4800E+00  0.4800E+00
     10.977 -0.9591E-05 -0.9608E-05  0.4800E+00  0.4800E+00
     11.051 -0.1504E-05 -0.1507E-05  0.4800E+00  0.4800E+00
     11.126 -0.1739E-06 -0.1743E-06  0.4800E+00  0.4800E+00
     11.200 -0.1491E-07 -0.1495E-07  0.4800E+00  0.4800E+00
     11.275 -0.9526E-09 -0.9553E-09  0.4800E+00  0.4800E+00
     11.349 -0.4548E-10 -0.4562E-10  0.4800E+00  0.4800E+00
     11.424 -0.1627E-11 -0.1632E-11  0.4800E+00  0.4800E+00
     11.498 -0.4368E-13 -0.4384E-13  0.4800E+00  0.4800E+00
     11.573 -0.8790E-15 -0.8839E-15  0.4800E+00  0.4800E+00
     11.647 -0.1490E-16 -0.1490E-16  0.4800E+00  0.4800E+00
     11.722  0.0000E+00  0.0000E+00  0.4800E+00  0.4800E+00
     11.796  0.0000E+00  0.0000E+00  0.4800E+00  0.4800E+00
     11.871  0.0000E+00  0.0000E+00  0.4800E+00  0.4800E+00
     11.945  0.0000E+00  0.0000E+00  0.4800E+00  0.4800E+00
     12.020  0.0000E+00  0.0000E+00  0.4800E+00  0.4800E+00
     12.095  0.0000E+00  0.0000E+00  0.4800E+00  0.4800E+00
     12.169  0.0000E+00  0.0000E+00  0.4800E+00  0.4800E+00
     12.244  0.0000E+00  0.0000E+00  0.4800E+00  0.4800E+00
     12.318  0.0000E+00  0.0000E+00  0.4800E+00  0.4800E+00
     12.393  0.0000E+00  0.0000E+00  0.4800E+00  0.4800E+00
