<?xml version="1.0" encoding="ISO-8859-1"?>
<modeling>
 <generator>
  <i name="program" type="string">vasp </i>
  <i name="version" type="string">6.3.2  </i>
  <i name="subversion" type="string">27Jun22 (build Aug 17 2022 15:43:34) complex                          parallel </i>
  <i name="platform" type="string">tv2STDVTST </i>
  <i name="date" type="string">2025 01 21 </i>
  <i name="time" type="string">18:51:36 </i>
 </generator>
 <incar>
  <i type="int" name="ISTART">     0</i>
  <i type="string" name="PREC">Normal</i>
  <i type="int" name="ISPIN">     2</i>
  <i type="int" name="ICHARG">     2</i>
  <i type="int" name="IBRION">     2</i>
  <i name="EDIFF">      0.00020000</i>
  <i name="EDIFFG">     -0.03000000</i>
  <i type="int" name="NSW">   800</i>
  <i type="int" name="ISIF">     2</i>
  <i type="int" name="ISYM">     1</i>
  <i name="ENCUT">    400.00000000</i>
  <i name="POTIM">      0.50000000</i>
  <i type="logical" name="LREAL"> F  </i>
  <i type="int" name="ISMEAR">     1</i>
  <i name="SIGMA">      0.20000000</i>
  <i type="logical" name="LWAVE"> F  </i>
  <i type="logical" name="LCHARG"> F  </i>
  <i type="string" name="GGA">PE</i>
  <i type="int" name="IDIPOL">     3</i>
  <i type="int" name="IVDW">    11</i>
 </incar>
 <primitive_cell>
  <structure name="primitive_cell" >
   <crystal>
    <varray name="basis" >
     <v>      -1.28339887      -2.22291204       0.00000000 </v>
     <v>       2.56679773       0.00000000       0.00000000 </v>
     <v>       0.00000000       0.00000000      25.47890854 </v>
    </varray>
    <i name="volume">    145.37667968 </i>
    <varray name="rec_basis" >
     <v>       0.00000000      -0.44986035       0.00000000 </v>
     <v>       0.38959050      -0.22493018       0.00000000 </v>
     <v>       0.00000000       0.00000000       0.03924815 </v>
    </varray>
   </crystal>
   <varray name="positions" >
    <v>       0.00000000       0.00000000       0.00000000 </v>
    <v>       0.66666667       0.33333333       0.08225555 </v>
    <v>       0.33333333       0.66666667       0.16451110 </v>
    <v>       0.00000000       0.00000000       0.24676665 </v>
    <v>       0.66666667       0.33333333       0.32902220 </v>
    <v>       0.33333333       0.66666667       0.41127774 </v>
   </varray>
  </structure>
  <varray name="primitive_index" >
   <v type="int" >        1 </v>
   <v type="int" >       10 </v>
   <v type="int" >       27 </v>
   <v type="int" >       28 </v>
   <v type="int" >       37 </v>
   <v type="int" >       54 </v>
  </varray>
 </primitive_cell>
 <kpoints>
  <generation param="Monkhorst-Pack">
   <v type="int" name="divisions">       3        3        1 </v>
   <v name="usershift">      0.00000000       0.00000000       0.00000000 </v>
   <v name="genvec1">      0.33333333       0.00000000       0.00000000 </v>
   <v name="genvec2">      0.00000000       0.33333333       0.00000000 </v>
   <v name="genvec3">      0.00000000       0.00000000       1.00000000 </v>
   <v name="shift">      0.00000000       0.00000000       0.00000000 </v>
  </generation>
  <varray name="kpointlist" >
   <v>       0.00000000       0.00000000       0.00000000 </v>
   <v>       0.33333333      -0.00000000       0.00000000 </v>
   <v>      -0.33333333       0.33333333       0.00000000 </v>
  </varray>
  <varray name="weights" >
   <v>       0.11111111 </v>
   <v>       0.66666667 </v>
   <v>       0.22222222 </v>
  </varray>
 </kpoints>
 <parameters>
  <separator name="general" >
   <i type="string" name="SYSTEM">unknown system</i>
   <i type="logical" name="LCOMPAT"> F  </i>
  </separator>
  <separator name="electronic" >
   <i type="string" name="PREC">normal</i>
   <i name="ENMAX">    400.00000000</i>
   <i name="ENAUG">    586.98000000</i>
   <i name="EDIFF">      0.00020000</i>
   <i type="int" name="IALGO">    38</i>
   <i type="int" name="IWAVPR">    11</i>
   <i type="int" name="NBANDS">   384</i>
   <i type="int" name="NBANDSLOW">    -1</i>
   <i type="int" name="NBANDSHIGH">    -1</i>
   <i name="NELECT">    594.00000000</i>
   <i type="int" name="TURBO">     0</i>
   <i type="int" name="IRESTART">     0</i>
   <i type="int" name="NREBOOT">     0</i>
   <i type="int" name="NMIN">     0</i>
   <i name="EREF">      0.00000000</i>
   <separator name="electronic smearing" >
    <i type="int" name="ISMEAR">     1</i>
    <i name="SIGMA">      0.20000000</i>
    <i name="KSPACING">      0.50000000</i>
    <i type="logical" name="KGAMMA"> T  </i>
    <i type="logical" name="KBLOWUP"> T  </i>
   </separator>
   <separator name="electronic projectors" >
    <i type="logical" name="LREAL"> F  </i>
    <v name="ROPT">      0.00000000</v>
    <i type="int" name="LMAXPAW">  -100</i>
    <i type="int" name="LMAXMIX">     2</i>
    <i type="logical" name="NLSPLINE"> F  </i>
   </separator>
   <separator name="electronic startup" >
    <i type="int" name="ISTART">     0</i>
    <i type="int" name="ICHARG">     2</i>
    <i type="int" name="INIWAV">     1</i>
   </separator>
   <separator name="electronic spin" >
    <i type="int" name="ISPIN">     2</i>
    <i type="logical" name="LNONCOLLINEAR"> F  </i>
    <v name="MAGMOM">      1.00000000      1.00000000      1.00000000      1.00000000      1.00000000      1.00000000      1.00000000      1.00000000      1.00000000      1.00000000      1.00000000      1.00000000      1.00000000      1.00000000      1.00000000      1.00000000      1.00000000      1.00000000      1.00000000      1.00000000
      1.00000000      1.00000000      1.00000000      1.00000000      1.00000000      1.00000000      1.00000000      1.00000000      1.00000000      1.00000000      1.00000000      1.00000000      1.00000000      1.00000000      1.00000000      1.00000000      1.00000000      1.00000000      1.00000000      1.00000000
      1.00000000      1.00000000      1.00000000      1.00000000      1.00000000      1.00000000      1.00000000      1.00000000      1.00000000      1.00000000      1.00000000      1.00000000      1.00000000      1.00000000</v>
    <i name="NUPDOWN">     -1.00000000</i>
    <i type="logical" name="LSORBIT"> F  </i>
    <v name="SAXIS">      0.00000000      0.00000000      1.00000000</v>
    <i type="logical" name="LSPIRAL"> F  </i>
    <v name="QSPIRAL">      0.00000000      0.00000000      0.00000000</v>
    <i type="logical" name="LZEROZ"> F  </i>
   </separator>
   <separator name="electronic exchange-correlation" >
    <i type="logical" name="LASPH"> F  </i>
    <i type="logical" name="LMETAGGA"> F  </i>
   </separator>
   <separator name="electronic convergence" >
    <i type="int" name="NELM">    60</i>
    <i type="int" name="NELMDL">    -5</i>
    <i type="int" name="NELMIN">     2</i>
    <i name="ENINI">    400.00000000</i>
    <separator name="electronic convergence detail" >
     <i type="logical" name="LDIAG"> T  </i>
     <i type="logical" name="LSUBROT"> F  </i>
     <i name="WEIMIN">      0.00100000</i>
     <i name="EBREAK">      0.00000013</i>
     <i name="DEPER">      0.30000000</i>
     <i type="int" name="NRMM">     4</i>
     <i name="TIME">      0.40000000</i>
    </separator>
   </separator>
   <separator name="electronic mixer" >
    <i name="AMIX">      0.40000000</i>
    <i name="BMIX">      1.00000000</i>
    <i name="AMIN">      0.10000000</i>
    <i name="AMIX_MAG">      1.60000000</i>
    <i name="BMIX_MAG">      1.00000000</i>
    <separator name="electronic mixer details" >
     <i type="int" name="IMIX">     4</i>
     <i type="logical" name="MIXFIRST"> F  </i>
     <i type="int" name="MAXMIX">   -45</i>
     <i name="WC">    100.00000000</i>
     <i type="int" name="INIMIX">     1</i>
     <i type="int" name="MIXPRE">     1</i>
     <i type="int" name="MREMOVE">     5</i>
    </separator>
   </separator>
   <separator name="electronic dipolcorrection" >
    <i type="logical" name="LDIPOL"> F  </i>
    <i type="logical" name="LMONO"> F  </i>
    <i type="int" name="IDIPOL">     3</i>
    <i name="EPSILON">      1.00000000</i>
    <v name="DIPOL">   -100.00000000   -100.00000000   -100.00000000</v>
    <i name="EFIELD">      0.00000000</i>
   </separator>
  </separator>
  <separator name="grids" >
   <i type="int" name="NGX">    40</i>
   <i type="int" name="NGY">    40</i>
   <i type="int" name="NGZ">   126</i>
   <i type="int" name="NGXF">    80</i>
   <i type="int" name="NGYF">    80</i>
   <i type="int" name="NGZF">   252</i>
   <i type="logical" name="ADDGRID"> F  </i>
  </separator>
  <separator name="ionic" >
   <i type="int" name="NSW">   800</i>
   <i type="int" name="IBRION">     2</i>
   <i type="int" name="MDALGO">     0</i>
   <i type="int" name="ISIF">     2</i>
   <i name="PSTRESS">      0.00000000</i>
   <i name="EDIFFG">     -0.03000000</i>
   <i type="int" name="NFREE">     1</i>
   <i name="POTIM">      0.50000000</i>
   <i name="SMASS">     -3.00000000</i>
   <i name="SCALEE">      1.00000000</i>
  </separator>
  <separator name="ionic md" >
   <i name="TEBEG">      0.00010000</i>
   <i name="TEEND">      0.00010000</i>
   <i type="int" name="NBLOCK">     1</i>
   <i type="int" name="KBLOCK">   800</i>
   <i type="int" name="NPACO">   256</i>
   <i name="APACO">     10.00000000</i>
  </separator>
  <separator name="symmetry" >
   <i type="int" name="ISYM">     1</i>
   <i name="SYMPREC">      0.00001000</i>
  </separator>
  <separator name="dos" >
   <i type="int" name="LORBIT">     0</i>
   <v name="RWIGS">     -1.00000000</v>
   <i type="int" name="NEDOS">   301</i>
   <i name="EMIN">     10.00000000</i>
   <i name="EMAX">    -10.00000000</i>
   <i name="EFERMI">      0.00000000</i>
  </separator>
  <separator name="writing" >
   <i type="int" name="NWRITE">     2</i>
   <i type="logical" name="LWAVE"> F  </i>
   <i type="logical" name="LDOWNSAMPLE"> F  </i>
   <i type="logical" name="LCHARG"> F  </i>
   <i type="logical" name="LPARD"> F  </i>
   <i type="logical" name="LVTOT"> F  </i>
   <i type="logical" name="LVHAR"> F  </i>
   <i type="logical" name="LELF"> F  </i>
   <i type="logical" name="LOPTICS"> F  </i>
   <v name="STM">      0.00000000      0.00000000      0.00000000      0.00000000      0.00000000      0.00000000      0.00000000</v>
  </separator>
  <separator name="performance" >
   <i type="int" name="NPAR">     4</i>
   <i type="int" name="NSIM">     4</i>
   <i type="int" name="NBLK">    -1</i>
   <i type="logical" name="LPLANE"> T  </i>
   <i type="logical" name="LSCALAPACK"> T  </i>
   <i type="logical" name="LSCAAWARE"> F  </i>
   <i type="logical" name="LSCALU"> F  </i>
   <i type="logical" name="LASYNC"> F  </i>
   <i type="logical" name="LORBITALREAL"> F  </i>
  </separator>
  <separator name="miscellaneous" >
   <i type="int" name="IDIOT">     3</i>
   <i type="int" name="PHON_NSTRUCT">    -1</i>
   <i type="logical" name="LMUSIC"> F  </i>
   <v name="POMASS">     63.54600000</v>
   <v name="DARWINR">      0.00000000</v>
   <v name="DARWINV">      1.00000000</v>
   <i type="logical" name="LCORR"> T  </i>
  </separator>
  <i type="logical" name="GGA_COMPAT"> T  </i>
  <i type="logical" name="LBERRY"> F  </i>
  <i type="int" name="ICORELEVEL">     0</i>
  <i type="logical" name="LDAU"> F  </i>
  <i type="int" name="I_CONSTRAINED_M">     0</i>
  <separator name="electronic exchange-correlation" >
   <i type="string" name="GGA">PE</i>
   <i type="int" name="VOSKOWN">     0</i>
   <i type="logical" name="LHFCALC"> F  </i>
   <i type="string" name="PRECFOCK"></i>
   <i type="logical" name="LSYMGRAD"> F  </i>
   <i type="logical" name="LHFONE"> F  </i>
   <i type="logical" name="LRHFCALC"> F  </i>
   <i type="logical" name="LTHOMAS"> F  </i>
   <i type="logical" name="LMODELHF"> F  </i>
   <i type="logical" name="LFOCKACE"> F  </i>
   <i name="ENCUT4O">     -1.00000000</i>
   <i type="int" name="EXXOEP">     0</i>
   <i type="int" name="FOURORBIT">     0</i>
   <i name="AEXX">      0.00000000</i>
   <i name="HFALPHA">      0.00000000</i>
   <i name="MCALPHA">      0.00000000</i>
   <i name="ALDAX">      1.00000000</i>
   <i name="AGGAX">      1.00000000</i>
   <i name="ALDAC">      1.00000000</i>
   <i name="AGGAC">      1.00000000</i>
   <i type="int" name="NKREDX">     1</i>
   <i type="int" name="NKREDY">     1</i>
   <i type="int" name="NKREDZ">     1</i>
   <i type="logical" name="SHIFTRED"> F  </i>
   <i type="logical" name="ODDONLY"> F  </i>
   <i type="logical" name="EVENONLY"> F  </i>
   <i type="int" name="LMAXFOCK">     0</i>
   <i type="int" name="NMAXFOCKAE">     0</i>
   <i type="logical" name="LFOCKAEDFT"> F  </i>
   <i name="HFSCREEN">      0.00000000</i>
   <i name="HFSCREENC">      0.00000000</i>
   <i type="int" name="NBANDSGWLOW">     0</i>
  </separator>
  <separator name="vdW DFT" >
   <i type="logical" name="LUSE_VDW"> F  </i>
   <i name="Zab_VDW">     -0.84910000</i>
   <i name="PARAM1">      0.12340000</i>
   <i name="PARAM2">      1.00000000</i>
   <i name="PARAM3">      0.00000000</i>
  </separator>
  <separator name="model GW" >
   <i type="int" name="MODEL_GW">     0</i>
   <i name="MODEL_EPS0">     14.53766797</i>
   <i name="MODEL_ALPHA">      1.00000000</i>
  </separator>
  <separator name="linear response parameters" >
   <i type="logical" name="LEPSILON"> F  </i>
   <i type="logical" name="LRPA"> F  </i>
   <i type="logical" name="LNABLA"> F  </i>
   <i type="logical" name="LVEL"> F  </i>
   <i name="CSHIFT">      0.10000000</i>
   <i name="OMEGAMAX">     -1.00000000</i>
   <i name="DEG_THRESHOLD">      0.00200000</i>
   <i name="RTIME">     -0.10000000</i>
   <i name="WPLASMAI">      0.00000000</i>
   <v name="DFIELD">      0.00000000      0.00000000      0.00000000</v>
   <v name="WPLASMA">      0.00000000      0.00000000      0.00000000      0.00000000      0.00000000      0.00000000      0.00000000      0.00000000      0.00000000</v>
  </separator>
  <separator name="orbital magnetization" >
   <i type="logical" name="NUCIND"> F  </i>
   <v name="MAGPOS">      0.00000000      0.00000000      0.00000000</v>
   <i type="logical" name="LNICSALL"> T  </i>
   <i type="logical" name="ORBITALMAG"> F  </i>
   <i type="logical" name="LMAGBLOCH"> F  </i>
   <i type="logical" name="LCHIMAG"> F  </i>
   <i type="logical" name="LGAUGE"> T  </i>
   <i type="int" name="MAGATOM">     0</i>
   <v name="MAGDIPOL">      0.00000000      0.00000000      0.00000000</v>
   <v name="AVECCONST">      0.00000000      0.00000000      0.00000000</v>
  </separator>
  <separator name="response functions" >
   <i type="logical" name="LFINITE_TEMPERATURE"> F  </i>
   <i type="logical" name="LADDER"> F  </i>
   <i type="logical" name="LRPAFORCE"> F  </i>
   <i type="logical" name="LFXC"> F  </i>
   <i type="logical" name="LHARTREE"> T  </i>
   <i type="int" name="IBSE">     0</i>
   <v type="int" name="KPOINT">    -1     0     0     0</v>
   <i type="logical" name="LTCTC"> F  </i>
   <i type="logical" name="LTCTE"> F  </i>
   <i type="logical" name="LTETE"> F  </i>
   <i type="logical" name="LTRIPLET"> F  </i>
   <i type="logical" name="LFXCEPS"> F  </i>
   <i type="logical" name="LFXHEG"> F  </i>
   <i type="int" name="NATURALO">     2</i>
   <i type="logical" name="LHOLEGF"> F  </i>
   <i type="logical" name="L2ORDER"> F  </i>
   <i type="logical" name="LDMP1"> F  </i>
   <i type="logical" name="LMP2LT"> F  </i>
   <i type="logical" name="LSMP2LT"> F  </i>
   <i type="logical" name="LGWLF"> F  </i>
   <i name="ENCUTGW">     -2.00000000</i>
   <i name="ENCUTGWSOFT">     -2.00000000</i>
   <i name="ENCUTLF">     -1.00000000</i>
   <i type="logical" name="LESF_SPLINES"> F  </i>
   <i type="int" name="LMAXMP2">    -1</i>
   <i name="SCISSOR">      0.00000000</i>
   <i type="int" name="NOMEGA">     0</i>
   <i type="int" name="NOMEGAR">     0</i>
   <i type="int" name="NBANDSGW">    -1</i>
   <i type="int" name="NBANDSO">    -1</i>
   <i type="int" name="NBANDSV">    -1</i>
   <i type="int" name="NELMGW">     1</i>
   <i type="int" name="NELMHF">     1</i>
   <i type="int" name="DIM">     3</i>
   <i type="int" name="IESPILON">     4</i>
   <i type="int" name="ANTIRES">     0</i>
   <i name="OMEGAMAX">    -30.00000000</i>
   <i name="OMEGAMIN">    -30.00000000</i>
   <i name="OMEGATL">   -200.00000000</i>
   <i type="int" name="OMEGAGRID">     0</i>
   <i name="CSHIFT">     -0.10000000</i>
   <i type="logical" name="LSELFENERGY"> F  </i>
   <i type="logical" name="LSPECTRAL"> F  </i>
   <i type="logical" name="LSPECTRALGW"> F  </i>
   <i type="logical" name="LSINGLES"> F  </i>
   <i type="logical" name="LFERMIGW"> F  </i>
   <i type="logical" name="ODDONLYGW"> F  </i>
   <i type="logical" name="EVENONLYGW"> F  </i>
   <i type="int" name="NKREDLFX">     1</i>
   <i type="int" name="NKREDLFY">     1</i>
   <i type="int" name="NKREDLFZ">     1</i>
   <i type="int" name="MAXMEM">  2800</i>
   <i type="int" name="TELESCOPE">     0</i>
   <i type="int" name="NTAUPAR">    -1</i>
   <i type="int" name="NOMEGAPAR">    -1</i>
   <i name="DAMP_NEWTON">      0.80000001</i>
   <i name="LAMBDA">      1.00000000</i>
  </separator>
  <separator name="External order field" >
   <i name="OFIELD_KAPPA">      0.00000000</i>
   <v name="OFIELD_K">      0.00000000      0.00000000      0.00000000</v>
   <i name="OFIELD_Q6_NEAR">      0.00000000</i>
   <i name="OFIELD_Q6_FAR">      0.00000000</i>
   <i name="OFIELD_A">      0.00000000</i>
  </separator>
  <separator name="optional k-points parameters" >
   <i type="int" name="KPOINTS_OPT_MODE">     1</i>
   <i type="logical" name="LKPOINTS_OPT"> F  </i>
  </separator>
 </parameters>
 <atominfo>
  <atoms>      54 </atoms>
  <types>       1 </types>
  <array name="atoms" >
   <dimension dim="1">ion</dimension>
   <field type="string">element</field>
   <field type="int">atomtype</field>
   <set>
    <rc><c>Cu</c><c>   1</c></rc>
    <rc><c>Cu</c><c>   1</c></rc>
    <rc><c>Cu</c><c>   1</c></rc>
    <rc><c>Cu</c><c>   1</c></rc>
    <rc><c>Cu</c><c>   1</c></rc>
    <rc><c>Cu</c><c>   1</c></rc>
    <rc><c>Cu</c><c>   1</c></rc>
    <rc><c>Cu</c><c>   1</c></rc>
    <rc><c>Cu</c><c>   1</c></rc>
    <rc><c>Cu</c><c>   1</c></rc>
    <rc><c>Cu</c><c>   1</c></rc>
    <rc><c>Cu</c><c>   1</c></rc>
    <rc><c>Cu</c><c>   1</c></rc>
    <rc><c>Cu</c><c>   1</c></rc>
    <rc><c>Cu</c><c>   1</c></rc>
    <rc><c>Cu</c><c>   1</c></rc>
    <rc><c>Cu</c><c>   1</c></rc>
    <rc><c>Cu</c><c>   1</c></rc>
    <rc><c>Cu</c><c>   1</c></rc>
    <rc><c>Cu</c><c>   1</c></rc>
    <rc><c>Cu</c><c>   1</c></rc>
    <rc><c>Cu</c><c>   1</c></rc>
    <rc><c>Cu</c><c>   1</c></rc>
    <rc><c>Cu</c><c>   1</c></rc>
    <rc><c>Cu</c><c>   1</c></rc>
    <rc><c>Cu</c><c>   1</c></rc>
    <rc><c>Cu</c><c>   1</c></rc>
    <rc><c>Cu</c><c>   1</c></rc>
    <rc><c>Cu</c><c>   1</c></rc>
    <rc><c>Cu</c><c>   1</c></rc>
    <rc><c>Cu</c><c>   1</c></rc>
    <rc><c>Cu</c><c>   1</c></rc>
    <rc><c>Cu</c><c>   1</c></rc>
    <rc><c>Cu</c><c>   1</c></rc>
    <rc><c>Cu</c><c>   1</c></rc>
    <rc><c>Cu</c><c>   1</c></rc>
    <rc><c>Cu</c><c>   1</c></rc>
    <rc><c>Cu</c><c>   1</c></rc>
    <rc><c>Cu</c><c>   1</c></rc>
    <rc><c>Cu</c><c>   1</c></rc>
    <rc><c>Cu</c><c>   1</c></rc>
    <rc><c>Cu</c><c>   1</c></rc>
    <rc><c>Cu</c><c>   1</c></rc>
    <rc><c>Cu</c><c>   1</c></rc>
    <rc><c>Cu</c><c>   1</c></rc>
    <rc><c>Cu</c><c>   1</c></rc>
    <rc><c>Cu</c><c>   1</c></rc>
    <rc><c>Cu</c><c>   1</c></rc>
    <rc><c>Cu</c><c>   1</c></rc>
    <rc><c>Cu</c><c>   1</c></rc>
    <rc><c>Cu</c><c>   1</c></rc>
    <rc><c>Cu</c><c>   1</c></rc>
    <rc><c>Cu</c><c>   1</c></rc>
    <rc><c>Cu</c><c>   1</c></rc>
   </set>
  </array>
  <array name="atomtypes" >
   <dimension dim="1">type</dimension>
   <field type="int">atomspertype</field>
   <field type="string">element</field>
   <field>mass</field>
   <field>valence</field>
   <field type="string">pseudopotential</field>
   <set>
    <rc><c>  54</c><c>Cu</c><c>     63.54600000</c><c>     11.00000000</c><c>  PAW_PBE Cu 22Jun2005                  </c></rc>
   </set>
  </array>
 </atominfo>
 <structure name="initialpos" >
  <crystal>
   <varray name="basis" >
    <v>       7.70039320       0.00000000       0.00000000 </v>
    <v>       3.85019660       6.66873613       0.00000000 </v>
    <v>       0.00000000       0.00000000      25.47890854 </v>
   </varray>
   <i name="volume">   1308.39011751 </i>
   <varray name="rec_basis" >
    <v>       0.12986350      -0.07497673       0.00000000 </v>
    <v>       0.00000000       0.14995345       0.00000000 </v>
    <v>       0.00000000       0.00000000       0.03924815 </v>
   </varray>
  </crystal>
  <varray name="positions" >
   <v>       0.00000000       0.00000000       0.00000000 </v>
   <v>       0.00000000       0.33333333       0.00000000 </v>
   <v>       1.00000000       0.66666667       0.00000000 </v>
   <v>       0.33333333       0.00000000       0.00000000 </v>
   <v>       0.33333333       0.33333333       0.00000000 </v>
   <v>       0.33333333       0.66666667       0.00000000 </v>
   <v>       0.66666667       0.00000000       0.00000000 </v>
   <v>       0.66666667       0.33333333       0.00000000 </v>
   <v>       0.66666667       0.66666667       0.00000000 </v>
   <v>       0.11111111       0.11111111       0.08225555 </v>
   <v>       0.11111111       0.44444444       0.08225555 </v>
   <v>       0.11111111       0.77777778       0.08225555 </v>
   <v>       0.44444444       0.11111111       0.08225555 </v>
   <v>       0.44444444       0.44444444       0.08225555 </v>
   <v>       0.44444444       0.77777778       0.08225555 </v>
   <v>       0.77777778       0.11111111       0.08225555 </v>
   <v>       0.77777778       0.44444444       0.08225555 </v>
   <v>       0.77777778       0.77777778       0.08225555 </v>
   <v>       0.22222222       0.22222222       0.16451110 </v>
   <v>       0.22222222       0.55555556       0.16451110 </v>
   <v>       0.22222222       0.88888889       0.16451110 </v>
   <v>       0.55555556       0.22222222       0.16451110 </v>
   <v>       0.55555556       0.55555556       0.16451110 </v>
   <v>       0.55555556       0.88888889       0.16451110 </v>
   <v>       0.88888889       0.22222222       0.16451110 </v>
   <v>       0.88888889       0.55555556       0.16451110 </v>
   <v>       0.88888889       0.88888889       0.16451110 </v>
   <v>       0.00000000       0.00000000       0.24676665 </v>
   <v>       0.00000000       0.33333333       0.24676665 </v>
   <v>       1.00000000       0.66666667       0.24676665 </v>
   <v>       0.33333333       0.00000000       0.24676665 </v>
   <v>       0.33333333       0.33333333       0.24676665 </v>
   <v>       0.33333333       0.66666667       0.24676665 </v>
   <v>       0.66666667       0.00000000       0.24676665 </v>
   <v>       0.66666667       0.33333333       0.24676665 </v>
   <v>       0.66666667       0.66666667       0.24676665 </v>
   <v>       0.11111111       0.11111111       0.32902220 </v>
   <v>       0.11111111       0.44444444       0.32902220 </v>
   <v>       0.11111111       0.77777778       0.32902220 </v>
   <v>       0.44444444       0.11111111       0.32902220 </v>
   <v>       0.44444444       0.44444444       0.32902220 </v>
   <v>       0.44444444       0.77777778       0.32902220 </v>
   <v>       0.77777778       0.11111111       0.32902220 </v>
   <v>       0.77777778       0.44444444       0.32902220 </v>
   <v>       0.77777778       0.77777778       0.32902220 </v>
   <v>       0.22222222       0.22222222       0.41127774 </v>
   <v>       0.22222222       0.55555556       0.41127774 </v>
   <v>       0.22222222       0.88888889       0.41127774 </v>
   <v>       0.55555556       0.22222222       0.41127774 </v>
   <v>       0.55555556       0.55555556       0.41127774 </v>
   <v>       0.55555556       0.88888889       0.41127774 </v>
   <v>       0.88888889       0.22222222       0.41127774 </v>
   <v>       0.88888889       0.55555556       0.41127774 </v>
   <v>       0.88888889       0.88888889       0.41127774 </v>
  </varray>
  <varray name="selective"  type="logical" >
   <v type="logical" >  F  F  F </v>
   <v type="logical" >  F  F  F </v>
   <v type="logical" >  F  F  F </v>
   <v type="logical" >  F  F  F </v>
   <v type="logical" >  F  F  F </v>
   <v type="logical" >  F  F  F </v>
   <v type="logical" >  F  F  F </v>
   <v type="logical" >  F  F  F </v>
   <v type="logical" >  F  F  F </v>
   <v type="logical" >  F  F  F </v>
   <v type="logical" >  F  F  F </v>
   <v type="logical" >  F  F  F </v>
   <v type="logical" >  F  F  F </v>
   <v type="logical" >  F  F  F </v>
   <v type="logical" >  F  F  F </v>
   <v type="logical" >  F  F  F </v>
   <v type="logical" >  F  F  F </v>
   <v type="logical" >  F  F  F </v>
   <v type="logical" >  T  T  T </v>
   <v type="logical" >  T  T  T </v>
   <v type="logical" >  T  T  T </v>
   <v type="logical" >  T  T  T </v>
   <v type="logical" >  T  T  T </v>
   <v type="logical" >  T  T  T </v>
   <v type="logical" >  T  T  T </v>
   <v type="logical" >  T  T  T </v>
   <v type="logical" >  T  T  T </v>
   <v type="logical" >  T  T  T </v>
   <v type="logical" >  T  T  T </v>
   <v type="logical" >  T  T  T </v>
   <v type="logical" >  T  T  T </v>
   <v type="logical" >  T  T  T </v>
   <v type="logical" >  T  T  T </v>
   <v type="logical" >  T  T  T </v>
   <v type="logical" >  T  T  T </v>
   <v type="logical" >  T  T  T </v>
   <v type="logical" >  T  T  T </v>
   <v type="logical" >  T  T  T </v>
   <v type="logical" >  T  T  T </v>
   <v type="logical" >  T  T  T </v>
   <v type="logical" >  T  T  T </v>
   <v type="logical" >  T  T  T </v>
   <v type="logical" >  T  T  T </v>
   <v type="logical" >  T  T  T </v>
   <v type="logical" >  T  T  T </v>
   <v type="logical" >  T  T  T </v>
   <v type="logical" >  T  T  T </v>
   <v type="logical" >  T  T  T </v>
   <v type="logical" >  T  T  T </v>
   <v type="logical" >  T  T  T </v>
   <v type="logical" >  T  T  T </v>
   <v type="logical" >  T  T  T </v>
   <v type="logical" >  T  T  T </v>
   <v type="logical" >  T  T  T </v>
  </varray>
  <nose>
   <v>      -3.00000000       0.00000000       0.00010000       0.00010000 </v>
  </nose>
 </structure>
 <calculation>
  <scstep>
   <time name="dav">   21.01   21.16</time>
   <time name="total">   21.14   21.32</time>
   <energy>
    <i name="alphaZ">   1629.90573480 </i>
    <i name="ewald"> 288368.47495906 </i>
    <i name="hartreedc">-361843.13471163 </i>
    <i name="XCdc">   2467.96067516 </i>
    <i name="pawpsdc">  66317.26478664 </i>
    <i name="pawaedc"> -72031.73030235 </i>
    <i name="eentropy">     -0.00620388 </i>
    <i name="bandstr">   5639.98995853 </i>
    <i name="atom">  75111.71257079 </i>
    <i name="e_fr_energy">   5660.43746712 </i>
    <i name="e_wo_entrp">   5660.44367100 </i>
    <i name="e_0_energy">   5660.43953508 </i>
   </energy>
  </scstep>
  <scstep>
   <time name="dav">   20.82   20.97</time>
   <time name="total">   20.82   20.97</time>
   <energy>
    <i name="e_fr_energy">    749.24917462 </i>
    <i name="e_wo_entrp">    749.26538571 </i>
    <i name="e_0_energy">    749.25457832 </i>
   </energy>
  </scstep>
  <scstep>
   <time name="dav">   20.74   20.89</time>
   <time name="total">   20.75   20.89</time>
   <energy>
    <i name="e_fr_energy">   -158.01953283 </i>
    <i name="e_wo_entrp">   -157.97556213 </i>
    <i name="e_0_energy">   -158.00487593 </i>
   </energy>
  </scstep>
  <scstep>
   <time name="dav">   22.30   22.46</time>
   <time name="total">   22.31   22.46</time>
   <energy>
    <i name="e_fr_energy">   -227.79298680 </i>
    <i name="e_wo_entrp">   -227.74552960 </i>
    <i name="e_0_energy">   -227.77716773 </i>
   </energy>
  </scstep>
  <scstep>
   <time name="dav">   22.50   22.66</time>
   <time name="total">   23.75   23.91</time>
   <energy>
    <i name="e_fr_energy">   -229.53313327 </i>
    <i name="e_wo_entrp">   -229.48712914 </i>
    <i name="e_0_energy">   -229.51779856 </i>
   </energy>
  </scstep>
  <scstep>
   <time name="dav">   22.33   22.49</time>
   <time name="total">   23.64   23.81</time>
   <energy>
    <i name="e_fr_energy">   -190.39793574 </i>
    <i name="e_wo_entrp">   -190.27965726 </i>
    <i name="e_0_energy">   -190.35850958 </i>
   </energy>
  </scstep>
  <scstep>
   <time name="dav">   21.96   22.14</time>
   <time name="total">   23.25   23.43</time>
   <energy>
    <i name="e_fr_energy">   -162.28854294 </i>
    <i name="e_wo_entrp">   -162.15406180 </i>
    <i name="e_0_energy">   -162.24371589 </i>
   </energy>
  </scstep>
  <scstep>
   <time name="dav">   24.00   24.18</time>
   <time name="total">   25.31   25.49</time>
   <energy>
    <i name="e_fr_energy">   -155.59792669 </i>
    <i name="e_wo_entrp">   -155.48141436 </i>
    <i name="e_0_energy">   -155.55908925 </i>
   </energy>
  </scstep>
  <scstep>
   <time name="dav">   25.21   25.61</time>
   <time name="total">   26.44   26.86</time>
   <energy>
    <i name="e_fr_energy">   -156.04774854 </i>
    <i name="e_wo_entrp">   -155.91673973 </i>
    <i name="e_0_energy">   -156.00407894 </i>
   </energy>
  </scstep>
  <scstep>
   <time name="dav">   29.15   29.33</time>
   <time name="total">   30.41   30.59</time>
   <energy>
    <i name="e_fr_energy">   -161.30094365 </i>
    <i name="e_wo_entrp">   -161.24409657 </i>
    <i name="e_0_energy">   -161.28199462 </i>
   </energy>
  </scstep>
  <scstep>
   <time name="dav">   24.01   24.26</time>
   <time name="total">   25.27   25.53</time>
   <energy>
    <i name="e_fr_energy">   -162.44604042 </i>
    <i name="e_wo_entrp">   -162.45952686 </i>
    <i name="e_0_energy">   -162.45053590 </i>
   </energy>
  </scstep>
  <scstep>
   <time name="dav">   26.21   26.40</time>
   <time name="total">   27.49   27.68</time>
   <energy>
    <i name="e_fr_energy">   -164.26988272 </i>
    <i name="e_wo_entrp">   -164.28649085 </i>
    <i name="e_0_energy">   -164.27541876 </i>
   </energy>
  </scstep>
  <scstep>
   <time name="dav">   29.03   29.37</time>
   <time name="total">   30.77   31.19</time>
   <energy>
    <i name="e_fr_energy">   -173.75168636 </i>
    <i name="e_wo_entrp">   -173.77216522 </i>
    <i name="e_0_energy">   -173.75851265 </i>
   </energy>
  </scstep>
  <scstep>
   <time name="dav">   29.97   30.47</time>
   <time name="total">   31.22   31.73</time>
   <energy>
    <i name="e_fr_energy">   -184.38556477 </i>
    <i name="e_wo_entrp">   -184.42868167 </i>
    <i name="e_0_energy">   -184.39993707 </i>
   </energy>
  </scstep>
  <scstep>
   <time name="dav">   24.16   24.31</time>
   <time name="total">   25.41   25.57</time>
   <energy>
    <i name="e_fr_energy">   -185.77142717 </i>
    <i name="e_wo_entrp">   -185.82808325 </i>
    <i name="e_0_energy">   -185.79031253 </i>
   </energy>
  </scstep>
  <scstep>
   <time name="dav">   22.21   22.35</time>
   <time name="total">   23.45   23.60</time>
   <energy>
    <i name="e_fr_energy">   -186.71475410 </i>
    <i name="e_wo_entrp">   -186.76817932 </i>
    <i name="e_0_energy">   -186.73256251 </i>
   </energy>
  </scstep>
  <scstep>
   <time name="dav">   25.12   25.29</time>
   <time name="total">   26.39   26.56</time>
   <energy>
    <i name="e_fr_energy">   -187.68126321 </i>
    <i name="e_wo_entrp">   -187.71376285 </i>
    <i name="e_0_energy">   -187.69209642 </i>
   </energy>
  </scstep>
  <scstep>
   <time name="dav">   27.70   27.88</time>
   <time name="total">   28.95   29.14</time>
   <energy>
    <i name="e_fr_energy">   -188.44893061 </i>
    <i name="e_wo_entrp">   -188.45842954 </i>
    <i name="e_0_energy">   -188.45209692 </i>
   </energy>
  </scstep>
  <scstep>
   <time name="dav">   23.95   24.27</time>
   <time name="total">   25.20   25.53</time>
   <energy>
    <i name="e_fr_energy">   -189.59242169 </i>
    <i name="e_wo_entrp">   -189.59854463 </i>
    <i name="e_0_energy">   -189.59446267 </i>
   </energy>
  </scstep>
  <scstep>
   <time name="dav">   27.27   27.55</time>
   <time name="total">   28.54   28.83</time>
   <energy>
    <i name="e_fr_energy">   -190.31270534 </i>
    <i name="e_wo_entrp">   -190.31146772 </i>
    <i name="e_0_energy">   -190.31229280 </i>
   </energy>
  </scstep>
  <scstep>
   <time name="dav">   25.77   26.18</time>
   <time name="total">   27.02   27.43</time>
   <energy>
    <i name="e_fr_energy">   -191.56944540 </i>
    <i name="e_wo_entrp">   -191.56880611 </i>
    <i name="e_0_energy">   -191.56923230 </i>
   </energy>
  </scstep>
  <scstep>
   <time name="dav">   22.56   22.71</time>
   <time name="total">   23.81   23.97</time>
   <energy>
    <i name="e_fr_energy">   -192.30592064 </i>
    <i name="e_wo_entrp">   -192.30560489 </i>
    <i name="e_0_energy">   -192.30581539 </i>
   </energy>
  </scstep>
  <scstep>
   <time name="dav">   27.15   27.33</time>
   <time name="total">   28.41   28.59</time>
   <energy>
    <i name="e_fr_energy">   -193.02350801 </i>
    <i name="e_wo_entrp">   -193.01554031 </i>
    <i name="e_0_energy">   -193.02085211 </i>
   </energy>
  </scstep>
  <scstep>
   <time name="dav">   23.58   23.74</time>
   <time name="total">   24.87   25.03</time>
   <energy>
    <i name="e_fr_energy">   -193.47031133 </i>
    <i name="e_wo_entrp">   -193.46395777 </i>
    <i name="e_0_energy">   -193.46819348 </i>
   </energy>
  </scstep>
  <scstep>
   <time name="dav">   23.27   23.43</time>
   <time name="total">   24.55   24.71</time>
   <energy>
    <i name="e_fr_energy">   -193.72085299 </i>
    <i name="e_wo_entrp">   -193.71574189 </i>
    <i name="e_0_energy">   -193.71914929 </i>
   </energy>
  </scstep>
  <scstep>
   <time name="dav">   25.02   25.18</time>
   <time name="total">   26.29   26.47</time>
   <energy>
    <i name="e_fr_energy">   -193.77467764 </i>
    <i name="e_wo_entrp">   -193.77180991 </i>
    <i name="e_0_energy">   -193.77372173 </i>
   </energy>
  </scstep>
  <scstep>
   <time name="dav">   22.32   22.47</time>
   <time name="total">   24.37   24.53</time>
   <energy>
    <i name="e_fr_energy">   -193.79090382 </i>
    <i name="e_wo_entrp">   -193.78701335 </i>
    <i name="e_0_energy">   -193.78960700 </i>
   </energy>
  </scstep>
  <scstep>
   <time name="dav">   19.74   20.01</time>
   <time name="total">   20.97   21.25</time>
   <energy>
    <i name="e_fr_energy">   -193.79926072 </i>
    <i name="e_wo_entrp">   -193.79484320 </i>
    <i name="e_0_energy">   -193.79778821 </i>
   </energy>
  </scstep>
  <scstep>
   <time name="dav">   15.84   15.96</time>
   <time name="total">   17.10   17.22</time>
   <energy>
    <i name="e_fr_energy">   -193.80055318 </i>
    <i name="e_wo_entrp">   -193.79616817 </i>
    <i name="e_0_energy">   -193.79909151 </i>
   </energy>
  </scstep>
  <scstep>
   <time name="dav">   15.11   15.20</time>
   <time name="total">   15.23   15.32</time>
   <energy>
    <i name="alphaZ">   1629.90573480 </i>
    <i name="ewald"> 288368.47495906 </i>
    <i name="hartreedc">-360938.30927984 </i>
    <i name="XCdc">   2406.01842019 </i>
    <i name="pawpsdc">  70458.52470360 </i>
    <i name="pawaedc"> -76271.03967401 </i>
    <i name="eentropy">     -0.00417801 </i>
    <i name="bandstr">   -959.08386102 </i>
    <i name="atom">  75111.71257079 </i>
    <i name="e_fr_energy">   -193.80060443 </i>
    <i name="e_wo_entrp">   -193.79642642 </i>
    <i name="e_0_energy">   -193.79921176 </i>
   </energy>
  </scstep>
  <dipole>
   <v name="dipole">      0.00000000       0.00000000      -0.03641023 </v>
   <i name="Tr[quadrupol]">  -5788.97261477 </i>
   <i name="Echarged">      0.00000000 </i>
   <i name="Edipol_quadrupol">      0.00000000 </i>
   <i name="Eion">      0.00000000 </i>
  </dipole>
  <structure>
   <crystal>
    <varray name="basis" >
     <v>       7.70039320       0.00000000       0.00000000 </v>
     <v>       3.85019660       6.66873613       0.00000000 </v>
     <v>       0.00000000       0.00000000      25.47890854 </v>
    </varray>
    <i name="volume">   1308.39011751 </i>
    <varray name="rec_basis" >
     <v>       0.12986350      -0.07497673       0.00000000 </v>
     <v>       0.00000000       0.14995345       0.00000000 </v>
     <v>       0.00000000       0.00000000       0.03924815 </v>
    </varray>
   </crystal>
   <varray name="positions" >
    <v>       0.00000000       0.00000000       0.00000000 </v>
    <v>       0.00000000       0.33333333       0.00000000 </v>
    <v>       1.00000000       0.66666667       0.00000000 </v>
    <v>       0.33333333       0.00000000       0.00000000 </v>
    <v>       0.33333333       0.33333333       0.00000000 </v>
    <v>       0.33333333       0.66666667       0.00000000 </v>
    <v>       0.66666667       0.00000000       0.00000000 </v>
    <v>       0.66666667       0.33333333       0.00000000 </v>
    <v>       0.66666667       0.66666667       0.00000000 </v>
    <v>       0.11111111       0.11111111       0.08225555 </v>
    <v>       0.11111111       0.44444444       0.08225555 </v>
    <v>       0.11111111       0.77777778       0.08225555 </v>
    <v>       0.44444444       0.11111111       0.08225555 </v>
    <v>       0.44444444       0.44444444       0.08225555 </v>
    <v>       0.44444444       0.77777778       0.08225555 </v>
    <v>       0.77777778       0.11111111       0.08225555 </v>
    <v>       0.77777778       0.44444444       0.08225555 </v>
    <v>       0.77777778       0.77777778       0.08225555 </v>
    <v>       0.22222222       0.22222222       0.16451110 </v>
    <v>       0.22222222       0.55555556       0.16451110 </v>
    <v>       0.22222222       0.88888889       0.16451110 </v>
    <v>       0.55555556       0.22222222       0.16451110 </v>
    <v>       0.55555556       0.55555556       0.16451110 </v>
    <v>       0.55555556       0.88888889       0.16451110 </v>
    <v>       0.88888889       0.22222222       0.16451110 </v>
    <v>       0.88888889       0.55555556       0.16451110 </v>
    <v>       0.88888889       0.88888889       0.16451110 </v>
    <v>       0.00000000       0.00000000       0.24676665 </v>
    <v>       0.00000000       0.33333333       0.24676665 </v>
    <v>       1.00000000       0.66666667       0.24676665 </v>
    <v>       0.33333333       0.00000000       0.24676665 </v>
    <v>       0.33333333       0.33333333       0.24676665 </v>
    <v>       0.33333333       0.66666667       0.24676665 </v>
    <v>       0.66666667       0.00000000       0.24676665 </v>
    <v>       0.66666667       0.33333333       0.24676665 </v>
    <v>       0.66666667       0.66666667       0.24676665 </v>
    <v>       0.11111111       0.11111111       0.32902220 </v>
    <v>       0.11111111       0.44444444       0.32902220 </v>
    <v>       0.11111111       0.77777778       0.32902220 </v>
    <v>       0.44444444       0.11111111       0.32902220 </v>
    <v>       0.44444444       0.44444444       0.32902220 </v>
    <v>       0.44444444       0.77777778       0.32902220 </v>
    <v>       0.77777778       0.11111111       0.32902220 </v>
    <v>       0.77777778       0.44444444       0.32902220 </v>
    <v>       0.77777778       0.77777778       0.32902220 </v>
    <v>       0.22222222       0.22222222       0.41127774 </v>
    <v>       0.22222222       0.55555556       0.41127774 </v>
    <v>       0.22222222       0.88888889       0.41127774 </v>
    <v>       0.55555556       0.22222222       0.41127774 </v>
    <v>       0.55555556       0.55555556       0.41127774 </v>
    <v>       0.55555556       0.88888889       0.41127774 </v>
    <v>       0.88888889       0.22222222       0.41127774 </v>
    <v>       0.88888889       0.55555556       0.41127774 </v>
    <v>       0.88888889       0.88888889       0.41127774 </v>
   </varray>
  </structure>
  <varray name="forces" >
   <v>       0.00000000       0.00000000       0.21788821 </v>
   <v>       0.00000000       0.00000000       0.21788821 </v>
   <v>       0.00000000       0.00000000       0.21788821 </v>
   <v>      -0.00000000       0.00000000       0.21788821 </v>
   <v>      -0.00000000       0.00000000       0.21788821 </v>
   <v>       0.00000000       0.00000000       0.21788821 </v>
   <v>      -0.00000000       0.00000000       0.21788821 </v>
   <v>      -0.00000000       0.00000000       0.21788821 </v>
   <v>       0.00000000       0.00000000       0.21788821 </v>
   <v>      -0.00000000       0.00000000       0.00005192 </v>
   <v>       0.00000000      -0.00000000       0.00005192 </v>
   <v>      -0.00000000       0.00000000       0.00005192 </v>
   <v>      -0.00000000       0.00000000       0.00005192 </v>
   <v>       0.00000000      -0.00000000       0.00005192 </v>
   <v>       0.00000000      -0.00000000       0.00005192 </v>
   <v>      -0.00000000       0.00000000       0.00005192 </v>
   <v>      -0.00000000      -0.00000000       0.00005192 </v>
   <v>       0.00000000      -0.00000000       0.00005192 </v>
   <v>      -0.00000000      -0.00000000       0.01562236 </v>
   <v>      -0.00000000      -0.00000000       0.01562236 </v>
   <v>      -0.00000000       0.00000000       0.01562236 </v>
   <v>      -0.00000000      -0.00000000       0.01562236 </v>
   <v>      -0.00000000       0.00000000       0.01562236 </v>
   <v>      -0.00000000      -0.00000000       0.01562236 </v>
   <v>      -0.00000000      -0.00000000       0.01562236 </v>
   <v>      -0.00000000      -0.00000000       0.01562236 </v>
   <v>      -0.00000000       0.00000000       0.01562236 </v>
   <v>       0.00000000      -0.00000000      -0.03062831 </v>
   <v>      -0.00000000      -0.00000000      -0.03062831 </v>
   <v>       0.00000000      -0.00000000      -0.03062831 </v>
   <v>      -0.00000000      -0.00000000      -0.03062831 </v>
   <v>      -0.00000000      -0.00000000      -0.03062831 </v>
   <v>      -0.00000000      -0.00000000      -0.03062831 </v>
   <v>       0.00000000      -0.00000000      -0.03062831 </v>
   <v>      -0.00000000      -0.00000000      -0.03062831 </v>
   <v>      -0.00000000      -0.00000000      -0.03062831 </v>
   <v>       0.00000000      -0.00000000       0.01090360 </v>
   <v>      -0.00000000      -0.00000000       0.01090360 </v>
   <v>      -0.00000000      -0.00000000       0.01090360 </v>
   <v>       0.00000000      -0.00000000       0.01090360 </v>
   <v>       0.00000000      -0.00000000       0.01090360 </v>
   <v>       0.00000000      -0.00000000       0.01090360 </v>
   <v>       0.00000000       0.00000000       0.01090360 </v>
   <v>       0.00000000      -0.00000000       0.01090360 </v>
   <v>       0.00000000      -0.00000000       0.01090360 </v>
   <v>       0.00000000       0.00000000      -0.21383778 </v>
   <v>       0.00000000       0.00000000      -0.21383778 </v>
   <v>       0.00000000       0.00000000      -0.21383778 </v>
   <v>       0.00000000       0.00000000      -0.21383778 </v>
   <v>       0.00000000       0.00000000      -0.21383778 </v>
   <v>       0.00000000       0.00000000      -0.21383778 </v>
   <v>      -0.00000000       0.00000000      -0.21383778 </v>
   <v>       0.00000000       0.00000000      -0.21383778 </v>
   <v>       0.00000000       0.00000000      -0.21383778 </v>
  </varray>
  <varray name="stress" >
   <v>     -48.88010723      -0.00000000      -0.00000000 </v>
   <v>      -0.00000000     -48.88010723      -0.00000000 </v>
   <v>      -0.00000000      -0.00000000     -30.05138190 </v>
  </varray>
  <energy>
   <i name="e_fr_energy">   -215.02403393 </i>
   <i name="e_wo_entrp">   -215.01985592 </i>
   <i name="e_0_energy">   -215.02264126 </i>
  </energy>
  <time name="totalsc">  788.22  795.19</time>
 </calculation>
 <calculation>
  <scstep>
   <time name="dav">   22.77   22.99</time>
   <time name="total">   24.02   24.24</time>
   <energy>
    <i name="alphaZ">   1629.90573480 </i>
    <i name="ewald"> 288824.24814271 </i>
    <i name="hartreedc">-361392.99736508 </i>
    <i name="XCdc">   2406.15121872 </i>
    <i name="pawpsdc">  70457.34198927 </i>
    <i name="pawaedc"> -76269.75866068 </i>
    <i name="eentropy">     -0.00591673 </i>
    <i name="bandstr">   -960.39572421 </i>
    <i name="atom">  75111.71257079 </i>
    <i name="e_fr_energy">   -193.79801041 </i>
    <i name="e_wo_entrp">   -193.79209368 </i>
    <i name="e_0_energy">   -193.79603817 </i>
   </energy>
  </scstep>
  <scstep>
   <time name="dav">   31.08   31.39</time>
   <time name="total">   32.32   32.63</time>
   <energy>
    <i name="e_fr_energy">   -193.80786194 </i>
    <i name="e_wo_entrp">   -193.80200858 </i>
    <i name="e_0_energy">   -193.80591082 </i>
   </energy>
  </scstep>
  <scstep>
   <time name="dav">   22.90   23.04</time>
   <time name="total">   24.16   24.31</time>
   <energy>
    <i name="e_fr_energy">   -193.80729777 </i>
    <i name="e_wo_entrp">   -193.80136099 </i>
    <i name="e_0_energy">   -193.80531885 </i>
   </energy>
  </scstep>
  <scstep>
   <time name="dav">   21.49   21.64</time>
   <time name="total">   22.76   22.91</time>
   <energy>
    <i name="e_fr_energy">   -193.80718535 </i>
    <i name="e_wo_entrp">   -193.80124801 </i>
    <i name="e_0_energy">   -193.80520624 </i>
   </energy>
  </scstep>
  <scstep>
   <time name="dav">   20.48   20.62</time>
   <time name="total">   20.61   20.75</time>
   <energy>
    <i name="alphaZ">   1629.90573480 </i>
    <i name="ewald"> 288824.24814271 </i>
    <i name="hartreedc">-361393.50452743 </i>
    <i name="XCdc">   2406.11623325 </i>
    <i name="pawpsdc">  70466.41427951 </i>
    <i name="pawaedc"> -76278.82026460 </i>
    <i name="eentropy">     -0.00592493 </i>
    <i name="bandstr">   -959.87349535 </i>
    <i name="atom">  75111.71257079 </i>
    <i name="e_fr_energy">   -193.80725124 </i>
    <i name="e_wo_entrp">   -193.80132632 </i>
    <i name="e_0_energy">   -193.80527627 </i>
   </energy>
  </scstep>
  <dipole>
   <v name="dipole">      0.00000000       0.00000000      -0.02212597 </v>
   <i name="Tr[quadrupol]">  -5788.95634303 </i>
   <i name="Echarged">      0.00000000 </i>
   <i name="Edipol_quadrupol">      0.00000000 </i>
   <i name="Eion">      0.00000000 </i>
  </dipole>
  <structure>
   <crystal>
    <varray name="basis" >
     <v>       7.70039320       0.00000000       0.00000000 </v>
     <v>       3.85019660       6.66873613       0.00000000 </v>
     <v>       0.00000000       0.00000000      25.47890854 </v>
    </varray>
    <i name="volume">   1308.39011751 </i>
    <varray name="rec_basis" >
     <v>       0.12986350      -0.07497673       0.00000000 </v>
     <v>       0.00000000       0.14995345       0.00000000 </v>
     <v>       0.00000000       0.00000000       0.03924815 </v>
    </varray>
   </crystal>
   <varray name="positions" >
    <v>       0.00000000       0.00000000       0.00000000 </v>
    <v>       0.00000000       0.33333333       0.00000000 </v>
    <v>       1.00000000       0.66666667       0.00000000 </v>
    <v>       0.33333333       0.00000000       0.00000000 </v>
    <v>       0.33333333       0.33333333       0.00000000 </v>
    <v>       0.33333333       0.66666667       0.00000000 </v>
    <v>       0.66666667       0.00000000       0.00000000 </v>
    <v>       0.66666667       0.33333333       0.00000000 </v>
    <v>       0.66666667       0.66666667       0.00000000 </v>
    <v>       0.11111111       0.11111111       0.08225555 </v>
    <v>       0.11111111       0.44444444       0.08225555 </v>
    <v>       0.11111111       0.77777778       0.08225555 </v>
    <v>       0.44444444       0.11111111       0.08225555 </v>
    <v>       0.44444444       0.44444444       0.08225555 </v>
    <v>       0.44444444       0.77777778       0.08225555 </v>
    <v>       0.77777778       0.11111111       0.08225555 </v>
    <v>       0.77777778       0.44444444       0.08225555 </v>
    <v>       0.77777778       0.77777778       0.08225555 </v>
    <v>       0.22222222       0.22222222       0.16454068 </v>
    <v>       0.22222222       0.55555556       0.16454068 </v>
    <v>       0.22222222       0.88888889       0.16454068 </v>
    <v>       0.55555556       0.22222222       0.16454068 </v>
    <v>       0.55555556       0.55555556       0.16454068 </v>
    <v>       0.55555556       0.88888889       0.16454068 </v>
    <v>       0.88888889       0.22222222       0.16454068 </v>
    <v>       0.88888889       0.55555556       0.16454068 </v>
    <v>       0.88888889       0.88888889       0.16454068 </v>
    <v>       0.00000000      -0.00000000       0.24670865 </v>
    <v>       0.00000000       0.33333333       0.24670865 </v>
    <v>       1.00000000       0.66666667       0.24670865 </v>
    <v>       0.33333333      -0.00000000       0.24670865 </v>
    <v>       0.33333333       0.33333333       0.24670865 </v>
    <v>       0.33333333       0.66666667       0.24670865 </v>
    <v>       0.66666667      -0.00000000       0.24670865 </v>
    <v>       0.66666667       0.33333333       0.24670865 </v>
    <v>       0.66666667       0.66666667       0.24670865 </v>
    <v>       0.11111111       0.11111111       0.32904284 </v>
    <v>       0.11111111       0.44444444       0.32904284 </v>
    <v>       0.11111111       0.77777778       0.32904284 </v>
    <v>       0.44444444       0.11111111       0.32904284 </v>
    <v>       0.44444444       0.44444444       0.32904284 </v>
    <v>       0.44444444       0.77777778       0.32904284 </v>
    <v>       0.77777778       0.11111111       0.32904284 </v>
    <v>       0.77777778       0.44444444       0.32904284 </v>
    <v>       0.77777778       0.77777778       0.32904284 </v>
    <v>       0.22222222       0.22222222       0.41087286 </v>
    <v>       0.22222222       0.55555556       0.41087286 </v>
    <v>       0.22222222       0.88888889       0.41087286 </v>
    <v>       0.55555556       0.22222222       0.41087286 </v>
    <v>       0.55555556       0.55555556       0.41087286 </v>
    <v>       0.55555556       0.88888889       0.41087286 </v>
    <v>       0.88888889       0.22222222       0.41087286 </v>
    <v>       0.88888889       0.55555556       0.41087286 </v>
    <v>       0.88888889       0.88888889       0.41087286 </v>
   </varray>
  </structure>
  <varray name="forces" >
   <v>       0.00000000      -0.00000000       0.21646740 </v>
   <v>       0.00000000      -0.00000000       0.21646740 </v>
   <v>       0.00000000       0.00000000       0.21646740 </v>
   <v>      -0.00000000       0.00000000       0.21646740 </v>
   <v>       0.00000000       0.00000000       0.21646740 </v>
   <v>       0.00000000      -0.00000000       0.21646740 </v>
   <v>       0.00000000      -0.00000000       0.21646740 </v>
   <v>       0.00000000      -0.00000000       0.21646740 </v>
   <v>       0.00000000       0.00000000       0.21646740 </v>
   <v>      -0.00000000       0.00000000       0.00322436 </v>
   <v>       0.00000000       0.00000000       0.00322436 </v>
   <v>      -0.00000000      -0.00000000       0.00322436 </v>
   <v>      -0.00000000       0.00000000       0.00322436 </v>
   <v>       0.00000000      -0.00000000       0.00322436 </v>
   <v>      -0.00000000       0.00000000       0.00322436 </v>
   <v>      -0.00000000       0.00000000       0.00322436 </v>
   <v>      -0.00000000       0.00000000       0.00322436 </v>
   <v>      -0.00000000       0.00000000       0.00322436 </v>
   <v>       0.00000000       0.00000000       0.00497354 </v>
   <v>       0.00000000      -0.00000000       0.00497354 </v>
   <v>       0.00000000      -0.00000000       0.00497354 </v>
   <v>      -0.00000000      -0.00000000       0.00497354 </v>
   <v>       0.00000000      -0.00000000       0.00497354 </v>
   <v>       0.00000000      -0.00000000       0.00497354 </v>
   <v>       0.00000000       0.00000000       0.00497354 </v>
   <v>       0.00000000      -0.00000000       0.00497354 </v>
   <v>       0.00000000      -0.00000000       0.00497354 </v>
   <v>      -0.00000000      -0.00000000      -0.01351147 </v>
   <v>      -0.00000000      -0.00000000      -0.01351147 </v>
   <v>      -0.00000000      -0.00000000      -0.01351147 </v>
   <v>      -0.00000000      -0.00000000      -0.01351147 </v>
   <v>      -0.00000000      -0.00000000      -0.01351147 </v>
   <v>      -0.00000000      -0.00000000      -0.01351147 </v>
   <v>      -0.00000000      -0.00000000      -0.01351147 </v>
   <v>      -0.00000000      -0.00000000      -0.01351147 </v>
   <v>      -0.00000000      -0.00000000      -0.01351147 </v>
   <v>       0.00000000       0.00000000      -0.03734777 </v>
   <v>       0.00000000       0.00000000      -0.03734777 </v>
   <v>       0.00000000       0.00000000      -0.03734777 </v>
   <v>       0.00000000       0.00000000      -0.03734777 </v>
   <v>       0.00000000       0.00000000      -0.03734777 </v>
   <v>       0.00000000       0.00000000      -0.03734777 </v>
   <v>      -0.00000000       0.00000000      -0.03734777 </v>
   <v>       0.00000000      -0.00000000      -0.03734777 </v>
   <v>       0.00000000       0.00000000      -0.03734777 </v>
   <v>       0.00000000      -0.00000000      -0.17380605 </v>
   <v>      -0.00000000      -0.00000000      -0.17380605 </v>
   <v>      -0.00000000       0.00000000      -0.17380605 </v>
   <v>       0.00000000      -0.00000000      -0.17380605 </v>
   <v>       0.00000000       0.00000000      -0.17380605 </v>
   <v>      -0.00000000       0.00000000      -0.17380605 </v>
   <v>       0.00000000       0.00000000      -0.17380605 </v>
   <v>      -0.00000000       0.00000000      -0.17380605 </v>
   <v>       0.00000000      -0.00000000      -0.17380605 </v>
  </varray>
  <varray name="stress" >
   <v>     -46.55979637      -0.00000000      -0.00000000 </v>
   <v>      -0.00000000     -46.55979637      -0.00000000 </v>
   <v>      -0.00000000      -0.00000000     -27.22452248 </v>
  </varray>
  <energy>
   <i name="e_fr_energy">   -215.04290779 </i>
   <i name="e_wo_entrp">   -215.03698287 </i>
   <i name="e_0_energy">   -215.04093282 </i>
  </energy>
  <time name="totalsc">  169.06  170.32</time>
 </calculation>
 <calculation>
  <scstep>
   <time name="dav">   22.13   22.29</time>
   <time name="total">   23.39   23.56</time>
   <energy>
    <i name="alphaZ">   1629.90573480 </i>
    <i name="ewald"> 290195.70851527 </i>
    <i name="hartreedc">-362762.15246509 </i>
    <i name="XCdc">   2406.54703360 </i>
    <i name="pawpsdc">  70470.75806721 </i>
    <i name="pawaedc"> -76283.53066092 </i>
    <i name="eentropy">     -0.01033680 </i>
    <i name="bandstr">   -962.65048787 </i>
    <i name="atom">  75111.71257079 </i>
    <i name="e_fr_energy">   -193.71202901 </i>
    <i name="e_wo_entrp">   -193.70169221 </i>
    <i name="e_0_energy">   -193.70858341 </i>
   </energy>
  </scstep>
  <scstep>
   <time name="dav">   30.97   31.19</time>
   <time name="total">   32.23   32.46</time>
   <energy>
    <i name="e_fr_energy">   -193.82068967 </i>
    <i name="e_wo_entrp">   -193.81129559 </i>
    <i name="e_0_energy">   -193.81755831 </i>
   </energy>
  </scstep>
  <scstep>
   <time name="dav">   30.46   30.80</time>
   <time name="total">   31.70   32.04</time>
   <energy>
    <i name="e_fr_energy">   -193.80767005 </i>
    <i name="e_wo_entrp">   -193.79698162 </i>
    <i name="e_0_energy">   -193.80410724 </i>
   </energy>
  </scstep>
  <scstep>
   <time name="dav">   25.30   25.46</time>
   <time name="total">   26.55   26.72</time>
   <energy>
    <i name="e_fr_energy">   -193.80363935 </i>
    <i name="e_wo_entrp">   -193.79301558 </i>
    <i name="e_0_energy">   -193.80009809 </i>
   </energy>
  </scstep>
  <scstep>
   <time name="dav">   23.15   23.31</time>
   <time name="total">   24.41   24.58</time>
   <energy>
    <i name="e_fr_energy">   -193.80425455 </i>
    <i name="e_wo_entrp">   -193.79367576 </i>
    <i name="e_0_energy">   -193.80072829 </i>
   </energy>
  </scstep>
  <scstep>
   <time name="dav">   23.65   23.93</time>
   <time name="total">   24.89   25.18</time>
   <energy>
    <i name="e_fr_energy">   -193.80303550 </i>
    <i name="e_wo_entrp">   -193.79261939 </i>
    <i name="e_0_energy">   -193.79956346 </i>
   </energy>
  </scstep>
  <scstep>
   <time name="dav">   31.09   31.84</time>
   <time name="total">   32.34   33.09</time>
   <energy>
    <i name="e_fr_energy">   -193.80298302 </i>
    <i name="e_wo_entrp">   -193.79226051 </i>
    <i name="e_0_energy">   -193.79940885 </i>
   </energy>
  </scstep>
  <scstep>
   <time name="dav">   20.19   20.34</time>
   <time name="total">   20.31   20.47</time>
   <energy>
    <i name="alphaZ">   1629.90573480 </i>
    <i name="ewald"> 290195.70851527 </i>
    <i name="hartreedc">-362760.96139570 </i>
    <i name="XCdc">   2406.40192146 </i>
    <i name="pawpsdc">  70519.74623412 </i>
    <i name="pawaedc"> -76333.36624252 </i>
    <i name="eentropy">     -0.01072824 </i>
    <i name="bandstr">   -962.93942744 </i>
    <i name="atom">  75111.71257079 </i>
    <i name="e_fr_energy">   -193.80281746 </i>
    <i name="e_wo_entrp">   -193.79208922 </i>
    <i name="e_0_energy">   -193.79924138 </i>
   </energy>
  </scstep>
  <dipole>
   <v name="dipole">      0.00000000       0.00000000      -0.01572341 </v>
   <i name="Tr[quadrupol]">  -5788.96242058 </i>
   <i name="Echarged">      0.00000000 </i>
   <i name="Edipol_quadrupol">      0.00000000 </i>
   <i name="Eion">      0.00000000 </i>
  </dipole>
  <structure>
   <crystal>
    <varray name="basis" >
     <v>       7.70039320       0.00000000       0.00000000 </v>
     <v>       3.85019660       6.66873613       0.00000000 </v>
     <v>       0.00000000       0.00000000      25.47890854 </v>
    </varray>
    <i name="volume">   1308.39011751 </i>
    <varray name="rec_basis" >
     <v>       0.12986350      -0.07497673       0.00000000 </v>
     <v>       0.00000000       0.14995345       0.00000000 </v>
     <v>       0.00000000       0.00000000       0.03924815 </v>
    </varray>
   </crystal>
   <varray name="positions" >
    <v>       0.00000000       0.00000000       0.00000000 </v>
    <v>       0.00000000       0.33333333       0.00000000 </v>
    <v>       1.00000000       0.66666667       0.00000000 </v>
    <v>       0.33333333       0.00000000       0.00000000 </v>
    <v>       0.33333333       0.33333333       0.00000000 </v>
    <v>       0.33333333       0.66666667       0.00000000 </v>
    <v>       0.66666667       0.00000000       0.00000000 </v>
    <v>       0.66666667       0.33333333       0.00000000 </v>
    <v>       0.66666667       0.66666667       0.00000000 </v>
    <v>       0.11111111       0.11111111       0.08225555 </v>
    <v>       0.11111111       0.44444444       0.08225555 </v>
    <v>       0.11111111       0.77777778       0.08225555 </v>
    <v>       0.44444444       0.11111111       0.08225555 </v>
    <v>       0.44444444       0.44444444       0.08225555 </v>
    <v>       0.44444444       0.77777778       0.08225555 </v>
    <v>       0.77777778       0.11111111       0.08225555 </v>
    <v>       0.77777778       0.44444444       0.08225555 </v>
    <v>       0.77777778       0.77777778       0.08225555 </v>
    <v>       0.22222222       0.22222222       0.16462942 </v>
    <v>       0.22222222       0.55555556       0.16462942 </v>
    <v>       0.22222222       0.88888889       0.16462942 </v>
    <v>       0.55555556       0.22222222       0.16462942 </v>
    <v>       0.55555556       0.55555556       0.16462942 </v>
    <v>       0.55555556       0.88888889       0.16462942 </v>
    <v>       0.88888889       0.22222222       0.16462942 </v>
    <v>       0.88888889       0.55555556       0.16462942 </v>
    <v>       0.88888889       0.88888889       0.16462942 </v>
    <v>       0.00000000      -0.00000000       0.24653468 </v>
    <v>       0.00000000       0.33333333       0.24653468 </v>
    <v>       1.00000000       0.66666667       0.24653468 </v>
    <v>       0.33333333      -0.00000000       0.24653468 </v>
    <v>       0.33333333       0.33333333       0.24653468 </v>
    <v>       0.33333333       0.66666667       0.24653468 </v>
    <v>       0.66666667      -0.00000000       0.24653468 </v>
    <v>       0.66666667       0.33333333       0.24653468 </v>
    <v>       0.66666667       0.66666667       0.24653468 </v>
    <v>       0.11111111       0.11111111       0.32910478 </v>
    <v>       0.11111111       0.44444444       0.32910478 </v>
    <v>       0.11111111       0.77777778       0.32910478 </v>
    <v>       0.44444444       0.11111111       0.32910478 </v>
    <v>       0.44444444       0.44444444       0.32910478 </v>
    <v>       0.44444444       0.77777778       0.32910478 </v>
    <v>       0.77777778       0.11111111       0.32910478 </v>
    <v>       0.77777778       0.44444444       0.32910478 </v>
    <v>       0.77777778       0.77777778       0.32910478 </v>
    <v>       0.22222222       0.22222222       0.40965819 </v>
    <v>       0.22222222       0.55555556       0.40965819 </v>
    <v>       0.22222222       0.88888889       0.40965819 </v>
    <v>       0.55555556       0.22222222       0.40965819 </v>
    <v>       0.55555556       0.55555556       0.40965819 </v>
    <v>       0.55555556       0.88888889       0.40965819 </v>
    <v>       0.88888889       0.22222222       0.40965819 </v>
    <v>       0.88888889       0.55555556       0.40965819 </v>
    <v>       0.88888889       0.88888889       0.40965819 </v>
   </varray>
  </structure>
  <varray name="forces" >
   <v>       0.00000000       0.00000000       0.22006352 </v>
   <v>      -0.00000000       0.00000000       0.22006352 </v>
   <v>       0.00000000       0.00000000       0.22006352 </v>
   <v>      -0.00000000       0.00000000       0.22006352 </v>
   <v>      -0.00000000       0.00000000       0.22006352 </v>
   <v>       0.00000000       0.00000000       0.22006352 </v>
   <v>      -0.00000000       0.00000000       0.22006352 </v>
   <v>       0.00000000       0.00000000       0.22006352 </v>
   <v>      -0.00000000       0.00000000       0.22006352 </v>
   <v>       0.00000000      -0.00000000       0.00744148 </v>
   <v>       0.00000000       0.00000000       0.00744148 </v>
   <v>       0.00000000       0.00000000       0.00744148 </v>
   <v>       0.00000000       0.00000000       0.00744148 </v>
   <v>       0.00000000       0.00000000       0.00744148 </v>
   <v>       0.00000000       0.00000000       0.00744148 </v>
   <v>       0.00000000       0.00000000       0.00744148 </v>
   <v>       0.00000000       0.00000000       0.00744148 </v>
   <v>       0.00000000      -0.00000000       0.00744148 </v>
   <v>       0.00000000      -0.00000000      -0.02717962 </v>
   <v>       0.00000000      -0.00000000      -0.02717962 </v>
   <v>      -0.00000000      -0.00000000      -0.02717962 </v>
   <v>      -0.00000000      -0.00000000      -0.02717962 </v>
   <v>       0.00000000       0.00000000      -0.02717962 </v>
   <v>       0.00000000      -0.00000000      -0.02717962 </v>
   <v>       0.00000000       0.00000000      -0.02717962 </v>
   <v>       0.00000000      -0.00000000      -0.02717962 </v>
   <v>       0.00000000       0.00000000      -0.02717962 </v>
   <v>       0.00000000      -0.00000000       0.02890613 </v>
   <v>      -0.00000000      -0.00000000       0.02890613 </v>
   <v>      -0.00000000       0.00000000       0.02890613 </v>
   <v>      -0.00000000      -0.00000000       0.02890613 </v>
   <v>      -0.00000000      -0.00000000       0.02890613 </v>
   <v>      -0.00000000      -0.00000000       0.02890613 </v>
   <v>       0.00000000      -0.00000000       0.02890613 </v>
   <v>      -0.00000000      -0.00000000       0.02890613 </v>
   <v>      -0.00000000       0.00000000       0.02890613 </v>
   <v>      -0.00000000      -0.00000000      -0.17435341 </v>
   <v>       0.00000000       0.00000000      -0.17435341 </v>
   <v>       0.00000000       0.00000000      -0.17435341 </v>
   <v>      -0.00000000       0.00000000      -0.17435341 </v>
   <v>       0.00000000       0.00000000      -0.17435341 </v>
   <v>      -0.00000000       0.00000000      -0.17435341 </v>
   <v>      -0.00000000       0.00000000      -0.17435341 </v>
   <v>      -0.00000000       0.00000000      -0.17435341 </v>
   <v>       0.00000000       0.00000000      -0.17435341 </v>
   <v>      -0.00000000      -0.00000000      -0.05487811 </v>
   <v>      -0.00000000      -0.00000000      -0.05487811 </v>
   <v>      -0.00000000      -0.00000000      -0.05487811 </v>
   <v>      -0.00000000      -0.00000000      -0.05487811 </v>
   <v>      -0.00000000      -0.00000000      -0.05487811 </v>
   <v>      -0.00000000      -0.00000000      -0.05487811 </v>
   <v>       0.00000000      -0.00000000      -0.05487811 </v>
   <v>       0.00000000      -0.00000000      -0.05487811 </v>
   <v>      -0.00000000      -0.00000000      -0.05487811 </v>
  </varray>
  <varray name="stress" >
   <v>     -47.71048355      -0.00000000      -0.00000000 </v>
   <v>      -0.00000000     -47.71048355       0.00000000 </v>
   <v>      -0.00000000      -0.00000000     -26.29182995 </v>
  </varray>
  <energy>
   <i name="e_fr_energy">   -215.07504914 </i>
   <i name="e_wo_entrp">   -215.06432090 </i>
   <i name="e_0_energy">   -215.07147306 </i>
  </energy>
  <time name="totalsc">  261.47  264.12</time>
 </calculation>
 <calculation>
  <scstep>
   <time name="dav">   22.03   22.17</time>
   <time name="total">   23.30   23.44</time>
   <energy>
    <i name="alphaZ">   1629.90573480 </i>
    <i name="ewald"> 290603.84936031 </i>
    <i name="hartreedc">-363168.98442503 </i>
    <i name="XCdc">   2406.52493065 </i>
    <i name="pawpsdc">  70519.66124438 </i>
    <i name="pawaedc"> -76333.24144187 </i>
    <i name="eentropy">     -0.01178638 </i>
    <i name="bandstr">   -963.20235262 </i>
    <i name="atom">  75111.71257079 </i>
    <i name="e_fr_energy">   -193.78616498 </i>
    <i name="e_wo_entrp">   -193.77437860 </i>
    <i name="e_0_energy">   -193.78223618 </i>
   </energy>
  </scstep>
  <scstep>
   <time name="dav">   29.38   29.56</time>
   <time name="total">   30.62   30.80</time>
   <energy>
    <i name="e_fr_energy">   -193.79418317 </i>
    <i name="e_wo_entrp">   -193.78234893 </i>
    <i name="e_0_energy">   -193.79023843 </i>
   </energy>
  </scstep>
  <scstep>
   <time name="dav">   22.35   22.49</time>
   <time name="total">   23.59   23.74</time>
   <energy>
    <i name="e_fr_energy">   -193.79386458 </i>
    <i name="e_wo_entrp">   -193.78197635 </i>
    <i name="e_0_energy">   -193.78990184 </i>
   </energy>
  </scstep>
  <scstep>
   <time name="dav">   21.38   21.51</time>
   <time name="total">   22.61   22.76</time>
   <energy>
    <i name="e_fr_energy">   -193.79374009 </i>
    <i name="e_wo_entrp">   -193.78192876 </i>
    <i name="e_0_energy">   -193.78980298 </i>
   </energy>
  </scstep>
  <scstep>
   <time name="dav">   19.91   20.04</time>
   <time name="total">   20.04   20.16</time>
   <energy>
    <i name="alphaZ">   1629.90573480 </i>
    <i name="ewald"> 290603.84936031 </i>
    <i name="hartreedc">-363169.29006970 </i>
    <i name="XCdc">   2406.48861304 </i>
    <i name="pawpsdc">  70529.07238890 </i>
    <i name="pawaedc"> -76342.63652124 </i>
    <i name="eentropy">     -0.01181864 </i>
    <i name="bandstr">   -962.88407357 </i>
    <i name="atom">  75111.71257079 </i>
    <i name="e_fr_energy">   -193.79381529 </i>
    <i name="e_wo_entrp">   -193.78199666 </i>
    <i name="e_0_energy">   -193.78987575 </i>
   </energy>
  </scstep>
  <dipole>
   <v name="dipole">      0.00000000       0.00000000      -0.01912473 </v>
   <i name="Tr[quadrupol]">  -5788.98250574 </i>
   <i name="Echarged">      0.00000000 </i>
   <i name="Edipol_quadrupol">      0.00000000 </i>
   <i name="Eion">      0.00000000 </i>
  </dipole>
  <structure>
   <crystal>
    <varray name="basis" >
     <v>       7.70039320       0.00000000       0.00000000 </v>
     <v>       3.85019660       6.66873613       0.00000000 </v>
     <v>       0.00000000       0.00000000      25.47890854 </v>
    </varray>
    <i name="volume">   1308.39011751 </i>
    <varray name="rec_basis" >
     <v>       0.12986350      -0.07497673       0.00000000 </v>
     <v>       0.00000000       0.14995345       0.00000000 </v>
     <v>       0.00000000       0.00000000       0.03924815 </v>
    </varray>
   </crystal>
   <varray name="positions" >
    <v>       0.00000000       0.00000000       0.00000000 </v>
    <v>       0.00000000       0.33333333       0.00000000 </v>
    <v>       1.00000000       0.66666667       0.00000000 </v>
    <v>       0.33333333       0.00000000       0.00000000 </v>
    <v>       0.33333333       0.33333333       0.00000000 </v>
    <v>       0.33333333       0.66666667       0.00000000 </v>
    <v>       0.66666667       0.00000000       0.00000000 </v>
    <v>       0.66666667       0.33333333       0.00000000 </v>
    <v>       0.66666667       0.66666667       0.00000000 </v>
    <v>       0.11111111       0.11111111       0.08225555 </v>
    <v>       0.11111111       0.44444444       0.08225555 </v>
    <v>       0.11111111       0.77777778       0.08225555 </v>
    <v>       0.44444444       0.11111111       0.08225555 </v>
    <v>       0.44444444       0.44444444       0.08225555 </v>
    <v>       0.44444444       0.77777778       0.08225555 </v>
    <v>       0.77777778       0.11111111       0.08225555 </v>
    <v>       0.77777778       0.44444444       0.08225555 </v>
    <v>       0.77777778       0.77777778       0.08225555 </v>
    <v>       0.22222222       0.22222222       0.16465575 </v>
    <v>       0.22222222       0.55555556       0.16465575 </v>
    <v>       0.22222222       0.88888889       0.16465575 </v>
    <v>       0.55555556       0.22222222       0.16465575 </v>
    <v>       0.55555556       0.55555556       0.16465575 </v>
    <v>       0.55555556       0.88888889       0.16465575 </v>
    <v>       0.88888889       0.22222222       0.16465575 </v>
    <v>       0.88888889       0.55555556       0.16465575 </v>
    <v>       0.88888889       0.88888889       0.16465575 </v>
    <v>       0.00000000      -0.00000000       0.24648305 </v>
    <v>       0.00000000       0.33333333       0.24648305 </v>
    <v>       1.00000000       0.66666667       0.24648305 </v>
    <v>       0.33333333      -0.00000000       0.24648305 </v>
    <v>       0.33333333       0.33333333       0.24648305 </v>
    <v>       0.33333333       0.66666667       0.24648305 </v>
    <v>       0.66666667      -0.00000000       0.24648305 </v>
    <v>       0.66666667       0.33333333       0.24648305 </v>
    <v>       0.66666667       0.66666667       0.24648305 </v>
    <v>       0.11111111       0.11111111       0.32912315 </v>
    <v>       0.11111111       0.44444444       0.32912315 </v>
    <v>       0.11111111       0.77777778       0.32912315 </v>
    <v>       0.44444444       0.11111111       0.32912315 </v>
    <v>       0.44444444       0.44444444       0.32912315 </v>
    <v>       0.44444444       0.77777778       0.32912315 </v>
    <v>       0.77777778       0.11111111       0.32912315 </v>
    <v>       0.77777778       0.44444444       0.32912315 </v>
    <v>       0.77777778       0.77777778       0.32912315 </v>
    <v>       0.22222222       0.22222222       0.40929777 </v>
    <v>       0.22222222       0.55555556       0.40929777 </v>
    <v>       0.22222222       0.88888889       0.40929777 </v>
    <v>       0.55555556       0.22222222       0.40929777 </v>
    <v>       0.55555556       0.55555556       0.40929777 </v>
    <v>       0.55555556       0.88888889       0.40929777 </v>
    <v>       0.88888889       0.22222222       0.40929777 </v>
    <v>       0.88888889       0.55555556       0.40929777 </v>
    <v>       0.88888889       0.88888889       0.40929777 </v>
   </varray>
  </structure>
  <varray name="forces" >
   <v>       0.00000000       0.00000000       0.21695162 </v>
   <v>       0.00000000      -0.00000000       0.21695162 </v>
   <v>       0.00000000       0.00000000       0.21695162 </v>
   <v>      -0.00000000       0.00000000       0.21695162 </v>
   <v>       0.00000000       0.00000000       0.21695162 </v>
   <v>       0.00000000       0.00000000       0.21695162 </v>
   <v>       0.00000000      -0.00000000       0.21695162 </v>
   <v>       0.00000000      -0.00000000       0.21695162 </v>
   <v>       0.00000000       0.00000000       0.21695162 </v>
   <v>      -0.00000000      -0.00000000       0.01273483 </v>
   <v>       0.00000000      -0.00000000       0.01273483 </v>
   <v>       0.00000000      -0.00000000       0.01273483 </v>
   <v>      -0.00000000      -0.00000000       0.01273483 </v>
   <v>       0.00000000      -0.00000000       0.01273483 </v>
   <v>      -0.00000000      -0.00000000       0.01273483 </v>
   <v>       0.00000000      -0.00000000       0.01273483 </v>
   <v>       0.00000000      -0.00000000       0.01273483 </v>
   <v>       0.00000000      -0.00000000       0.01273483 </v>
   <v>      -0.00000000       0.00000000      -0.03499446 </v>
   <v>       0.00000000      -0.00000000      -0.03499446 </v>
   <v>       0.00000000      -0.00000000      -0.03499446 </v>
   <v>      -0.00000000      -0.00000000      -0.03499446 </v>
   <v>      -0.00000000      -0.00000000      -0.03499446 </v>
   <v>      -0.00000000      -0.00000000      -0.03499446 </v>
   <v>      -0.00000000      -0.00000000      -0.03499446 </v>
   <v>       0.00000000       0.00000000      -0.03499446 </v>
   <v>       0.00000000      -0.00000000      -0.03499446 </v>
   <v>      -0.00000000       0.00000000       0.04170960 </v>
   <v>      -0.00000000       0.00000000       0.04170960 </v>
   <v>      -0.00000000       0.00000000       0.04170960 </v>
   <v>       0.00000000       0.00000000       0.04170960 </v>
   <v>      -0.00000000       0.00000000       0.04170960 </v>
   <v>      -0.00000000       0.00000000       0.04170960 </v>
   <v>      -0.00000000       0.00000000       0.04170960 </v>
   <v>      -0.00000000       0.00000000       0.04170960 </v>
   <v>      -0.00000000      -0.00000000       0.04170960 </v>
   <v>       0.00000000       0.00000000      -0.22589918 </v>
   <v>       0.00000000       0.00000000      -0.22589918 </v>
   <v>       0.00000000       0.00000000      -0.22589918 </v>
   <v>       0.00000000       0.00000000      -0.22589918 </v>
   <v>      -0.00000000       0.00000000      -0.22589918 </v>
   <v>       0.00000000       0.00000000      -0.22589918 </v>
   <v>       0.00000000       0.00000000      -0.22589918 </v>
   <v>       0.00000000       0.00000000      -0.22589918 </v>
   <v>       0.00000000       0.00000000      -0.22589918 </v>
   <v>      -0.00000000      -0.00000000      -0.01050242 </v>
   <v>      -0.00000000      -0.00000000      -0.01050242 </v>
   <v>      -0.00000000       0.00000000      -0.01050242 </v>
   <v>      -0.00000000      -0.00000000      -0.01050242 </v>
   <v>      -0.00000000      -0.00000000      -0.01050242 </v>
   <v>      -0.00000000      -0.00000000      -0.01050242 </v>
   <v>      -0.00000000      -0.00000000      -0.01050242 </v>
   <v>       0.00000000      -0.00000000      -0.01050242 </v>
   <v>      -0.00000000      -0.00000000      -0.01050242 </v>
  </varray>
  <varray name="stress" >
   <v>     -45.46136010      -0.00000000      -0.00000000 </v>
   <v>      -0.00000000     -45.46136010       0.00000000 </v>
   <v>      -0.00000000       0.00000000     -23.62659981 </v>
  </varray>
  <energy>
   <i name="e_fr_energy">   -215.07690527 </i>
   <i name="e_wo_entrp">   -215.06508663 </i>
   <i name="e_0_energy">   -215.07296572 </i>
  </energy>
  <time name="totalsc">  166.18  167.64</time>
 </calculation>
 <calculation>
  <scstep>
   <time name="dav">   22.88   23.04</time>
   <time name="total">   24.14   24.31</time>
   <energy>
    <i name="alphaZ">   1629.90573480 </i>
    <i name="ewald"> 291195.92547072 </i>
    <i name="hartreedc">-363760.59984222 </i>
    <i name="XCdc">   2406.61293180 </i>
    <i name="pawpsdc">  70533.45525706 </i>
    <i name="pawaedc"> -76347.29345149 </i>
    <i name="eentropy">     -0.01169114 </i>
    <i name="bandstr">   -963.48523486 </i>
    <i name="atom">  75111.71257079 </i>
    <i name="e_fr_energy">   -193.77825453 </i>
    <i name="e_wo_entrp">   -193.76656339 </i>
    <i name="e_0_energy">   -193.77435748 </i>
   </energy>
  </scstep>
  <scstep>
   <time name="dav">   30.81   31.08</time>
   <time name="total">   32.07   32.34</time>
   <energy>
    <i name="e_fr_energy">   -193.79087707 </i>
    <i name="e_wo_entrp">   -193.77916783 </i>
    <i name="e_0_energy">   -193.78697399 </i>
   </energy>
  </scstep>
  <scstep>
   <time name="dav">   24.44   24.67</time>
   <time name="total">   25.70   25.93</time>
   <energy>
    <i name="e_fr_energy">   -193.79025576 </i>
    <i name="e_wo_entrp">   -193.77828238 </i>
    <i name="e_0_energy">   -193.78626464 </i>
   </energy>
  </scstep>
  <scstep>
   <time name="dav">   21.43   21.60</time>
   <time name="total">   22.69   22.86</time>
   <energy>
    <i name="e_fr_energy">   -193.79022000 </i>
    <i name="e_wo_entrp">   -193.77826484 </i>
    <i name="e_0_energy">   -193.78623495 </i>
   </energy>
  </scstep>
  <scstep>
   <time name="dav">   21.65   21.83</time>
   <time name="total">   21.77   21.96</time>
   <energy>
    <i name="alphaZ">   1629.90573480 </i>
    <i name="ewald"> 291195.92547072 </i>
    <i name="hartreedc">-363760.55814806 </i>
    <i name="XCdc">   2406.56945812 </i>
    <i name="pawpsdc">  70541.95316532 </i>
    <i name="pawaedc"> -76355.79709432 </i>
    <i name="eentropy">     -0.01197022 </i>
    <i name="bandstr">   -963.48942561 </i>
    <i name="atom">  75111.71257079 </i>
    <i name="e_fr_energy">   -193.79023847 </i>
    <i name="e_wo_entrp">   -193.77826824 </i>
    <i name="e_0_energy">   -193.78624839 </i>
   </energy>
  </scstep>
  <dipole>
   <v name="dipole">      0.00000000       0.00000000      -0.02330618 </v>
   <i name="Tr[quadrupol]">  -5788.97921995 </i>
   <i name="Echarged">      0.00000000 </i>
   <i name="Edipol_quadrupol">      0.00000000 </i>
   <i name="Eion">      0.00000000 </i>
  </dipole>
  <structure>
   <crystal>
    <varray name="basis" >
     <v>       7.70039320       0.00000000       0.00000000 </v>
     <v>       3.85019660       6.66873613       0.00000000 </v>
     <v>       0.00000000       0.00000000      25.47890854 </v>
    </varray>
    <i name="volume">   1308.39011751 </i>
    <varray name="rec_basis" >
     <v>       0.12986350      -0.07497673       0.00000000 </v>
     <v>       0.00000000       0.14995345       0.00000000 </v>
     <v>       0.00000000       0.00000000       0.03924815 </v>
    </varray>
   </crystal>
   <varray name="positions" >
    <v>       0.00000000       0.00000000       0.00000000 </v>
    <v>       0.00000000       0.33333333       0.00000000 </v>
    <v>       1.00000000       0.66666667       0.00000000 </v>
    <v>       0.33333333       0.00000000       0.00000000 </v>
    <v>       0.33333333       0.33333333       0.00000000 </v>
    <v>       0.33333333       0.66666667       0.00000000 </v>
    <v>       0.66666667       0.00000000       0.00000000 </v>
    <v>       0.66666667       0.33333333       0.00000000 </v>
    <v>       0.66666667       0.66666667       0.00000000 </v>
    <v>       0.11111111       0.11111111       0.08225555 </v>
    <v>       0.11111111       0.44444444       0.08225555 </v>
    <v>       0.11111111       0.77777778       0.08225555 </v>
    <v>       0.44444444       0.11111111       0.08225555 </v>
    <v>       0.44444444       0.44444444       0.08225555 </v>
    <v>       0.44444444       0.77777778       0.08225555 </v>
    <v>       0.77777778       0.11111111       0.08225555 </v>
    <v>       0.77777778       0.44444444       0.08225555 </v>
[...]
       <r>    -8.3996    -0.0051    -0.0005 </r>
       <r>    -8.3250    -0.0149    -0.0016 </r>
       <r>    -8.2505    -0.0244    -0.0034 </r>
       <r>    -8.1760     0.0001    -0.0034 </r>
       <r>    -8.1015     0.1082     0.0047 </r>
       <r>    -8.0269     0.2821     0.0257 </r>
       <r>    -7.9524     0.3778     0.0538 </r>
       <r>    -7.8779     0.2778     0.0745 </r>
       <r>    -7.8034     0.1696     0.0872 </r>
       <r>    -7.7289     0.5200     0.1259 </r>
       <r>    -7.6543     1.5131     0.2387 </r>
       <r>    -7.5798     2.5257     0.4269 </r>
       <r>    -7.5053     2.6242     0.6225 </r>
       <r>    -7.4308     1.7299     0.7514 </r>
       <r>    -7.3562     0.7167     0.8048 </r>
       <r>    -7.2817     0.2513     0.8236 </r>
       <r>    -7.2072     0.1599     0.8355 </r>
       <r>    -7.1327     0.0429     0.8387 </r>
       <r>    -7.0581     0.0923     0.8456 </r>
       <r>    -6.9836     1.0507     0.9239 </r>
       <r>    -6.9091     3.1299     1.1571 </r>
       <r>    -6.8346     5.0536     1.5337 </r>
       <r>    -6.7600     5.0825     1.9125 </r>
       <r>    -6.6855     3.2775     2.1568 </r>
       <r>    -6.6110     1.6036     2.2763 </r>
       <r>    -6.5365     1.4584     2.3849 </r>
       <r>    -6.4619     2.1744     2.5470 </r>
       <r>    -6.3874     2.3511     2.7222 </r>
       <r>    -6.3129     1.8590     2.8607 </r>
       <r>    -6.2384     1.7258     2.9894 </r>
       <r>    -6.1638     2.3105     3.1615 </r>
       <r>    -6.0893     2.7328     3.3652 </r>
       <r>    -6.0148     2.4991     3.5514 </r>
       <r>    -5.9403     2.5579     3.7421 </r>
       <r>    -5.8658     3.7187     4.0192 </r>
       <r>    -5.7912     4.9089     4.3850 </r>
       <r>    -5.7167     4.5171     4.7217 </r>
       <r>    -5.6422     3.0196     4.9467 </r>
       <r>    -5.5677     2.5611     5.1376 </r>
       <r>    -5.4931     3.8524     5.4247 </r>
       <r>    -5.4186     5.0835     5.8035 </r>
       <r>    -5.3441     4.5726     6.1443 </r>
       <r>    -5.2696     3.0433     6.3711 </r>
       <r>    -5.1950     2.1329     6.5300 </r>
       <r>    -5.1205     2.2083     6.6946 </r>
       <r>    -5.0460     3.1777     6.9314 </r>
       <r>    -4.9715     5.6553     7.3529 </r>
       <r>    -4.8969     9.2563     8.0427 </r>
       <r>    -4.8224    11.4109     8.8931 </r>
       <r>    -4.7479    10.1335     9.6482 </r>
       <r>    -4.6734     6.5781    10.1385 </r>
       <r>    -4.5988     3.3673    10.3894 </r>
       <r>    -4.5243     1.8863    10.5300 </r>
       <r>    -4.4498     1.7298    10.6589 </r>
       <r>    -4.3753     1.6860    10.7846 </r>
       <r>    -4.3007     1.5943    10.9034 </r>
       <r>    -4.2262     3.3438    11.1526 </r>
       <r>    -4.1517     8.3967    11.7783 </r>
       <r>    -4.0772    14.4632    12.8562 </r>
       <r>    -4.0027    17.4724    14.1583 </r>
       <r>    -3.9281    16.9686    15.4228 </r>
       <r>    -3.8536    16.1952    16.6298 </r>
       <r>    -3.7791    17.0993    17.9041 </r>
       <r>    -3.7046    18.5782    19.2886 </r>
       <r>    -3.6300    19.1423    20.7152 </r>
       <r>    -3.5555    18.9700    22.1289 </r>
       <r>    -3.4810    19.6803    23.5955 </r>
       <r>    -3.4065    23.0168    25.3108 </r>
       <r>    -3.3319    28.9870    27.4711 </r>
       <r>    -3.2574    34.8444    30.0678 </r>
       <r>    -3.1829    37.5998    32.8699 </r>
       <r>    -3.1084    38.3987    35.7315 </r>
       <r>    -3.0338    41.8067    38.8471 </r>
       <r>    -2.9593    49.2049    42.5141 </r>
       <r>    -2.8848    56.1298    46.6971 </r>
       <r>    -2.8103    57.9393    51.0150 </r>
       <r>    -2.7357    54.8243    55.1007 </r>
       <r>    -2.6612    50.0739    58.8324 </r>
       <r>    -2.5867    46.6388    62.3081 </r>
       <r>    -2.5122    46.5051    65.7739 </r>
       <r>    -2.4376    50.5218    69.5390 </r>
       <r>    -2.3631    56.7722    73.7698 </r>
       <r>    -2.2886    61.3047    78.3385 </r>
       <r>    -2.2141    62.8310    83.0209 </r>
       <r>    -2.1396    64.6096    87.8359 </r>
       <r>    -2.0650    69.5849    93.0216 </r>
       <r>    -1.9905    76.0830    98.6917 </r>
       <r>    -1.9160    80.9090   104.7213 </r>
       <r>    -1.8415    84.5523   111.0225 </r>
       <r>    -1.7669    89.9333   117.7247 </r>
       <r>    -1.6924    97.0183   124.9549 </r>
       <r>    -1.6179   102.0121   132.5572 </r>
       <r>    -1.5434   102.4803   140.1945 </r>
       <r>    -1.4688   100.3154   147.6704 </r>
       <r>    -1.3943    97.8308   154.9611 </r>
       <r>    -1.3198    95.1000   162.0483 </r>
       <r>    -1.2453    93.6955   169.0309 </r>
       <r>    -1.1707    96.2506   176.2039 </r>
       <r>    -1.0962    99.6164   183.6277 </r>
       <r>    -1.0217    97.1535   190.8680 </r>
       <r>    -0.9472    89.9478   197.5712 </r>
       <r>    -0.8726    87.1875   204.0688 </r>
       <r>    -0.7981    93.7724   211.0571 </r>
       <r>    -0.7236   104.0942   218.8146 </r>
       <r>    -0.6491   109.9436   227.0080 </r>
       <r>    -0.5745   111.1308   235.2900 </r>
       <r>    -0.5000   115.5418   243.9006 </r>
       <r>    -0.4255   127.1445   253.3759 </r>
       <r>    -0.3510   135.4789   263.4723 </r>
       <r>    -0.2765   123.6363   272.6862 </r>
       <r>    -0.2019    88.9069   279.3119 </r>
       <r>    -0.1274    48.1730   282.9019 </r>
       <r>    -0.0529    19.8701   284.3827 </r>
       <r>     0.0216     8.0922   284.9858 </r>
       <r>     0.0962     6.4182   285.4641 </r>
       <r>     0.1707     8.2958   286.0824 </r>
       <r>     0.2452    10.2257   286.8444 </r>
       <r>     0.3197    11.4318   287.6964 </r>
       <r>     0.3943    12.9365   288.6604 </r>
       <r>     0.4688    14.4191   289.7350 </r>
       <r>     0.5433    13.7641   290.7608 </r>
       <r>     0.6178    10.9864   291.5795 </r>
       <r>     0.6924     8.9870   292.2493 </r>
       <r>     0.7669     9.7701   292.9774 </r>
       <r>     0.8414    12.1379   293.8819 </r>
       <r>     0.9159    12.9191   294.8447 </r>
       <r>     0.9905    10.3218   295.6139 </r>
       <r>     1.0650     6.2593   296.0804 </r>
       <r>     1.1395     4.0981   296.3858 </r>
       <r>     1.2140     4.4203   296.7152 </r>
       <r>     1.2886     4.9560   297.0846 </r>
       <r>     1.3631     4.2407   297.4006 </r>
       <r>     1.4376     2.9764   297.6224 </r>
       <r>     1.5121     2.0826   297.7776 </r>
       <r>     1.5866     2.0634   297.9314 </r>
       <r>     1.6612     4.1754   298.2426 </r>
       <r>     1.7357     9.4301   298.9453 </r>
       <r>     1.8102    15.9142   300.1313 </r>
       <r>     1.8847    19.4214   301.5787 </r>
       <r>     1.9593    18.0202   302.9216 </r>
       <r>     2.0338    14.2683   303.9849 </r>
       <r>     2.1083    11.5540   304.8460 </r>
       <r>     2.1828    10.3960   305.6207 </r>
       <r>     2.2574     9.6486   306.3398 </r>
       <r>     2.3319     8.8717   307.0009 </r>
       <r>     2.4064     8.1581   307.6089 </r>
       <r>     2.4809     7.1280   308.1401 </r>
       <r>     2.5555     5.2065   308.5281 </r>
       <r>     2.6300     2.7659   308.7343 </r>
       <r>     2.7045     1.2042   308.8240 </r>
       <r>     2.7790     1.4757   308.9340 </r>
       <r>     2.8536     3.1569   309.1692 </r>
       <r>     2.9281     5.1320   309.5517 </r>
       <r>     3.0026     6.6356   310.0462 </r>
       <r>     3.0771     7.8043   310.6278 </r>
       <r>     3.1517     9.4785   311.3342 </r>
       <r>     3.2262    11.9170   312.2223 </r>
       <r>     3.3007    13.9269   313.2602 </r>
       <r>     3.3752    14.1255   314.3129 </r>
       <r>     3.4497    12.5987   315.2518 </r>
       <r>     3.5243    10.4426   316.0300 </r>
       <r>     3.5988     8.3345   316.6511 </r>
       <r>     3.6733     6.4681   317.1332 </r>
       <r>     3.7478     5.2186   317.5221 </r>
       <r>     3.8224     5.0996   317.9021 </r>
       <r>     3.8969     6.1941   318.3637 </r>
       <r>     3.9714     7.5688   318.9278 </r>
       <r>     4.0459     7.5845   319.4930 </r>
       <r>     4.1205     5.5367   319.9056 </r>
       <r>     4.1950     2.6138   320.1004 </r>
       <r>     4.2695     0.6742   320.1506 </r>
       <r>     4.3440     0.5375   320.1907 </r>
       <r>     4.4186     1.5586   320.3069 </r>
       <r>     4.4931     2.3284   320.4804 </r>
       <r>     4.5676     1.9309   320.6243 </r>
       <r>     4.6421     0.9361   320.6940 </r>
       <r>     4.7167     0.9936   320.7681 </r>
       <r>     4.7912     3.2554   321.0107 </r>
       <r>     4.8657     7.3198   321.5562 </r>
       <r>     4.9402    11.5933   322.4202 </r>
       <r>     5.0148    14.1693   323.4761 </r>
       <r>     5.0893    13.8556   324.5087 </r>
       <r>     5.1638    11.6399   325.3761 </r>
       <r>     5.2383    10.2134   326.1373 </r>
       <r>     5.3128    10.5332   326.9223 </r>
       <r>     5.3874    10.4943   327.7043 </r>
       <r>     5.4619     8.2517   328.3193 </r>
       <r>     5.5364     4.8274   328.6790 </r>
       <r>     5.6109     2.5291   328.8675 </r>
       <r>     5.6855     2.4696   329.0516 </r>
       <r>     5.7600     4.0924   329.3565 </r>
       <r>     5.8345     6.2181   329.8199 </r>
       <r>     5.9090     8.3201   330.4400 </r>
       <r>     5.9836    10.4371   331.2178 </r>
       <r>     6.0581    11.8080   332.0978 </r>
       <r>     6.1326    11.2055   332.9329 </r>
       <r>     6.2071     9.2265   333.6205 </r>
       <r>     6.2817     8.2142   334.2326 </r>
       <r>     6.3562     8.8556   334.8926 </r>
       <r>     6.4307     8.8866   335.5548 </r>
       <r>     6.5052     6.5877   336.0458 </r>
       <r>     6.5798     3.6557   336.3182 </r>
       <r>     6.6543     3.2406   336.5597 </r>
       <r>     6.7288     6.8354   337.0691 </r>
       <r>     6.8033    13.4375   338.0705 </r>
       <r>     6.8779    19.5593   339.5282 </r>
       <r>     6.9524    20.8349   341.0809 </r>
       <r>     7.0269    16.5317   342.3129 </r>
       <r>     7.1014    10.9199   343.1267 </r>
       <r>     7.1759     7.7140   343.7016 </r>
       <r>     7.2505     6.1344   344.1587 </r>
       <r>     7.3250     4.7057   344.5094 </r>
       <r>     7.3995     5.2404   344.8999 </r>
       <r>     7.4740     9.9428   345.6409 </r>
       <r>     7.5486    16.7407   346.8885 </r>
       <r>     7.6231    20.6132   348.4247 </r>
       <r>     7.6976    19.0485   349.8442 </r>
       <r>     7.7721    14.1716   350.9004 </r>
       <r>     7.8467     9.8746   351.6363 </r>
       <r>     7.9212     8.1109   352.2407 </r>
       <r>     7.9957     8.0555   352.8410 </r>
       <r>     8.0702     8.8408   353.4999 </r>
       <r>     8.1448    11.7191   354.3733 </r>
       <r>     8.2193    17.1081   355.6482 </r>
       <r>     8.2938    21.1584   357.2250 </r>
       <r>     8.3683    19.2847   358.6622 </r>
       <r>     8.4429    12.1673   359.5690 </r>
       <r>     8.5174     5.0220   359.9432 </r>
       <r>     8.5919     1.9261   360.0868 </r>
       <r>     8.6664     3.0895   360.3170 </r>
       <r>     8.7410     6.7005   360.8163 </r>
       <r>     8.8155    10.9562   361.6328 </r>
       <r>     8.8900    13.9006   362.6688 </r>
       <r>     8.9645    14.0600   363.7166 </r>
       <r>     9.0390    12.9161   364.6791 </r>
       <r>     9.1136    13.8614   365.7122 </r>
       <r>     9.1881    17.3181   367.0028 </r>
       <r>     9.2626    20.2502   368.5119 </r>
       <r>     9.3371    20.5826   370.0458 </r>
       <r>     9.4117    18.3714   371.4149 </r>
       <r>     9.4862    13.9592   372.4552 </r>
       <r>     9.5607     8.6925   373.1030 </r>
       <r>     9.6352     5.8870   373.5417 </r>
       <r>     9.7098     8.2524   374.1567 </r>
       <r>     9.7843    14.5923   375.2442 </r>
       <r>     9.8588    19.9604   376.7317 </r>
       <r>     9.9333    20.0308   378.2245 </r>
       <r>    10.0079    15.5709   379.3849 </r>
       <r>    10.0824    11.3532   380.2310 </r>
       <r>    10.1569    10.6594   381.0254 </r>
       <r>    10.2314    12.1589   381.9315 </r>
       <r>    10.3060    12.2419   382.8438 </r>
       <r>    10.3805     9.3586   383.5413 </r>
       <r>    10.4550     5.1171   383.9226 </r>
       <r>    10.5295     1.7562   384.0535 </r>
       <r>    10.6041     0.0781   384.0593 </r>
       <r>    10.6786    -0.3585   384.0326 </r>
       <r>    10.7531    -0.2730   384.0122 </r>
       <r>    10.8276    -0.1194   384.0033 </r>
       <r>    10.9021    -0.0358   384.0007 </r>
       <r>    10.9767    -0.0077   384.0001 </r>
       <r>    11.0512    -0.0012   384.0000 </r>
       <r>    11.1257    -0.0001   384.0000 </r>
       <r>    11.2002    -0.0000   384.0000 </r>
       <r>    11.2748    -0.0000   384.0000 </r>
       <r>    11.3493    -0.0000   384.0000 </r>
       <r>    11.4238    -0.0000   384.0000 </r>
       <r>    11.4983    -0.0000   384.0000 </r>
       <r>    11.5729    -0.0000   384.0000 </r>
       <r>    11.6474    -0.0000   384.0000 </r>
       <r>    11.7219     0.0000   384.0000 </r>
       <r>    11.7964     0.0000   384.0000 </r>
       <r>    11.8710     0.0000   384.0000 </r>
       <r>    11.9455     0.0000   384.0000 </r>
       <r>    12.0200     0.0000   384.0000 </r>
       <r>    12.0945     0.0000   384.0000 </r>
       <r>    12.1691     0.0000   384.0000 </r>
       <r>    12.2436     0.0000   384.0000 </r>
       <r>    12.3181     0.0000   384.0000 </r>
       <r>    12.3926     0.0000   384.0000 </r>
      </set>
     </set>
    </array>
   </total>
  </dos>
 </calculation>
 <structure name="finalpos" >
  <crystal>
   <varray name="basis" >
    <v>       7.70039320       0.00000000       0.00000000 </v>
    <v>       3.85019660       6.66873613       0.00000000 </v>
    <v>       0.00000000       0.00000000      25.47890854 </v>
   </varray>
   <i name="volume">   1308.39011751 </i>
   <varray name="rec_basis" >
    <v>       0.12986350      -0.07497673       0.00000000 </v>
    <v>       0.00000000       0.14995345       0.00000000 </v>
    <v>       0.00000000       0.00000000       0.03924815 </v>
   </varray>
  </crystal>
  <varray name="positions" >
   <v>       0.00000000       0.00000000       0.00000000 </v>
   <v>       0.00000000       0.33333333       0.00000000 </v>
   <v>       1.00000000       0.66666667       0.00000000 </v>
   <v>       0.33333333       0.00000000       0.00000000 </v>
   <v>       0.33333333       0.33333333       0.00000000 </v>
   <v>       0.33333333       0.66666667       0.00000000 </v>
   <v>       0.66666667       0.00000000       0.00000000 </v>
   <v>       0.66666667       0.33333333       0.00000000 </v>
   <v>       0.66666667       0.66666667       0.00000000 </v>
   <v>       0.11111111       0.11111111       0.08225555 </v>
   <v>       0.11111111       0.44444444       0.08225555 </v>
   <v>       0.11111111       0.77777778       0.08225555 </v>
   <v>       0.44444444       0.11111111       0.08225555 </v>
   <v>       0.44444444       0.44444444       0.08225555 </v>
   <v>       0.44444444       0.77777778       0.08225555 </v>
   <v>       0.77777778       0.11111111       0.08225555 </v>
   <v>       0.77777778       0.44444444       0.08225555 </v>
   <v>       0.77777778       0.77777778       0.08225555 </v>
   <v>       0.22222222       0.22222222       0.16272942 </v>
   <v>       0.22222222       0.55555556       0.16272942 </v>
   <v>       0.22222222       0.88888889       0.16272942 </v>
   <v>       0.55555556       0.22222222       0.16272942 </v>
   <v>       0.55555556       0.55555556       0.16272942 </v>
   <v>       0.55555556       0.88888889       0.16272942 </v>
   <v>       0.88888889       0.22222222       0.16272942 </v>
   <v>       0.88888889       0.55555556       0.16272942 </v>
   <v>       0.88888889       0.88888889       0.16272942 </v>
   <v>       0.00000000      -0.00000000       0.24314551 </v>
   <v>       0.00000000       0.33333333       0.24314551 </v>
   <v>       1.00000000       0.66666667       0.24314551 </v>
   <v>       0.33333333      -0.00000000       0.24314551 </v>
   <v>       0.33333333       0.33333333       0.24314551 </v>
   <v>       0.33333333       0.66666667       0.24314551 </v>
   <v>       0.66666667       0.00000000       0.24314551 </v>
   <v>       0.66666667       0.33333333       0.24314551 </v>
   <v>       0.66666667       0.66666667       0.24314551 </v>
   <v>       0.11111111       0.11111111       0.32383587 </v>
   <v>       0.11111111       0.44444444       0.32383587 </v>
   <v>       0.11111111       0.77777778       0.32383587 </v>
   <v>       0.44444444       0.11111111       0.32383587 </v>
   <v>       0.44444444       0.44444444       0.32383587 </v>
   <v>       0.44444444       0.77777778       0.32383587 </v>
   <v>       0.77777778       0.11111111       0.32383587 </v>
   <v>       0.77777778       0.44444444       0.32383587 </v>
   <v>       0.77777778       0.77777778       0.32383587 </v>
   <v>       0.22222222       0.22222222       0.40421758 </v>
   <v>       0.22222222       0.55555556       0.40421758 </v>
   <v>       0.22222222       0.88888889       0.40421758 </v>
   <v>       0.55555556       0.22222222       0.40421758 </v>
   <v>       0.55555556       0.55555556       0.40421758 </v>
   <v>       0.55555556       0.88888889       0.40421758 </v>
   <v>       0.88888889       0.22222222       0.40421758 </v>
   <v>       0.88888889       0.55555556       0.40421758 </v>
   <v>       0.88888889       0.88888889       0.40421758 </v>
  </varray>
  <varray name="selective"  type="logical" >
   <v type="logical" >  F  F  F </v>
   <v type="logical" >  F  F  F </v>
   <v type="logical" >  F  F  F </v>
   <v type="logical" >  F  F  F </v>
   <v type="logical" >  F  F  F </v>
   <v type="logical" >  F  F  F </v>
   <v type="logical" >  F  F  F </v>
   <v type="logical" >  F  F  F </v>
   <v type="logical" >  F  F  F </v>
   <v type="logical" >  F  F  F </v>
   <v type="logical" >  F  F  F </v>
   <v type="logical" >  F  F  F </v>
   <v type="logical" >  F  F  F </v>
   <v type="logical" >  F  F  F </v>
   <v type="logical" >  F  F  F </v>
   <v type="logical" >  F  F  F </v>
   <v type="logical" >  F  F  F </v>
   <v type="logical" >  F  F  F </v>
   <v type="logical" >  T  T  T </v>
   <v type="logical" >  T  T  T </v>
   <v type="logical" >  T  T  T </v>
   <v type="logical" >  T  T  T </v>
   <v type="logical" >  T  T  T </v>
   <v type="logical" >  T  T  T </v>
   <v type="logical" >  T  T  T </v>
   <v type="logical" >  T  T  T </v>
   <v type="logical" >  T  T  T </v>
   <v type="logical" >  T  T  T </v>
   <v type="logical" >  T  T  T </v>
   <v type="logical" >  T  T  T </v>
   <v type="logical" >  T  T  T </v>
   <v type="logical" >  T  T  T </v>
   <v type="logical" >  T  T  T </v>
   <v type="logical" >  T  T  T </v>
   <v type="logical" >  T  T  T </v>
   <v type="logical" >  T  T  T </v>
   <v type="logical" >  T  T  T </v>
   <v type="logical" >  T  T  T </v>
   <v type="logical" >  T  T  T </v>
   <v type="logical" >  T  T  T </v>
   <v type="logical" >  T  T  T </v>
   <v type="logical" >  T  T  T </v>
   <v type="logical" >  T  T  T </v>
   <v type="logical" >  T  T  T </v>
   <v type="logical" >  T  T  T </v>
   <v type="logical" >  T  T  T </v>
   <v type="logical" >  T  T  T </v>
   <v type="logical" >  T  T  T </v>
   <v type="logical" >  T  T  T </v>
   <v type="logical" >  T  T  T </v>
   <v type="logical" >  T  T  T </v>
   <v type="logical" >  T  T  T </v>
   <v type="logical" >  T  T  T </v>
   <v type="logical" >  T  T  T </v>
  </varray>
  <nose>
   <v>      -3.00000000       0.00000000       0.00010000       0.00010000 </v>
  </nose>
 </structure>
</modeling>
