unknown system                          
           1
     7.700393    0.000000    0.000000
     3.850197    6.668736    0.000000
     0.000000    0.000000   25.478909
   Cu
    54
Direct configuration=     1
   0.00000000  0.00000000  0.00000000
   0.00000000  0.33333333  0.00000000
   1.00000000  0.66666667  0.00000000
   0.33333333  0.00000000  0.00000000
   0.33333333  0.33333333  0.00000000
   0.33333333  0.66666667  0.00000000
   0.66666667  0.00000000  0.00000000
   0.66666667  0.33333333  0.00000000
   0.66666667  0.66666667  0.00000000
   0.11111111  0.11111111  0.08225555
   0.11111111  0.44444444  0.08225555
   0.11111111  0.77777778  0.08225555
   0.44444444  0.11111111  0.08225555
   0.44444444  0.44444444  0.08225555
   0.44444444  0.77777778  0.08225555
   0.77777778  0.11111111  0.08225555
   0.77777778  0.44444444  0.08225555
   0.77777778  0.77777778  0.08225555
   0.22222222  0.22222222  0.16451110
   0.22222222  0.55555556  0.16451110
   0.22222222  0.88888889  0.16451110
   0.55555556  0.22222222  0.16451110
   0.55555556  0.55555556  0.16451110
   0.55555556  0.88888889  0.16451110
   0.88888889  0.22222222  0.16451110
   0.88888889  0.55555556  0.16451110
   0.88888889  0.88888889  0.16451110
   0.00000000  0.00000000  0.24676665
   0.00000000  0.33333333  0.24676665
   1.00000000  0.66666667  0.24676665
   0.33333333  0.00000000  0.24676665
   0.33333333  0.33333333  0.24676665
   0.33333333  0.66666667  0.24676665
   0.66666667  0.00000000  0.24676665
   0.66666667  0.33333333  0.24676665
   0.66666667  0.66666667  0.24676665
   0.11111111  0.11111111  0.32902220
   0.11111111  0.44444444  0.32902220
   0.11111111  0.77777778  0.32902220
   0.44444444  0.11111111  0.32902220
   0.44444444  0.44444444  0.32902220
   0.44444444  0.77777778  0.32902220
   0.77777778  0.11111111  0.32902220
   0.77777778  0.44444444  0.32902220
   0.77777778  0.77777778  0.32902220
   0.22222222  0.22222222  0.41127774
   0.22222222  0.55555556  0.41127774
   0.22222222  0.88888889  0.41127774
   0.55555556  0.22222222  0.41127774
   0.55555556  0.55555556  0.41127774
   0.55555556  0.88888889  0.41127774
   0.88888889  0.22222222  0.41127774
   0.88888889  0.55555556  0.41127774
   0.88888889  0.88888889  0.41127774
Direct configuration=     2
   0.00000000  0.00000000  0.00000000
   0.00000000  0.33333333  0.00000000
   1.00000000  0.66666667  0.00000000
   0.33333333  0.00000000  0.00000000
   0.33333333  0.33333333  0.00000000
   0.33333333  0.66666667  0.00000000
   0.66666667  0.00000000  0.00000000
   0.66666667  0.33333333  0.00000000
   0.66666667  0.66666667  0.00000000
   0.11111111  0.11111111  0.08225555
   0.11111111  0.44444444  0.08225555
   0.11111111  0.77777778  0.08225555
   0.44444444  0.11111111  0.08225555
   0.44444444  0.44444444  0.08225555
   0.44444444  0.77777778  0.08225555
   0.77777778  0.11111111  0.08225555
   0.77777778  0.44444444  0.08225555
   0.77777778  0.77777778  0.08225555
   0.22222222  0.22222222  0.16454068
   0.22222222  0.55555556  0.16454068
   0.22222222  0.88888889  0.16454068
   0.55555556  0.22222222  0.16454068
   0.55555556  0.55555556  0.16454068
   0.55555556  0.88888889  0.16454068
   0.88888889  0.22222222  0.16454068
   0.88888889  0.55555556  0.16454068
   0.88888889  0.88888889  0.16454068
   0.00000000 -0.00000000  0.24670865
   0.00000000  0.33333333  0.24670865
   1.00000000  0.66666667  0.24670865
   0.33333333 -0.00000000  0.24670865
   0.33333333  0.33333333  0.24670865
   0.33333333  0.66666667  0.24670865
   0.66666667 -0.00000000  0.24670865
   0.66666667  0.33333333  0.24670865
   0.66666667  0.66666667  0.24670865
   0.11111111  0.11111111  0.32904284
   0.11111111  0.44444444  0.32904284
   0.11111111  0.77777778  0.32904284
   0.44444444  0.11111111  0.32904284
   0.44444444  0.44444444  0.32904284
   0.44444444  0.77777778  0.32904284
   0.77777778  0.11111111  0.32904284
   0.77777778  0.44444444  0.32904284
   0.77777778  0.77777778  0.32904284
   0.22222222  0.22222222  0.41087286
   0.22222222  0.55555556  0.41087286
   0.22222222  0.88888889  0.41087286
   0.55555556  0.22222222  0.41087286
   0.55555556  0.55555556  0.41087286
   0.55555556  0.88888889  0.41087286
   0.88888889  0.22222222  0.41087286
   0.88888889  0.55555556  0.41087286
   0.88888889  0.88888889  0.41087286
Direct configuration=     3
   0.00000000  0.00000000  0.00000000
   0.00000000  0.33333333  0.00000000
   1.00000000  0.66666667  0.00000000
   0.33333333  0.00000000  0.00000000
   0.33333333  0.33333333  0.00000000
   0.33333333  0.66666667  0.00000000
   0.66666667  0.00000000  0.00000000
   0.66666667  0.33333333  0.00000000
   0.66666667  0.66666667  0.00000000
   0.11111111  0.11111111  0.08225555
   0.11111111  0.44444444  0.08225555
   0.11111111  0.77777778  0.08225555
   0.44444444  0.11111111  0.08225555
   0.44444444  0.44444444  0.08225555
   0.44444444  0.77777778  0.08225555
   0.77777778  0.11111111  0.08225555
   0.77777778  0.44444444  0.08225555
   0.77777778  0.77777778  0.08225555
   0.22222222  0.22222222  0.16462942
   0.22222222  0.55555556  0.16462942
   0.22222222  0.88888889  0.16462942
   0.55555556  0.22222222  0.16462942
   0.55555556  0.55555556  0.16462942
   0.55555556  0.88888889  0.16462942
   0.88888889  0.22222222  0.16462942
   0.88888889  0.55555556  0.16462942
   0.88888889  0.88888889  0.16462942
   0.00000000 -0.00000000  0.24653468
   0.00000000  0.33333333  0.24653468
   1.00000000  0.66666667  0.24653468
   0.33333333 -0.00000000  0.24653468
   0.33333333  0.33333333  0.24653468
   0.33333333  0.66666667  0.24653468
   0.66666667 -0.00000000  0.24653468
   0.66666667  0.33333333  0.24653468
   0.66666667  0.66666667  0.24653468
   0.11111111  0.11111111  0.32910478
   0.11111111  0.44444444  0.32910478
   0.11111111  0.77777778  0.32910478
   0.44444444  0.11111111  0.32910478
   0.44444444  0.44444444  0.32910478
   0.44444444  0.77777778  0.32910478
   0.77777778  0.11111111  0.32910478
   0.77777778  0.44444444  0.32910478
   0.77777778  0.77777778  0.32910478
   0.22222222  0.22222222  0.40965819
   0.22222222  0.55555556  0.40965819
   0.22222222  0.88888889  0.40965819
   0.55555556  0.22222222  0.40965819
   0.55555556  0.55555556  0.40965819
   0.55555556  0.88888889  0.40965819
   0.88888889  0.22222222  0.40965819
   0.88888889  0.55555556  0.40965819
   0.88888889  0.88888889  0.40965819
Direct configuration=     4
   0.00000000  0.00000000  0.00000000
   0.00000000  0.33333333  0.00000000
   1.00000000  0.66666667  0.00000000
   0.33333333  0.00000000  0.00000000
   0.33333333  0.33333333  0.00000000
   0.33333333  0.66666667  0.00000000
   0.66666667  0.00000000  0.00000000
   0.66666667  0.33333333  0.00000000
   0.66666667  0.66666667  0.00000000
   0.11111111  0.11111111  0.08225555
   0.11111111  0.44444444  0.08225555
   0.11111111  0.77777778  0.08225555
   0.44444444  0.11111111  0.08225555
   0.44444444  0.44444444  0.08225555
   0.44444444  0.77777778  0.08225555
   0.77777778  0.11111111  0.08225555
   0.77777778  0.44444444  0.08225555
   0.77777778  0.77777778  0.08225555
   0.22222222  0.22222222  0.16465575
   0.22222222  0.55555556  0.16465575
   0.22222222  0.88888889  0.16465575
   0.55555556  0.22222222  0.16465575
   0.55555556  0.55555556  0.16465575
   0.55555556  0.88888889  0.16465575
   0.88888889  0.22222222  0.16465575
   0.88888889  0.55555556  0.16465575
   0.88888889  0.88888889  0.16465575
   0.00000000 -0.00000000  0.24648305
   0.00000000  0.33333333  0.24648305
   1.00000000  0.66666667  0.24648305
   0.33333333 -0.00000000  0.24648305
   0.33333333  0.33333333  0.24648305
   0.33333333  0.66666667  0.24648305
   0.66666667 -0.00000000  0.24648305
   0.66666667  0.33333333  0.24648305
   0.66666667  0.66666667  0.24648305
   0.11111111  0.11111111  0.32912315
   0.11111111  0.44444444  0.32912315
   0.11111111  0.77777778  0.32912315
   0.44444444  0.11111111  0.32912315
   0.44444444  0.44444444  0.32912315
   0.44444444  0.77777778  0.32912315
   0.77777778  0.11111111  0.32912315
   0.77777778  0.44444444  0.32912315
   0.77777778  0.77777778  0.32912315
   0.22222222  0.22222222  0.40929777
   0.22222222  0.55555556  0.40929777
   0.22222222  0.88888889  0.40929777
   0.55555556  0.22222222  0.40929777
   0.55555556  0.55555556  0.40929777
   0.55555556  0.88888889  0.40929777
   0.88888889  0.22222222  0.40929777
   0.88888889  0.55555556  0.40929777
   0.88888889  0.88888889  0.40929777
Direct configuration=     5
   0.00000000  0.00000000  0.00000000
   0.00000000  0.33333333  0.00000000
   1.00000000  0.66666667  0.00000000
   0.33333333  0.00000000  0.00000000
   0.33333333  0.33333333  0.00000000
   0.33333333  0.66666667  0.00000000
   0.66666667  0.00000000  0.00000000
   0.66666667  0.33333333  0.00000000
   0.66666667  0.66666667  0.00000000
   0.11111111  0.11111111  0.08225555
   0.11111111  0.44444444  0.08225555
   0.11111111  0.77777778  0.08225555
   0.44444444  0.11111111  0.08225555
   0.44444444  0.44444444  0.08225555
   0.44444444  0.77777778  0.08225555
   0.77777778  0.11111111  0.08225555
   0.77777778  0.44444444  0.08225555
   0.77777778  0.77777778  0.08225555
   0.22222222  0.22222222  0.16463349
   0.22222222  0.55555556  0.16463349
   0.22222222  0.88888889  0.16463349
   0.55555556  0.22222222  0.16463349
   0.55555556  0.55555556  0.16463349
   0.55555556  0.88888889  0.16463349
   0.88888889  0.22222222  0.16463349
   0.88888889  0.55555556  0.16463349
   0.88888889  0.88888889  0.16463349
   0.00000000 -0.00000000  0.24649005
   0.00000000  0.33333333  0.24649005
   1.00000000  0.66666667  0.24649005
   0.33333333 -0.00000000  0.24649005
   0.33333333  0.33333333  0.24649005
   0.33333333  0.66666667  0.24649005
   0.66666667 -0.00000000  0.24649005
   0.66666667  0.33333333  0.24649005
   0.66666667  0.66666667  0.24649005
   0.11111111  0.11111111  0.32883326
   0.11111111  0.44444444  0.32883326
   0.11111111  0.77777778  0.32883326
   0.44444444  0.11111111  0.32883326
   0.44444444  0.44444444  0.32883326
   0.44444444  0.77777778  0.32883326
   0.77777778  0.11111111  0.32883326
   0.77777778  0.44444444  0.32883326
   0.77777778  0.77777778  0.32883326
   0.22222222  0.22222222  0.40893581
   0.22222222  0.55555556  0.40893581
   0.22222222  0.88888889  0.40893581
   0.55555556  0.22222222  0.40893581
   0.55555556  0.55555556  0.40893581
   0.55555556  0.88888889  0.40893581
   0.88888889  0.22222222  0.40893581
   0.88888889  0.55555556  0.40893581
   0.88888889  0.88888889  0.40893581
Direct configuration=     6
   0.00000000  0.00000000  0.00000000
   0.00000000  0.33333333  0.00000000
   1.00000000  0.66666667  0.00000000
   0.33333333  0.00000000  0.00000000
   0.33333333  0.33333333  0.00000000
   0.33333333  0.66666667  0.00000000
   0.66666667  0.00000000  0.00000000
   0.66666667  0.33333333  0.00000000
   0.66666667  0.66666667  0.00000000
   0.11111111  0.11111111  0.08225555
   0.11111111  0.44444444  0.08225555
   0.11111111  0.77777778  0.08225555
   0.44444444  0.11111111  0.08225555
   0.44444444  0.44444444  0.08225555
   0.44444444  0.77777778  0.08225555
   0.77777778  0.11111111  0.08225555
   0.77777778  0.44444444  0.08225555
   0.77777778  0.77777778  0.08225555
   0.22222222  0.22222222  0.16456673
   0.22222222  0.55555556  0.16456673
   0.22222222  0.88888889  0.16456673
   0.55555556  0.22222222  0.16456673
   0.55555556  0.55555556  0.16456673
   0.55555556  0.88888889  0.16456673
   0.88888889  0.22222222  0.16456673
   0.88888889  0.55555556  0.16456673
   0.88888889  0.88888889  0.16456673
   0.00000000 -0.00000000  0.24651106
   0.00000000  0.33333333  0.24651106
   1.00000000  0.66666667  0.24651106
   0.33333333 -0.00000000  0.24651106
   0.33333333  0.33333333  0.24651106
   0.33333333  0.66666667  0.24651106
   0.66666667 -0.00000000  0.24651106
   0.66666667  0.33333333  0.24651106
   0.66666667  0.66666667  0.24651106
   0.11111111  0.11111111  0.32796359
   0.11111111  0.44444444  0.32796359
   0.11111111  0.77777778  0.32796359
   0.44444444  0.11111111  0.32796359
   0.44444444  0.44444444  0.32796359
   0.44444444  0.77777778  0.32796359
   0.77777778  0.11111111  0.32796359
   0.77777778  0.44444444  0.32796359
   0.77777778  0.77777778  0.32796359
   0.22222222  0.22222222  0.40784993
   0.22222222  0.55555556  0.40784993
   0.22222222  0.88888889  0.40784993
   0.55555556  0.22222222  0.40784993
   0.55555556  0.55555556  0.40784993
   0.55555556  0.88888889  0.40784993
   0.88888889  0.22222222  0.40784993
   0.88888889  0.55555556  0.40784993
   0.88888889  0.88888889  0.40784993
Direct configuration=     7
   0.00000000  0.00000000  0.00000000
   0.00000000  0.33333333  0.00000000
   1.00000000  0.66666667  0.00000000
   0.33333333  0.00000000  0.00000000
   0.33333333  0.33333333  0.00000000
   0.33333333  0.66666667  0.00000000
   0.66666667  0.00000000  0.00000000
   0.66666667  0.33333333  0.00000000
   0.66666667  0.66666667  0.00000000
   0.11111111  0.11111111  0.08225555
   0.11111111  0.44444444  0.08225555
   0.11111111  0.77777778  0.08225555
   0.44444444  0.11111111  0.08225555
   0.44444444  0.44444444  0.08225555
   0.44444444  0.77777778  0.08225555
   0.77777778  0.11111111  0.08225555
   0.77777778  0.44444444  0.08225555
   0.77777778  0.77777778  0.08225555
   0.22222222  0.22222222  0.16443320
   0.22222222  0.55555556  0.16443320
   0.22222222  0.88888889  0.16443320
   0.55555556  0.22222222  0.16443320
   0.55555556  0.55555556  0.16443320
   0.55555556  0.88888889  0.16443320
   0.88888889  0.22222222  0.16443320
   0.88888889  0.55555556  0.16443320
   0.88888889  0.88888889  0.16443320
   0.00000000 -0.00000000  0.24655308
   0.00000000  0.33333333  0.24655308
   1.00000000  0.66666667  0.24655308
   0.33333333 -0.00000000  0.24655308
   0.33333333  0.33333333  0.24655308
   0.33333333  0.66666667  0.24655308
   0.66666667 -0.00000000  0.24655308
   0.66666667  0.33333333  0.24655308
   0.66666667  0.66666667  0.24655308
   0.11111111  0.11111111  0.32622423
   0.11111111  0.44444444  0.32622423
   0.11111111  0.77777778  0.32622423
   0.44444444  0.11111111  0.32622423
   0.44444444  0.44444444  0.32622423
   0.44444444  0.77777778  0.32622423
   0.77777778  0.11111111  0.32622423
   0.77777778  0.44444444  0.32622423
   0.77777778  0.77777778  0.32622423
   0.22222222  0.22222222  0.40567816
   0.22222222  0.55555556  0.40567816
   0.22222222  0.88888889  0.40567816
   0.55555556  0.22222222  0.40567816
   0.55555556  0.55555556  0.40567816
   0.55555556  0.88888889  0.40567816
   0.88888889  0.22222222  0.40567816
   0.88888889  0.55555556  0.40567816
   0.88888889  0.88888889  0.40567816
Direct configuration=     8
   0.00000000  0.00000000  0.00000000
   0.00000000  0.33333333  0.00000000
   1.00000000  0.66666667  0.00000000
   0.33333333  0.00000000  0.00000000
   0.33333333  0.33333333  0.00000000
   0.33333333  0.66666667  0.00000000
   0.66666667  0.00000000  0.00000000
   0.66666667  0.33333333  0.00000000
   0.66666667  0.66666667  0.00000000
   0.11111111  0.11111111  0.08225555
   0.11111111  0.44444444  0.08225555
   0.11111111  0.77777778  0.08225555
   0.44444444  0.11111111  0.08225555
   0.44444444  0.44444444  0.08225555
   0.44444444  0.77777778  0.08225555
   0.77777778  0.11111111  0.08225555
   0.77777778  0.44444444  0.08225555
   0.77777778  0.77777778  0.08225555
   0.22222222  0.22222222  0.16450914
   0.22222222  0.55555556  0.16450914
   0.22222222  0.88888889  0.16450914
   0.55555556  0.22222222  0.16450914
   0.55555556  0.55555556  0.16450914
   0.55555556  0.88888889  0.16450914
   0.88888889  0.22222222  0.16450914
   0.88888889  0.55555556  0.16450914
   0.88888889  0.88888889  0.16450914
   0.00000000 -0.00000000  0.24652918
   0.00000000  0.33333333  0.24652918
   1.00000000  0.66666667  0.24652918
   0.33333333 -0.00000000  0.24652918
   0.33333333  0.33333333  0.24652918
   0.33333333  0.66666667  0.24652918
   0.66666667 -0.00000000  0.24652918
   0.66666667  0.33333333  0.24652918
   0.66666667  0.66666667  0.24652918
   0.11111111  0.11111111  0.32721345
   0.11111111  0.44444444  0.32721345
   0.11111111  0.77777778  0.32721345
   0.44444444  0.11111111  0.32721345
   0.44444444  0.44444444  0.32721345
   0.44444444  0.77777778  0.32721345
   0.77777778  0.11111111  0.32721345
   0.77777778  0.44444444  0.32721345
   0.77777778  0.77777778  0.32721345
   0.22222222  0.22222222  0.40691331
   0.22222222  0.55555556  0.40691331
   0.22222222  0.88888889  0.40691331
   0.55555556  0.22222222  0.40691331
   0.55555556  0.55555556  0.40691331
   0.55555556  0.88888889  0.40691331
   0.88888889  0.22222222  0.40691331
   0.88888889  0.55555556  0.40691331
   0.88888889  0.88888889  0.40691331
Direct configuration=     9
   0.00000000  0.00000000  0.00000000
   0.00000000  0.33333333  0.00000000
   1.00000000  0.66666667  0.00000000
   0.33333333  0.00000000  0.00000000
   0.33333333  0.33333333  0.00000000
   0.33333333  0.66666667  0.00000000
   0.66666667  0.00000000  0.00000000
   0.66666667  0.33333333  0.00000000
   0.66666667  0.66666667  0.00000000
   0.11111111  0.11111111  0.08225555
   0.11111111  0.44444444  0.08225555
   0.11111111  0.77777778  0.08225555
   0.44444444  0.11111111  0.08225555
   0.44444444  0.44444444  0.08225555
   0.44444444  0.77777778  0.08225555
   0.77777778  0.11111111  0.08225555
   0.77777778  0.44444444  0.08225555
   0.77777778  0.77777778  0.08225555
   0.22222222  0.22222222  0.16446296
   0.22222222  0.55555556  0.16446296
   0.22222222  0.88888889  0.16446296
   0.55555556  0.22222222  0.16446296
   0.55555556  0.55555556  0.16446296
   0.55555556  0.88888889  0.16446296
   0.88888889  0.22222222  0.16446296
   0.88888889  0.55555556  0.16446296
   0.88888889  0.88888889  0.16446296
   0.00000000 -0.00000000  0.24602162
   0.00000000  0.33333333  0.24602162
   1.00000000  0.66666667  0.24602162
   0.33333333 -0.00000000  0.24602162
   0.33333333  0.33333333  0.24602162
   0.33333333  0.66666667  0.24602162
   0.66666667 -0.00000000  0.24602162
   0.66666667  0.33333333  0.24602162
   0.66666667  0.66666667  0.24602162
   0.11111111  0.11111111  0.32661248
   0.11111111  0.44444444  0.32661248
   0.11111111  0.77777778  0.32661248
   0.44444444  0.11111111  0.32661248
   0.44444444  0.44444444  0.32661248
   0.44444444  0.77777778  0.32661248
   0.77777778  0.11111111  0.32661248
   0.77777778  0.44444444  0.32661248
   0.77777778  0.77777778  0.32661248
   0.22222222  0.22222222  0.40663442
   0.22222222  0.55555556  0.40663442
   0.22222222  0.88888889  0.40663442
   0.55555556  0.22222222  0.40663442
   0.55555556  0.55555556  0.40663442
   0.55555556  0.88888889  0.40663442
   0.88888889  0.22222222  0.40663442
   0.88888889  0.55555556  0.40663442
   0.88888889  0.88888889  0.40663442
Direct configuration=    10
   0.00000000  0.00000000  0.00000000
   0.00000000  0.33333333  0.00000000
   1.00000000  0.66666667  0.00000000
   0.33333333  0.00000000  0.00000000
   0.33333333  0.33333333  0.00000000
   0.33333333  0.66666667  0.00000000
   0.66666667  0.00000000  0.00000000
   0.66666667  0.33333333  0.00000000
   0.66666667  0.66666667  0.00000000
   0.11111111  0.11111111  0.08225555
   0.11111111  0.44444444  0.08225555
   0.11111111  0.77777778  0.08225555
   0.44444444  0.11111111  0.08225555
   0.44444444  0.44444444  0.08225555
   0.44444444  0.77777778  0.08225555
   0.77777778  0.11111111  0.08225555
   0.77777778  0.44444444  0.08225555
   0.77777778  0.77777778  0.08225555
   0.22222222  0.22222222  0.16436262
   0.22222222  0.55555556  0.16436262
   0.22222222  0.88888889  0.16436262
   0.55555556  0.22222222  0.16436262
   0.55555556  0.55555556  0.16436262
   0.55555556  0.88888889  0.16436262
   0.88888889  0.22222222  0.16436262
   0.88888889  0.55555556  0.16436262
   0.88888889  0.88888889  0.16436262
   0.00000000 -0.00000000  0.24491880
   0.00000000  0.33333333  0.24491880
   1.00000000  0.66666667  0.24491880
   0.33333333 -0.00000000  0.24491880
   0.33333333  0.33333333  0.24491880
   0.33333333  0.66666667  0.24491880
   0.66666667  0.00000000  0.24491880
   0.66666667  0.33333333  0.24491880
   0.66666667  0.66666667  0.24491880
   0.11111111  0.11111111  0.32530671
   0.11111111  0.44444444  0.32530671
   0.11111111  0.77777778  0.32530671
   0.44444444  0.11111111  0.32530671
   0.44444444  0.44444444  0.32530671
   0.44444444  0.77777778  0.32530671
   0.77777778  0.11111111  0.32530671
   0.77777778  0.44444444  0.32530671
   0.77777778  0.77777778  0.32530671
   0.22222222  0.22222222  0.40602848
   0.22222222  0.55555556  0.40602848
   0.22222222  0.88888889  0.40602848
   0.55555556  0.22222222  0.40602848
   0.55555556  0.55555556  0.40602848
   0.55555556  0.88888889  0.40602848
   0.88888889  0.22222222  0.40602848
   0.88888889  0.55555556  0.40602848
   0.88888889  0.88888889  0.40602848
Direct configuration=    11
   0.00000000  0.00000000  0.00000000
   0.00000000  0.33333333  0.00000000
   1.00000000  0.66666667  0.00000000
   0.33333333  0.00000000  0.00000000
   0.33333333  0.33333333  0.00000000
   0.33333333  0.66666667  0.00000000
   0.66666667  0.00000000  0.00000000
   0.66666667  0.33333333  0.00000000
   0.66666667  0.66666667  0.00000000
   0.11111111  0.11111111  0.08225555
   0.11111111  0.44444444  0.08225555
   0.11111111  0.77777778  0.08225555
   0.44444444  0.11111111  0.08225555
   0.44444444  0.44444444  0.08225555
   0.44444444  0.77777778  0.08225555
   0.77777778  0.11111111  0.08225555
   0.77777778  0.44444444  0.08225555
   0.77777778  0.77777778  0.08225555
   0.22222222  0.22222222  0.16373780
   0.22222222  0.55555556  0.16373780
   0.22222222  0.88888889  0.16373780
   0.55555556  0.22222222  0.16373780
   0.55555556  0.55555556  0.16373780
   0.55555556  0.88888889  0.16373780
   0.88888889  0.22222222  0.16373780
   0.88888889  0.55555556  0.16373780
   0.88888889  0.88888889  0.16373780
   0.00000000  0.00000000  0.24422949
   0.00000000  0.33333333  0.24422949
   1.00000000  0.66666667  0.24422949
   0.33333333 -0.00000000  0.24422949
   0.33333333  0.33333333  0.24422949
   0.33333333  0.66666667  0.24422949
   0.66666667  0.00000000  0.24422949
   0.66666667  0.33333333  0.24422949
   0.66666667  0.66666667  0.24422949
   0.11111111  0.11111111  0.32491410
   0.11111111  0.44444444  0.32491410
   0.11111111  0.77777778  0.32491410
   0.44444444  0.11111111  0.32491410
   0.44444444  0.44444444  0.32491410
   0.44444444  0.77777778  0.32491410
   0.77777778  0.11111111  0.32491410
   0.77777778  0.44444444  0.32491410
   0.77777778  0.77777778  0.32491410
   0.22222222  0.22222222  0.40547223
   0.22222222  0.55555556  0.40547223
   0.22222222  0.88888889  0.40547223
   0.55555556  0.22222222  0.40547223
   0.55555556  0.55555556  0.40547223
   0.55555556  0.88888889  0.40547223
   0.88888889  0.22222222  0.40547223
   0.88888889  0.55555556  0.40547223
   0.88888889  0.88888889  0.40547223
Direct configuration=    12
   0.00000000  0.00000000  0.00000000
   0.00000000  0.33333333  0.00000000
   1.00000000  0.66666667  0.00000000
   0.33333333  0.00000000  0.00000000
   0.33333333  0.33333333  0.00000000
   0.33333333  0.66666667  0.00000000
   0.66666667  0.00000000  0.00000000
   0.66666667  0.33333333  0.00000000
   0.66666667  0.66666667  0.00000000
   0.11111111  0.11111111  0.08225555
   0.11111111  0.44444444  0.08225555
   0.11111111  0.77777778  0.08225555
   0.44444444  0.11111111  0.08225555
   0.44444444  0.44444444  0.08225555
   0.44444444  0.77777778  0.08225555
   0.77777778  0.11111111  0.08225555
   0.77777778  0.44444444  0.08225555
   0.77777778  0.77777778  0.08225555
   0.22222222  0.22222222  0.16278411
   0.22222222  0.55555556  0.16278411
   0.22222222  0.88888889  0.16278411
   0.55555556  0.22222222  0.16278411
   0.55555556  0.55555556  0.16278411
   0.55555556  0.88888889  0.16278411
   0.88888889  0.22222222  0.16278411
   0.88888889  0.55555556  0.16278411
   0.88888889  0.88888889  0.16278411
   0.00000000  0.00000000  0.24317738
   0.00000000  0.33333333  0.24317738
   1.00000000  0.66666667  0.24317738
   0.33333333 -0.00000000  0.24317738
   0.33333333  0.33333333  0.24317738
   0.33333333  0.66666667  0.24317738
   0.66666667  0.00000000  0.24317738
   0.66666667  0.33333333  0.24317738
   0.66666667  0.66666667  0.24317738
   0.11111111  0.11111111  0.32431485
   0.11111111  0.44444444  0.32431485
   0.11111111  0.77777778  0.32431485
   0.44444444  0.11111111  0.32431485
   0.44444444  0.44444444  0.32431485
   0.44444444  0.77777778  0.32431485
   0.77777778  0.11111111  0.32431485
   0.77777778  0.44444444  0.32431485
   0.77777778  0.77777778  0.32431485
   0.22222222  0.22222222  0.40462322
   0.22222222  0.55555556  0.40462322
   0.22222222  0.88888889  0.40462322
   0.55555556  0.22222222  0.40462322
   0.55555556  0.55555556  0.40462322
   0.55555556  0.88888889  0.40462322
   0.88888889  0.22222222  0.40462322
   0.88888889  0.55555556  0.40462322
   0.88888889  0.88888889  0.40462322
Direct configuration=    13
   0.00000000  0.00000000  0.00000000
   0.00000000  0.33333333  0.00000000
   1.00000000  0.66666667  0.00000000
   0.33333333  0.00000000  0.00000000
   0.33333333  0.33333333  0.00000000
   0.33333333  0.66666667  0.00000000
   0.66666667  0.00000000  0.00000000
   0.66666667  0.33333333  0.00000000
   0.66666667  0.66666667  0.00000000
   0.11111111  0.11111111  0.08225555
   0.11111111  0.44444444  0.08225555
   0.11111111  0.77777778  0.08225555
   0.44444444  0.11111111  0.08225555
   0.44444444  0.44444444  0.08225555
   0.44444444  0.77777778  0.08225555
   0.77777778  0.11111111  0.08225555
   0.77777778  0.44444444  0.08225555
   0.77777778  0.77777778  0.08225555
   0.22222222  0.22222222  0.16283560
   0.22222222  0.55555556  0.16283560
   0.22222222  0.88888889  0.16283560
   0.55555556  0.22222222  0.16283560
   0.55555556  0.55555556  0.16283560
   0.55555556  0.88888889  0.16283560
   0.88888889  0.22222222  0.16283560
   0.88888889  0.55555556  0.16283560
   0.88888889  0.88888889  0.16283560
   0.00000000  0.00000000  0.24323418
   0.00000000  0.33333333  0.24323418
   1.00000000  0.66666667  0.24323418
   0.33333333 -0.00000000  0.24323418
   0.33333333  0.33333333  0.24323418
   0.33333333  0.66666667  0.24323418
   0.66666667  0.00000000  0.24323418
   0.66666667  0.33333333  0.24323418
   0.66666667  0.66666667  0.24323418
   0.11111111  0.11111111  0.32434720
   0.11111111  0.44444444  0.32434720
   0.11111111  0.77777778  0.32434720
   0.44444444  0.11111111  0.32434720
   0.44444444  0.44444444  0.32434720
   0.44444444  0.77777778  0.32434720
   0.77777778  0.11111111  0.32434720
   0.77777778  0.44444444  0.32434720
   0.77777778  0.77777778  0.32434720
   0.22222222  0.22222222  0.40466905
   0.22222222  0.55555556  0.40466905
   0.22222222  0.88888889  0.40466905
   0.55555556  0.22222222  0.40466905
   0.55555556  0.55555556  0.40466905
   0.55555556  0.88888889  0.40466905
   0.88888889  0.22222222  0.40466905
   0.88888889  0.55555556  0.40466905
   0.88888889  0.88888889  0.40466905
Direct configuration=    14
   0.00000000  0.00000000  0.00000000
   0.00000000  0.33333333  0.00000000
   1.00000000  0.66666667  0.00000000
   0.33333333  0.00000000  0.00000000
   0.33333333  0.33333333  0.00000000
   0.33333333  0.66666667  0.00000000
   0.66666667  0.00000000  0.00000000
   0.66666667  0.33333333  0.00000000
   0.66666667  0.66666667  0.00000000
   0.11111111  0.11111111  0.08225555
   0.11111111  0.44444444  0.08225555
   0.11111111  0.77777778  0.08225555
   0.44444444  0.11111111  0.08225555
   0.44444444  0.44444444  0.08225555
   0.44444444  0.77777778  0.08225555
   0.77777778  0.11111111  0.08225555
   0.77777778  0.44444444  0.08225555
   0.77777778  0.77777778  0.08225555
   0.22222222  0.22222222  0.16280561
   0.22222222  0.55555556  0.16280561
   0.22222222  0.88888889  0.16280561
   0.55555556  0.22222222  0.16280561
   0.55555556  0.55555556  0.16280561
   0.55555556  0.88888889  0.16280561
   0.88888889  0.22222222  0.16280561
   0.88888889  0.55555556  0.16280561
   0.88888889  0.88888889  0.16280561
   0.00000000  0.00000000  0.24320110
   0.00000000  0.33333333  0.24320110
   1.00000000  0.66666667  0.24320110
   0.33333333 -0.00000000  0.24320110
   0.33333333  0.33333333  0.24320110
   0.33333333  0.66666667  0.24320110
   0.66666667  0.00000000  0.24320110
   0.66666667  0.33333333  0.24320110
   0.66666667  0.66666667  0.24320110
   0.11111111  0.11111111  0.32432835
   0.11111111  0.44444444  0.32432835
   0.11111111  0.77777778  0.32432835
   0.44444444  0.11111111  0.32432835
   0.44444444  0.44444444  0.32432835
   0.44444444  0.77777778  0.32432835
   0.77777778  0.11111111  0.32432835
   0.77777778  0.44444444  0.32432835
   0.77777778  0.77777778  0.32432835
   0.22222222  0.22222222  0.40464235
   0.22222222  0.55555556  0.40464235
   0.22222222  0.88888889  0.40464235
   0.55555556  0.22222222  0.40464235
   0.55555556  0.55555556  0.40464235
   0.55555556  0.88888889  0.40464235
   0.88888889  0.22222222  0.40464235
   0.88888889  0.55555556  0.40464235
   0.88888889  0.88888889  0.40464235
Direct configuration=    15
   0.00000000  0.00000000  0.00000000
   0.00000000  0.33333333  0.00000000
   1.00000000  0.66666667  0.00000000
   0.33333333  0.00000000  0.00000000
   0.33333333  0.33333333  0.00000000
   0.33333333  0.66666667  0.00000000
   0.66666667  0.00000000  0.00000000
   0.66666667  0.33333333  0.00000000
   0.66666667  0.66666667  0.00000000
   0.11111111  0.11111111  0.08225555
   0.11111111  0.44444444  0.08225555
   0.11111111  0.77777778  0.08225555
   0.44444444  0.11111111  0.08225555
   0.44444444  0.44444444  0.08225555
   0.44444444  0.77777778  0.08225555
   0.77777778  0.11111111  0.08225555
   0.77777778  0.44444444  0.08225555