  10  10   0   0
  0.2234684E+02  0.3630000E-09  0.2566798E-09  0.2398379E-08  0.5000000E-15
  1.000000000000000E-004
  CAR 
 unknown system                          
     11.87404263    -10.11049462  301      0.75386948      1.00000000
    -10.110  0.0000E+00  0.0000E+00  0.0000E+00  0.0000E+00
    -10.037  0.0000E+00  0.0000E+00  0.0000E+00  0.0000E+00
     -9.964  0.0000E+00  0.0000E+00  0.0000E+00  0.0000E+00
     -9.891  0.0000E+00  0.0000E+00  0.0000E+00  0.0000E+00
     -9.817  0.0000E+00  0.0000E+00  0.0000E+00  0.0000E+00
     -9.744 -0.4635E-31 -0.4635E-31 -0.3396E-32 -0.3396E-32
     -9.671 -0.1535E-28 -0.1535E-28 -0.1128E-29 -0.1128E-29
     -9.598 -0.3884E-26 -0.3884E-26 -0.2858E-27 -0.2858E-27
     -9.524 -0.7495E-24 -0.7495E-24 -0.5521E-25 -0.5521E-25
     -9.451 -0.1102E-21 -0.1102E-21 -0.8134E-23 -0.8134E-23
     -9.378 -0.1235E-19 -0.1235E-19 -0.9134E-21 -0.9134E-21
     -9.304 -0.1054E-17 -0.1054E-17 -0.7815E-19 -0.7815E-19
     -9.231 -0.6622E-16 -0.6622E-16 -0.4931E-17 -0.4931E-17
     -9.158 -0.3257E-14 -0.3257E-14 -0.2436E-15 -0.2436E-15
     -9.085 -0.1214E-12 -0.1214E-12 -0.9141E-14 -0.9141E-14
     -9.011 -0.3429E-11 -0.3429E-11 -0.2604E-12 -0.2604E-12
     -8.938 -0.7316E-10 -0.7316E-10 -0.5622E-11 -0.5622E-11
     -8.865 -0.1176E-08 -0.1176E-08 -0.9181E-10 -0.9181E-10
     -8.791 -0.1418E-07 -0.1418E-07 -0.1131E-08 -0.1131E-08
     -8.718 -0.1273E-06 -0.1273E-06 -0.1046E-07 -0.1046E-07
     -8.645 -0.8418E-06 -0.8418E-06 -0.7214E-07 -0.7214E-07
     -8.572 -0.4022E-05 -0.4022E-05 -0.3669E-06 -0.3669E-06
     -8.498 -0.1335E-04 -0.1335E-04 -0.1345E-05 -0.1345E-05
     -8.425 -0.2776E-04 -0.2776E-04 -0.3380E-05 -0.3380E-05
     -8.352 -0.2098E-04 -0.2098E-04 -0.4917E-05 -0.4917E-05
     -8.278  0.6798E-04  0.6798E-04  0.6454E-07  0.6454E-07
     -8.205  0.2737E-03  0.2737E-03  0.2012E-04  0.2012E-04
     -8.132  0.5026E-03  0.5026E-03  0.5695E-04  0.5695E-04
     -8.059  0.5715E-03  0.5715E-03  0.9883E-04  0.9883E-04
     -7.985  0.4164E-03  0.4164E-03  0.1293E-03  0.1293E-03
     -7.912  0.1763E-03  0.1763E-03  0.1423E-03  0.1423E-03
     -7.839  0.1678E-04  0.1678E-04  0.1435E-03  0.1435E-03
     -7.765 -0.2990E-04 -0.2990E-04  0.1413E-03  0.1413E-03
     -7.692 -0.2285E-04 -0.2285E-04  0.1396E-03  0.1396E-03
     -7.619 -0.1273E-04 -0.1273E-04  0.1387E-03  0.1387E-03
     -7.546 -0.1602E-04 -0.1602E-04  0.1375E-03  0.1375E-03
     -7.472 -0.2865E-04 -0.2865E-04  0.1354E-03  0.1354E-03
     -7.399 -0.2047E-04 -0.2047E-04  0.1339E-03  0.1339E-03
     -7.326  0.6908E-04  0.6908E-04  0.1390E-03  0.1390E-03
     -7.253  0.2658E-03  0.2658E-03  0.1585E-03  0.1585E-03
     -7.179  0.4655E-03  0.4655E-03  0.1926E-03  0.1926E-03
     -7.106  0.5096E-03  0.5096E-03  0.2299E-03  0.2299E-03
     -7.033  0.4372E-03  0.4372E-03  0.2620E-03  0.2620E-03
     -6.959  0.5106E-03  0.5106E-03  0.2994E-03  0.2994E-03
     -6.886  0.8341E-03  0.8341E-03  0.3605E-03  0.3605E-03
     -6.813  0.1107E-02  0.1107E-02  0.4416E-03  0.4416E-03
     -6.740  0.9799E-03  0.9799E-03  0.5134E-03  0.5134E-03
     -6.666  0.5233E-03  0.5233E-03  0.5518E-03  0.5518E-03
     -6.593  0.1109E-03  0.1109E-03  0.5599E-03  0.5599E-03
     -6.520 -0.8190E-05 -0.8190E-05  0.5593E-03  0.5593E-03
     -6.446  0.1440E-03  0.1440E-03  0.5698E-03  0.5698E-03
     -6.373  0.4064E-03  0.4064E-03  0.5996E-03  0.5996E-03
     -6.300  0.6535E-03  0.6535E-03  0.6475E-03  0.6475E-03
     -6.227  0.8832E-03  0.8832E-03  0.7122E-03  0.7122E-03
     -6.153  0.1084E-02  0.1084E-02  0.7917E-03  0.7917E-03
     -6.080  0.1111E-02  0.1111E-02  0.8731E-03  0.8731E-03
     -6.007  0.9396E-03  0.9396E-03  0.9419E-03  0.9419E-03
     -5.933  0.8563E-03  0.8563E-03  0.1005E-02  0.1005E-02
     -5.860  0.1105E-02  0.1105E-02  0.1086E-02  0.1086E-02
     -5.787  0.1554E-02  0.1554E-02  0.1200E-02  0.1200E-02
     -5.714  0.1888E-02  0.1888E-02  0.1338E-02  0.1338E-02
     -5.640  0.1889E-02  0.1889E-02  0.1476E-02  0.1476E-02
     -5.567  0.1492E-02  0.1492E-02  0.1586E-02  0.1586E-02
     -5.494  0.8394E-03  0.8394E-03  0.1647E-02  0.1647E-02
     -5.420  0.2613E-03  0.2613E-03  0.1666E-02  0.1666E-02
     -5.347  0.6050E-04  0.6050E-04  0.1671E-02  0.1671E-02
     -5.274  0.2821E-03  0.2821E-03  0.1691E-02  0.1691E-02
     -5.201  0.6765E-03  0.6765E-03  0.1741E-02  0.1741E-02
     -5.127  0.9944E-03  0.9944E-03  0.1814E-02  0.1814E-02
     -5.054  0.1452E-02  0.1452E-02  0.1920E-02  0.1920E-02
     -4.981  0.2607E-02  0.2607E-02  0.2111E-02  0.2111E-02
     -4.907  0.4437E-02  0.4437E-02  0.2436E-02  0.2436E-02
     -4.834  0.5835E-02  0.5835E-02  0.2864E-02  0.2864E-02
     -4.761  0.5563E-02  0.5563E-02  0.3272E-02  0.3272E-02
     -4.688  0.3657E-02  0.3657E-02  0.3540E-02  0.3540E-02
     -4.614  0.1426E-02  0.1426E-02  0.3644E-02  0.3644E-02
     -4.541  0.2618E-04  0.2618E-04  0.3646E-02  0.3646E-02
     -4.468 -0.4587E-03 -0.4587E-03  0.3613E-02  0.3613E-02
     -4.395 -0.4571E-03 -0.4571E-03  0.3579E-02  0.3579E-02
     -4.321  0.3594E-05  0.3594E-05  0.3579E-02  0.3579E-02
     -4.248  0.1332E-02  0.1332E-02  0.3677E-02  0.3677E-02
     -4.175  0.3483E-02  0.3483E-02  0.3932E-02  0.3932E-02
     -4.101  0.5308E-02  0.5308E-02  0.4321E-02  0.4321E-02
     -4.028  0.5433E-02  0.5433E-02  0.4719E-02  0.4719E-02
     -3.955  0.3877E-02  0.3877E-02  0.5003E-02  0.5003E-02
     -3.882  0.2141E-02  0.2141E-02  0.5160E-02  0.5160E-02
     -3.808  0.1540E-02  0.1540E-02  0.5273E-02  0.5273E-02
     -3.735  0.2068E-02  0.2068E-02  0.5425E-02  0.5425E-02
     -3.662  0.3043E-02  0.3043E-02  0.5648E-02  0.5648E-02
     -3.588  0.4167E-02  0.4167E-02  0.5953E-02  0.5953E-02
     -3.515  0.5427E-02  0.5427E-02  0.6351E-02  0.6351E-02
     -3.442  0.6523E-02  0.6523E-02  0.6829E-02  0.6829E-02
     -3.369  0.7144E-02  0.7144E-02  0.7352E-02  0.7352E-02
     -3.295  0.7585E-02  0.7585E-02  0.7908E-02  0.7908E-02
     -3.222  0.8392E-02  0.8392E-02  0.8523E-02  0.8523E-02
     -3.149  0.9590E-02  0.9590E-02  0.9226E-02  0.9226E-02
     -3.075  0.1078E-01  0.1078E-01  0.1002E-01  0.1002E-01
     -3.002  0.1162E-01  0.1162E-01  0.1087E-01  0.1087E-01
     -2.929  0.1170E-01  0.1170E-01  0.1173E-01  0.1173E-01
     -2.856  0.1066E-01  0.1066E-01  0.1251E-01  0.1251E-01
     -2.782  0.8997E-02  0.8997E-02  0.1317E-01  0.1317E-01
     -2.709  0.8116E-02  0.8116E-02  0.1376E-01  0.1376E-01
     -2.636  0.8894E-02  0.8894E-02  0.1441E-01  0.1441E-01
     -2.562  0.1050E-01  0.1050E-01  0.1518E-01  0.1518E-01
     -2.489  0.1164E-01  0.1164E-01  0.1603E-01  0.1603E-01
     -2.416  0.1241E-01  0.1241E-01  0.1694E-01  0.1694E-01
     -2.343  0.1355E-01  0.1355E-01  0.1794E-01  0.1794E-01
     -2.269  0.1462E-01  0.1462E-01  0.1901E-01  0.1901E-01
     -2.196  0.1484E-01  0.1484E-01  0.2010E-01  0.2010E-01
     -2.123  0.1520E-01  0.1520E-01  0.2121E-01  0.2121E-01
     -2.049  0.1734E-01  0.1734E-01  0.2248E-01  0.2248E-01
     -1.976  0.2044E-01  0.2044E-01  0.2398E-01  0.2398E-01
     -1.903  0.2164E-01  0.2164E-01  0.2556E-01  0.2556E-01
     -1.830  0.1984E-01  0.1984E-01  0.2702E-01  0.2702E-01
     -1.756  0.1704E-01  0.1704E-01  0.2827E-01  0.2827E-01
     -1.683  0.1541E-01  0.1541E-01  0.2939E-01  0.2939E-01
     -1.610  0.1485E-01  0.1485E-01  0.3048E-01  0.3048E-01
     -1.537  0.1377E-01  0.1377E-01  0.3149E-01  0.3149E-01
     -1.463  0.1170E-01  0.1170E-01  0.3235E-01  0.3235E-01
     -1.390  0.1028E-01  0.1028E-01  0.3310E-01  0.3310E-01
     -1.317  0.1153E-01  0.1153E-01  0.3395E-01  0.3395E-01
     -1.243  0.1572E-01  0.1572E-01  0.3510E-01  0.3510E-01
     -1.170  0.2127E-01  0.2127E-01  0.3666E-01  0.3666E-01
     -1.097  0.2555E-01  0.2555E-01  0.3853E-01  0.3853E-01
     -1.024  0.2622E-01  0.2622E-01  0.4045E-01  0.4045E-01
     -0.950  0.2338E-01  0.2338E-01  0.4217E-01  0.4217E-01
     -0.877  0.2016E-01  0.2016E-01  0.4364E-01  0.4364E-01
     -0.804  0.1965E-01  0.1965E-01  0.4508E-01  0.4508E-01
     -0.730  0.2152E-01  0.2152E-01  0.4666E-01  0.4666E-01
     -0.657  0.2312E-01  0.2312E-01  0.4835E-01  0.4835E-01
     -0.584  0.2282E-01  0.2282E-01  0.5003E-01  0.5003E-01
     -0.511  0.2062E-01  0.2062E-01  0.5154E-01  0.5154E-01
     -0.437  0.1699E-01  0.1699E-01  0.5278E-01  0.5278E-01
     -0.364  0.1267E-01  0.1267E-01  0.5371E-01  0.5371E-01
     -0.291  0.8643E-02  0.8643E-02  0.5434E-01  0.5434E-01
     -0.217  0.5597E-02  0.5597E-02  0.5475E-01  0.5475E-01
     -0.144  0.3428E-02  0.3428E-02  0.5501E-01  0.5501E-01
     -0.071  0.1757E-02  0.1757E-02  0.5513E-01  0.5513E-01
      0.002  0.5306E-03  0.5306E-03  0.5517E-01  0.5517E-01
      0.076 -0.1290E-03 -0.1290E-03  0.5516E-01  0.5516E-01
      0.149 -0.3135E-03 -0.3135E-03  0.5514E-01  0.5514E-01
      0.222 -0.2242E-03 -0.2242E-03  0.5512E-01  0.5512E-01
      0.296  0.1279E-03  0.1279E-03  0.5513E-01  0.5513E-01
      0.369  0.8352E-03  0.8352E-03  0.5519E-01  0.5519E-01
      0.442  0.1770E-02  0.1770E-02  0.5532E-01  0.5532E-01
      0.515  0.2616E-02  0.2616E-02  0.5552E-01  0.5552E-01
      0.589  0.3184E-02  0.3184E-02  0.5575E-01  0.5575E-01
      0.662  0.3353E-02  0.3353E-02  0.5600E-01  0.5600E-01
      0.735  0.2892E-02  0.2892E-02  0.5621E-01  0.5621E-01
      0.808  0.1846E-02  0.1846E-02  0.5634E-01  0.5634E-01
      0.882  0.8510E-03  0.8510E-03  0.5641E-01  0.5641E-01
      0.955  0.5331E-03  0.5331E-03  0.5644E-01  0.5644E-01
      1.028  0.7912E-03  0.7912E-03  0.5650E-01  0.5650E-01
      1.102  0.9938E-03  0.9938E-03  0.5657E-01  0.5657E-01
      1.175  0.7914E-03  0.7914E-03  0.5663E-01  0.5663E-01
      1.248  0.4731E-03  0.4731E-03  0.5667E-01  0.5667E-01
      1.321  0.4758E-03  0.4758E-03  0.5670E-01  0.5670E-01
      1.395  0.7781E-03  0.7781E-03  0.5676E-01  0.5676E-01
      1.468  0.1023E-02  0.1023E-02  0.5683E-01  0.5683E-01
      1.541  0.1161E-02  0.1161E-02  0.5692E-01  0.5692E-01
      1.615  0.1518E-02  0.1518E-02  0.5703E-01  0.5703E-01
      1.688  0.2058E-02  0.2058E-02  0.5718E-01  0.5718E-01
      1.761  0.2153E-02  0.2153E-02  0.5734E-01  0.5734E-01
      1.834  0.1483E-02  0.1483E-02  0.5745E-01  0.5745E-01
      1.908  0.6669E-03  0.6669E-03  0.5750E-01  0.5750E-01
      1.981  0.5742E-03  0.5742E-03  0.5754E-01  0.5754E-01
      2.054  0.1303E-02  0.1303E-02  0.5763E-01  0.5763E-01
      2.128  0.2053E-02  0.2053E-02  0.5778E-01  0.5778E-01
      2.201  0.2045E-02  0.2045E-02  0.5793E-01  0.5793E-01
      2.274  0.1448E-02  0.1448E-02  0.5804E-01  0.5804E-01
      2.347  0.1069E-02  0.1069E-02  0.5812E-01  0.5812E-01
      2.421  0.1256E-02  0.1256E-02  0.5821E-01  0.5821E-01
      2.494  0.1704E-02  0.1704E-02  0.5834E-01  0.5834E-01
      2.567  0.2155E-02  0.2155E-02  0.5849E-01  0.5849E-01
      2.641  0.2578E-02  0.2578E-02  0.5868E-01  0.5868E-01
      2.714  0.2792E-02  0.2792E-02  0.5889E-01  0.5889E-01
      2.787  0.2589E-02  0.2589E-02  0.5908E-01  0.5908E-01
      2.860  0.2139E-02  0.2139E-02  0.5923E-01  0.5923E-01
      2.934  0.1826E-02  0.1826E-02  0.5937E-01  0.5937E-01
      3.007  0.1733E-02  0.1733E-02  0.5949E-01  0.5949E-01
      3.080  0.1573E-02  0.1573E-02  0.5961E-01  0.5961E-01
      3.154  0.1115E-02  0.1115E-02  0.5969E-01  0.5969E-01
      3.227  0.5115E-03  0.5115E-03  0.5973E-01  0.5973E-01
      3.300  0.8027E-04  0.8027E-04  0.5974E-01  0.5974E-01
      3.373 -0.7377E-04 -0.7377E-04  0.5973E-01  0.5973E-01
      3.447 -0.7055E-04 -0.7055E-04  0.5972E-01  0.5972E-01
      3.520 -0.4981E-04 -0.4981E-04  0.5972E-01  0.5972E-01
      3.593 -0.7931E-04 -0.7931E-04  0.5972E-01  0.5972E-01
      3.666 -0.1621E-03 -0.1621E-03  0.5970E-01  0.5970E-01
      3.740 -0.1769E-03 -0.1769E-03  0.5969E-01  0.5969E-01
      3.813  0.2048E-03  0.2048E-03  0.5971E-01  0.5971E-01
      3.886  0.1308E-02  0.1308E-02  0.5980E-01  0.5980E-01
      3.960  0.2904E-02  0.2904E-02  0.6001E-01  0.6001E-01
      4.033  0.4077E-02  0.4077E-02  0.6031E-01  0.6031E-01
      4.106  0.4112E-02  0.4112E-02  0.6061E-01  0.6061E-01
      4.179  0.3364E-02  0.3364E-02  0.6086E-01  0.6086E-01
      4.253  0.2744E-02  0.2744E-02  0.6106E-01  0.6106E-01
      4.326  0.2557E-02  0.2557E-02  0.6125E-01  0.6125E-01
      4.399  0.2394E-02  0.2394E-02  0.6142E-01  0.6142E-01
      4.473  0.1948E-02  0.1948E-02  0.6157E-01  0.6157E-01
      4.546  0.1366E-02  0.1366E-02  0.6167E-01  0.6167E-01
      4.619  0.8774E-03  0.8774E-03  0.6173E-01  0.6173E-01
      4.692  0.4983E-03  0.4983E-03  0.6177E-01  0.6177E-01
      4.766  0.2381E-03  0.2381E-03  0.6179E-01  0.6179E-01
      4.839  0.3360E-03  0.3360E-03  0.6181E-01  0.6181E-01
      4.912  0.9967E-03  0.9967E-03  0.6188E-01  0.6188E-01
      4.986  0.1886E-02  0.1886E-02  0.6202E-01  0.6202E-01
      5.059  0.2240E-02  0.2240E-02  0.6219E-01  0.6219E-01
      5.132  0.1695E-02  0.1695E-02  0.6231E-01  0.6231E-01
      5.205  0.6980E-03  0.6980E-03  0.6236E-01  0.6236E-01
      5.279 -0.7262E-04 -0.7261E-04  0.6236E-01  0.6236E-01
      5.352 -0.2644E-03 -0.2644E-03  0.6234E-01  0.6234E-01
      5.425  0.3076E-03  0.3076E-03  0.6236E-01  0.6236E-01
      5.499  0.1742E-02  0.1742E-02  0.6249E-01  0.6249E-01
      5.572  0.3562E-02  0.3562E-02  0.6275E-01  0.6275E-01
      5.645  0.4620E-02  0.4620E-02  0.6309E-01  0.6309E-01
      5.718  0.4132E-02  0.4132E-02  0.6339E-01  0.6339E-01
      5.792  0.2653E-02  0.2653E-02  0.6358E-01  0.6358E-01
      5.865  0.1525E-02  0.1525E-02  0.6370E-01  0.6370E-01
      5.938  0.1559E-02  0.1559E-02  0.6381E-01  0.6381E-01
      6.011  0.2559E-02  0.2559E-02  0.6400E-01  0.6400E-01
      6.085  0.3643E-02  0.3643E-02  0.6426E-01  0.6426E-01
      6.158  0.3815E-02  0.3815E-02  0.6454E-01  0.6454E-01
      6.231  0.2871E-02  0.2870E-02  0.6475E-01  0.6475E-01
      6.305  0.1759E-02  0.1759E-02  0.6488E-01  0.6488E-01
      6.378  0.1547E-02  0.1547E-02  0.6500E-01  0.6500E-01
      6.451  0.2240E-02  0.2240E-02  0.6516E-01  0.6516E-01
      6.524  0.2964E-02  0.2964E-02  0.6538E-01  0.6538E-01
      6.598  0.3043E-02  0.3043E-02  0.6560E-01  0.6560E-01
      6.671  0.2635E-02  0.2636E-02  0.6579E-01  0.6579E-01
      6.744  0.2324E-02  0.2324E-02  0.6596E-01  0.6596E-01
      6.818  0.2204E-02  0.2204E-02  0.6613E-01  0.6613E-01
      6.891  0.1905E-02  0.1905E-02  0.6627E-01  0.6627E-01
      6.964  0.1548E-02  0.1548E-02  0.6638E-01  0.6638E-01
      7.037  0.1843E-02  0.1843E-02  0.6651E-01  0.6651E-01
      7.111  0.2928E-02  0.2928E-02  0.6673E-01  0.6673E-01
      7.184  0.3881E-02  0.3880E-02  0.6701E-01  0.6701E-01
      7.257  0.3786E-02  0.3786E-02  0.6729E-01  0.6729E-01
      7.331  0.2803E-02  0.2803E-02  0.6750E-01  0.6750E-01
      7.404  0.1739E-02  0.1739E-02  0.6762E-01  0.6762E-01
      7.477  0.1018E-02  0.1018E-02  0.6770E-01  0.6770E-01
      7.550  0.6447E-03  0.6448E-03  0.6774E-01  0.6774E-01
      7.624  0.8026E-03  0.8026E-03  0.6780E-01  0.6780E-01
      7.697  0.1793E-02  0.1793E-02  0.6793E-01  0.6793E-01
      7.770  0.3474E-02  0.3474E-02  0.6819E-01  0.6819E-01
      7.844  0.5200E-02  0.5200E-02  0.6857E-01  0.6857E-01
      7.917  0.6297E-02  0.6297E-02  0.6903E-01  0.6903E-01
      7.990  0.6359E-02  0.6359E-02  0.6950E-01  0.6950E-01
      8.063  0.5288E-02  0.5288E-02  0.6989E-01  0.6989E-01
      8.137  0.3503E-02  0.3503E-02  0.7014E-01  0.7014E-01
      8.210  0.2025E-02  0.2025E-02  0.7029E-01  0.7029E-01
      8.283  0.1756E-02  0.1756E-02  0.7042E-01  0.7042E-01
      8.357  0.2506E-02  0.2506E-02  0.7060E-01  0.7060E-01
      8.430  0.3175E-02  0.3175E-02  0.7084E-01  0.7084E-01
      8.503  0.2978E-02  0.2978E-02  0.7105E-01  0.7105E-01
      8.576  0.2134E-02  0.2134E-02  0.7121E-01  0.7121E-01
      8.650  0.1407E-02  0.1407E-02  0.7131E-01  0.7131E-01
      8.723  0.1369E-02  0.1369E-02  0.7141E-01  0.7141E-01
      8.796  0.1988E-02  0.1988E-02  0.7156E-01  0.7156E-01
      8.869  0.2601E-02  0.2601E-02  0.7175E-01  0.7175E-01
      8.943  0.2459E-02  0.2459E-02  0.7193E-01  0.7193E-01
      9.016  0.1565E-02  0.1565E-02  0.7204E-01  0.7204E-01
      9.089  0.7186E-03  0.7190E-03  0.7210E-01  0.7210E-01
      9.163  0.5920E-03  0.5922E-03  0.7214E-01  0.7214E-01
      9.236  0.1114E-02  0.1114E-02  0.7222E-01  0.7222E-01
      9.309  0.1866E-02  0.1865E-02  0.7236E-01  0.7236E-01
      9.382  0.2671E-02  0.2671E-02  0.7255E-01  0.7255E-01
      9.456  0.3625E-02  0.3625E-02  0.7282E-01  0.7282E-01
      9.529  0.4775E-02  0.4775E-02  0.7317E-01  0.7317E-01
      9.602  0.5871E-02  0.5870E-02  0.7360E-01  0.7360E-01
      9.676  0.6309E-02  0.6309E-02  0.7406E-01  0.7406E-01
      9.749  0.5584E-02  0.5584E-02  0.7447E-01  0.7447E-01
      9.822  0.3949E-02  0.3949E-02  0.7476E-01  0.7476E-01
      9.895  0.2232E-02  0.2232E-02  0.7493E-01  0.7493E-01
      9.969  0.9950E-03  0.9952E-03  0.7500E-01  0.7500E-01
     10.042  0.2838E-03  0.2840E-03  0.7502E-01  0.7502E-01
     10.115 -0.3663E-04 -0.3653E-04  0.7502E-01  0.7502E-01
     10.189 -0.1079E-03 -0.1079E-03  0.7501E-01  0.7501E-01
     10.262 -0.7287E-04 -0.7289E-04  0.7500E-01  0.7500E-01
     10.335 -0.3001E-04 -0.3002E-04  0.7500E-01  0.7500E-01
     10.408 -0.8511E-05 -0.8515E-05  0.7500E-01  0.7500E-01
     10.482 -0.1732E-05 -0.1734E-05  0.7500E-01  0.7500E-01
     10.555 -0.2584E-06 -0.2586E-06  0.7500E-01  0.7500E-01
     10.628 -0.2857E-07 -0.2860E-07  0.7500E-01  0.7500E-01
     10.702 -0.2361E-08 -0.2364E-08  0.7500E-01  0.7500E-01
     10.775 -0.1466E-09 -0.1467E-09  0.7500E-01  0.7500E-01
     10.848 -0.6860E-11 -0.6868E-11  0.7500E-01  0.7500E-01
     10.921 -0.2427E-12 -0.2431E-12  0.7500E-01  0.7500E-01
     10.995 -0.6508E-14 -0.6517E-14  0.7500E-01  0.7500E-01
     11.068 -0.1321E-15 -0.1321E-15  0.7500E-01  0.7500E-01
     11.141 -0.2525E-17 -0.2525E-17  0.7500E-01  0.7500E-01
     11.215  0.0000E+00  0.0000E+00  0.7500E-01  0.7500E-01
     11.288  0.0000E+00  0.0000E+00  0.7500E-01  0.7500E-01
     11.361  0.0000E+00  0.0000E+00  0.7500E-01  0.7500E-01
     11.434  0.0000E+00  0.0000E+00  0.7500E-01  0.7500E-01
     11.508  0.0000E+00  0.0000E+00  0.7500E-01  0.7500E-01
     11.581  0.0000E+00  0.0000E+00  0.7500E-01  0.7500E-01
     11.654  0.0000E+00  0.0000E+00  0.7500E-01  0.7500E-01
     11.727  0.0000E+00  0.0000E+00  0.7500E-01  0.7500E-01
     11.801  0.0000E+00  0.0000E+00  0.7500E-01  0.7500E-01
     11.874  0.0000E+00  0.0000E+00  0.7500E-01  0.7500E-01
