 vasp.6.3.2 27Jun22 (build Aug 17 2022 15:43:34) complex                        
  
 executed on           tv2STDVTST date 2025.02.04  13:38:27
 running   20 mpi-ranks, with    1 threads/rank
 distrk:  each k-point on   20 cores,    1 groups
 distr:  one band on NCORE=   5 cores,    4 groups


--------------------------------------------------------------------------------------------------------


 -----------------------------------------------------------------------------
|                                                                             |
|           W    W    AA    RRRRR   N    N  II  N    N   GGGG   !!!           |
|           W    W   A  A   R    R  NN   N  II  NN   N  G    G  !!!           |
|           W    W  A    A  R    R  N N  N  II  N N  N  G       !!!           |
|           W WW W  AAAAAA  RRRRR   N  N N  II  N  N N  G  GGG   !            |
|           WW  WW  A    A  R   R   N   NN  II  N   NN  G    G                |
|           W    W  A    A  R    R  N    N  II  N    N   GGGG   !!!           |
|                                                                             |
|     Found issues when parsing the INCAR file                                |
|     In line 61: Tagname --- R W I G S contains invalid characters.          |
|     Please check if the interpretation in the OUTCAR file is correct.       |
|                                                                             |
 -----------------------------------------------------------------------------

 INCAR:
    = \=\=\=\=\=\=\=\=\=\=\=\=\=\=\=\=\=\=\=\=\=\=\=\=\=\=\=\=\=\=\=\=\=\=\=\=\=\=\=\=\=\=\=\=\=\=\=\=\=\=\=\=\=\=\=\=\=\=\=\=\=\=\=\=\=\=\=\=\=\=\=\=
    = \=\=\=\=\=\=\=\=\=\=\=\=\=\=\=\=\=\=\=\=\=\=\=\=\=\=\=\=\=\=\=\=\=\=\=\=\=\=\=\=\=\=\=\=\=\=\=\=\=\=\=\=\=\=\=\=\=\=\=\=\=\=\=\=\=\=\=\=\=\=\=\=
   ISTART = 0
   ICHARG = 2
   IPIPOL = 3
   IVDW = 11
    = \=\=\=\=\=\=\=\=\=\=\=\=\=\=\=\=\=\=\=\=\=\=\=\=\=\=\=\=\=\=\=\=\=\=\=\=\=\=\=\=\=\=\=\=\=\=\=\=\=\=\=\=\=\=\=\=\=\=\=\=\=\=\=\=\=\=\=\=\=\=\=\=
    = \=\=\=\=\=\=\=\=\=\=\=\=\=\=\=\=\=\=\=\=\=\=\=\=\=\=\=\=\=\=\=\=\=\=\=\=\=\=\=\=\=\=\=\=\=\=\=\=\=\=\=\=\=\=\=\=\=\=\=\=\=\=\=\=\=\=\=\=\=\=\=\=
   ISPIN = 2
    = \=\=\=\=\=\=\=\=\=\=\=\=\=\=\=\=\=\=\=\=\=\=\=\=\=\=\=\=\=\=\=\=\=\=\=\=\=\=\=\=\=\=\=\=\=\=\=\=\=\=\=\=\=\=\=\=\=\=\=\=\=\=\=\=\=\=\=\=\=\=\=\=
    = \=\=\=\=\=\=\=\=\=\=\=\=\=\=\=\=\=\=\=\=\=\=\=\=\=\=\=\=\=\=\=\=\=\=\=\=\=\=\=\=\=\=\=\=\=\=\=\=\=\=\=\=\=\=\=\=\=\=\=\=\=\=\=\=\=\=\=\=\=\=\=\=
   ENCUT = 400
   PREC = Normal
   EDIFF = 2E-04
   GGA = PE
   ISMEAR = 1
   SIGMA = 0.2
   LREAL = .FALSE.
    = \=\=\=\=\=\=\=\=\=\=\=\=\=\=\=\=\=\=\=\=\=\=\=\=\=\=\=\=\=\=\=\=\=\=\=\=\=\=\=\=\=\=\=\=\=\=\=\=\=\=\=\=\=\=\=\=\=\=\=\=\=\=\=\=\=\=\=\=\=\=\=\=
    = \=\=\=\=\=\=\=\=\=\=\=\=\=\=\=\=\=\=\=\=\=\=\=\=\=\=\=\=\=\=\=\=\=\=\=\=\=\=\=\=\=\=\=\=\=\=\=\=\=\=\=\=\=\=\=\=\=\=\=\=\=\=\=\=\=\=\=\=\=\=\=\=
   ISYM = 1
   NSW = 800
   IBRION = 2
   POTIM = 0.5
   ISIF = 2
   EDIFFG = -.03
    = \=\=\=\=\=\=\=\=\=\=\=\=\=\=\=\=\=\=\=\=\=\=\=\=\=\=\=\=\=\=\=\=\=\=\=\=\=\=\=\=\=\=\=\=\=\=\=\=\=\=\=\=\=\=\=\=\=\=\=\=\=\=\=\=\=\=\=\=\=\=\=\=
    = \=\=\=\=\=\=\=\=\=\=\=\=\=\=\=\=\=\=\=\=\=\=\=\=\=\=\=\=\=\=\=\=\=\=\=\=\=\=\=\=\=\=\=\=\=\=\=\=\=\=\=\=\=\=\=\=\=\=\=\=\=\=\=\=\=\=\=\=\=\=\=\=
   NPAR = 4
   LWAVE = .FALSE.
   LCHARG = .FALSE.

 POTCAR:    PAW_PBE Cu 22Jun2005                  
 POTCAR:    PAW_PBE H 15Jun2001                   
 -----------------------------------------------------------------------------
|                                                                             |
|           W    W    AA    RRRRR   N    N  II  N    N   GGGG   !!!           |
|           W    W   A  A   R    R  NN   N  II  NN   N  G    G  !!!           |
|           W    W  A    A  R    R  N N  N  II  N N  N  G       !!!           |
|           W WW W  AAAAAA  RRRRR   N  N N  II  N  N N  G  GGG   !            |
|           WW  WW  A    A  R   R   N   NN  II  N   NN  G    G                |
|           W    W  A    A  R    R  N    N  II  N    N   GGGG   !!!           |
|                                                                             |
|     You use a magnetic or noncollinear calculation, but did not specify     |
|     the initial magnetic moment with the MAGMOM tag. Note that a            |
|     default of 1 will be used for all atoms. This ferromagnetic setup       |
|     may break the symmetry of the crystal, in particular it may rule        |
|     out finding an antiferromagnetic solution. Thence, we recommend         |
|     setting the initial magnetic moment manually or verifying carefully     |
|     that this magnetic setup is desired.                                    |
|                                                                             |
 -----------------------------------------------------------------------------

 POTCAR:    PAW_PBE Cu 22Jun2005                  
   SHA256 =  0e71e558f37a4e8407882b4609ceaae59938afaad9ced71dfe8490308a0ab630 Cu/POTCAR             
   COPYR  = (c) Copyright 22Jun2005 Georg Kresse                                                    
   COPYR  = This file is part of the software VASP. Any use, copying, and all other rights are regul
   COPYR  = If you do not have a valid VASP license, you may not use, copy or distribute this file. 
   VRHFIN =Cu: d10 p1                                                                               
   LEXCH  = PE                                                                                      
   EATOM  =  1390.9808 eV,  102.2342 Ry                                                             
                                                                                                    
   TITEL  = PAW_PBE Cu 22Jun2005                                                                    
   LULTRA =        F    use ultrasoft PP ?                                                          
   IUNSCR =        1    unscreen: 0-lin 1-nonlin 2-no                                               
   RPACOR =    2.000    partial core radius                                                         
   POMASS =   63.546; ZVAL   =   11.000    mass and valenz                                          
   RCORE  =    2.300    outmost cutoff radius                                                       
   RWIGS  =    2.200; RWIGS  =    1.164    wigner-seitz radius (au A)                               
   ENMAX  =  295.446; ENMIN  =  221.585 eV                                                          
   ICORE  =        3    local potential                                                             
   LCOR   =        T    correct aug charges                                                         
   LPAW   =        T    paw PP                                                                      
   EAUG   =  586.980                                                                                
   DEXC   =    0.000                                                                                
   RMAX   =    2.344    core radius for proj-oper                                                   
   RAUG   =    1.300    factor for augmentation sphere                                              
   RDEP   =    2.302    radius for radial grids                                                     
   RDEPT  =    1.771    core radius for aug-charge                                                  
                                                                                                    
   Atomic configuration                                                                             
    9 entries                                                                                       
     n  l   j            E        occ.                                                              
     1  0  0.50     -8850.2468   2.0000                                                             
     2  0  0.50     -1062.3498   2.0000                                                             
     2  1  1.50      -916.8226   6.0000                                                             
     3  0  0.50      -114.6929   2.0000                                                             
     3  1  1.50       -72.1325   6.0000                                                             
     3  2  2.50        -5.0394  10.0000                                                             
     4  0  0.50        -4.6097   1.0000                                                             
     4  1  0.50        -4.0817   0.0000                                                             
     4  3  2.50        -1.3606   0.0000                                                             
   Description                                                                                      
     l       E           TYP  RCUT    TYP  RCUT                                                     
     2     -5.0393973     23  2.200                                                                 
     2     10.8846608     23  2.200                                                                 
     0     -4.6097109     23  2.200                                                                 
     0      8.2520465     23  2.200                                                                 
     1     -2.7211652     23  2.200                                                                 
     1     21.7055443     23  2.200                                                                 
     3      2.7211652     23  2.300                                                                 
  local pseudopotential read in
  partial core-charges read in
  partial kinetic energy density read in
  atomic valenz-charges read in
  non local Contribution for L=           2  read in
    real space projection operators read in
  non local Contribution for L=           2  read in
    real space projection operators read in
  non local Contribution for L=           0  read in
    real space projection operators read in
  non local Contribution for L=           0  read in
    real space projection operators read in
  non local Contribution for L=           1  read in
    real space projection operators read in
  non local Contribution for L=           1  read in
    real space projection operators read in
    PAW grid and wavefunctions read in
 
   number of l-projection  operators is LMAX  =           6
   number of lm-projection operators is LMMAX =          18
 
 POTCAR:    PAW_PBE H 15Jun2001                   
   SHA256 =  030f79b5d3ab3cf0e668861823c8fb652ff669f3e15e46930bd03bfd63a607b6 H/POTCAR              
   COPYR  = (c) Copyright 15Jun2001 Georg Kresse                                                    
   COPYR  = This file is part of the software VASP. Any use, copying, and all other rights are regul
   COPYR  = If you do not have a valid VASP license, you may not use, copy or distribute this file. 
   VRHFIN =H: ultrasoft test                                                                        
   LEXCH  = PE                                                                                      
   EATOM  =    12.4884 eV,    0.9179 Ry                                                             
                                                                                                    
   TITEL  = PAW_PBE H 15Jun2001                                                                     
   LULTRA =        F    use ultrasoft PP ?                                                          
   IUNSCR =        0    unscreen: 0-lin 1-nonlin 2-no                                               
   RPACOR =    0.000    partial core radius                                                         
   POMASS =    1.000; ZVAL   =    1.000    mass and valenz                                          
   RCORE  =    1.100    outmost cutoff radius                                                       
   RWIGS  =    0.700; RWIGS  =    0.370    wigner-seitz radius (au A)                               
   ENMAX  =  250.000; ENMIN  =  200.000 eV                                                          
   RCLOC  =    0.701    cutoff for local pot                                                        
   LCOR   =        T    correct aug charges                                                         
   LPAW   =        T    paw PP                                                                      
   EAUG   =  400.000                                                                                
   RMAX   =    1.123    core radius for proj-oper                                                   
   RAUG   =    1.200    factor for augmentation sphere                                              
   RDEP   =    1.112    radius for radial grids                                                     
   RDEPT  =    0.926    core radius for aug-charge                                                  
                                                                                                    
   Atomic configuration                                                                             
    2 entries                                                                                       
     n  l   j            E        occ.                                                              
     1  0  0.50        -6.4927   1.0000                                                             
     2  1  0.50        -3.4015   0.0000                                                             
   Description                                                                                      
     l       E           TYP  RCUT    TYP  RCUT                                                     
     0     -6.4927494     23  1.100                                                                 
     0      6.8029130     23  1.100                                                                 
     1     -4.0817478     23  1.100                                                                 
  local pseudopotential read in
  atomic valenz-charges read in
  non local Contribution for L=           0  read in
    real space projection operators read in
  non local Contribution for L=           0  read in
    real space projection operators read in
  non local Contribution for L=           1  read in
    real space projection operators read in
    PAW grid and wavefunctions read in
 
   number of l-projection  operators is LMAX  =           3
   number of lm-projection operators is LMMAX =           5
 
  PAW_PBE Cu 22Jun2005                  :
 energy of atom  1       EATOM=-1390.9808
 kinetic energy error for atom=    0.0232 (will be added to EATOM!!)
  PAW_PBE H 15Jun2001                   :
 energy of atom  2       EATOM=  -12.4884
 kinetic energy error for atom=    0.0098 (will be added to EATOM!!)
 
 
 POSCAR: FCC Cu
  positions in cartesian coordinates
  No initial velocities read in
 exchange correlation table for  LEXCH =        8
   RHO(1)=    0.500       N(1)  =     2000
   RHO(2)=  100.500       N(2)  =     4000

 VTST: version 4.2, (08/11/21)

 CHAIN: initializing optimizer
 
 OPT: Using VASP Conjugate-Gradient optimizer
 CHAIN: Read ICHAIN            0
 
 POSCAR: FCC Cu
  positions in cartesian coordinates
  No initial velocities read in
 


--------------------------------------------------------------------------------------------------------


 ion  position               nearest neighbor table
   1  0.000  0.000  0.000-   3 2.51   2 2.57   2 2.57   2 2.57   2 2.57
   2  0.500  0.500  0.054-   4 2.50   3 2.54   3 2.54   3 2.54   3 2.54   1 2.57   1 2.57   1 2.57
                             1 2.57
   3  0.000  0.000  0.105-   1 2.51   2 2.54   2 2.54   2 2.54   2 2.54   5 2.54   4 2.56   4 2.56
                             4 2.56   4 2.56
   4  0.500  0.500  0.158-   2 2.50   6 2.52   5 2.56   5 2.56   5 2.56   5 2.56   3 2.56   3 2.56
                             3 2.56   3 2.56
   5  0.000  0.000  0.211-   3 2.54   6 2.55   6 2.55   6 2.55   6 2.55   7 2.55   4 2.56   4 2.56
                             4 2.56   4 2.56
   6  0.500  0.500  0.263-   8 2.44   4 2.52   5 2.55   5 2.55   5 2.55   5 2.55   7 2.58   7 2.58
                             7 2.58   7 2.58
   7  0.000  0.000  0.317-   8 2.50   8 2.50   8 2.50   8 2.50   5 2.55   6 2.58   6 2.58   6 2.58
                             6 2.58
   8  0.500  0.500  0.365-   6 2.44   7 2.50   7 2.50   7 2.50   7 2.50
   9  1.000  0.500  0.427-  10 0.75
  10  1.000  0.500  0.458-   9 0.75
 
  LATTYP: Found a simple orthorhombic cell.
 ALAT       =     2.5667977333
 B/A-ratio  =     1.4142135422
 C/A-ratio  =     9.3438571494
  
  Lattice vectors:
  
 A1 = (   0.0000000000,  -2.5667977333,   0.0000000000)
 A2 = (   3.6300001144,   0.0000000000,   0.0000000000)
 A3 = (   0.0000000000,   0.0000000000,  23.9837913513)


Analysis of symmetry for initial positions (statically):
=====================================================================
 Subroutine PRICEL returns:
 Original cell was already a primitive cell.
 

 Routine SETGRP: Setting up the symmetry group for a 
 simple orthorhombic supercell.


 Subroutine GETGRP returns: Found  4 space group operations
 (whereof  4 operations were pure point group operations)
 out of a pool of  8 trial point group operations.


The static configuration has the point symmetry C_2v.


Analysis of symmetry for dynamics (positions and initial velocities):
=====================================================================
 Subroutine PRICEL returns:
 Original cell was already a primitive cell.
 

 Routine SETGRP: Setting up the symmetry group for a 
 simple orthorhombic supercell.


 Subroutine GETGRP returns: Found  4 space group operations
 (whereof  4 operations were pure point group operations)
 out of a pool of  8 trial point group operations.


The dynamic configuration has the point symmetry C_2v.


Analysis of structural, dynamic, and magnetic symmetry:
=====================================================================
 Subroutine PRICEL returns:
 Original cell was already a primitive cell.
 

 Routine SETGRP: Setting up the symmetry group for a 
 simple orthorhombic supercell.


 Subroutine GETGRP returns: Found  4 space group operations
 (whereof  4 operations were pure point group operations)
 out of a pool of  8 trial point group operations.


The overall configuration has the point symmetry C_2v.


 Subroutine INISYM returns: Found  4 space group operations
 (whereof  4 operations are pure point group operations),
 and found     1 'primitive' translations


----------------------------------------------------------------------------------------

                                     Primitive cell                                     

  volume of cell :     223.4684

  direct lattice vectors                    reciprocal lattice vectors
     3.630000114  0.000000000  0.000000000     0.275482085  0.000000000  0.000000000
     0.000000000  2.566797733  0.000000000     0.000000000  0.389590495  0.000000000
     0.000000000  0.000000000 23.983791351     0.000000000  0.000000000  0.041694826

  length of vectors
     3.630000114  2.566797733 23.983791351     0.275482085  0.389590495  0.041694826

  position of ions in fractional coordinates (direct lattice)
     0.000000000  0.000000000  0.000000000
     0.500000000  0.500000000  0.053511090
     0.000000000  0.000000000  0.104681476
     0.500000000  0.500000000  0.157929955
     0.000000000  0.000000000  0.210708991
     0.500000000  0.500000000  0.262890478
     0.000000000  0.000000000  0.317115916
     0.500000000  0.500000000  0.364675901
     1.000000000  0.500000000  0.426907920
     1.000000000  0.500000000  0.458012260

  ion indices of the primitive-cell ions
   primitive index   ion index
                 1           1
                 2           2
                 3           3
                 4           4
                 5           5
                 6           6
                 7           7
                 8           8
                 9           9
                10          10

----------------------------------------------------------------------------------------

 
 
 KPOINTS: Auto-mesh                               

Automatic generation of k-mesh.
 Grid dimensions read from file:
 generate k-points for:    3    3    1

 Generating k-lattice:

  Cartesian coordinates                     Fractional coordinates (reciprocal lattice)
     0.091827362  0.000000000  0.000000000     0.333333333  0.000000000  0.000000000
     0.000000000  0.129863498  0.000000000     0.000000000  0.333333333  0.000000000
     0.000000000  0.000000000  0.041694826     0.000000000  0.000000000  1.000000000

  Length of vectors
     0.091827362  0.129863498  0.041694826

  Shift w.r.t. Gamma in fractional coordinates (k-lattice)
     0.000000000  0.000000000  0.000000000

 
 Subroutine IBZKPT returns following result:
 ===========================================
 
 Found      4 irreducible k-points:
 
 Following reciprocal coordinates:
            Coordinates               Weight
  0.000000  0.000000  0.000000      1.000000
  0.333333  0.000000  0.000000      2.000000
  0.000000  0.333333  0.000000      2.000000
  0.333333  0.333333  0.000000      4.000000
 
 Following cartesian coordinates:
            Coordinates               Weight
  0.000000  0.000000  0.000000      1.000000
  0.091827  0.000000  0.000000      2.000000
  0.000000  0.129863  0.000000      2.000000
  0.091827  0.129863  0.000000      4.000000
 


--------------------------------------------------------------------------------------------------------




 Dimension of arrays:
   k-points           NKPTS =      4   k-points in BZ     NKDIM =      4   number of bands    NBANDS=     60
   number of dos      NEDOS =    301   number of ions     NIONS =     10
   non local maximal  LDIM  =      6   non local SUM 2l+1 LMDIM =     18
   total plane-waves  NPLWV =  30240
   max r-space proj   IRMAX =      1   max aug-charges    IRDMAX=   4119
   dimension x,y,z NGX =    18 NGY =   14 NGZ =  120
   dimension x,y,z NGXF=    36 NGYF=   28 NGZF=  240
   support grid    NGXF=    36 NGYF=   28 NGZF=  240
   ions per type =               8   2
   NGX,Y,Z   is equivalent  to a cutoff of   8.24,  9.07,  8.32 a.u.
   NGXF,Y,Z  is equivalent  to a cutoff of  16.49, 18.13, 16.64 a.u.

 SYSTEM =  unknown system                          
 POSCAR =  FCC Cu                                  

 Startparameter for this run:
   NWRITE =      2    write-flag & timer
   PREC   = normal    normal or accurate (medium, high low for compatibility)
   ISTART =      0    job   : 0-new  1-cont  2-samecut
   ICHARG =      2    charge: 1-file 2-atom 10-const
   ISPIN  =      2    spin polarized calculation?
   LNONCOLLINEAR =      F non collinear calculations
   LSORBIT =      F    spin-orbit coupling
   INIWAV =      1    electr: 0-lowe 1-rand  2-diag
   LASPH  =      F    aspherical Exc in radial PAW
 Electronic Relaxation 1
   ENCUT  =  400.0 eV  29.40 Ry    5.42 a.u.   5.92  4.19 39.11*2*pi/ulx,y,z
   ENINI  =  400.0     initial cutoff
   ENAUG  =  587.0 eV  augmentation charge cutoff
   NELM   =     60;   NELMIN=  2; NELMDL= -5     # of ELM steps 
   EDIFF  = 0.2E-03   stopping-criterion for ELM
   LREAL  =      F    real-space projection
   NLSPLINE    = F    spline interpolate recip. space projectors
   LCOMPAT=      F    compatible to vasp.4.4
   GGA_COMPAT  = T    GGA compatible to vasp.4.4-vasp.4.6
   LMAXPAW     = -100 max onsite density
   LMAXMIX     =    2 max onsite mixed and CHGCAR
   VOSKOWN=      0    Vosko Wilk Nusair interpolation
   ROPT   =    0.00000   0.00000
 Ionic relaxation
   EDIFFG = -.3E-01   stopping-criterion for IOM
   NSW    =    800    number of steps for IOM
   NBLOCK =      1;   KBLOCK =    800    inner block; outer block 
   IBRION =      2    ionic relax: 0-MD 1-quasi-New 2-CG
   NFREE  =      1    steps in history (QN), initial steepest desc. (CG)
   ISIF   =      2    stress and relaxation
   IWAVPR =     11    prediction:  0-non 1-charg 2-wave 3-comb
   ISYM   =      1    0-nonsym 1-usesym 2-fastsym
   LCORR  =      T    Harris-Foulkes like correction to forces

   POTIM  = 0.5000    time-step for ionic-motion
   TEIN   =    0.0    initial temperature
   TEBEG  =    0.0;   TEEND  =   0.0 temperature during run
   SMASS  =  -3.00    Nose mass-parameter (am)
   estimated Nose-frequenzy (Omega)   =  0.10E-29 period in steps = 0.13E+47 mass=  -0.301E-27a.u.
   SCALEE = 1.0000    scale energy and forces
   NPACO  =    256;   APACO  = 10.0  distance and # of slots for P.C.
   PSTRESS=    0.0 pullay stress

  Mass of Ions in am
   POMASS =  63.55  1.00
  Ionic Valenz
   ZVAL   =  11.00  1.00
  Atomic Wigner-Seitz radii
   RWIGS  =  -1.00 -1.00
  virtual crystal weights 
   VCA    =   1.00  1.00
   NELECT =      90.0000    total number of electrons
   NUPDOWN=      -1.0000    fix difference up-down

 DOS related values:
   EMIN   =  10.00;   EMAX   =-10.00  energy-range for DOS
   EFERMI =   0.00
   ISMEAR =     1;   SIGMA  =   0.20  broadening in eV -4-tet -1-fermi 0-gaus

 Electronic relaxation 2 (details)
   IALGO  =     38    algorithm
   LDIAG  =      T    sub-space diagonalisation (order eigenvalues)
   LSUBROT=      F    optimize rotation matrix (better conditioning)
   TURBO    =      0    0=normal 1=particle mesh
   IRESTART =      0    0=no restart 2=restart with 2 vectors
   NREBOOT  =      0    no. of reboots
   NMIN     =      0    reboot dimension
   EREF     =   0.00    reference energy to select bands
   IMIX   =      4    mixing-type and parameters
     AMIX     =   0.40;   BMIX     =  1.00
     AMIX_MAG =   1.60;   BMIX_MAG =  1.00
     AMIN     =   0.10
     WC   =   100.;   INIMIX=   1;  MIXPRE=   1;  MAXMIX= -45

 Intra band minimization:
   WEIMIN = 0.0010     energy-eigenvalue tresh-hold
   EBREAK =  0.83E-06  absolut break condition
   DEPER  =   0.30     relativ break condition  

   TIME   =   0.40     timestep for ELM

  volume/ion in A,a.u.               =      22.35       150.80
  Fermi-wavevector in a.u.,A,eV,Ry     =   1.208974  2.284630 19.886522  1.461618
  Thomas-Fermi vector in A             =   2.344566
 
 Write flags
   LWAVE        =      F    write WAVECAR
   LDOWNSAMPLE  =      F    k-point downsampling of WAVECAR
   LCHARG       =      F    write CHGCAR
   LVTOT        =      F    write LOCPOT, total local potential
   LVHAR        =      F    write LOCPOT, Hartree potential only
   LELF         =      F    write electronic localiz. function (ELF)
   LORBIT       =      0    0 simple, 1 ext, 2 COOP (PROOUT), +10 PAW based schemes


 Dipole corrections
   LMONO  =      F    monopole corrections only (constant potential shift)
   LDIPOL =      F    correct potential (dipole corrections)
   IDIPOL =      0    1-x, 2-y, 3-z, 4-all directions 
   EPSILON=  1.0000000 bulk dielectric constant

 Exchange correlation treatment:
   GGA     =    PE    GGA type
   LEXCH   =     8    internal setting for exchange type
   LIBXC   =     F    Libxc                    
   VOSKOWN =     0    Vosko Wilk Nusair interpolation
   LHFCALC =     F    Hartree Fock is set to
   LHFONE  =     F    Hartree Fock one center treatment
   AEXX    =    0.0000 exact exchange contribution

 Linear response parameters
   LEPSILON=     F    determine dielectric tensor
   LRPA    =     F    only Hartree local field effects (RPA)
   LNABLA  =     F    use nabla operator in PAW spheres
   LVEL    =     F    velocity operator in full k-point grid
   CSHIFT  =0.1000    complex shift for real part using Kramers Kronig
   OMEGAMAX=  -1.0    maximum frequency
   DEG_THRESHOLD= 0.2000000E-02 threshold for treating states as degnerate
   RTIME   =   -0.100 relaxation time in fs
  (WPLASMAI=    0.000 imaginary part of plasma frequency in eV, 0.658/RTIME)
   DFIELD  = 0.0000000 0.0000000 0.0000000 field for delta impulse in time
 
  Optional k-point grid parameters
   LKPOINTS_OPT  =     F    use optional k-point grid
   KPOINTS_OPT_MODE=     1    mode for optional k-point grid
 
 Orbital magnetization related:
   ORBITALMAG=     F  switch on orbital magnetization
   LCHIMAG   =     F  perturbation theory with respect to B field
   DQ        =  0.001000  dq finite difference perturbation B field
   LLRAUG    =     F  two centre corrections for induced B field



--------------------------------------------------------------------------------------------------------


 conjugate gradient relaxation of ions
 charge density and potential will be updated during run
 spin polarized calculation
 Variant of blocked Davidson
 Davidson routine will perform the subspace rotation
 perform sub-space diagonalisation
    after iterative eigenvector-optimisation
 modified Broyden-mixing scheme, WC =      100.0
 initial mixing is a Kerker type mixing with AMIX =  0.4000 and BMIX =      1.0000
 Hartree-type preconditioning will be used
 using additional bands           15
 reciprocal scheme for non local part
 use partial core corrections
 calculate Harris-corrections to forces 
   (improved forces if not selfconsistent)
 use gradient corrections 
 use of overlap-Matrix (Vanderbilt PP)
 Methfessel and Paxton  Order N= 1 SIGMA  =   0.20


--------------------------------------------------------------------------------------------------------


  energy-cutoff  :      400.00
  volume of cell :      223.47
      direct lattice vectors                 reciprocal lattice vectors
     3.630000114  0.000000000  0.000000000     0.275482085  0.000000000  0.000000000
     0.000000000  2.566797733  0.000000000     0.000000000  0.389590495  0.000000000
     0.000000000  0.000000000 23.983791351     0.000000000  0.000000000  0.041694826

  length of vectors
     3.630000114  2.566797733 23.983791351     0.275482085  0.389590495  0.041694826


 
 k-points in units of 2pi/SCALE and weight: Auto-mesh                               
   0.00000000  0.00000000  0.00000000       0.111
   0.09182736  0.00000000  0.00000000       0.222
   0.00000000  0.12986350  0.00000000       0.222
   0.09182736  0.12986350  0.00000000       0.444
 
 k-points in reciprocal lattice and weights: Auto-mesh                               
   0.00000000  0.00000000  0.00000000       0.111
   0.33333333  0.00000000  0.00000000       0.222
   0.00000000  0.33333333  0.00000000       0.222
   0.33333333  0.33333333  0.00000000       0.444
 
 position of ions in fractional coordinates (direct lattice) 
   0.00000000  0.00000000  0.00000000
   0.50000000  0.50000000  0.05351109
   0.00000000  0.00000000  0.10468148
   0.50000000  0.50000000  0.15792996
   0.00000000  0.00000000  0.21070899
   0.50000000  0.50000000  0.26289048
   0.00000000  0.00000000  0.31711592
   0.50000000  0.50000000  0.36467590
   1.00000000  0.50000000  0.42690792
   1.00000000  0.50000000  0.45801226
 
 position of ions in cartesian coordinates  (Angst):
   0.00000000  0.00000000  0.00000000
   1.81500006  1.28339887  1.28339883
   0.00000000  0.00000000  2.51065868
   1.81500006  1.28339887  3.78775910
   0.00000000  0.00000000  5.05360047
   1.81500006  1.28339887  6.30511038
   0.00000000  0.00000000  7.60564196
   1.81500006  1.28339887  8.74631073
   3.63000011  1.28339887 10.23887049
   3.63000011  1.28339887 10.98487049
 


--------------------------------------------------------------------------------------------------------


 k-point   1 :   0.0000 0.0000 0.0000  plane waves:    4037
 k-point   2 :   0.3333 0.0000 0.0000  plane waves:    4064
 k-point   3 :   0.0000 0.3333 0.0000  plane waves:    4032
 k-point   4 :   0.3333 0.3333 0.0000  plane waves:    4072

 maximum and minimum number of plane-waves per node :       827      778

 maximum number of plane-waves:      4072
 maximum index in each direction: 
   IXMAX=    5   IYMAX=    4   IZMAX=   39
   IXMIN=   -6   IYMIN=   -4   IZMIN=  -39


 parallel 3D FFT for wavefunctions:
    minimum data exchange during FFTs selected (reduces bandwidth)
 parallel 3D FFT for charge:
    minimum data exchange during FFTs selected (reduces bandwidth)


 total amount of memory used by VASP MPI-rank0    35069. kBytes
=======================================================================

   base      :      30000. kBytes
   nonl-proj :       1086. kBytes
   fftplans  :        642. kBytes
   grid      :       1621. kBytes
   one-center:         62. kBytes
   wavefun   :       1658. kBytes
 
     INWAV:  cpu time      0.0000: real time      0.0004
 Broyden mixing: mesh for mixing (old mesh)
   NGX = 11   NGY =  9   NGZ = 79
  (NGX  = 36   NGY  = 28   NGZ  =240)
  gives a total of   7821 points

 initial charge density was supplied:
 charge density of overlapping atoms calculated
 number of electron      90.0000000 magnetization      10.0000000
 keeping initial charge density in first step


--------------------------------------------------------------------------------------------------------


 Maximum index for augmentation-charges          309 (set IRDMAX)


--------------------------------------------------------------------------------------------------------


 First call to EWALD:  gamma=   0.292
 Maximum number of real-space cells 4x 6x 1
 Maximum number of reciprocal cells 2x 1x 9

    FEWALD:  cpu time      0.0018: real time      0.0018


--------------------------------------- Iteration      1(   1)  ---------------------------------------


    POTLOK:  cpu time      0.0191: real time      0.0194
    SETDIJ:  cpu time      0.0065: real time      0.0066
     EDDAV:  cpu time      0.3183: real time      0.3209
       DOS:  cpu time      0.0012: real time      0.0013
    --------------------------------------------
      LOOP:  cpu time      0.3451: real time      0.3481

 eigenvalue-minimisations  :   960
 total energy-change (2. order) : 0.7711251E+03  (-0.3321222E+04)
 number of electron      90.0000000 magnetization      10.0000000
 augmentation part       90.0000000 magnetization      10.0000000

 Free energy of the ion-electron system (eV)
  ---------------------------------------------------
  alpha Z        PSCENC =       216.17040255
  Ewald energy   TEWEN  =     42197.23368745
  -Hartree energ DENC   =    -53021.01241060
  -exchange      EXHF   =         0.00000000
  -V(xc)+E(xc)   XCENC  =       371.21362558
  PAW double counting   =      9828.36862813   -10674.97285505
  entropy T*S    EENTRO =        -0.00625059
  eigenvalues    EBANDS =       701.51192338
  atomic energy  EATOM  =     11152.61838693
  Solvation  Ediel_sol  =         0.00000000
  ---------------------------------------------------
  free energy    TOTEN  =       771.12513779 eV

  energy without entropy =      771.13138837  energy(sigma->0) =      771.12722131


--------------------------------------------------------------------------------------------------------




--------------------------------------- Iteration      1(   2)  ---------------------------------------


     EDDAV:  cpu time      0.3071: real time      0.3103
       DOS:  cpu time      0.0009: real time      0.0009
    --------------------------------------------
      LOOP:  cpu time      0.3079: real time      0.3112

 eigenvalue-minimisations  :   960
 total energy-change (2. order) :-0.7129669E+03  (-0.6844692E+03)
 number of electron      90.0000000 magnetization      10.0000000
 augmentation part       90.0000000 magnetization      10.0000000

 Free energy of the ion-electron system (eV)
  ---------------------------------------------------
  alpha Z        PSCENC =       216.17040255
  Ewald energy   TEWEN  =     42197.23368745
  -Hartree energ DENC   =    -53021.01241060
  -exchange      EXHF   =         0.00000000
  -V(xc)+E(xc)   XCENC  =       371.21362558
  PAW double counting   =      9828.36862813   -10674.97285505
  entropy T*S    EENTRO =        -0.00074797
  eigenvalues    EBANDS =       -11.46044191
  atomic energy  EATOM  =     11152.61838693
  Solvation  Ediel_sol  =         0.00000000
  ---------------------------------------------------
  free energy    TOTEN  =        58.15827511 eV

  energy without entropy =       58.15902308  energy(sigma->0) =       58.15852444


--------------------------------------------------------------------------------------------------------




--------------------------------------- Iteration      1(   3)  ---------------------------------------


     EDDAV:  cpu time      0.3086: real time      0.3115
       DOS:  cpu time      0.0009: real time      0.0009
    --------------------------------------------
      LOOP:  cpu time      0.3096: real time      0.3124

 eigenvalue-minimisations  :   984
 total energy-change (2. order) :-0.8906800E+02  (-0.8262122E+02)
 number of electron      90.0000000 magnetization      10.0000000
 augmentation part       90.0000000 magnetization      10.0000000

 Free energy of the ion-electron system (eV)
  ---------------------------------------------------
  alpha Z        PSCENC =       216.17040255
  Ewald energy   TEWEN  =     42197.23368745
  -Hartree energ DENC   =    -53021.01241060
  -exchange      EXHF   =         0.00000000
  -V(xc)+E(xc)   XCENC  =       371.21362558
  PAW double counting   =      9828.36862813   -10674.97285505
  entropy T*S    EENTRO =        -0.00196458
  eigenvalues    EBANDS =      -100.52722295
  atomic energy  EATOM  =     11152.61838693
  Solvation  Ediel_sol  =         0.00000000
  ---------------------------------------------------
  free energy    TOTEN  =       -30.90972254 eV

  energy without entropy =      -30.90775796  energy(sigma->0) =      -30.90906768


--------------------------------------------------------------------------------------------------------




--------------------------------------- Iteration      1(   4)  ---------------------------------------


     EDDAV:  cpu time      0.3473: real time      0.3501
       DOS:  cpu time      0.0009: real time      0.0009
    --------------------------------------------
      LOOP:  cpu time      0.3482: real time      0.3510

 eigenvalue-minimisations  :  1084
 total energy-change (2. order) :-0.3734850E+01  (-0.3706137E+01)
 number of electron      90.0000000 magnetization      10.0000000
 augmentation part       90.0000000 magnetization      10.0000000

 Free energy of the ion-electron system (eV)
  ---------------------------------------------------
  alpha Z        PSCENC =       216.17040255
  Ewald energy   TEWEN  =     42197.23368745
  -Hartree energ DENC   =    -53021.01241060
  -exchange      EXHF   =         0.00000000
  -V(xc)+E(xc)   XCENC  =       371.21362558
  PAW double counting   =      9828.36862813   -10674.97285505
  entropy T*S    EENTRO =        -0.00468718
  eigenvalues    EBANDS =      -104.25935018
  atomic energy  EATOM  =     11152.61838693
  Solvation  Ediel_sol  =         0.00000000
  ---------------------------------------------------
  free energy    TOTEN  =       -34.64457237 eV

  energy without entropy =      -34.63988519  energy(sigma->0) =      -34.64300998


--------------------------------------------------------------------------------------------------------




--------------------------------------- Iteration      1(   5)  ---------------------------------------


     EDDAV:  cpu time      0.3402: real time      0.3431
       DOS:  cpu time      0.0009: real time      0.0009
    CHARGE:  cpu time      0.0549: real time      0.0551
    MIXING:  cpu time      0.0006: real time      0.0006
    --------------------------------------------
      LOOP:  cpu time      0.3965: real time      0.3997

 eigenvalue-minimisations  :  1120
 total energy-change (2. order) :-0.8546407E-01  (-0.8539599E-01)
 number of electron      90.0000819 magnetization       9.1031473
 augmentation part       52.2758556 magnetization       8.8024918

 Broyden mixing:
  rms(total) = 0.26987E+01    rms(broyden)= 0.26985E+01
  rms(prec ) = 0.27807E+01
  weight for this iteration     100.00

 Free energy of the ion-electron system (eV)
  ---------------------------------------------------
  alpha Z        PSCENC =       216.17040255
  Ewald energy   TEWEN  =     42197.23368745
  -Hartree energ DENC   =    -53021.01241060
  -exchange      EXHF   =         0.00000000
  -V(xc)+E(xc)   XCENC  =       371.21362558
  PAW double counting   =      9828.36862813   -10674.97285505
  entropy T*S    EENTRO =        -0.00476635
  eigenvalues    EBANDS =      -104.34473509
  atomic energy  EATOM  =     11152.61838693
  Solvation  Ediel_sol  =         0.00000000
  ---------------------------------------------------
  free energy    TOTEN  =       -34.73003644 eV

  energy without entropy =      -34.72527009  energy(sigma->0) =      -34.72844766


--------------------------------------------------------------------------------------------------------




--------------------------------------- Iteration      1(   6)  ---------------------------------------


    POTLOK:  cpu time      0.0173: real time      0.0176
    SETDIJ:  cpu time      0.0059: real time      0.0059
     EDDAV:  cpu time      0.3341: real time      0.3371
       DOS:  cpu time      0.0010: real time      0.0010
    CHARGE:  cpu time      0.0524: real time      0.0526
    MIXING:  cpu time      0.0009: real time      0.0009
    --------------------------------------------
      LOOP:  cpu time      0.4116: real time      0.4151

 eigenvalue-minimisations  :  1096
 total energy-change (2. order) : 0.5262455E+01  (-0.9398527E+01)
 number of electron      90.0000910 magnetization       8.5370862
 augmentation part       58.5100257 magnetization       6.4381873

 Broyden mixing:
  rms(total) = 0.13557E+01    rms(broyden)= 0.13554E+01
  rms(prec ) = 0.14378E+01
  weight for this iteration     100.00

 eigenvalues of (default mixing * dielectric matrix)
  average eigenvalue GAMMA=   0.8047
  0.8047

 Free energy of the ion-electron system (eV)
  ---------------------------------------------------
  alpha Z        PSCENC =       216.17040255
  Ewald energy   TEWEN  =     42197.23368745
  -Hartree energ DENC   =    -52830.98273288
  -exchange      EXHF   =         0.00000000
  -V(xc)+E(xc)   XCENC  =       364.73378883
  PAW double counting   =      9977.92140570   -10783.11936687
  entropy T*S    EENTRO =        -0.00600753
  eigenvalues    EBANDS =      -324.03714519
  atomic energy  EATOM  =     11152.61838693
  Solvation  Ediel_sol  =         0.00000000
  ---------------------------------------------------
  free energy    TOTEN  =       -29.46758101 eV

  energy without entropy =      -29.46157348  energy(sigma->0) =      -29.46557850


--------------------------------------------------------------------------------------------------------




--------------------------------------- Iteration      1(   7)  ---------------------------------------


    POTLOK:  cpu time      0.0162: real time      0.0165
    SETDIJ:  cpu time      0.0055: real time      0.0056
     EDDAV:  cpu time      0.3509: real time      0.3537
       DOS:  cpu time      0.0009: real time      0.0009
    CHARGE:  cpu time      0.0504: real time      0.0506
    MIXING:  cpu time      0.0008: real time      0.0008
    --------------------------------------------
      LOOP:  cpu time      0.4248: real time      0.4280

 eigenvalue-minimisations  :  1168
 total energy-change (2. order) : 0.2614845E+01  (-0.2555313E+01)
 number of electron      90.0000885 magnetization       8.1396671
 augmentation part       56.5017857 magnetization       6.0146693

 Broyden mixing:
  rms(total) = 0.86155E+00    rms(broyden)= 0.86139E+00
  rms(prec ) = 0.96437E+00
  weight for this iteration     100.00

 eigenvalues of (default mixing * dielectric matrix)
  average eigenvalue GAMMA=   0.7475
  0.9123  0.5827

 Free energy of the ion-electron system (eV)
  ---------------------------------------------------
  alpha Z        PSCENC =       216.17040255
  Ewald energy   TEWEN  =     42197.23368745
  -Hartree energ DENC   =    -52939.94862931
  -exchange      EXHF   =         0.00000000
  -V(xc)+E(xc)   XCENC  =       368.52730294
  PAW double counting   =     10193.46492248   -11036.71836613
  entropy T*S    EENTRO =        -0.01955266
  eigenvalues    EBANDS =      -178.18089048
  atomic energy  EATOM  =     11152.61838693
  Solvation  Ediel_sol  =         0.00000000
  ---------------------------------------------------
  free energy    TOTEN  =       -26.85273624 eV

  energy without entropy =      -26.83318357  energy(sigma->0) =      -26.84621868


--------------------------------------------------------------------------------------------------------




--------------------------------------- Iteration      1(   8)  ---------------------------------------


    POTLOK:  cpu time      0.0166: real time      0.0168
    SETDIJ:  cpu time      0.0057: real time      0.0058
     EDDAV:  cpu time      0.3818: real time      0.3851
       DOS:  cpu time      0.0009: real time      0.0009
    CHARGE:  cpu time      0.0517: real time      0.0519
    MIXING:  cpu time      0.0008: real time      0.0008
    --------------------------------------------
      LOOP:  cpu time      0.4575: real time      0.4613

 eigenvalue-minimisations  :  1300
 total energy-change (2. order) : 0.4670594E+00  (-0.1129305E+01)
 number of electron      90.0000877 magnetization       7.4109526
 augmentation part       56.1454030 magnetization       5.2118706

 Broyden mixing:
  rms(total) = 0.74438E+00    rms(broyden)= 0.74423E+00
  rms(prec ) = 0.83279E+00
  weight for this iteration     100.00

 eigenvalues of (default mixing * dielectric matrix)
  average eigenvalue GAMMA=   0.7052
  1.1066  0.6722  0.3367

 Free energy of the ion-electron system (eV)
  ---------------------------------------------------
  alpha Z        PSCENC =       216.17040255
  Ewald energy   TEWEN  =     42197.23368745
  -Hartree energ DENC   =    -52939.91324313
  -exchange      EXHF   =         0.00000000
  -V(xc)+E(xc)   XCENC  =       368.88436672
  PAW double counting   =     10274.68546586   -11125.37592657
  entropy T*S    EENTRO =        -0.00957937
  eigenvalues    EBANDS =      -170.67923728
  atomic energy  EATOM  =     11152.61838693
  Solvation  Ediel_sol  =         0.00000000
  ---------------------------------------------------
  free energy    TOTEN  =       -26.38567685 eV

  energy without entropy =      -26.37609748  energy(sigma->0) =      -26.38248373


--------------------------------------------------------------------------------------------------------




--------------------------------------- Iteration      1(   9)  ---------------------------------------


    POTLOK:  cpu time      0.0162: real time      0.0164
    SETDIJ:  cpu time      0.0056: real time      0.0056
     EDDAV:  cpu time      0.4588: real time      0.4626
       DOS:  cpu time      0.0009: real time      0.0009
    CHARGE:  cpu time      0.0513: real time      0.0515
    MIXING:  cpu time      0.0008: real time      0.0008
    --------------------------------------------
      LOOP:  cpu time      0.5336: real time      0.5380

 eigenvalue-minimisations  :  1616
 total energy-change (2. order) : 0.6082154E+00  (-0.5399344E+00)
 number of electron      90.0000876 magnetization       6.4795589
 augmentation part       56.1098851 magnetization       4.4235556

 Broyden mixing:
  rms(total) = 0.61109E+00    rms(broyden)= 0.61103E+00
  rms(prec ) = 0.63274E+00
  weight for this iteration     100.00

 eigenvalues of (default mixing * dielectric matrix)
  average eigenvalue GAMMA=   0.7607
  1.2785  0.7377  0.7377  0.2887

 Free energy of the ion-electron system (eV)
  ---------------------------------------------------
  alpha Z        PSCENC =       216.17040255
  Ewald energy   TEWEN  =     42197.23368745
  -Hartree energ DENC   =    -52938.77311823
  -exchange      EXHF   =         0.00000000
  -V(xc)+E(xc)   XCENC  =       368.81180310
  PAW double counting   =     10400.19135330   -11258.83612726
  entropy T*S    EENTRO =        -0.00957974
  eigenvalues    EBANDS =      -163.18426955
  atomic energy  EATOM  =     11152.61838693
  Solvation  Ediel_sol  =         0.00000000
  ---------------------------------------------------
  free energy    TOTEN  =       -25.77746146 eV

  energy without entropy =      -25.76788171  energy(sigma->0) =      -25.77426821


--------------------------------------------------------------------------------------------------------




--------------------------------------- Iteration      1(  10)  ---------------------------------------


    POTLOK:  cpu time      0.0162: real time      0.0165
    SETDIJ:  cpu time      0.0056: real time      0.0056
     EDDAV:  cpu time      0.3912: real time      0.3945
       DOS:  cpu time      0.0009: real time      0.0009
    CHARGE:  cpu time      0.0519: real time      0.0521
    MIXING:  cpu time      0.0011: real time      0.0011
    --------------------------------------------
      LOOP:  cpu time      0.4669: real time      0.4708

 eigenvalue-minimisations  :  1272
 total energy-change (2. order) :-0.6999787E+00  (-0.1821145E+00)
 number of electron      90.0000876 magnetization       5.2064827
 augmentation part       56.1581103 magnetization       3.2503818

 Broyden mixing:
  rms(total) = 0.51063E+00    rms(broyden)= 0.51061E+00
  rms(prec ) = 0.51321E+00
  weight for this iteration     100.00

 eigenvalues of (default mixing * dielectric matrix)
  average eigenvalue GAMMA=   0.9009
  1.7586  1.2159  0.7301  0.5187  0.2814

 Free energy of the ion-electron system (eV)
  ---------------------------------------------------
  alpha Z        PSCENC =       216.17040255
  Ewald energy   TEWEN  =     42197.23368745
  -Hartree energ DENC   =    -52951.19498193
  -exchange      EXHF   =         0.00000000
  -V(xc)+E(xc)   XCENC  =       367.86467682
  PAW double counting   =     10513.67976424   -11376.82414486
  entropy T*S    EENTRO =        -0.00577033
  eigenvalues    EBANDS =      -146.01946105
  atomic energy  EATOM  =     11152.61838693
  Solvation  Ediel_sol  =         0.00000000
  ---------------------------------------------------
  free energy    TOTEN  =       -26.47744019 eV

  energy without entropy =      -26.47166985  energy(sigma->0) =      -26.47551674


--------------------------------------------------------------------------------------------------------




--------------------------------------- Iteration      1(  11)  ---------------------------------------


    POTLOK:  cpu time      0.0169: real time      0.0171
    SETDIJ:  cpu time      0.0059: real time      0.0059
     EDDAV:  cpu time      0.3725: real time      0.3755
       DOS:  cpu time      0.0010: real time      0.0010
    CHARGE:  cpu time      0.0513: real time      0.0516
    MIXING:  cpu time      0.0009: real time      0.0010
    --------------------------------------------
      LOOP:  cpu time      0.4486: real time      0.4521

 eigenvalue-minimisations  :  1268
 total energy-change (2. order) :-0.1585125E+01  (-0.1229219E+00)
 number of electron      90.0000878 magnetization       4.0910850
 augmentation part       56.3469557 magnetization       2.4026563

 Broyden mixing:
  rms(total) = 0.42146E+00    rms(broyden)= 0.42144E+00
  rms(prec ) = 0.42471E+00
  weight for this iteration     100.00

 eigenvalues of (default mixing * dielectric matrix)
  average eigenvalue GAMMA=   1.0331
  2.7966  1.1705  0.7356  0.7356  0.4779  0.2824

 Free energy of the ion-electron system (eV)
  ---------------------------------------------------
  alpha Z        PSCENC =       216.17040255
  Ewald energy   TEWEN  =     42197.23368745
  -Hartree energ DENC   =    -52957.03127160
  -exchange      EXHF   =         0.00000000
  -V(xc)+E(xc)   XCENC  =       366.57059941
  PAW double counting   =     10593.43348370   -11458.10810411
  entropy T*S    EENTRO =        -0.01011492
  eigenvalues    EBANDS =      -138.93963497
  atomic energy  EATOM  =     11152.61838693
  Solvation  Ediel_sol  =         0.00000000
  ---------------------------------------------------
  free energy    TOTEN  =       -28.06256556 eV

  energy without entropy =      -28.05245064  energy(sigma->0) =      -28.05919392


--------------------------------------------------------------------------------------------------------




--------------------------------------- Iteration      1(  12)  ---------------------------------------


    POTLOK:  cpu time      0.0161: real time      0.0164
    SETDIJ:  cpu time      0.0057: real time      0.0057
     EDDAV:  cpu time      0.3635: real time      0.3666
       DOS:  cpu time      0.0010: real time      0.0010
    CHARGE:  cpu time      0.0525: real time      0.0527
    MIXING:  cpu time      0.0011: real time      0.0011
    --------------------------------------------
      LOOP:  cpu time      0.4398: real time      0.4435

 eigenvalue-minimisations  :  1228
 total energy-change (2. order) :-0.1113098E+01  (-0.6076460E-01)
 number of electron      90.0000876 magnetization       2.0786402
 augmentation part       56.2675185 magnetization       0.6640841

 Broyden mixing:
  rms(total) = 0.34183E+00    rms(broyden)= 0.34181E+00
  rms(prec ) = 0.34744E+00
  weight for this iteration     100.00

 eigenvalues of (default mixing * dielectric matrix)
  average eigenvalue GAMMA=   1.3635
  4.7832  1.6133  0.9974  0.2837  0.7533  0.6342  0.4793

 Free energy of the ion-electron system (eV)
  ---------------------------------------------------
  alpha Z        PSCENC =       216.17040255
  Ewald energy   TEWEN  =     42197.23368745
  -Hartree energ DENC   =    -52969.75062091
  -exchange      EXHF   =         0.00000000
  -V(xc)+E(xc)   XCENC  =       366.03332594
  PAW double counting   =     10619.31296944   -11485.93839072
  entropy T*S    EENTRO =        -0.01273098
  eigenvalues    EBANDS =      -124.84269279
  atomic energy  EATOM  =     11152.61838693
  Solvation  Ediel_sol  =         0.00000000
  ---------------------------------------------------
  free energy    TOTEN  =       -29.17566311 eV

  energy without entropy =      -29.16293212  energy(sigma->0) =      -29.17141945


--------------------------------------------------------------------------------------------------------




--------------------------------------- Iteration      1(  13)  ---------------------------------------


    POTLOK:  cpu time      0.0161: real time      0.0163
    SETDIJ:  cpu time      0.0057: real time      0.0057
     EDDAV:  cpu time      0.3774: real time      0.3812
       DOS:  cpu time      0.0009: real time      0.0010
    CHARGE:  cpu time      0.0531: real time      0.0534
    MIXING:  cpu time      0.0011: real time      0.0011
    --------------------------------------------
      LOOP:  cpu time      0.4544: real time      0.4587

 eigenvalue-minimisations  :  1288
 total energy-change (2. order) :-0.2627828E+01  (-0.1837341E+00)
 number of electron      90.0000875 magnetization       0.9349583
 augmentation part       56.1175677 magnetization      -0.1343481

 Broyden mixing:
  rms(total) = 0.21990E+00    rms(broyden)= 0.21986E+00
  rms(prec ) = 0.24216E+00
  weight for this iteration     100.00

 eigenvalues of (default mixing * dielectric matrix)
  average eigenvalue GAMMA=   1.6671
  7.4652  2.1797  0.8194  0.8194  0.8040  0.2835  0.5253  0.4406

 Free energy of the ion-electron system (eV)
  ---------------------------------------------------
  alpha Z        PSCENC =       216.17040255
  Ewald energy   TEWEN  =     42197.23368745
  -Hartree energ DENC   =    -52973.94393311
  -exchange      EXHF   =         0.00000000
  -V(xc)+E(xc)   XCENC  =       364.64058611
  PAW double counting   =     10583.72347942   -11449.92257737
  entropy T*S    EENTRO =        -0.01019621
  eigenvalues    EBANDS =      -122.31332655
  atomic energy  EATOM  =     11152.61838693
  Solvation  Ediel_sol  =         0.00000000
  ---------------------------------------------------
  free energy    TOTEN  =       -31.80349079 eV

  energy without entropy =      -31.79329458  energy(sigma->0) =      -31.80009206


--------------------------------------------------------------------------------------------------------




--------------------------------------- Iteration      1(  14)  ---------------------------------------


    POTLOK:  cpu time      0.0160: real time      0.0162
    SETDIJ:  cpu time      0.0056: real time      0.0056
     EDDAV:  cpu time      0.3716: real time      0.3747
       DOS:  cpu time      0.0009: real time      0.0009
    CHARGE:  cpu time      0.0501: real time      0.0506
    MIXING:  cpu time      0.0010: real time      0.0010
    --------------------------------------------
      LOOP:  cpu time      0.4452: real time      0.4490

 eigenvalue-minimisations  :  1264
 total energy-change (2. order) :-0.2012366E+01  (-0.2312872E+00)
 number of electron      90.0000874 magnetization       0.6543093
 augmentation part       56.1226663 magnetization       0.0850181

 Broyden mixing:
  rms(total) = 0.11208E+00    rms(broyden)= 0.11201E+00
  rms(prec ) = 0.12178E+00
  weight for this iteration     100.00

 eigenvalues of (default mixing * dielectric matrix)
  average eigenvalue GAMMA=   1.7371
  8.8717  2.2668  0.9018  0.9018  0.7503  0.7503  0.2833  0.4619  0.4466

 Free energy of the ion-electron system (eV)
  ---------------------------------------------------
  alpha Z        PSCENC =       216.17040255
  Ewald energy   TEWEN  =     42197.23368745
  -Hartree energ DENC   =    -52976.13691148
  -exchange      EXHF   =         0.00000000
  -V(xc)+E(xc)   XCENC  =       363.25217082
  PAW double counting   =     10523.00840368   -11385.51626233
  entropy T*S    EENTRO =        -0.01170423
  eigenvalues    EBANDS =      -124.43402987
  atomic energy  EATOM  =     11152.61838693
  Solvation  Ediel_sol  =         0.00000000
  ---------------------------------------------------
  free energy    TOTEN  =       -33.81585648 eV

  energy without entropy =      -33.80415225  energy(sigma->0) =      -33.81195507


--------------------------------------------------------------------------------------------------------




--------------------------------------- Iteration      1(  15)  ---------------------------------------


    POTLOK:  cpu time      0.0161: real time      0.0163
    SETDIJ:  cpu time      0.0055: real time      0.0056
     EDDAV:  cpu time      0.3389: real time      0.3414
       DOS:  cpu time      0.0010: real time      0.0010
    CHARGE:  cpu time      0.0501: real time      0.0503
    MIXING:  cpu time      0.0012: real time      0.0012
    --------------------------------------------
      LOOP:  cpu time      0.4127: real time      0.4158

 eigenvalue-minimisations  :  1124
 total energy-change (2. order) :-0.6118269E+00  (-0.8298918E-01)
 number of electron      90.0000874 magnetization       0.5129565
 augmentation part       56.2015415 magnetization       0.1919936

 Broyden mixing:
  rms(total) = 0.78522E-01    rms(broyden)= 0.78480E-01
  rms(prec ) = 0.84643E-01
  weight for this iteration     100.00

 eigenvalues of (default mixing * dielectric matrix)
  average eigenvalue GAMMA=   1.7047
  9.4653  2.3457  0.9856  0.9856  0.7552  0.7552  0.2833  0.5662  0.4524  0.4524

 Free energy of the ion-electron system (eV)
  ---------------------------------------------------
  alpha Z        PSCENC =       216.17040255
  Ewald energy   TEWEN  =     42197.23368745
  -Hartree energ DENC   =    -52969.76843007
  -exchange      EXHF   =         0.00000000
  -V(xc)+E(xc)   XCENC  =       362.80223135
  PAW double counting   =     10512.25139353   -11373.54143950
  entropy T*S    EENTRO =        -0.00461859
  eigenvalues    EBANDS =      -132.18929705
  atomic energy  EATOM  =     11152.61838693
  Solvation  Ediel_sol  =         0.00000000
  ---------------------------------------------------
  free energy    TOTEN  =       -34.42768340 eV

  energy without entropy =      -34.42306481  energy(sigma->0) =      -34.42614387


--------------------------------------------------------------------------------------------------------




--------------------------------------- Iteration      1(  16)  ---------------------------------------


    POTLOK:  cpu time      0.0162: real time      0.0164
    SETDIJ:  cpu time      0.0056: real time      0.0056
     EDDAV:  cpu time      0.3387: real time      0.3415
       DOS:  cpu time      0.0014: real time      0.0014
    CHARGE:  cpu time      0.0583: real time      0.0586
    MIXING:  cpu time      0.0015: real time      0.0015
    --------------------------------------------
      LOOP:  cpu time      0.4217: real time      0.4250

 eigenvalue-minimisations  :  1124
 total energy-change (2. order) :-0.2199578E+00  (-0.1716283E-01)
 number of electron      90.0000875 magnetization       0.3573297
 augmentation part       56.2217744 magnetization       0.1423856

 Broyden mixing:
  rms(total) = 0.56641E-01    rms(broyden)= 0.56617E-01
  rms(prec ) = 0.60598E-01
  weight for this iteration     100.00

 eigenvalues of (default mixing * dielectric matrix)
  average eigenvalue GAMMA=   1.7357
 10.2193  2.3161  1.1713  1.1713  0.8723  0.8723  0.7259  0.2833  0.5770  0.4423
  0.4423

 Free energy of the ion-electron system (eV)
  ---------------------------------------------------
  alpha Z        PSCENC =       216.17040255
  Ewald energy   TEWEN  =     42197.23368745
  -Hartree energ DENC   =    -52965.96355862
  -exchange      EXHF   =         0.00000000
  -V(xc)+E(xc)   XCENC  =       362.63846279
  PAW double counting   =     10506.89126668   -11367.84417797
  entropy T*S    EENTRO =        -0.00057844
  eigenvalues    EBANDS =      -136.39153256
  atomic energy  EATOM  =     11152.61838693
  Solvation  Ediel_sol  =         0.00000000
  ---------------------------------------------------
  free energy    TOTEN  =       -34.64764120 eV

  energy without entropy =      -34.64706275  energy(sigma->0) =      -34.64744838


--------------------------------------------------------------------------------------------------------




--------------------------------------- Iteration      1(  17)  ---------------------------------------


    POTLOK:  cpu time      0.0172: real time      0.0175
    SETDIJ:  cpu time      0.0059: real time      0.0060
     EDDAV:  cpu time      0.3577: real time      0.3609
       DOS:  cpu time      0.0009: real time      0.0009
    CHARGE:  cpu time      0.0507: real time      0.0509
    MIXING:  cpu time      0.0013: real time      0.0013
    --------------------------------------------
      LOOP:  cpu time      0.4338: real time      0.4374

 eigenvalue-minimisations  :  1192
 total energy-change (2. order) :-0.1893657E+00  (-0.1200982E-01)
 number of electron      90.0000874 magnetization       0.2501873
 augmentation part       56.2119432 magnetization       0.1279101

 Broyden mixing:
  rms(total) = 0.41648E-01    rms(broyden)= 0.41628E-01
  rms(prec ) = 0.44094E-01
  weight for this iteration     100.00

 eigenvalues of (default mixing * dielectric matrix)
  average eigenvalue GAMMA=   1.7593
 10.8532  2.1940  2.1940  1.0506  1.0506  0.7433  0.7433  0.6904  0.2833  0.4573
  0.4573  0.3939

 Free energy of the ion-electron system (eV)
  ---------------------------------------------------
  alpha Z        PSCENC =       216.17040255
  Ewald energy   TEWEN  =     42197.23368745
  -Hartree energ DENC   =    -52959.81452973
  -exchange      EXHF   =         0.00000000
  -V(xc)+E(xc)   XCENC  =       362.52168444
  PAW double counting   =     10504.83811245   -11366.08803919
  entropy T*S    EENTRO =         0.00130146
  eigenvalues    EBANDS =      -142.31801325
  atomic energy  EATOM  =     11152.61838693
  Solvation  Ediel_sol  =         0.00000000
  ---------------------------------------------------
  free energy    TOTEN  =       -34.83700689 eV

  energy without entropy =      -34.83830835  energy(sigma->0) =      -34.83744071


--------------------------------------------------------------------------------------------------------




--------------------------------------- Iteration      1(  18)  ---------------------------------------


    POTLOK:  cpu time      0.0160: real time      0.0162
    SETDIJ:  cpu time      0.0056: real time      0.0057
     EDDAV:  cpu time      0.3461: real time      0.3488
       DOS:  cpu time      0.0009: real time      0.0009
    CHARGE:  cpu time      0.0492: real time      0.0495
    MIXING:  cpu time      0.0014: real time      0.0014
    --------------------------------------------
      LOOP:  cpu time      0.4192: real time      0.4224

 eigenvalue-minimisations  :  1152
 total energy-change (2. order) :-0.5988843E-01  (-0.5288835E-02)
 number of electron      90.0000874 magnetization       0.2125082
 augmentation part       56.1956248 magnetization       0.1381267

 Broyden mixing:
  rms(total) = 0.23819E-01    rms(broyden)= 0.23806E-01
  rms(prec ) = 0.25471E-01
  weight for this iteration     100.00

 eigenvalues of (default mixing * dielectric matrix)
  average eigenvalue GAMMA=   1.7495
 11.0675  2.3475  2.3475  1.1190  1.1190  0.8533  0.8533  0.7450  0.6963  0.2833
  0.4671  0.4481  0.3965

 Free energy of the ion-electron system (eV)
  ---------------------------------------------------
  alpha Z        PSCENC =       216.17040255
  Ewald energy   TEWEN  =     42197.23368745
  -Hartree energ DENC   =    -52954.72459456
  -exchange      EXHF   =         0.00000000
  -V(xc)+E(xc)   XCENC  =       362.49087671
  PAW double counting   =     10508.58228917   -11370.42699381
  entropy T*S    EENTRO =         0.00086960
  eigenvalues    EBANDS =      -146.84181936
  atomic energy  EATOM  =     11152.61838693
  Solvation  Ediel_sol  =         0.00000000
  ---------------------------------------------------
  free energy    TOTEN  =       -34.89689532 eV

  energy without entropy =      -34.89776492  energy(sigma->0) =      -34.89718519


--------------------------------------------------------------------------------------------------------




--------------------------------------- Iteration      1(  19)  ---------------------------------------


    POTLOK:  cpu time      0.0159: real time      0.0161
    SETDIJ:  cpu time      0.0056: real time      0.0056
     EDDAV:  cpu time      0.3498: real time      0.3528
       DOS:  cpu time      0.0009: real time      0.0009
    CHARGE:  cpu time      0.0490: real time      0.0493
    MIXING:  cpu time      0.0015: real time      0.0015
    --------------------------------------------
      LOOP:  cpu time      0.4227: real time      0.4263

 eigenvalue-minimisations  :  1172
 total energy-change (2. order) :-0.7250979E-01  (-0.2359311E-02)
 number of electron      90.0000874 magnetization       0.1732479
 augmentation part       56.1988537 magnetization       0.1214718

 Broyden mixing:
  rms(total) = 0.18495E-01    rms(broyden)= 0.18491E-01
  rms(prec ) = 0.19746E-01
  weight for this iteration     100.00

 eigenvalues of (default mixing * dielectric matrix)
  average eigenvalue GAMMA=   1.7499
 11.2471  2.9518  2.3895  1.2752  1.1714  0.8768  0.8768  0.7497  0.7497  0.2833
  0.6103  0.4772  0.4441  0.3962

 Free energy of the ion-electron system (eV)
  ---------------------------------------------------
  alpha Z        PSCENC =       216.17040255
  Ewald energy   TEWEN  =     42197.23368745
  -Hartree energ DENC   =    -52950.71357802
  -exchange      EXHF   =         0.00000000
  -V(xc)+E(xc)   XCENC  =       362.41044418
  PAW double counting   =     10502.74446201   -11364.29857278
  entropy T*S    EENTRO =        -0.00014435
  eigenvalues    EBANDS =      -151.13449307
  atomic energy  EATOM  =     11152.61838693
  Solvation  Ediel_sol  =         0.00000000
  ---------------------------------------------------
  free energy    TOTEN  =       -34.96940511 eV

  energy without entropy =      -34.96926076  energy(sigma->0) =      -34.96935699


--------------------------------------------------------------------------------------------------------




--------------------------------------- Iteration      1(  20)  ---------------------------------------


    POTLOK:  cpu time      0.0160: real time      0.0162
    SETDIJ:  cpu time      0.0056: real time      0.0056
     EDDAV:  cpu time      0.3554: real time      0.3581
       DOS:  cpu time      0.0009: real time      0.0009
    CHARGE:  cpu time      0.0503: real time      0.0505
    MIXING:  cpu time      0.0017: real time      0.0017
    --------------------------------------------
      LOOP:  cpu time      0.4299: real time      0.4331

 eigenvalue-minimisations  :  1192
 total energy-change (2. order) :-0.4144757E-01  (-0.5890664E-03)
 number of electron      90.0000874 magnetization       0.1397208
 augmentation part       56.2021142 magnetization       0.0997181

 Broyden mixing:
  rms(total) = 0.14803E-01    rms(broyden)= 0.14801E-01
  rms(prec ) = 0.15707E-01
  weight for this iteration     100.00

 eigenvalues of (default mixing * dielectric matrix)
  average eigenvalue GAMMA=   1.7117
 11.3102  3.1474  2.4382  1.4628  1.1160  0.9205  0.9205  0.7926  0.7926  0.6602
  0.2833  0.5079  0.4801  0.4464  0.3970

 Free energy of the ion-electron system (eV)
  ---------------------------------------------------
  alpha Z        PSCENC =       216.17040255
  Ewald energy   TEWEN  =     42197.23368745
  -Hartree energ DENC   =    -52948.08987598
  -exchange      EXHF   =         0.00000000
  -V(xc)+E(xc)   XCENC  =       362.35921752
  PAW double counting   =     10502.61716222   -11364.16794894
  entropy T*S    EENTRO =        -0.00064904
  eigenvalues    EBANDS =      -153.75123538
  atomic energy  EATOM  =     11152.61838693
  Solvation  Ediel_sol  =         0.00000000
  ---------------------------------------------------
  free energy    TOTEN  =       -35.01085268 eV

  energy without entropy =      -35.01020364  energy(sigma->0) =      -35.01063633


--------------------------------------------------------------------------------------------------------




--------------------------------------- Iteration      1(  21)  ---------------------------------------


    POTLOK:  cpu time      0.0161: real time      0.0163
    SETDIJ:  cpu time      0.0059: real time      0.0060
     EDDAV:  cpu time      0.3572: real time      0.3602
       DOS:  cpu time      0.0009: real time      0.0009
    CHARGE:  cpu time      0.0502: real time      0.0507
    MIXING:  cpu time      0.0015: real time      0.0016
    --------------------------------------------
      LOOP:  cpu time      0.4319: real time      0.4357

 eigenvalue-minimisations  :  1204
 total energy-change (2. order) :-0.3477236E-01  (-0.2856997E-03)
 number of electron      90.0000874 magnetization       0.0980010
 augmentation part       56.2050579 magnetization       0.0677652

 Broyden mixing:
  rms(total) = 0.11596E-01    rms(broyden)= 0.11595E-01
  rms(prec ) = 0.12171E-01
  weight for this iteration     100.00

 eigenvalues of (default mixing * dielectric matrix)
  average eigenvalue GAMMA=   1.7228
 11.3767  3.4385  2.6880  1.8461  1.0404  1.0404  0.9577  0.9577  0.7794  0.7794
  0.2833  0.6281  0.4771  0.3957  0.4379  0.4379

 Free energy of the ion-electron system (eV)
  ---------------------------------------------------
  alpha Z        PSCENC =       216.17040255
  Ewald energy   TEWEN  =     42197.23368745
  -Hartree energ DENC   =    -52945.87279726
  -exchange      EXHF   =         0.00000000
  -V(xc)+E(xc)   XCENC  =       362.31703679
  PAW double counting   =     10503.24901881   -11364.82060680
  entropy T*S    EENTRO =        -0.00094475
  eigenvalues    EBANDS =      -155.93980874
  atomic energy  EATOM  =     11152.61838693
  Solvation  Ediel_sol  =         0.00000000
  ---------------------------------------------------
  free energy    TOTEN  =       -35.04562504 eV

  energy without entropy =      -35.04468029  energy(sigma->0) =      -35.04531012


--------------------------------------------------------------------------------------------------------




--------------------------------------- Iteration      1(  22)  ---------------------------------------


    POTLOK:  cpu time      0.0159: real time      0.0162
    SETDIJ:  cpu time      0.0056: real time      0.0056
     EDDAV:  cpu time      0.3107: real time      0.3131
       DOS:  cpu time      0.0009: real time      0.0009
    CHARGE:  cpu time      0.0503: real time      0.0505
    MIXING:  cpu time      0.0018: real time      0.0018
    --------------------------------------------
      LOOP:  cpu time      0.3852: real time      0.3881

 eigenvalue-minimisations  :  1004
 total energy-change (2. order) :-0.5163115E-01  (-0.3980286E-03)
 number of electron      90.0000874 magnetization       0.0588648
 augmentation part       56.2071780 magnetization       0.0414417

 Broyden mixing:
  rms(total) = 0.86540E-02    rms(broyden)= 0.86525E-02
  rms(prec ) = 0.89395E-02
  weight for this iteration     100.00

 eigenvalues of (default mixing * dielectric matrix)
  average eigenvalue GAMMA=   1.7563
 11.3995  3.9421  3.0733  2.0538  1.4242  1.0416  1.0416  0.8531  0.8531  0.7592
  0.7592  0.2833  0.6291  0.4716  0.3973  0.4477  0.4279

 Free energy of the ion-electron system (eV)
  ---------------------------------------------------
  alpha Z        PSCENC =       216.17040255
  Ewald energy   TEWEN  =     42197.23368745
  -Hartree energ DENC   =    -52942.60121933
  -exchange      EXHF   =         0.00000000
  -V(xc)+E(xc)   XCENC  =       362.26025731
  PAW double counting   =     10503.19184947   -11364.74735758
  entropy T*S    EENTRO =        -0.00131297
  eigenvalues    EBANDS =      -159.22195000
  atomic energy  EATOM  =     11152.61838693
  Solvation  Ediel_sol  =         0.00000000
  ---------------------------------------------------
  free energy    TOTEN  =       -35.09725619 eV

  energy without entropy =      -35.09594322  energy(sigma->0) =      -35.09681853


--------------------------------------------------------------------------------------------------------




--------------------------------------- Iteration      1(  23)  ---------------------------------------


    POTLOK:  cpu time      0.0162: real time      0.0164
    SETDIJ:  cpu time      0.0056: real time      0.0056
     EDDAV:  cpu time      0.3076: real time      0.3101
       DOS:  cpu time      0.0009: real time      0.0009
    CHARGE:  cpu time      0.0491: real time      0.0493
    MIXING:  cpu time      0.0018: real time      0.0018
    --------------------------------------------
      LOOP:  cpu time      0.3812: real time      0.3842

 eigenvalue-minimisations  :   984
 total energy-change (2. order) :-0.5898809E-01  (-0.2117516E-03)
 number of electron      90.0000874 magnetization       0.0344711
 augmentation part       56.2028347 magnetization       0.0234095

 Broyden mixing:
  rms(total) = 0.59662E-02    rms(broyden)= 0.59652E-02
  rms(prec ) = 0.61945E-02
  weight for this iteration     100.00

 eigenvalues of (default mixing * dielectric matrix)
  average eigenvalue GAMMA=   1.8580
 11.4617  6.0273  3.1002  2.4515  1.4712  1.1880  0.9158  0.9158  0.9439  0.8062
  0.8062  0.2833  0.7126  0.6198  0.4720  0.4479  0.3975  0.4227

 Free energy of the ion-electron system (eV)
  ---------------------------------------------------
  alpha Z        PSCENC =       216.17040255
  Ewald energy   TEWEN  =     42197.23368745
  -Hartree energ DENC   =    -52940.40546857
  -exchange      EXHF   =         0.00000000
  -V(xc)+E(xc)   XCENC  =       362.20771048
  PAW double counting   =     10503.89515133   -11365.52096246
  entropy T*S    EENTRO =        -0.00159004
  eigenvalues    EBANDS =      -161.35356195
  atomic energy  EATOM  =     11152.61838693
  Solvation  Ediel_sol  =         0.00000000
  ---------------------------------------------------
  free energy    TOTEN  =       -35.15624428 eV

  energy without entropy =      -35.15465424  energy(sigma->0) =      -35.15571427


--------------------------------------------------------------------------------------------------------




--------------------------------------- Iteration      1(  24)  ---------------------------------------


    POTLOK:  cpu time      0.0161: real time      0.0163
    SETDIJ:  cpu time      0.0056: real time      0.0056
     EDDAV:  cpu time      0.3016: real time      0.3042
       DOS:  cpu time      0.0009: real time      0.0009
    CHARGE:  cpu time      0.0520: real time      0.0523
    MIXING:  cpu time      0.0020: real time      0.0020
    --------------------------------------------
      LOOP:  cpu time      0.3781: real time      0.3813

 eigenvalue-minimisations  :   952
 total energy-change (2. order) :-0.3343038E-01  (-0.1093168E-03)
 number of electron      90.0000874 magnetization       0.0214234
 augmentation part       56.2044373 magnetization       0.0148716

 Broyden mixing:
  rms(total) = 0.44216E-02    rms(broyden)= 0.44208E-02
  rms(prec ) = 0.46713E-02
  weight for this iteration     100.00

 eigenvalues of (default mixing * dielectric matrix)
  average eigenvalue GAMMA=   1.8803
 11.5192  7.2549  3.1846  2.4947  1.6410  1.2099  0.9872  0.9872  0.8557  0.8557
  0.7953  0.2833  0.7179  0.6454  0.5518  0.4733  0.3972  0.4458  0.4251

 Free energy of the ion-electron system (eV)
  ---------------------------------------------------
  alpha Z        PSCENC =       216.17040255
  Ewald energy   TEWEN  =     42197.23368745
  -Hartree energ DENC   =    -52938.66296395
  -exchange      EXHF   =         0.00000000
  -V(xc)+E(xc)   XCENC  =       362.16926581
  PAW double counting   =     10503.18436605   -11364.74708747
  entropy T*S    EENTRO =        -0.00168530
  eigenvalues    EBANDS =      -163.15404673
  atomic energy  EATOM  =     11152.61838693
  Solvation  Ediel_sol  =         0.00000000
  ---------------------------------------------------
  free energy    TOTEN  =       -35.18967467 eV

  energy without entropy =      -35.18798937  energy(sigma->0) =      -35.18911290


--------------------------------------------------------------------------------------------------------




--------------------------------------- Iteration      1(  25)  ---------------------------------------


    POTLOK:  cpu time      0.0159: real time      0.0162
    SETDIJ:  cpu time      0.0056: real time      0.0056
     EDDAV:  cpu time      0.2592: real time      0.2612
       DOS:  cpu time      0.0009: real time      0.0009
    CHARGE:  cpu time      0.0505: real time      0.0507
    MIXING:  cpu time      0.0022: real time      0.0022
    --------------------------------------------
      LOOP:  cpu time      0.3343: real time      0.3368

 eigenvalue-minimisations  :   744
 total energy-change (2. order) :-0.1168112E-01  (-0.3132451E-04)
 number of electron      90.0000874 magnetization       0.0081617
 augmentation part       56.2052942 magnetization       0.0037484

 Broyden mixing:
  rms(total) = 0.26430E-02    rms(broyden)= 0.26423E-02
  rms(prec ) = 0.29333E-02
  weight for this iteration     100.00

 eigenvalues of (default mixing * dielectric matrix)
  average eigenvalue GAMMA=   1.9319
 11.6847  8.6324  3.3483  2.2756  2.1632  1.2206  1.2206  0.8968  0.8968  0.8585
  0.8004  0.8004  0.7805  0.2833  0.6171  0.4721  0.4480  0.3973  0.4275  0.4140

 Free energy of the ion-electron system (eV)
  ---------------------------------------------------
  alpha Z        PSCENC =       216.17040255
  Ewald energy   TEWEN  =     42197.23368745
  -Hartree energ DENC   =    -52937.99477698
  -exchange      EXHF   =         0.00000000
  -V(xc)+E(xc)   XCENC  =       362.15418793
  PAW double counting   =     10503.07226613   -11364.61549643
  entropy T*S    EENTRO =        -0.00181630
  eigenvalues    EBANDS =      -163.83819706
[...]
     14      -2.6165      1.00000
     15      -2.6075      1.00000
     16      -2.5116      1.00000
     17      -2.3299      1.00000
     18      -2.0780      1.00000
     19      -2.0083      1.00000
     20      -1.9357      1.00000
     21      -1.7952      1.00000
     22      -1.6607      1.00000
     23      -1.4163      1.00000
     24      -1.3292      1.00000
     25      -1.3053      1.00000
     26      -1.2303      1.00000
     27      -1.2151      1.00000
     28      -1.1119      1.00000
     29      -1.0842      1.00000
     30      -1.0395      1.00000
     31      -1.0079      1.00000
     32      -0.9849      1.00000
     33      -0.8653      1.00000
     34      -0.8262      1.00000
     35      -0.7904      1.00000
     36      -0.7584      1.00000
     37      -0.7349      1.00000
     38      -0.6677      1.00000
     39      -0.6003      1.00000
     40      -0.5438      1.00000
     41      -0.5165      1.00000
     42      -0.4784      1.00000
     43      -0.4529      1.00000
     44      -0.4411      1.00000
     45       0.5082      1.03546
     46       2.4255     -0.00000
     47       4.2863     -0.00000
     48       4.3761     -0.00000
     49       4.9951     -0.00000
     50       6.1415     -0.00000
     51       6.5735      0.00000
     52       7.0832      0.00000
     53       7.2369      0.00000
     54       7.8337      0.00000
     55       8.0571      0.00000
     56       8.5045      0.00000
     57       9.2333      0.00000
     58       9.4666      0.00000
     59       9.4986      0.00000
     60       9.7348      0.00000

 k-point     4 :       0.3333    0.3333    0.0000
  band No.  band energies     occupation 
      1      -4.9301      1.00000
      2      -4.8001      1.00000
      3      -4.0900      1.00000
      4      -3.5437      1.00000
      5      -3.4615      1.00000
      6      -3.1809      1.00000
      7      -3.1252      1.00000
      8      -3.0083      1.00000
      9      -2.9862      1.00000
     10      -2.8200      1.00000
     11      -2.8028      1.00000
     12      -2.5716      1.00000
     13      -2.5089      1.00000
     14      -2.3854      1.00000
     15      -2.3165      1.00000
     16      -2.2812      1.00000
     17      -2.2329      1.00000
     18      -2.1697      1.00000
     19      -2.0453      1.00000
     20      -1.9714      1.00000
     21      -1.9535      1.00000
     22      -1.9279      1.00000
     23      -1.8909      1.00000
     24      -1.7590      1.00000
     25      -1.6729      1.00000
     26      -1.5451      1.00000
     27      -1.5327      1.00000
     28      -1.2717      1.00000
     29      -1.2178      1.00000
     30      -1.1607      1.00000
     31      -1.1153      1.00000
     32      -1.0824      1.00000
     33      -1.0058      1.00000
     34      -0.9867      1.00000
     35      -0.8625      1.00000
     36      -0.7729      1.00000
     37      -0.7439      1.00000
     38      -0.6902      1.00000
     39      -0.6643      1.00000
     40      -0.6155      1.00000
     41      -0.5726      1.00000
     42      -0.5293      1.00000
     43      -0.1784      1.00000
     44       0.6662      0.83433
     45       1.7083     -0.00000
     46       2.1217     -0.00000
     47       2.6677     -0.00000
     48       3.9747     -0.00000
     49       4.0665     -0.00000
     50       5.5686     -0.00000
     51       5.6656     -0.00000
     52       6.0851     -0.00000
     53       6.8132      0.00000
     54       7.1722      0.00000
     55       7.7873      0.00000
     56       7.9454      0.00000
     57       8.3597      0.00000
     58       8.8840      0.00000
     59       9.6280      0.00000
     60       9.6817      0.00000


--------------------------------------------------------------------------------------------------------


 soft charge-density along one line, spin component           1
         0         1         2         3         4         5         6         7         8         9
 total charge-density along one line
 
 soft charge-density along one line, spin component           2
         0         1         2         3         4         5         6         7         8         9
 total charge-density along one line
 
 pseudopotential strength for first ion, spin component:           1
 -7.262  -0.000   0.000   0.000   0.000  -1.434   0.000  -0.000
 -0.000  -7.246   0.000  -0.000  -0.000   0.000  -1.448  -0.000
  0.000   0.000  -7.268  -0.000   0.004  -0.000  -0.000  -1.434
  0.000  -0.000  -0.000  -7.260  -0.000  -0.000   0.000   0.000
  0.000  -0.000   0.004  -0.000  -7.257  -0.000   0.000  -0.002
 -1.434   0.000  -0.000  -0.000  -0.000   8.000  -0.000   0.000
  0.000  -1.448  -0.000   0.000   0.000  -0.000   8.012   0.000
 -0.000  -0.000  -1.434   0.000  -0.002   0.000   0.000   8.003
 -0.000   0.000   0.000  -1.440   0.000   0.000  -0.000  -0.000
 -0.000   0.000  -0.002   0.000  -1.438   0.000  -0.000   0.001
  0.000  -0.000  -0.004   0.000  -0.000   0.000  -0.000   0.004
  0.000  -0.000  -0.007   0.000  -0.001   0.000  -0.000   0.008
  0.000  -0.016   0.000  -0.000   0.000  -0.000   0.013  -0.000
 -0.000  -0.000  -0.017   0.000   0.001  -0.000   0.000   0.012
 -0.000  -0.000  -0.000  -0.014   0.000  -0.000  -0.000   0.000
  0.000  -0.018   0.000   0.000   0.000   0.000   0.014   0.000
  0.000  -0.000  -0.018   0.000   0.001  -0.000  -0.000   0.012
 -0.000   0.000  -0.000  -0.016   0.000  -0.000  -0.000  -0.000
 pseudopotential strength for first ion, spin component:           2
 -7.262  -0.000   0.000   0.000   0.000  -1.434   0.000  -0.000
 -0.000  -7.246   0.000  -0.000  -0.000   0.000  -1.448  -0.000
  0.000   0.000  -7.268  -0.000   0.004  -0.000  -0.000  -1.434
  0.000  -0.000  -0.000  -7.260  -0.000  -0.000   0.000   0.000
  0.000  -0.000   0.004  -0.000  -7.257  -0.000   0.000  -0.002
 -1.434   0.000  -0.000  -0.000  -0.000   8.000  -0.000   0.000
  0.000  -1.448  -0.000   0.000   0.000  -0.000   8.012   0.000
 -0.000  -0.000  -1.434   0.000  -0.002   0.000   0.000   8.003
 -0.000   0.000   0.000  -1.440   0.000   0.000  -0.000  -0.000
 -0.000   0.000  -0.002   0.000  -1.438   0.000  -0.000   0.001
  0.000  -0.000  -0.004   0.000  -0.000   0.000  -0.000   0.004
  0.000  -0.000  -0.007   0.000  -0.001   0.000  -0.000   0.008
  0.000  -0.016   0.000   0.000   0.000  -0.000   0.013  -0.000
  0.000  -0.000  -0.017   0.000   0.001   0.000   0.000   0.012
 -0.000   0.000  -0.000  -0.014   0.000  -0.000   0.000   0.000
  0.000  -0.018   0.000  -0.000   0.000   0.000   0.014   0.000
 -0.000  -0.000  -0.018   0.000   0.001   0.000  -0.000   0.012
 -0.000  -0.000  -0.000  -0.016   0.000  -0.000   0.000  -0.000
 total augmentation occupancy for first ion, spin component:           1
  1.921   0.000   0.000   0.000   0.000  -0.012   0.000   0.000   0.000   0.000   0.000   0.000   0.000   0.000   0.000   0.000
  0.000   1.946   0.000   0.000   0.000   0.000  -0.028   0.000   0.000   0.000   0.000   0.000   0.024   0.000   0.000  -0.023
  0.000   0.000   1.927   0.000   0.002   0.000   0.000  -0.014   0.000   0.005  -0.016   0.015   0.000   0.071   0.000   0.000
  0.000   0.000   0.000   1.942   0.000   0.000   0.000   0.000  -0.026   0.000   0.000   0.000   0.000   0.000   0.067   0.000
  0.000   0.000   0.002   0.000   1.926   0.000   0.000   0.005   0.000  -0.017  -0.050   0.010   0.000   0.022   0.000   0.000
 -0.012   0.000   0.000   0.000   0.000   0.010   0.000   0.000   0.000   0.000   0.000   0.000   0.000   0.000   0.000   0.000
  0.000  -0.028   0.000   0.000   0.000   0.000   0.010   0.000   0.000   0.000   0.000   0.000   0.021   0.000   0.000  -0.001
  0.000   0.000  -0.014   0.000   0.005   0.000   0.000   0.011   0.000   0.001  -0.016  -0.000   0.000   0.020   0.000   0.000
  0.000   0.000   0.000  -0.026   0.000   0.000   0.000   0.000   0.012   0.000   0.000   0.000   0.000   0.000   0.031   0.000
  0.000   0.000   0.005   0.000  -0.017   0.000   0.000   0.001   0.000   0.010  -0.006   0.001   0.000   0.003   0.000   0.000
  0.000   0.000  -0.016   0.000  -0.050   0.000   0.000  -0.016   0.000  -0.006   1.697  -0.128   0.000   0.227   0.000   0.000
  0.000   0.000   0.015   0.000   0.010   0.000   0.000  -0.000   0.000   0.001  -0.128   0.016   0.000  -0.028   0.000   0.000
  0.000   0.024   0.000   0.000   0.000   0.000   0.021   0.000   0.000   0.000   0.000   0.000   0.213   0.000   0.000  -0.013
  0.000   0.000   0.071   0.000   0.022   0.000   0.000   0.020   0.000   0.003   0.227  -0.028   0.000   0.109   0.000   0.000
  0.000   0.000   0.000   0.067   0.000   0.000   0.000   0.000   0.031   0.000   0.000   0.000   0.000   0.000   0.150   0.000
  0.000  -0.023   0.000   0.000   0.000   0.000  -0.001   0.000   0.000   0.000   0.000   0.000  -0.013   0.000   0.000   0.001
  0.000   0.000  -0.028   0.000  -0.001   0.000   0.000  -0.001   0.000  -0.000  -0.029   0.003   0.000  -0.010   0.000   0.000
  0.000   0.000   0.000  -0.026   0.000   0.000   0.000   0.000  -0.002   0.000   0.000   0.000   0.000   0.000  -0.010   0.000
 total augmentation occupancy for first ion, spin component:           2
  0.000   0.000   0.000   0.000   0.000   0.000   0.000   0.000   0.000   0.000   0.000   0.000   0.000   0.000   0.000   0.000
  0.000  -0.000   0.000   0.000   0.000   0.000  -0.000   0.000   0.000   0.000   0.000   0.000  -0.000   0.000   0.000  -0.000
  0.000   0.000   0.000   0.000   0.000   0.000   0.000   0.000   0.000  -0.000   0.000   0.000   0.000  -0.000   0.000   0.000
  0.000   0.000   0.000  -0.000   0.000   0.000   0.000   0.000  -0.000   0.000   0.000   0.000   0.000   0.000   0.000   0.000
  0.000   0.000   0.000   0.000   0.000   0.000   0.000   0.000   0.000   0.000   0.000   0.000   0.000  -0.000   0.000   0.000
  0.000   0.000   0.000   0.000   0.000  -0.000   0.000   0.000   0.000   0.000   0.000   0.000   0.000   0.000   0.000   0.000
  0.000  -0.000   0.000   0.000   0.000   0.000   0.000   0.000   0.000   0.000   0.000   0.000   0.000   0.000   0.000   0.000
  0.000   0.000   0.000   0.000   0.000   0.000   0.000  -0.000   0.000   0.000   0.000   0.000   0.000   0.000   0.000   0.000
  0.000   0.000   0.000  -0.000   0.000   0.000   0.000   0.000  -0.000   0.000   0.000   0.000   0.000   0.000  -0.000   0.000
  0.000   0.000  -0.000   0.000   0.000   0.000   0.000   0.000   0.000   0.000   0.000   0.000   0.000   0.000   0.000   0.000
  0.000   0.000   0.000   0.000   0.000   0.000   0.000   0.000   0.000   0.000  -0.000   0.000   0.000  -0.000   0.000   0.000
  0.000   0.000   0.000   0.000   0.000   0.000   0.000   0.000   0.000   0.000   0.000  -0.000   0.000   0.000   0.000   0.000
  0.000  -0.000   0.000   0.000   0.000   0.000   0.000   0.000   0.000   0.000   0.000   0.000  -0.000   0.000   0.000  -0.000
  0.000   0.000  -0.000   0.000  -0.000   0.000   0.000   0.000   0.000   0.000  -0.000   0.000   0.000   0.000   0.000   0.000
  0.000   0.000   0.000   0.000   0.000   0.000   0.000   0.000  -0.000   0.000   0.000   0.000   0.000   0.000   0.000   0.000
  0.000  -0.000   0.000   0.000   0.000   0.000   0.000   0.000   0.000   0.000   0.000   0.000  -0.000   0.000   0.000   0.000
  0.000   0.000   0.000   0.000   0.000   0.000   0.000  -0.000   0.000  -0.000  -0.000  -0.000   0.000   0.000   0.000   0.000
  0.000   0.000   0.000   0.000   0.000   0.000   0.000   0.000   0.000   0.000   0.000   0.000   0.000   0.000   0.000   0.000


------------------------ aborting loop because EDIFF is reached ----------------------------------------


    CHARGE:  cpu time      0.0521: real time      0.0523
    FORLOC:  cpu time      0.0011: real time      0.0011
    FORNL :  cpu time      0.1414: real time      0.1421
    STRESS:  cpu time      0.1619: real time      0.1627
    FORCOR:  cpu time      0.0158: real time      0.0159
    FORHAR:  cpu time      0.0028: real time      0.0028
    MIXING:  cpu time      0.0004: real time      0.0005
    OFIELD:  cpu time      0.0000: real time      0.0000

 ---------------------------------------------------------------------------------------------

         DFTD3 V3.0 Rev 1        
 Edisp (eV)   -3.20164

 E6    (eV) :    -1.3075
 E8    (eV) :    -1.8941
 % E8        : 59.16
    FORVDW:  cpu time      0.0495: real time      0.0500

  FORCE on cell =-STRESS in cart. coord.  units (eV):
  Direction    XX          YY          ZZ          XY          YZ          ZX
  --------------------------------------------------------------------------------------
  Alpha Z   216.17040   216.17040   216.17040
  Ewald   47884.40869 48006.99393-53730.62336     0.00000    -0.00000     0.00000
  Hartree 50953.09807 51047.24953-49112.20927    -0.00000    -0.00000    -0.00000
  E(xc)    -520.34955  -520.22087  -520.62446    -0.00000     0.00000    -0.00000
  Local  -99848.11261************101837.26969    -0.00000     0.00000    -0.00000
  n-local  -179.81245  -175.33012  -180.83042     6.82114    -0.00000     0.00000
  augment   755.25503   758.54787   757.76405    -0.00000     0.00000     0.00000
  Kinetic   738.19147   740.01358   735.29720     6.63116     0.00000    -0.00000
  Fock        0.00000     0.00000     0.00000     0.00000     0.00000     0.00000
  vdW        -3.84932    -3.90111    -2.84423    -0.00000     0.00000     0.00000
  -------------------------------------------------------------------------------------
  Total      -5.00028    -4.54128    -0.63039     0.00000     0.00000     0.00000
  in kB     -35.84994   -32.55911    -4.51962     0.00000     0.00000     0.00000
  external pressure =      -24.31 kB  Pullay stress =        0.00 kB


 VOLUME and BASIS-vectors are now :
 -----------------------------------------------------------------------------
  energy-cutoff  :      400.00
  volume of cell :      223.47
      direct lattice vectors                 reciprocal lattice vectors
     3.630000114  0.000000000  0.000000000     0.275482085  0.000000000  0.000000000
     0.000000000  2.566797733  0.000000000     0.000000000  0.389590495  0.000000000
     0.000000000  0.000000000 23.983791351     0.000000000  0.000000000  0.041694826

  length of vectors
     3.630000114  2.566797733 23.983791351     0.275482085  0.389590495  0.041694826


 FORCES acting on ions
    electron-ion (+dipol)            ewald-force                    non-local-force                 convergence-correction
 -----------------------------------------------------------------------------------------------
   -.481E-13 -.383E-12 0.459E+04   -.744E-07 0.321E-07 -.458E+04   0.000E+00 0.000E+00 -.613E+01   0.293E-10 -.126E-10 -.295E-01
   0.737E-06 -.131E-05 0.351E+04   0.134E-06 -.568E-07 -.352E+04   0.000E+00 0.000E+00 0.146E+01   -.822E-11 0.178E-11 -.526E-01
   -.683E-13 -.767E-12 0.208E+04   -.124E-06 0.518E-07 -.208E+04   0.000E+00 0.000E+00 -.101E+01   0.828E-11 -.600E-11 -.986E-01
   0.753E-06 -.132E-05 0.772E+03   0.128E-06 -.537E-07 -.772E+03   0.000E+00 0.000E+00 0.280E+00   0.318E-10 -.370E-10 -.901E-01
   -.557E-13 -.156E-11 -.582E+03   -.129E-06 0.537E-07 0.582E+03   0.000E+00 0.000E+00 -.220E+00   -.651E-10 0.303E-10 -.732E-01
   0.760E-06 -.132E-05 -.189E+04   0.124E-06 -.519E-07 0.189E+04   0.000E+00 0.000E+00 0.121E+01   -.903E-11 0.288E-10 -.535E-01
   -.697E-13 0.220E-11 -.333E+04   -.133E-06 0.572E-07 0.333E+04   0.000E+00 0.000E+00 -.138E+01   0.333E-10 -.147E-10 -.575E-01
   0.799E-06 -.134E-05 -.441E+04   0.719E-07 -.316E-07 0.441E+04   0.000E+00 0.000E+00 0.668E+01   -.551E-10 0.597E-10 -.857E-03
   0.289E-07 -.387E-08 -.376E+03   0.170E-08 -.583E-09 0.371E+03   0.000E+00 0.000E+00 0.488E+01   0.419E-12 -.457E-13 -.442E-02
   0.319E-07 -.384E-08 -.371E+03   0.458E-09 -.120E-09 0.376E+03   0.000E+00 0.000E+00 -.488E+01   -.434E-11 0.446E-12 -.117E-02
 -----------------------------------------------------------------------------------------------
   0.311E-05 -.531E-05 -.391E+00   0.318E-13 0.674E-13 -.284E-12   0.000E+00 0.000E+00 0.899E+00   -.387E-10 0.508E-10 -.461E+00
 
 
 POSITION                                       TOTAL-FORCE (eV/Angst)
 -----------------------------------------------------------------------------------
      0.00000      0.00000     -0.01131         0.000000      0.000000      0.015629
      1.81500      1.28340      1.12307         0.000000      0.000000      0.018935
      0.00000      0.00000      2.42813         0.000000      0.000000     -0.002526
      1.81500      1.28340      3.68049         0.000000      0.000000     -0.015635
      0.00000      0.00000      4.94342         0.000000      0.000000     -0.000492
      1.81500      1.28340      6.19542         0.000000      0.000000     -0.016895
      0.00000      0.00000      7.49859         0.000000      0.000000      0.010215
      1.81500      1.28340      8.62766         0.000000      0.000000     -0.012021
      3.63000      1.28340     10.63600         0.000000      0.000000      0.003416
      3.63000      1.28340     11.39476         0.000000      0.000000     -0.000625
 -----------------------------------------------------------------------------------
    total drift:                                0.000003     -0.000005      0.046313


--------------------------------------------------------------------------------------------------------



  FREE ENERGIE OF THE ION-ELECTRON SYSTEM (eV)
  ---------------------------------------------------
  free  energy   TOTEN  =       -38.54403812 eV

  energy  without entropy=      -38.53949574  energy(sigma->0) =      -38.54252400
 
 d Force = 0.5283916E-04[-0.177E-04, 0.123E-03]  d Energy = 0.7722001E-04-0.244E-04
 d Force = 0.6752985E+01[ 0.675E+01, 0.675E+01]  d Ewald  = 0.6752985E+01-0.556E-06


--------------------------------------------------------------------------------------------------------


    POTLOK:  cpu time      0.0247: real time      0.0248


--------------------------------------------------------------------------------------------------------


 stress matrix after NEB project (eV)
     -5.00028      0.00000      0.00000
      0.00000     -4.54128      0.00000
      0.00000      0.00000     -0.63039
  FORCES: max atom, RMS     0.018935    0.011833
  FORCE total and by dimension    0.037419    0.018935
  Stress total and by dimension    6.784052    5.000276
 Conjugate gradient step on ions:
 trial-energy change:   -0.000077  1 .order   -0.000053   -0.000123    0.000018
  (g-gl).g = 0.161E-03      g.g   = 0.184E-03  gl.gl    = 0.765E-03
 g(Force)  = 0.184E-03   g(Stress)= 0.000E+00 ortho     = 0.328E-04
 gamma     =   0.21103
 trial     =   0.64643
 opt step  =   0.56529  (harmonic =   0.56529) maximal distance =0.00186657
 next E    =   -38.544015   (d E  =  -0.00005)


--------------------------------------------------------------------------------------------------------


  
 reached required accuracy - stopping structural energy minimisation
     LOOP+:  cpu time      1.1207: real time      1.2008
    4ORBIT:  cpu time      0.0000: real time      0.0000

 total amount of memory used by VASP MPI-rank0    35069. kBytes
=======================================================================

   base      :      30000. kBytes
   nonl-proj :       1086. kBytes
   fftplans  :        642. kBytes
   grid      :       1621. kBytes
   one-center:         62. kBytes
   wavefun   :       1658. kBytes
 
  
  
 General timing and accounting informations for this job:
 ========================================================
  
                  Total CPU time used (sec):      103.468
                            User time (sec):      103.069
                          System time (sec):        0.399
                         Elapsed time (sec):      107.159
  
                   Maximum memory used (kb):      230124.
                   Average memory used (kb):          N/A
  
                          Minor page faults:       112517
                          Major page faults:         6603
                 Voluntary context switches:         3691
